Membrane in water
40155
    1TCq1    O1    1   0.735   4.699  10.560 -0.4798 -0.2934 -0.0142
    1TCq1    C1    2   0.795   0.073  10.622  0.4611 -0.0904 -0.0909
    1TCq1    O2    3   0.835   0.180  10.576  0.0561 -0.7103  0.4016
    1TCq1    C2    4   0.804   0.035  10.761  0.1184 -0.5139 -0.4149
    1TCq1    C3    5   0.737   4.654  10.825  0.0360  0.3765 -0.5602
    1TCq1    C4    6   0.745   4.630  10.960 -0.1472 -0.0346  0.1478
    1TCq1    C5    7   0.830   4.695  11.038  0.2613  0.3461  0.4032
    1TCq1    C6    8   0.905   0.067  10.972  0.1786 -0.4338  0.1133
    1TCq1    C7    9   0.895   0.105  10.836  0.4661 -0.3461  0.1013
    1TCq1    C8   10   0.982   0.150  11.063 -0.6395 -0.1701  0.1940
    1TCq1    O4   11   0.956   0.150  11.181 -0.7780 -0.5019 -0.2089
    1TCq1    C9   12   0.672   4.520  11.017 -0.8391 -0.2644  0.4602
    1TCq1    O5   13   0.555   4.505  10.966  0.1562 -0.0121 -0.7909
    1TCq1    O6   14   0.745   4.451  11.095  0.0933 -0.3190  0.3637
    1TCq1    H1   15   0.756   4.617  10.609  0.2096  0.0362  0.2334
    1TCq1    H2   16   0.660   4.596  10.776 -1.5875  1.7187  0.4353
    1TCq1    H3   17   0.843   4.663  11.140 -1.1380  0.7171  0.7025
    1TCq1    H4   18   0.944   0.196  10.805 -1.7567  0.8145  0.0819
    2MPD2     C   19   1.385   0.456  11.148 -0.0825  0.2176  0.3370
    2MPD2    C1   20   1.280   0.422  11.232 -0.9051 -0.4008 -0.5826
    2MPD2    C2   21   1.172   0.355  11.184  0.0074  0.1843 -0.1271
    2MPD2    C3   22   1.168   0.318  11.050  0.1461 -0.1024  0.0609
    2MPD2    C4   23   1.263   0.362  10.963 -0.1659 -0.0552 -0.0683
    2MPD2    C5   24   1.369   0.426  11.013  0.1004  0.4920  0.0709
    2MPD2     H   25   1.094   0.322  11.251  0.3566 -0.0178  0.1865
    2MPD2    H1   26   1.254   0.343  10.856 -1.2662 -0.0496  0.0181
    2MPD2    H2   27   1.473   0.507  11.186 -0.8010  0.8812  1.1214
    2MPD2    H3   28   1.460   0.440  10.956  0.7408  3.2697  1.7525
    2MPD2     N   29   1.067   0.235  10.997  0.0031 -0.0387 -0.2880
    2MPD2    H5   30   1.070   0.214  10.898 -0.1082  0.5530 -0.4165
    2MPD2    N1   31   1.284   0.445  11.370  0.6069  0.1716  0.2141
    2MPD2    H7   32   1.208   0.409  11.426  0.4894 -1.6927 -1.1240
    3TCq1    O1   33   1.118   2.014   9.785  0.1076 -0.3838 -0.3578
    3TCq1    C1   34   1.196   2.060   9.887  0.4175 -0.0893  0.5754
    3TCq1    O2   35   1.306   2.009   9.919  0.6495  0.0184 -0.0246
    3TCq1    C2   36   1.099   2.114   9.982  0.0591  0.1564  0.4722
    3TCq1    C3   37   0.997   2.192   9.938 -0.2000  0.0416 -0.0632
    3TCq1    C4   38   0.884   2.200  10.018 -0.5495 -0.7927  0.0388
    3TCq1    C5   39   0.881   2.156  10.148 -0.1912 -0.2756 -0.2478
    3TCq1    C6   40   0.995   2.083  10.183 -0.1949  0.0166 -1.0251
    3TCq1    C7   41   1.103   2.054  10.101 -0.0829 -0.3349 -0.7914
    3TCq1    C8   42   0.992   2.001  10.306  0.8029  0.0576  0.2605
    3TCq1    O4   43   1.039   1.888  10.305 -0.0721  0.0075 -0.3177
    3TCq1    C9   44   0.765   2.255   9.965  0.0653  0.0188 -0.0703
    3TCq1    O5   45   0.678   2.275  10.050 -0.3514  0.0779  0.0549
    3TCq1    O6   46   0.741   2.235   9.842  0.0825 -0.3096 -0.4106
    3TCq1    H1   47   1.033   2.061   9.796  0.4535  0.1994 -0.1680
    3TCq1    H2   48   1.001   2.239   9.840  3.0183 -0.7024 -0.2719
    3TCq1    H3   49   0.795   2.175  10.211  0.4101  0.7001  0.2845
    3TCq1    H4   50   1.180   1.989  10.141 -0.2963 -0.0216  0.1352
    4MPD2     C   51   0.896   1.968  10.803 -0.7536 -0.0708 -0.1403
    4MPD2    C1   52   0.910   2.102  10.778  0.5334 -0.7984 -0.7186
    4MPD2    C2   53   0.935   2.139  10.643  0.1879 -0.3690 -0.4187
    4MPD2    C3   54   0.939   2.044  10.542  1.0658  0.2444 -0.0542
    4MPD2    C4   55   0.930   1.911  10.575 -0.1759  0.9267  0.4419
    4MPD2    C5   56   0.901   1.873  10.710  0.2147  0.8271 -0.1138
    4MPD2     H   57   0.942   2.243  10.615 -0.6415 -0.3256 -0.4616
    4MPD2    H1   58   0.924   1.829  10.504 -1.8972  1.1946  0.2638
    4MPD2    H2   59   0.863   1.935  10.901  0.7983  0.3498  0.5228
    4MPD2    H3   60   0.880   1.770  10.736 -0.8065  1.1406  0.2977
    4MPD2     N   61   0.945   2.084  10.404 -0.6439  0.5659  0.0927
    4MPD2    H5   62   0.932   2.180  10.375 -0.8846  0.9422  1.4396
    4MPD2    N1   63   0.888   2.210  10.873 -0.8346  0.4450 -0.3055
    4MPD2    H7   64   0.913   2.304  10.846 -0.3509 -0.0295 -1.4895
    5TCq1    O1   65   1.684   3.582  11.665 -0.2607 -0.0290 -0.1751
    5TCq1    C1   66   1.644   3.456  11.703 -0.2857 -0.4417  0.2745
    5TCq1    O2   67   1.678   3.413  11.813 -0.0616  0.6554  0.5937
    5TCq1    C2   68   1.506   3.478  11.669 -0.5129  0.2911  0.4606
    5TCq1    C3   69   1.436   3.548  11.761  0.0560 -0.4044  0.9152
    5TCq1    C4   70   1.315   3.591  11.719 -0.4250  0.1123 -0.6213
    5TCq1    C5   71   1.258   3.546  11.603  0.7811 -0.6731 -0.3516
    5TCq1    C6   72   1.332   3.472  11.516  0.2730 -0.3661  0.2215
    5TCq1    C7   73   1.461   3.443  11.548 -0.5259 -0.0752 -0.2402
    5TCq1    C8   74   1.286   3.417  11.387  0.1517 -0.3041 -0.5626
    5TCq1    O4   75   1.367   3.332  11.339  0.3691  0.2016  0.5036
    5TCq1    C9   76   1.241   3.677  11.806 -0.6361 -0.7244 -0.1605
    5TCq1    O5   77   1.311   3.735  11.895  0.1971  0.0184 -0.1088
    5TCq1    O6   78   1.119   3.695  11.788 -0.0218  0.5327 -0.5097
    5TCq1    H1   79   1.617   3.627  11.608  0.0724 -1.6692 -1.8778
    5TCq1    H2   80   1.481   3.586  11.852 -0.7142 -0.3011  1.2567
    5TCq1    H3   81   1.155   3.573  11.586  0.7394 -0.1769  0.7229
    5TCq1    H4   82   1.536   3.407  11.479  0.1304 -0.3194  0.5938
    6MPD2     C   83   0.978   3.376  11.209  0.1441 -0.0007 -0.6519
    6MPD2    C1   84   1.113   3.391  11.218  0.8416 -0.1028 -0.1086
    6MPD2    C2   85   1.196   3.351  11.113  0.0620  1.4759 -0.1079
    6MPD2    C3   86   1.137   3.297  11.002  0.2393 -0.0750 -0.5459
    6MPD2    C4   87   0.998   3.292  10.992  0.5321 -0.3932 -0.3663
    6MPD2    C5   88   0.919   3.340  11.093 -0.4127  0.2452  0.6752
    6MPD2     H   89   1.304   3.349  11.113  0.0686  1.8408 -0.7041
    6MPD2    H1   90   0.944   3.276  10.900  2.4575  1.6476 -1.8614
    6MPD2    H2   91   0.906   3.416  11.279  3.1371  1.3849  1.6303
    6MPD2    H3   92   0.812   3.354  11.087 -0.0921  2.3727 -0.2118
    6MPD2     N   93   1.220   3.248  10.896  0.0748 -0.4870 -0.6718
    6MPD2    H5   94   1.321   3.253  10.904 -0.1577 -0.7237  2.4592
    6MPD2    N1   95   1.158   3.436  11.345  0.0923  0.3356 -0.1149
    6MPD2    H7   96   1.094   3.486  11.407 -0.3788 -3.2643  2.2980
    7TCq1    O1   97   3.977   3.416  12.815  0.1036 -0.7925 -0.6785
    7TCq1    C1   98   3.944   3.405  12.685  0.0158 -0.4974 -0.2403
    7TCq1    O2   99   3.883   3.491  12.627  0.0452 -0.4534 -0.2498
    7TCq1    C2  100   3.967   3.262  12.649 -0.7170 -0.5700 -0.1594
    7TCq1    C3  101   3.972   3.242  12.514 -0.6267  0.0154 -0.8116
    7TCq1    C4  102   3.970   3.112  12.474  1.0968  0.0476 -1.1309
    7TCq1    C5  103   3.976   3.005  12.566 -0.1851 -0.6963  0.2766
    7TCq1    C6  104   3.969   3.033  12.699 -0.4492  0.0831 -0.3962
    7TCq1    C7  105   3.969   3.164  12.743  0.0461 -0.7445 -0.5224
    7TCq1    C8  106   3.947   2.927  12.798  0.9454  0.1911 -0.2512
    7TCq1    O4  107   3.903   2.820  12.762  0.5214  0.3165  0.0471
    7TCq1    C9  108   3.969   3.083  12.330  0.0854  0.6547  0.4443
    7TCq1    O5  109   3.959   3.182  12.253 -0.3558 -0.2666 -0.3634
    7TCq1    O6  110   3.972   2.963  12.298  0.8346 -0.6882 -0.2763
    7TCq1    H1  111   4.032   3.349  12.861 -2.4025 -1.9060  0.7017
    7TCq1    H2  112   3.966   3.323  12.441  1.0599  1.8620  1.0904
    7TCq1    H3  113   3.973   2.904  12.529 -0.7982 -0.8828  0.8192
    7TCq1    H4  114   3.947   3.178  12.848 -0.9009 -0.2117 -0.7933
    8MPD2     C  115   4.119   2.713  13.240 -0.0295  0.8194  0.1730
    8MPD2    C1  116   4.037   2.653  13.142 -0.4831 -0.2856  1.0074
    8MPD2    C2  117   3.999   2.732  13.034  0.5289 -0.7845 -0.0612
    8MPD2    C3  118   4.033   2.866  13.028  0.1318 -0.0880  0.4809
    8MPD2    C4  119   4.106   2.922  13.133  0.6298  0.0005 -0.2312
    8MPD2    C5  120   4.154   2.839  13.231  0.2090 -0.6878  0.2268
    8MPD2     H  121   3.957   2.684  12.947 -0.1649  1.8022 -1.1394
    8MPD2    H1  122   4.139   3.025  13.133  0.5218  0.0334  0.8943
    8MPD2    H2  123   4.168   2.663  13.322 -1.1464 -1.5056 -0.5884
    8MPD2    H3  124   4.231   2.872  13.300  1.4681  1.3394 -2.1659
    8MPD2     N  125   4.001   2.951  12.923 -0.0992 -0.1821 -0.3576
    8MPD2    H5  126   4.032   3.047  12.941  0.5057 -0.1503 -1.5238
    8MPD2    N1  127   3.992   2.523  13.157 -0.1498 -0.0532 -0.4855
    8MPD2    H7  128   4.041   2.471  13.230 -1.2841  1.3591  1.2966
    9TCq1    O1  129   1.922   1.799  10.190 -0.0616  0.0314 -0.5065
    9TCq1    C1  130   1.795   1.765  10.226 -0.1506 -0.4484  0.9184
    9TCq1    O2  131   1.697   1.778  10.149  0.5998 -0.3134  0.1260
    9TCq1    C2  132   1.790   1.704  10.364  0.5234 -0.5128  0.9340
    9TCq1    C3  133   1.677   1.639  10.386 -0.5465 -1.1574 -0.1057
    9TCq1    C4  134   1.661   1.585  10.510  0.1468  0.8308 -0.2144
    9TCq1    C5  135   1.751   1.600  10.606  0.2611 -0.4049  0.2555
    9TCq1    C6  136   1.858   1.673  10.577  0.2332 -0.2149  0.4632
    9TCq1    C7  137   1.888   1.717  10.453 -0.1774 -0.4831  0.6315
    9TCq1    C8  138   1.951   1.708  10.689 -1.0505 -0.3063  0.3394
    9TCq1    O4  139   2.063   1.742  10.656  0.2192  0.2998  0.3609
    9TCq1    C9  140   1.539   1.511  10.529  0.4212 -0.6712  0.0298
    9TCq1    O5  141   1.451   1.517  10.439 -0.3781 -0.3426 -0.3243
    9TCq1    O6  142   1.534   1.448  10.640  0.1270 -0.1870  0.3365
    9TCq1    H1  143   1.987   1.774  10.258  1.0001 -0.3335 -1.6629
    9TCq1    H2  144   1.606   1.633  10.304 -0.6513  0.6119 -0.1402
    9TCq1    H3  145   1.733   1.554  10.703  1.5469 -0.9256  0.2458
    9TCq1    H4  146   1.973   1.781  10.434 -0.2212 -0.0605  1.8409
   10MPD2     C  147   2.069   1.810  10.935  0.6120  0.0265  0.5254
   10MPD2    C1  148   1.941   1.756  10.928 -0.3711  0.3605  0.3221
   10MPD2    C2  149   1.866   1.743  11.041 -0.6165  0.1633  0.2514
   10MPD2    C3  150   1.912   1.786  11.168 -0.8011  0.0708  0.4307
   10MPD2    C4  151   2.033   1.844  11.179 -0.0543  0.0248  0.2404
   10MPD2    C5  152   2.110   1.853  11.061  0.7159  0.0537  0.1457
   10MPD2     H  153   1.773   1.689  11.030 -0.9720  0.7478  0.3759
   10MPD2    H1  154   2.080   1.875  11.271 -2.6652  1.7192  0.9959
   10MPD2    H2  155   2.130   1.827  10.847 -0.3658  0.9764  0.0381
   10MPD2    H3  156   2.204   1.906  11.064 -0.5037  2.2467 -0.3583
   10MPD2     N  157   1.842   1.758  11.288  0.6335  0.1310 -0.6095
   10MPD2    H5  158   1.886   1.801  11.368  1.5424 -1.0488 -0.4715
   10MPD2    N1  159   1.889   1.711  10.809  0.0110  0.0800  0.0273
   10MPD2    H7  160   1.795   1.673  10.819  0.0503  0.1703  0.7398
   11TCq1    O1  161   2.261   2.101  13.993  0.5717  0.2760 -0.3557
   11TCq1    C1  162   2.230   1.965  14.027  0.1867  0.2443  0.7010
   11TCq1    O2  163   2.157   1.924  14.117 -0.1932  0.3756  0.6946
   11TCq1    C2  164   2.286   1.860  13.948  0.0059 -0.1807  0.3751
   11TCq1    C3  165   2.333   1.898  13.822 -0.0198  0.0771  0.6530
   11TCq1    C4  166   2.426   1.816  13.770 -0.3170 -0.8453  0.5548
   11TCq1    C5  167   2.453   1.696  13.829 -0.3665  0.9021  0.0993
   11TCq1    C6  168   2.405   1.657  13.948  0.4219  0.0580  1.5017
   11TCq1    C7  169   2.315   1.735  14.008  0.5790  0.2618  0.0894
   11TCq1    C8  170   2.379   1.513  13.958 -0.5098 -0.0190 -0.1542
   11TCq1    O4  171   2.405   1.440  13.861  0.0154  0.0885 -0.0257
   11TCq1    C9  172   2.486   1.846  13.645  1.0478  0.5106  0.1847
   11TCq1    O5  173   2.443   1.952  13.594 -0.1308 -0.0546  0.0493
   11TCq1    O6  174   2.588   1.783  13.612 -0.3384 -0.0382 -0.3889
   11TCq1    H1  175   2.316   2.117  13.913  0.0309  1.1156 -0.5593
   11TCq1    H2  176   2.296   1.984  13.768  0.8153 -2.5615 -4.1260
   11TCq1    H3  177   2.519   1.627  13.778  0.5105  0.9360  1.1835
   11TCq1    H4  178   2.273   1.708  14.104  0.8067  1.0106  0.3936
   12MPD2     C  179   2.321   1.320  14.259  0.1284 -0.1083 -0.3073
   12MPD2    C1  180   2.306   1.353  14.129  0.8863  0.4988  0.5709
   12MPD2    C2  181   2.248   1.262  14.046 -0.2894 -0.9247 -0.7577
   12MPD2    C3  182   2.211   1.132  14.079 -0.4833 -0.6735 -0.3928
   12MPD2    C4  183   2.234   1.099  14.211 -0.3560  0.1646  0.1508
   12MPD2    C5  184   2.281   1.193  14.301  0.5048  0.0336 -0.6358
   12MPD2     H  185   2.233   1.299  13.945 -1.0879 -3.2034 -1.4676
   12MPD2    H1  186   2.214   1.004  14.259  0.9237 -0.1447  0.0632
   12MPD2    H2  187   2.364   1.382  14.335  0.4276 -0.0597 -0.5175
   12MPD2    H3  188   2.304   1.164  14.403 -1.4493  0.4048 -0.0820
   12MPD2     N  189   2.167   1.039  13.985  0.0945  0.0632  0.4825
   12MPD2    H5  190   2.158   0.945  14.022  1.9417 -1.9774 -4.1712
   12MPD2    N1  191   2.350   1.479  14.089 -0.1891 -0.2326  0.0855
   12MPD2    H7  192   2.383   1.551  14.152  1.3894 -0.6233 -0.2881
   13TCq1    O1  193   2.346   1.527  10.654  0.2388  0.1302  0.1078
   13TCq1    C1  194   2.375   1.644  10.714  0.3836  0.2814  0.1541
   13TCq1    O2  195   2.452   1.727  10.670  0.6134  0.2930 -0.3391
   13TCq1    C2  196   2.372   1.611  10.859 -0.6275 -0.6540 -0.4627
   13TCq1    C3  197   2.458   1.681  10.939  0.0354 -0.2219  0.7593
   13TCq1    C4  198   2.441   1.676  11.073  0.0053 -0.8457 -0.9052
   13TCq1    C5  199   2.346   1.592  11.127  0.0031  0.7363 -0.1451
   13TCq1    C6  200   2.248   1.543  11.043  0.0193  0.8611  0.2597
   13TCq1    C7  201   2.264   1.540  10.910  0.8243 -0.1553  0.4372
   13TCq1    C8  202   2.123   1.488  11.090 -0.2375  0.3342 -0.4472
   13TCq1    O4  203   2.036   1.454  11.014 -0.3868  0.1952 -1.0238
   13TCq1    C9  204   2.525   1.756  11.151  0.3372  0.1744  0.0797
   13TCq1    O5  205   2.634   1.810  11.107 -0.0400  0.7145 -0.3496
   13TCq1    O6  206   2.485   1.771  11.267  0.0259 -0.4196  0.0952
   13TCq1    H1  207   2.335   1.454  10.718  0.5538  1.9687  2.2717
   13TCq1    H2  208   2.534   1.744  10.895 -1.5632  0.5619 -0.8678
   13TCq1    H3  209   2.338   1.607  11.234 -0.7608 -1.8648  0.1654
   13TCq1    H4  210   2.192   1.503  10.838  2.4811 -1.4736 -0.5178
   14MPD2     C  211   2.064   1.354  11.415  0.4177 -0.2082  0.0553
   14MPD2    C1  212   2.028   1.415  11.301 -1.0450  0.0754 -0.3706
   14MPD2    C2  213   1.902   1.400  11.258  0.3881  0.2513 -0.5137
   14MPD2    C3  214   1.809   1.324  11.339  0.3740  0.9614  0.0409
   14MPD2    C4  215   1.838   1.280  11.462  0.5804  0.4250  0.6688
   14MPD2    C5  216   1.971   1.290  11.490  0.1385 -0.4839  0.3876
   14MPD2     H  217   1.866   1.462  11.177 -1.3783  1.0603  0.8883
   14MPD2    H1  218   1.771   1.231  11.532 -0.4984 -0.7214 -1.1569
   14MPD2    H2  219   2.168   1.351  11.446  1.0771 -1.2392 -2.2298
   14MPD2    H3  220   1.999   1.241  11.583 -0.1318 -1.2868  0.0401
   14MPD2     N  221   1.673   1.319  11.294  0.2112 -0.1060 -0.1229
   14MPD2    H5  222   1.653   1.357  11.202 -2.5350 -0.1633  0.4526
   14MPD2    N1  223   2.131   1.472  11.225 -0.5668  0.0301  0.9911
   14MPD2    H7  224   2.223   1.475  11.266  0.0500  1.3479 -0.4797
   15TCq1    O1  225   3.061   0.761   1.554  0.3277  0.2925  0.0325
   15TCq1    C1  226   2.934   0.809   1.529 -0.1437 -0.5744  0.6243
   15TCq1    O2  227   2.875   0.895   1.593  0.1591  0.0740 -0.0878
   15TCq1    C2  228   2.865   0.724   1.443 -0.1903  0.5253  0.9744
   15TCq1    C3  229   2.731   0.724   1.451 -0.9339 -0.1481 -0.0532
   15TCq1    C4  230   2.658   0.629   1.383  0.1120 -0.1141  0.8519
   15TCq1    C5  231   2.722   0.530   1.308 -0.2453  0.3088 -0.3277
   15TCq1    C6  232   2.860   0.533   1.301 -0.2543 -0.4989 -0.1156
   15TCq1    C7  233   2.932   0.635   1.360  0.2946  0.0697  0.9656
   15TCq1    C8  234   2.930   0.434   1.219 -0.0770 -0.5694 -0.1160
   15TCq1    O4  235   3.043   0.461   1.171  0.1275  0.1389  0.8371
   15TCq1    C9  236   2.509   0.631   1.384 -0.0513  0.1884  0.2992
   15TCq1    O5  237   2.449   0.558   1.304  0.3659 -0.3875  0.1848
   15TCq1    O6  238   2.451   0.723   1.450  0.4361 -0.0827  0.0701
   15TCq1    H1  239   3.087   0.683   1.502  1.0959 -1.0257  2.3997
   15TCq1    H2  240   2.674   0.797   1.507  0.1765  1.2850 -0.7942
   15TCq1    H3  241   2.665   0.451   1.258  0.6386 -0.9182  0.6061
   15TCq1    H4  242   3.040   0.646   1.355  0.1853  1.2613  1.3131
   16MPD2     C  243   2.868   0.067   1.246  0.5685 -0.3275  0.1483
   16MPD2    C1  244   2.922   0.185   1.190  0.8976 -0.1967  0.8656
   16MPD2    C2  245   3.009   0.165   1.084  0.6226  0.2891 -0.0526
   16MPD2    C3  246   3.056   0.041   1.050 -0.1676 -0.6760 -0.3829
   16MPD2    C4  247   2.996   4.653   1.096 -0.0417  0.5026  0.6333
   16MPD2    C5  248   2.899   4.671   1.196  0.2118 -0.2234 -0.3357
   16MPD2     H  249   3.026   0.246   1.014  0.4727  0.6052  0.2791
   16MPD2    H1  250   3.025   4.552   1.070 -1.1813  0.6332 -1.1291
   16MPD2    H2  251   2.790   0.064   1.320 -0.4649 -1.0609 -0.9643
   16MPD2    H3  252   2.860   4.584   1.248 -0.8874  0.2466 -0.3710
   16MPD2     N  253   3.155   0.037   0.952  0.6589 -0.5587  0.2749
   16MPD2    H5  254   3.176   0.124   0.904  0.6843  0.7170  2.5516
   16MPD2    N1  255   2.872   0.309   1.246 -0.1742 -0.2135 -0.6425
   16MPD2    H7  256   2.804   0.302   1.322 -1.1910 -2.2523 -1.7696
   17TCq1    O1  257   1.372   1.402  10.815 -1.0743  0.2476  0.1179
   17TCq1    C1  258   1.277   1.302  10.838 -0.4130 -0.4669  0.8245
   17TCq1    O2  259   1.204   1.285  10.932 -0.2305 -0.1395 -0.0989
   17TCq1    C2  260   1.350   1.190  10.778  0.4439  0.3749  0.4059
   17TCq1    C3  261   1.389   1.200  10.649 -0.3880 -0.2247  0.0802
   17TCq1    C4  262   1.445   1.089  10.596  0.0998 -0.1336  0.1572
   17TCq1    C5  263   1.443   0.969  10.662  0.3365  0.6277  0.4464
   17TCq1    C6  264   1.400   0.964  10.795  0.0860 -0.5138  0.4012
   17TCq1    C7  265   1.345   1.073  10.851 -0.1182 -0.2216  0.1862
   17TCq1    C8  266   1.462   0.866  10.885  0.5234  0.0124 -0.7268
   17TCq1    O4  267   1.422   0.838  10.998 -0.3072 -0.5110 -0.1064
   17TCq1    C9  268   1.483   1.087  10.455 -0.1299 -0.6145 -0.8172
   17TCq1    O5  269   1.520   0.977  10.407 -0.0039 -0.3894 -0.1172
   17TCq1    O6  270   1.495   1.196  10.400  0.3081  0.6318  0.1574
   17TCq1    H1  271   1.429   1.386  10.737 -1.6018  0.8012 -0.3836
   17TCq1    H2  272   1.374   1.285  10.585  0.1550  0.0195  0.2720
   17TCq1    H3  273   1.477   0.885  10.601  1.9418  1.0796  0.7236
   17TCq1    H4  274   1.315   1.073  10.955  0.0287  2.2213  0.2348
   18MPD2     C  275   1.647   0.650  10.975 -0.4672  0.2985 -0.4730
   18MPD2    C1  276   1.665   0.727  10.862  0.0608 -0.6265 -0.5507
   18MPD2    C2  277   1.793   0.725  10.804  0.3618  0.9055  0.7902
   18MPD2    C3  278   1.889   0.635  10.847  0.7139 -0.4281 -0.3213
   18MPD2    C4  279   1.863   0.553  10.952  0.1205  0.0852 -0.0735
   18MPD2    C5  280   1.743   0.560  11.016 -0.0395  0.1583 -0.3096
   18MPD2     H  281   1.808   0.795  10.722  0.7098 -0.4050 -0.2685
   18MPD2    H1  282   1.945   0.489  10.984 -1.8498 -2.7573 -0.7374
   18MPD2    H2  283   1.558   0.657  11.036  1.9020 -1.8625  3.2130
   18MPD2    H3  284   1.713   0.501  11.102  2.9464 -1.0200 -0.0498
   18MPD2     N  285   2.016   0.620  10.785 -0.2501  0.5194  0.5716
   18MPD2    H5  286   2.089   0.579  10.844  1.2194  0.5971 -1.1859
   18MPD2    N1  287   1.572   0.820  10.813  0.3163  0.2759 -0.1631
   18MPD2    H7  288   1.590   0.853  10.719 -2.4633  0.0499 -0.7495
   19TMC2    C1  289   3.651   0.665  13.396 -0.2035 -0.2961 -0.1520
   19TMC2    C2  290   3.657   0.591  13.281 -0.2456 -0.4625  0.2253
   19TMC2    C3  291   3.550   0.506  13.256 -0.3851 -0.8707 -0.4118
   19TMC2    C4  292   3.542   0.661  13.482 -0.0735  0.4737 -0.6404
   19TMC2    C5  293   3.441   0.581  13.455  1.0995  0.0178 -0.0209
   19TMC2    C6  294   3.452   0.491  13.348 -0.2612  1.2529 -0.0045
   19TMC2     C  295   3.767   0.745  13.427 -0.0294 -0.4765  0.6475
   19TMC2     O  296   3.836   0.774  13.331  0.4558  0.0818 -0.0152
   19TMC2     H  297   3.754   0.591  13.231  0.3760  0.0201  1.4250
   19TMC2    H1  298   3.535   0.726  13.569 -1.7732  0.1847 -0.5605
   19TMC2    H2  299   3.380   0.412  13.329  1.4999 -0.0611 -1.2786
   19TMC2    C7  300   3.365   0.539  13.568  0.4040  0.6638  0.3981
   19TMC2    C8  301   3.563   0.394  13.168  0.4209  0.0458  0.1249
   19TMC2    O1  302   3.243   0.534  13.555 -0.0503 -0.7138  0.2515
   19TMC2    O2  303   3.556   0.279  13.209 -0.1123 -0.2334  0.8066
   19TMC2    O5  304   3.667   0.426  13.077  0.0959 -1.3585 -0.6373
   19TMC2    H5  305   3.655   0.522  13.065  1.2267 -1.4158 -2.1721
   20MPD2     C  306   3.954   0.934  13.565 -0.9346  0.1025 -0.7202
   20MPD2    C1  307   3.867   0.858  13.627 -0.1644 -0.1009  0.7034
   20MPD2    C2  308   3.858   0.860  13.762 -0.2489  0.9815  0.2000
   20MPD2    C3  309   3.930   0.937  13.842  0.3238 -0.9743 -0.0423
   20MPD2    C4  310   4.013   1.024  13.777  0.8047  0.2307  0.2394
   20MPD2    C5  311   4.032   1.012  13.644 -0.1322  0.5551 -0.2875
   20MPD2     H  312   3.778   0.802  13.807  1.3759 -0.4651  1.2009
   20MPD2    H1  313   4.075   1.095  13.831 -1.2956  1.4430  1.0775
   20MPD2    H2  314   3.967   0.936  13.457  0.1082 -1.6714 -0.6273
   20MPD2    H3  315   4.096   1.087  13.597 -0.4257 -0.5844 -2.5225
   20MPD2     N  316   3.914   0.944  13.986  0.2281 -0.2198 -0.2513
   20MPD2    H5  317   3.974   1.011  14.034  0.9731 -1.2132  0.1904
   20MPD2    N1  318   3.771   0.783  13.559  0.7603 -0.1259 -0.7739
   20MPD2    H7  319   3.707   0.727  13.616  0.7407  1.7466  1.0653
   21MPD2     C  320   1.170   1.559  14.316 -0.3614  0.4464  0.2603
   21MPD2    C1  321   1.229   1.436  14.339  0.5322 -0.3194  0.4592
   21MPD2    C2  322   1.174   1.356  14.437 -0.9136  0.0050  0.4063
   21MPD2    C3  323   1.047   1.386  14.495 -0.2553  0.3274  0.8834
   21MPD2    C4  324   0.987   1.506  14.470 -0.4734 -0.1885  1.1496
   21MPD2    C5  325   1.049   1.587  14.378  0.3477  0.3169 -0.4096
   21MPD2     H  326   1.216   1.258  14.459  1.9288  2.1525  4.6330
   21MPD2    H1  327   0.890   1.536  14.507 -1.7010 -0.1359 -2.0965
   21MPD2    H2  328   1.204   1.625  14.236  0.6706  0.0529  0.3876
   21MPD2    H3  329   0.995   1.675  14.345 -1.8608  0.2192  2.8733
   21MPD2     N  330   0.975   1.301  14.583 -0.2435  0.0825 -0.3858
   21MPD2    H5  331   0.880   1.332  14.600  0.3145  2.4762 -1.6282
   21MPD2    N1  332   1.340   1.391  14.270 -0.0843  0.1737  0.6459
   21MPD2    H7  333   1.393   1.312  14.307  2.7224  0.1438 -3.3952
   22TCq2    C1  334   1.023   1.182  14.637 -0.3245  0.5074 -0.2950
   22TCq2    O2  335   1.142   1.144  14.647 -0.0610 -0.3402  0.7958
   22TCq2    C2  336   0.926   1.089  14.689  0.1663  0.4686  0.0107
   22TCq2    C3  337   0.979   0.971  14.739 -0.4484 -0.0364  0.6094
   22TCq2    C4  338   0.887   0.878  14.788 -0.2042  0.3109 -0.1063
   22TCq2    C5  339   0.752   0.912  14.795 -0.1634 -0.6927  0.4561
   22TCq2    C6  340   0.706   1.037  14.754  0.3042 -0.0058  0.6696
   22TCq2    C7  341   0.791   1.125  14.699 -0.6114  0.1061  0.1359
   22TCq2    C8  342   0.558   1.067  14.751  0.0215 -0.5953  0.1771
   22TCq2    O4  343   0.492   1.011  14.834 -0.8843 -0.9136  0.9462
   22TCq2    C9  344   0.923   0.749  14.842  0.4858  0.5572  0.2400
   22TCq2    O5  345   1.045   0.715  14.855 -0.0485 -0.0321  0.2818
   22TCq2    O6  346   0.828   0.675  14.877 -0.1297 -0.3514  0.0429
   22TCq2    H2  347   1.083   0.945  14.726 -0.3058  1.1703 -0.7171
   22TCq2    H3  348   0.686   0.839  14.840 -1.6604  0.2766 -0.1423
   22TCq2    H4  349   0.752   1.224  14.681 -1.4858 -0.3095 -0.2845
   23MPD2     C  350   2.164   2.483  14.548 -0.3358 -0.8468  0.1381
   23MPD2    C1  351   2.102   2.392  14.636 -0.2740  0.3831  0.2137
   23MPD2    C2  352   1.976   2.345  14.614  0.1185  0.2330  0.2489
   23MPD2    C3  353   1.895   2.401  14.515 -0.3501  0.2040  0.2514
   23MPD2    C4  354   1.957   2.493  14.431  0.2155  0.7959  0.1662
   23MPD2    C5  355   2.087   2.532  14.446 -0.8468 -0.3861 -0.5003
   23MPD2     H  356   1.941   2.267  14.681  0.1553 -0.3933 -0.4603
   23MPD2    H1  357   1.899   2.528  14.346  0.6396  1.2845  0.0870
   23MPD2    H2  358   2.268   2.509  14.559 -0.7509  0.2977  1.2987
   23MPD2    H3  359   2.131   2.601  14.374 -0.9417  0.8678  0.6578
   23MPD2     N  360   1.756   2.375  14.501 -0.1132 -0.6684 -0.5147
   23MPD2    H5  361   1.709   2.436  14.434 -0.8846  1.2162  1.7263
   23MPD2    N1  362   2.169   2.339  14.751  0.5251  0.1793 -0.2236
   23MPD2    H7  363   2.118   2.270  14.806  0.7655 -0.5594 -0.9156
   24TCq2    C1  364   1.689   2.270  14.558  0.1946  0.6282  0.0438
   24TCq2    O2  365   1.742   2.166  14.591  0.0266 -0.2344 -0.1770
   24TCq2    C2  366   1.541   2.288  14.556 -0.2893 -0.3357  0.1453
   24TCq2    C3  367   1.486   2.416  14.544  0.4314  0.3871  0.5351
   24TCq2    C4  368   1.365   2.428  14.479  0.8237  0.2550 -0.2896
   24TCq2    C5  369   1.290   2.320  14.457 -0.3201 -0.1703  0.5157
   24TCq2    C6  370   1.333   2.192  14.493 -0.0333  0.1609  0.2915
   24TCq2    C7  371   1.460   2.179  14.539  0.5679  0.6970  0.6651
   24TCq2    C8  372   1.261   2.079  14.450  0.2006 -0.0464 -0.6469
   24TCq2    O4  373   1.324   1.979  14.416 -0.2417  0.4160  0.1620
   24TCq2    C9  374   1.316   2.552  14.440  0.5055 -0.2441 -0.2717
   24TCq2    O5  375   1.406   2.629  14.404 -0.1970  0.2907  0.1508
   24TCq2    O6  376   1.197   2.562  14.406  0.1460 -0.0176 -0.1506
   24TCq2    H2  377   1.549   2.501  14.566  1.3982 -0.0034 -0.7414
   24TCq2    H3  378   1.205   2.337  14.392  1.1432  1.3314 -1.0018
   24TCq2    H4  379   1.495   2.077  14.548 -1.9867 -0.1864  0.7079
   25TMC2    C1  380   0.997   4.719  11.547  0.1296  0.3897  0.6825
   25TMC2    C2  381   1.002   0.125  11.518 -0.5012  0.0270  0.5797
   25TMC2    C3  382   0.902   0.206  11.562 -0.1264  0.2011 -0.2844
   25TMC2    C4  383   0.892   4.660  11.619  0.3267 -0.0060 -0.2453
   25TMC2    C5  384   0.796   0.020  11.661  0.0369  0.1269  0.5952
   25TMC2    C6  385   0.806   0.156  11.639  0.3892  0.4119  0.0497
   25TMC2     C  386   1.095   4.636  11.478  1.3777 -0.3098  0.2269
   25TMC2     O  387   1.197   4.700  11.447 -0.3157  0.1864  0.0837
   25TMC2     H  388   1.075   0.159  11.446  0.5900 -0.2129  1.5749
   25TMC2    H1  389   0.901   4.557  11.652 -1.8891 -0.2109 -0.2281
   25TMC2    H2  390   0.735   0.220  11.690 -0.3052  0.1204 -0.5343
   25TMC2    C7  391   0.688   4.696  11.739  0.4594 -0.6709  0.1312
   25TMC2    C8  392   0.895   0.338  11.502  0.0029  0.2773 -0.8605
   25TMC2    O1  393   0.701   4.592  11.800 -0.6126 -0.3171 -0.3989
   25TMC2    O2  394   0.995   0.406  11.496  0.0678 -0.1162 -0.4621
   25TMC2    O5  395   0.762   0.373  11.517  0.5679 -0.2690  0.1501
   25TMC2    H5  396   0.716   0.286  11.512  0.5065 -0.2144 -0.2430
   26MPD2     C  397   1.252   4.213  11.220  0.7043 -0.0143 -0.0829
   26MPD2    C1  398   1.123   4.191  11.263  0.0402  0.9431 -0.5695
   26MPD2    C2  399   1.063   4.291  11.341  0.1251 -0.5297 -0.9850
   26MPD2    C3  400   1.124   4.406  11.383  0.1461  0.2983  0.8735
   26MPD2    C4  401   1.250   4.427  11.336 -0.5190 -0.1382 -0.8936
   26MPD2    C5  402   1.319   4.332  11.261  0.9910  0.3799  0.4056
   26MPD2     H  403   0.959   4.279  11.368  0.9466 -1.7435  1.6738
   26MPD2    H1  404   1.306   4.517  11.361 -1.6833  0.2731  0.2491
   26MPD2    H2  405   1.303   4.136  11.162  2.3469  2.1214 -1.4732
   26MPD2    H3  406   1.420   4.347  11.225  0.3737 -1.0127 -1.9137
   26MPD2     N  407   1.051   4.506  11.456 -0.5745 -0.1710 -0.1373
   26MPD2    H5  408   0.960   4.476  11.487 -0.4756 -1.6216 -1.2607
   26MPD2    N1  409   1.061   4.073  11.214 -0.3434  0.6245 -0.1994
   26MPD2    H7  410   1.104   4.013  11.144 -0.9425 -0.6785  0.5481
   27TMC2    C1  411   4.657   1.444  11.690 -0.4551  1.0057 -0.4340
   27TMC2    C2  412   4.670   1.399  11.562 -0.0204 -0.1674 -0.3188
   27TMC2    C3  413   4.701   1.501  11.479 -0.1043  0.7666  0.7629
   27TMC2    C4  414   4.702   1.562  11.739  0.0057  0.2754 -0.5303
   27TMC2    C5  415   0.023   1.647  11.650  0.2721  0.8392  0.1570
   27TMC2    C6  416   0.022   1.626  11.513 -0.2043 -0.7159  0.4369
   27TMC2     C  417   4.579   1.358  11.771 -0.4030  0.0107  0.7072
   27TMC2     O  418   4.538   1.261  11.706 -0.1327  0.6362  0.0133
   27TMC2     H  419   4.626   1.313  11.513  0.5750 -0.7622  0.1862
   27TMC2    H1  420   4.659   1.610  11.827  1.0126  1.5572 -0.7317
   27TMC2    H2  421   0.054   1.699  11.440  0.2808  0.5050  1.8480
   27TMC2    C7  422   0.009   1.781  11.702  1.0943  0.1995  0.0038
   27TMC2    C8  423   4.661   1.483  11.344  0.6355 -0.4981 -0.5079
   27TMC2    O1  424   0.072   1.803  11.806  0.2981 -0.1945  0.3474
   27TMC2    O2  425   4.639   1.582  11.271  0.0919 -1.0391  0.2155
   27TMC2    O5  426   4.714   1.363  11.293  0.1445  0.0891  0.4998
   27TMC2    H5  427   0.000   1.293  11.361 -0.6371 -2.1961 -1.7056
   28MPD2     C  428   4.293   1.181  12.164 -0.0517 -0.3336 -0.7759
   28MPD2    C1  429   4.348   1.306  12.197 -0.4800 -0.5682  0.2637
   28MPD2    C2  430   4.428   1.372  12.106 -0.0049 -0.7263 -0.0080
   28MPD2    C3  431   4.456   1.316  11.986  0.3857 -0.5763  0.2825
   28MPD2    C4  432   4.402   1.192  11.956  0.9386  0.4870 -0.2752
   28MPD2    C5  433   4.314   1.123  12.044 -0.3975 -0.1365  0.4600
   28MPD2     H  434   4.463   1.474  12.115 -0.5960 -0.4182 -1.1640
   28MPD2    H1  435   4.452   1.139  11.875  0.6532  1.2103 -0.9269
   28MPD2    H2  436   4.233   1.122  12.232 -0.4930 -0.4965 -1.3065
   28MPD2    H3  437   4.276   1.026  12.015 -0.6457  0.0813  0.0623
   28MPD2     N  438   4.536   1.391  11.898  0.1442  0.2011 -0.4763
   28MPD2    H5  439   4.564   1.478  11.942  3.3939 -1.1367  0.1292
   28MPD2    N1  440   4.304   1.361  12.319 -0.3240  0.2888 -0.4206
   28MPD2    H7  441   4.220   1.316  12.356  0.7728 -1.1359  0.3301
   29MPD2     C  442   4.192   3.943  14.069  0.0762  0.0112 -0.7441
   29MPD2    C1  443   4.296   3.935  14.153  0.4398  0.0165 -0.5215
   29MPD2    C2  444   4.369   4.048  14.180  0.5475  0.1386  0.0283
   29MPD2    C3  445   4.352   4.166  14.111  0.0551 -0.3670 -0.2980
   29MPD2    C4  446   4.254   4.173  14.016  0.1401  0.2090  0.1816
   29MPD2    C5  447   4.175   4.059  13.997 -0.4480  0.8236 -0.0816
   29MPD2     H  448   4.458   4.046  14.243  0.5906  0.3477 -0.0261
   29MPD2    H1  449   4.236   4.264  13.959  0.3619  0.5920  0.7233
   29MPD2    H2  450   4.126   3.858  14.063 -1.2164  1.0365 -0.8992
   29MPD2    H3  451   4.097   4.059  13.921 -0.4971  0.1717 -0.0354
   29MPD2     N  452   4.440   4.270  14.130 -0.9834 -0.0510 -0.4719
   29MPD2    H5  453   4.518   4.242  14.188 -1.6710 -1.1559 -0.0670
   29MPD2    N1  454   4.354   3.817  14.205  0.2821  0.2413 -0.0648
   29MPD2    H7  455   4.435   3.837  14.262  0.4637 -1.0599  0.1221
   30TCq2    C1  456   4.457   4.381  14.054 -0.4604 -0.6616 -0.7757
   30TCq2    O2  457   4.389   4.428  13.960 -0.0677 -0.2264  0.2548
   30TCq2    C2  458   4.572   4.459  14.101  0.0657  0.1182  0.2951
   30TCq2    C3  459   4.613   4.431  14.231  0.5098  0.1887 -0.4896
   30TCq2    C4  460   0.013   4.491  14.255 -0.4525 -0.1881 -0.8562
   30TCq2    C5  461   0.078   4.578  14.168 -0.4137 -0.6611  0.7871
   30TCq2    C6  462   0.020   4.612  14.049  0.0112 -0.0410 -0.7189
   30TCq2    C7  463   4.623   4.553  14.016 -0.2169  0.3003 -0.1939
   30TCq2    C8  464   0.113   4.666  13.942  0.0708 -0.0316  0.5691
   30TCq2    O4  465   0.094   4.659  13.825 -0.1938 -0.4650 -0.5775
   30TCq2    C9  466   0.080   4.450  14.375 -1.0285  0.5482  0.7809
   30TCq2    O5  467   0.204   4.481  14.378 -0.1103 -0.4581 -0.1814
   30TCq2    O6  468   0.019   4.363  14.441  0.4986 -0.3903  0.2744
   30TCq2    H2  469   4.577   4.354  14.298 -1.7332  1.7904  0.1258
   30TCq2    H3  470   0.183   4.595  14.190  0.4848 -2.7616 -1.8741
   30TCq2    H4  471   4.574   4.578  13.923 -2.1833  1.5416  1.1923
   31MPD2     C  472   2.597   3.020  14.930  0.3336  0.6720 -0.2654
   31MPD2    C1  473   2.476   3.055  14.881  0.2611  0.3928  0.3625
   31MPD2    C2  474   2.362   3.017  14.954 -0.1287 -0.2169  0.2490
   31MPD2    C3  475   2.365   2.951  15.073  0.4951 -0.4800  0.4302
   31MPD2    C4  476   2.485   2.908  15.109 -0.5969 -0.3305 -0.4401
   31MPD2    C5  477   2.596   2.947  15.046 -0.1926  0.2364 -0.1501
   31MPD2     H  478   2.265   3.027  14.907  0.7409 -2.8146 -2.1079
   31MPD2    H1  479   2.502   2.848  15.198 -1.9162 -2.2599 -1.4904
   31MPD2    H2  480   2.691   3.047  14.882  0.9236 -0.0658  0.4811
   31MPD2    H3  481   2.694   2.934  15.090 -0.0987  0.9490 -0.1615
   31MPD2     N  482   2.254   2.908  15.156 -0.2503 -0.2819  0.5332
   31MPD2    H5  483   2.283   2.845  15.230  0.8288 -0.1357  0.2432
   31MPD2    N1  484   2.475   3.150  14.772 -0.6236  0.2138 -0.1444
   31MPD2    H7  485   2.562   3.188  14.735 -0.6813 -1.4453 -2.0069
   32TCq2    C1  486   2.139   2.975  15.154  0.1806  0.0390 -0.6688
   32TCq2    O2  487   2.109   3.075  15.092 -0.0504  0.1342 -0.4511
   32TCq2    C2  488   2.057   2.938  15.263  0.0117 -0.2114  0.1355
   32TCq2    C3  489   1.927   2.985  15.273  0.3913  0.2808  0.1135
   32TCq2    C4  490   1.863   2.992  15.396  0.0960  0.3259 -0.1267
   32TCq2    C5  491   1.923   2.964  15.517  0.2868  0.1080 -0.4473
   32TCq2    C6  492   2.051   2.909  15.500 -0.4341 -0.0165 -0.1237
   32TCq2    C7  493   2.117   2.895  15.382  0.2758 -0.0803  0.1254
   32TCq2    C8  494   2.126   2.876  15.613  0.3338  0.5963  0.5314
   32TCq2    O4  495   2.208   2.785  15.606  0.5170  0.4487  0.0401
   32TCq2    C9  496   1.725   3.026  15.390  0.0731 -0.4233  0.1041
   32TCq2    O5  497   1.664   3.039  15.504  0.3474  0.1031 -0.4400
   32TCq2    O6  498   1.674   3.031  15.274  0.1324 -0.8647  0.2990
   32TCq2    H2  499   1.879   3.014  15.180 -2.8260  0.1730  1.7260
   32TCq2    H3  500   1.870   2.961  15.611  2.2573  1.7104  0.7184
   32TCq2    H4  501   2.221   2.863  15.385 -0.3431 -2.0714  0.8245
   33MPD2     C  502   2.703   0.939  10.216  0.0803 -0.3274 -0.0361
   33MPD2    C1  503   2.570   0.952  10.261  0.7480  0.1609 -0.5107
   33MPD2    C2  504   2.495   1.053  10.196  0.2687 -0.1065 -0.2300
   33MPD2    C3  505   2.544   1.130  10.096  0.0386  0.0184  0.3185
   33MPD2    C4  506   2.671   1.102  10.045 -0.3061 -0.3585  0.4274
   33MPD2    C5  507   2.746   1.006  10.104  0.5170  0.3000  0.1638
   33MPD2     H  508   2.389   1.052  10.220 -0.3684  2.9644 -3.1013
   33MPD2    H1  509   2.703   1.138   9.948  0.8732  1.6946  1.5876
   33MPD2    H2  510   2.772   0.867  10.257  4.2460  3.9014  0.3842
   33MPD2    H3  511   2.845   0.987  10.065  0.3200 -0.2642 -0.0771
   33MPD2     N  512   2.471   1.231  10.029  0.6467  0.2613  0.1163
   33MPD2    H5  513   2.525   1.284   9.962 -1.2495  1.1781 -0.7004
   33MPD2    N1  514   2.523   0.867  10.363 -0.0678 -0.2609 -0.2464
   33MPD2    H7  515   2.590   0.808  10.411 -0.4008 -0.8060 -0.4537
   34TCq2    C1  516   2.333   1.260  10.055 -0.5345 -0.3648  0.1154
   34TCq2    O2  517   2.246   1.194  10.111  0.0961 -1.0254 -0.0541
   34TCq2    C2  518   2.283   1.380   9.981  0.0243 -0.5098  0.4183
   34TCq2    C3  519   2.148   1.402   9.978  0.6621  1.0543  0.2822
   34TCq2    C4  520   2.105   1.522   9.925  0.5341  0.0302  0.3985
   34TCq2    C5  521   2.185   1.612   9.869 -0.0362 -0.7174  0.2829
   34TCq2    C6  522   2.322   1.578   9.864 -0.6524  0.0398 -0.8267
   34TCq2    C7  523   2.380   1.464   9.925  0.2140  0.1096 -0.0142
   34TCq2    C8  524   2.419   1.662   9.789  0.2997  0.6768  0.7076
   34TCq2    O4  525   2.533   1.626   9.798 -0.0190  0.0614  0.4495
   34TCq2    C9  526   1.960   1.544   9.921 -0.4563 -0.2306  0.1090
   34TCq2    O5  527   1.916   1.649   9.859 -0.1586  0.4938  0.3256
   34TCq2    O6  528   1.893   1.447   9.971  0.3605  0.0258  0.2907
   34TCq2    H2  529   2.076   1.329  10.014  1.1084  0.5982  0.2420
   34TCq2    H3  530   2.144   1.697   9.816 -0.5534 -1.4991 -0.5647
   34TCq2    H4  531   2.485   1.455   9.948  0.2352 -1.4489 -0.7262
   35MPD2     C  532   3.955   2.099  11.701  0.1340  0.2952  0.6890
   35MPD2    C1  533   3.892   1.979  11.727 -0.0608 -0.4041  0.1510
   35MPD2    C2  534   3.758   1.961  11.689  0.7841 -0.0370 -0.0430
   35MPD2    C3  535   3.694   2.061  11.613  0.3939 -0.1794  0.3262
   35MPD2    C4  536   3.764   2.176  11.574 -0.4941  0.7698  0.6849
   35MPD2    C5  537   3.889   2.199  11.625 -0.3327  0.8360  0.1235
   35MPD2     H  538   3.704   1.868  11.704 -0.9886  1.4011  2.4683
   35MPD2    H1  539   3.719   2.253  11.513  0.5347  1.3654  0.6949
   35MPD2    H2  540   4.058   2.122  11.725  0.6906 -2.4746  0.9415
   35MPD2    H3  541   3.931   2.295  11.596  2.8768 -0.9873 -1.2940
   35MPD2     N  542   3.566   2.042  11.568  0.1333  0.8814 -0.3057
   35MPD2    H5  543   3.519   1.964  11.614  1.9092  0.1611  0.2525
   35MPD2    N1  544   3.968   1.896  11.815  0.2307 -0.2152  0.0751
   35MPD2    H7  545   4.066   1.915  11.831 -0.2725  2.2870  0.1516
   36TCq2    C1  546   3.499   2.118  11.474 -0.7367  0.5592 -0.4831
   36TCq2    O2  547   3.531   2.194  11.385  0.3158 -0.6924  0.3093
   36TCq2    C2  548   3.360   2.078  11.479 -0.4060 -0.3385  0.1417
   36TCq2    C3  549   3.288   2.082  11.361  0.1294 -0.4692 -0.1128
   36TCq2    C4  550   3.155   2.053  11.362  0.0417 -0.2888 -0.0738
   36TCq2    C5  551   3.098   2.039  11.476  0.1161  0.0818  0.6968
   36TCq2    C6  552   3.165   2.043  11.596  0.5239  0.2736 -0.2705
   36TCq2    C7  553   3.298   2.057  11.598 -0.8064 -0.0547  0.4988
   36TCq2    C8  554   3.097   1.982  11.709  0.5269  0.2057  0.1307
   36TCq2    O4  555   2.991   1.925  11.687 -0.1238  0.0031  0.0690
   36TCq2    C9  556   3.083   2.019  11.244  0.3999  0.1538  0.1894
   36TCq2    O5  557   3.142   2.027  11.133 -0.5040  0.2146 -0.1389
   36TCq2    O6  558   2.977   1.949  11.257  1.0739 -0.0850  0.3623
   36TCq2    H2  559   3.348   2.084  11.271  0.4378  0.2815  0.1096
   36TCq2    H3  560   2.992   2.023  11.466 -0.3506  1.8113  2.9236
   36TCq2    H4  561   3.360   2.059  11.687 -0.3581  3.0843  0.1304
   37TMC2    C1  562   1.427   2.402  11.453  0.2230 -0.9081  0.2819
   37TMC2    C2  563   1.420   2.488  11.350  0.5746 -0.5633 -0.8480
   37TMC2    C3  564   1.538   2.546  11.310  0.1688 -0.5862 -0.5330
   37TMC2    C4  565   1.542   2.354  11.512 -0.2765  0.5398 -1.6537
   37TMC2    C5  566   1.660   2.403  11.461 -0.4600  0.1378 -0.2986
   37TMC2    C6  567   1.661   2.500  11.362  0.5140 -0.2714  0.6522
   37TMC2     C  568   1.303   2.368  11.520 -0.3663  1.0790  0.1400
   37TMC2     O  569   1.199   2.376  11.460 -0.0844 -0.0296  0.1613
   37TMC2     H  570   1.328   2.519  11.303  0.6492  0.5936 -0.2243
   37TMC2    H1  571   1.544   2.272  11.582  1.0520  2.8286  1.0163
   37TMC2    H2  572   1.747   2.563  11.338  0.0507 -0.4860 -1.6008
   37TMC2    C7  573   1.780   2.374  11.540 -0.5613  0.1908  0.9765
   37TMC2    C8  574   1.536   2.607  11.171  1.0077  0.7188  0.0683
   37TMC2    O1  575   1.758   2.350  11.658  0.0370  0.6620 -0.1052
   37TMC2    O2  576   1.446   2.684  11.138 -0.1718  0.0589  0.1662
   37TMC2    O5  577   1.611   2.538  11.083 -0.1848 -0.1960  0.1319
   37TMC2    H5  578   1.660   2.471  11.135 -0.0226 -1.1370 -1.2361
   38MPD2     C  579   1.015   2.199  11.924 -0.1837  0.8019  0.3469
   38MPD2    C1  580   1.146   2.180  11.948 -0.5785 -0.1261  0.4973
   38MPD2    C2  581   1.246   2.214  11.852  0.4075  0.5527 -1.3048
   38MPD2    C3  582   1.212   2.272  11.735 -0.4618  0.2372  0.7057
   38MPD2    C4  583   1.073   2.302  11.717  0.5819 -0.4390  0.3105
   38MPD2    C5  584   0.980   2.259  11.805 -0.2171  0.0791 -0.7199
   38MPD2     H  585   1.348   2.182  11.875 -0.0608  0.8828  1.2095
   38MPD2    H1  586   1.045   2.339  11.619 -2.2951  0.7134  1.5628
   38MPD2    H2  587   0.932   2.178  11.991 -1.9197  1.2871 -1.6187
   38MPD2    H3  588   0.877   2.287  11.783 -0.6793 -0.8863  0.1955
   38MPD2     N  589   1.316   2.308  11.643 -0.3448 -0.3497 -0.2501
   38MPD2    H5  590   1.408   2.284  11.680 -0.2970  0.2295  0.0057
   38MPD2    N1  591   1.201   2.135  12.064  0.0466 -0.0817  0.5322
   38MPD2    H7  592   1.300   2.153  12.077  0.3397 -2.3117  1.4961
   39MPD2     C  593   4.002   4.582   1.302  0.4016 -0.9791 -0.7634
   39MPD2    C1  594   3.885   4.644   1.341  0.0769  0.2690 -0.2861
   39MPD2    C2  595   3.762   4.585   1.304  0.0145 -0.0351 -0.9387
   39MPD2    C3  596   3.753   4.461   1.239 -0.0775  0.6798  0.5010
   39MPD2    C4  597   3.872   4.418   1.185  0.3257 -0.5144 -0.1481
   39MPD2    C5  598   3.993   4.475   1.219  0.4511  0.1776  0.3810
   39MPD2     H  599   3.672   4.624   1.351  0.6877  0.4769 -0.0629
   39MPD2    H1  600   3.878   4.320   1.139  2.3040 -0.4446 -0.0228
   39MPD2    H2  601   4.096   4.633   1.321 -0.1677  0.5947 -2.1371
   39MPD2    H3  602   4.086   4.444   1.171 -0.4798 -1.5876 -0.2511
   39MPD2     N  603   3.640   4.388   1.201  0.4813  0.4775 -0.4996
   39MPD2    H5  604   3.646   4.297   1.158  0.1696 -0.2196  0.9223
   39MPD2    N1  605   3.903   0.043   1.405  0.5773  0.2206 -0.1510
   39MPD2    H7  606   3.999   0.075   1.397  2.0748 -3.7760  1.6818
   40TCq2    C1  607   3.811   0.123   1.459 -0.8158 -0.2313  0.2599
   40TCq2    O2  608   3.691   0.115   1.456 -0.2801 -0.4604 -0.3690
   40TCq2    C2  609   3.874   0.235   1.531 -0.1705  0.0301 -0.2561
   40TCq2    C3  610   3.813   0.359   1.547  0.1836 -0.0356 -0.6551
   40TCq2    C4  611   3.891   0.463   1.580  0.2646  0.0535  0.2839
   40TCq2    C5  612   4.023   0.441   1.621 -0.5953 -0.1110 -0.1543
   40TCq2    C6  613   4.069   0.315   1.633 -0.6536  0.2656  0.0549
   40TCq2    C7  614   4.006   0.214   1.572  0.4470  0.3191  0.1388
   40TCq2    C8  615   4.213   0.300   1.648  0.8967  0.0480  0.0603
   40TCq2    O4  616   4.236   0.188   1.683 -0.3284 -0.2232 -0.0362
   40TCq2    C9  617   3.830   0.598   1.584 -0.0983  0.3121 -0.1969
   40TCq2    O5  618   3.900   0.693   1.631  0.7758 -0.4462 -0.0491
   40TCq2    O6  619   3.706   0.600   1.563  0.9725 -0.7076 -0.0697
   40TCq2    H2  620   3.709   0.376   1.519 -0.3975  0.1290  1.6025
   40TCq2    H3  621   4.084   0.528   1.644  2.7910 -2.4000 -0.6565
   40TCq2    H4  622   4.040   0.114   1.595 -1.6163 -0.3464  0.2872
   41TMC2    C1  623   3.500   2.651  13.208  0.3111 -0.0707  0.0818
   41TMC2    C2  624   3.575   2.629  13.319 -0.2871  0.0075  0.3449
   41TMC2    C3  625   3.680   2.712  13.345  0.5415  0.1825  0.0686
   41TMC2    C4  626   3.528   2.755  13.122  0.5405  0.8851  0.4621
   41TMC2    C5  627   3.641   2.834  13.149  0.8709 -0.5682  0.5561
   41TMC2    C6  628   3.716   2.817  13.264 -0.5469 -0.3888 -0.0620
   41TMC2     C  629   3.382   2.574  13.188  0.0740  0.9819 -0.6635
   41TMC2     O  630   3.351   2.563  13.073 -0.3073  0.1172 -0.0080
   41TMC2     H  631   3.554   2.540  13.378 -1.1379  0.9564  1.4906
   41TMC2    H1  632   3.467   2.762  13.033  1.5422 -3.0607 -0.5328
   41TMC2    H2  633   3.811   2.864  13.288 -1.6245  0.9950  1.5156
   41TMC2    C7  634   3.679   2.955  13.083 -0.4066  0.4573 -0.1277
   41TMC2    C8  635   3.788   2.636  13.421  0.9671  0.2249 -0.3609
   41TMC2    O1  636   3.721   3.049  13.151 -0.3655  0.2557 -0.1174
   41TMC2    O2  637   3.770   2.520  13.459 -0.2702 -0.6640  0.8103
   41TMC2    O5  638   3.863   2.731  13.480 -0.5057 -0.5821 -0.1421
   41TMC2    H5  639   3.845   2.826  13.469  0.0207 -0.5428 -0.6851
   42MPD2     C  640   3.161   2.376  13.186 -0.2373  0.0467 -1.0364
   42MPD2    C1  641   3.202   2.449  13.296  0.0818  0.5097  0.3129
   42MPD2    C2  642   3.118   2.446  13.408 -0.5342  0.6320  0.2636
   42MPD2    C3  643   2.990   2.380  13.398 -0.5083 -0.2281  0.6316
   42MPD2    C4  644   2.950   2.311  13.289  0.2536  0.5605 -0.4258
   42MPD2    C5  645   3.043   2.312  13.180 -0.2103 -0.1078 -0.7914
   42MPD2     H  646   3.149   2.499  13.497 -1.3881 -0.2027  1.0543
   42MPD2    H1  647   2.855   2.264  13.268 -0.7046  2.8338 -1.2677
   42MPD2    H2  648   3.219   2.369  13.094  1.0495  0.1498 -0.2298
   42MPD2    H3  649   3.018   2.254  13.091 -1.1453 -1.1759  0.1653
   42MPD2     N  650   2.893   2.384  13.505  0.0666  0.3262 -0.3111
   42MPD2    H5  651   2.808   2.336  13.479 -0.1521  0.7124 -0.3060
   42MPD2    N1  652   3.325   2.519  13.299 -0.4045  0.3570 -0.0935
   42MPD2    H7  653   3.353   2.557  13.389 -1.5216 -1.1740  0.9064
   43MPD2     C  654   4.646   0.711   0.011  0.0344 -0.6185 -0.6276
   43MPD2    C1  655   4.684   0.741   0.143 -0.3619 -0.2626 -0.4329
   43MPD2    C2  656   4.605   0.831   0.214 -0.6696 -0.4386  0.0429
   43MPD2    C3  657   4.508   0.911   0.156 -0.2586  0.0947  0.9879
   43MPD2    C4  658   4.485   0.889   0.024  0.6877 -0.5039 -0.2323
   43MPD2    C5  659   4.547   0.783  17.661  0.4616 -1.2709  0.3845
   43MPD2     H  660   4.619   0.838   0.321  1.6376 -0.8006 -0.2218
   43MPD2    H1  661   4.419   0.955  17.671  0.3396 -2.1742 -1.8272
   43MPD2    H2  662   4.689   0.636  17.649  0.4023 -1.7514  0.9548
   43MPD2    H3  663   4.515   0.757  17.560 -2.6080 -0.6138  1.1791
   43MPD2     N  664   4.426   1.000   0.229 -0.1648  0.1231 -0.2052
   43MPD2    H5  665   4.350   1.042   0.177  0.9810  0.1773 -1.8564
   43MPD2    N1  666   0.065   0.674   0.213  0.7258 -0.9532 -0.4766
   43MPD2    H7  667   0.098   0.725   0.294  0.9398  0.6046 -1.5491
   44TCq2    C1  668   4.308   1.353   0.681 -0.3596  0.2009 -0.5293
   44TCq2    O2  669   4.426   1.381   0.676  0.5277  0.0784  0.5482
   44TCq2    C2  670   4.265   1.263   0.581  0.1724 -0.1994  0.0946
   44TCq2    C3  671   4.152   1.271   0.514 -1.2642  0.5921  0.2011
   44TCq2    C4  672   4.125   1.194   0.408 -0.6972  0.2658 -0.1605
   44TCq2    C5  673   4.213   1.106   0.351 -0.6844  0.7143  0.1795
   44TCq2    C6  674   4.336   1.112   0.411  0.3361  0.3413 -0.0598
   44TCq2    C7  675   4.363   1.183   0.525 -1.0538 -0.0650  0.3382
   44TCq2    C8  676   4.443   1.041   0.355  0.7527  0.2076  0.7818
   44TCq2    O4  677   4.532   1.013   0.435 -0.3862 -0.2246  0.8900
   44TCq2    C9  678   3.984   1.173   0.364  0.0483 -0.6557  0.3035
   44TCq2    O5  679   3.905   1.265   0.396 -0.0388 -0.1851 -0.4332
   44TCq2    O6  680   3.962   1.063   0.312  0.0823  0.0878  0.5995
   44TCq2    H2  681   4.077   1.336   0.557 -1.4018 -0.9932  2.3556
   44TCq2    H3  682   4.187   1.044   0.266 -0.7456 -0.6930  1.2129
   44TCq2    H4  683   4.462   1.176   0.568 -0.2680 -0.4870 -1.5388
   45TMC2    C1  684   0.265   2.942   9.133  0.0339  0.3036 -0.5628
   45TMC2    C2  685   0.234   2.981   9.002  0.1290  0.3097  0.7046
   45TMC2    C3  686   0.256   3.117   8.978  0.0529  1.1250  0.5769
   45TMC2    C4  687   0.338   3.024   9.216  0.5945 -0.3548 -0.1421
   45TMC2    C5  688   0.353   3.155   9.182 -0.8372  0.1228 -0.2033
   45TMC2    C6  689   0.319   3.200   9.062  0.6318  0.1623 -0.1623
   45TMC2     C  690   0.259   2.801   9.163  0.2572  0.6845  0.3848
   45TMC2     O  691   0.338   2.773   9.251 -0.3453 -0.4074  0.2054
   45TMC2     H  692   0.184   2.927   8.922 -0.1424 -0.2084  1.2161
   45TMC2    H1  693   0.363   2.989   9.315  0.0287  0.1614  0.1895
   45TMC2    H2  694   0.348   3.299   9.029 -0.3983 -0.0549 -1.7513
   45TMC2    C7  695   0.394   3.258   9.283 -0.0442 -0.3342 -0.0417
   45TMC2    C8  696   0.226   3.167   8.844 -0.1500  0.1386  0.3652
   45TMC2    O1  697   0.408   3.370   9.234 -0.0054 -0.2411  0.6598
   45TMC2    O2  698   0.232   3.086   8.753  0.5337 -0.1628  0.4299
   45TMC2    O5  699   0.153   3.284   8.841  0.0107 -0.2745  0.5806
   45TMC2    H5  700   0.162   3.342   8.920  2.3937  0.8697 -0.5339
   46MPD2     C  701   0.246   2.518   9.175  0.1835 -0.8103  0.1546
   46MPD2    C1  702   0.145   2.593   9.119 -0.3086 -0.2183  0.5224
   46MPD2    C2  703   0.044   2.528   9.058  0.2388 -0.8614 -0.2554
   46MPD2    C3  704   0.028   2.389   9.053  0.2765 -0.1077 -0.6399
   46MPD2    C4  705   0.118   2.313   9.119  0.1440 -0.4814 -0.6132
   46MPD2    C5  706   0.229   2.379   9.167  0.0015 -0.5159 -0.5275
   46MPD2     H  707   4.690   2.587   9.012  1.6005 -0.5909 -2.2830
   46MPD2    H1  708   0.126   2.205   9.124  0.1903 -0.4341  0.3382
   46MPD2    H2  709   0.341   2.554   9.212 -1.1064  1.0298  1.6401
   46MPD2    H3  710   0.306   2.322   9.217  0.0985 -0.6900 -0.8796
   46MPD2     N  711   4.642   2.328   8.994 -0.6510  0.8601  0.3676
   46MPD2    H5  712   4.575   2.385   8.943  0.8997  0.2366 -2.3764
   46MPD2    N1  713   0.155   2.735   9.104 -0.2080  0.1573 -0.2276
   46MPD2    H7  714   0.098   2.779   9.033 -0.8209 -1.7444 -0.9190
   47TMC2    C1  715   3.413   2.821   9.563  0.1220 -0.4257  0.1548
   47TMC2    C2  716   3.489   2.739   9.490 -0.5470  0.0454 -0.3108
   47TMC2    C3  717   3.456   2.692   9.369  0.1153 -0.5649  0.5624
   47TMC2    C4  718   3.302   2.871   9.509  0.5247 -0.0886  0.2903
   47TMC2    C5  719   3.271   2.829   9.380  0.7337 -0.0883  0.2612
   47TMC2    C6  720   3.349   2.746   9.307  0.0710  0.0388  0.5193
   47TMC2     C  721   3.451   2.865   9.695 -0.1934  0.6241 -1.1980
   47TMC2     O  722   3.392   2.949   9.755 -0.1918  0.2005 -0.7571
   47TMC2     H  723   3.591   2.715   9.521 -0.0458  3.0671  0.3627
   47TMC2    H1  724   3.235   2.939   9.560  1.0406  1.1996 -0.7666
   47TMC2    H2  725   3.324   2.697   9.213  3.4586  1.5640 -1.1846
   47TMC2    C7  726   3.139   2.849   9.334 -0.6996 -0.1797 -0.0712
   47TMC2    C8  727   3.556   2.630   9.284 -0.0285 -0.3367 -0.1579
   47TMC2    O1  728   3.056   2.891   9.411  0.0744  0.3409 -0.0297
   47TMC2    O2  729   3.675   2.629   9.312 -0.2213 -0.5768 -0.3300
   47TMC2    O5  730   3.495   2.550   9.198  0.2243  0.0722  0.2569
   47TMC2    H5  731   3.400   2.535   9.216 -0.0869  1.5652 -0.1634
   48MPD2     C  732   3.564   2.865   9.976 -0.5082 -0.2144 -0.4581
   48MPD2    C1  733   3.586   2.772   9.884  0.3535  0.2315 -0.7013
   48MPD2    C2  734   3.655   2.659   9.924  0.4606 -0.5102  0.6687
   48MPD2    C3  735   3.685   2.634  10.060 -0.4060 -0.4428  0.2025
   48MPD2    C4  736   3.668   2.733  10.150  0.3504 -0.2546 -0.5816
   48MPD2    C5  737   3.616   2.851  10.100 -0.5834 -0.6976  0.2800
   48MPD2     H  738   3.679   2.576   9.859  0.2828 -0.5865  0.7006
   48MPD2    H1  739   3.717   2.731  10.247 -0.1619  3.1556 -0.2375
   48MPD2    H2  740   3.490   2.941   9.954 -1.4198 -0.9223  0.1122
   48MPD2    H3  741   3.605   2.933  10.171  0.0441 -1.3360  1.1121
   48MPD2     N  742   3.746   2.509  10.086  0.7939  0.1899 -0.0838
   48MPD2    H5  743   3.751   2.440  10.011 -1.0785 -0.1109  0.0685
   48MPD2    N1  744   3.541   2.776   9.745  0.2244 -0.1766 -0.2852
   48MPD2    H7  745   3.576   2.706   9.680 -0.9129 -0.8143 -0.2044
   49MPD2     C  746   0.847   0.219  10.145  0.5364 -0.3989 -0.7603
   49MPD2    C1  747   0.933   0.298  10.069  0.4772 -0.0803  0.2886
   49MPD2    C2  748   0.974   0.427  10.111  0.3350  0.4165  0.0585
   49MPD2    C3  749   0.928   0.471  10.241 -0.3359  0.0431  0.1939
   49MPD2    C4  750   0.843   0.389  10.315  0.6024 -0.0990 -0.2892
   49MPD2    C5  751   0.800   0.267  10.272 -0.1191  0.2072 -0.3549
   49MPD2     H  752   1.042   0.476  10.042 -0.0600 -1.0409 -1.3653
   49MPD2    H1  753   0.805   0.429  10.408  2.4789  0.7824  0.1085
   49MPD2    H2  754   0.817   0.121  10.109  0.4756 -0.7335  0.2066
   49MPD2    H3  755   0.717   0.210  10.314 -2.2683  0.8811 -3.6658
   49MPD2     N  756   0.960   0.592  10.300 -0.5353  0.4895 -0.5567
   49MPD2    H5  757   0.905   0.622  10.380  0.9426  1.1600  0.2117
   49MPD2    N1  758   0.990   0.259   9.948  0.4692 -0.7840  0.0378
   49MPD2    H7  759   1.049   0.329   9.903  0.8271 -1.0733  0.0609
   50TCq2    C1  760   0.976   0.134   9.896 -0.5318 -0.0967  0.1283
   50TCq2    O2  761   0.886   0.049   9.912  0.0015  0.5250 -0.1563
   50TCq2    C2  762   1.069   0.119   9.787 -0.1885 -0.4913 -0.3019
   50TCq2    C3  763   1.053   0.019   9.699  0.3600 -0.0242  0.4756
   50TCq2    C4  764   1.142   4.713   9.606 -0.2467  0.1482 -1.3158
   50TCq2    C5  765   1.251   0.059   9.597 -0.4889  0.9810  0.0090
   50TCq2    C6  766   1.270   0.162   9.683 -0.1968 -0.0389  0.2677
   50TCq2    C7  767   1.181   0.195   9.783 -0.0830 -0.1314 -0.2409
   50TCq2    C8  768   1.392   0.238   9.672 -0.2533  0.0001  0.9104
   50TCq2    O4  769   1.449   0.267   9.773 -0.5989  0.6753  0.5625
   50TCq2    C9  770   1.121   4.588   9.527  0.2256  0.3696  0.4176
   50TCq2    O5  771   1.010   4.529   9.555  0.0112  0.3210  0.3299
   50TCq2    O6  772   1.196   4.561   9.430  0.2964 -0.0986  0.3036
   50TCq2    H2  773   0.966   4.680   9.703  1.4651 -1.5029  0.6950
   50TCq2    H3  774   1.329   0.027   9.529  0.5708 -0.0808  1.7061
   50TCq2    H4  775   1.206   0.274   9.854 -0.7913 -0.0682 -0.0596
   51MPD2     C  776   0.885   3.481   0.703 -0.6249 -0.5353  0.3706
   51MPD2    C1  777   1.010   3.428   0.725  0.1517  0.2171 -0.0768
   51MPD2    C2  778   1.110   3.513   0.743 -0.4223 -0.4240  0.2691
   51MPD2    C3  779   1.091   3.646   0.741 -0.4511 -0.0966  0.2662
   51MPD2    C4  780   0.969   3.697   0.713  0.0160 -0.3856 -0.1653
   51MPD2    C5  781   0.867   3.612   0.697  0.8623  0.0573  0.4280
   51MPD2     H  782   1.208   3.480   0.777 -0.2341 -0.7983 -0.6280
   51MPD2    H1  783   0.941   3.801   0.701  0.3734 -0.3387 -0.6191
   51MPD2    H2  784   0.793   3.424   0.712 -2.0817  1.6608 -0.6552
   51MPD2    H3  785   0.772   3.660   0.676  2.0297  1.1495 -2.4190
   51MPD2     N  786   1.190   3.749   0.764  0.3433 -0.3265  0.4259
   51MPD2    H5  787   1.170   3.848   0.763  2.1043  0.0067 -1.6145
   51MPD2    N1  788   1.044   3.287   0.739 -0.8249 -0.1372  0.0040
   51MPD2    H7  789   1.139   3.265   0.768 -0.2880  1.1982 -0.7336
   52TCq2    C1  790   1.324   3.724   0.786  0.0729  0.1766  0.5091
   52TCq2    O2  791   1.377   3.615   0.805  0.7426  0.5944  0.3821
   52TCq2    C2  792   1.408   3.838   0.808  0.3703  0.2244 -0.2223
   52TCq2    C3  793   1.522   3.821   0.890  1.1046  0.2497  0.7012
   52TCq2    C4  794   1.594   3.930   0.902 -0.7319  0.3144  0.4456
   52TCq2    C5  795   1.577   4.047   0.831 -0.9147  0.3463 -0.4398
   52TCq2    C6  796   1.472   4.058   0.750  0.1876 -0.0530 -0.7211
   52TCq2    C7  797   1.390   3.951   0.735 -0.7647  0.1293  0.1632
   52TCq2    C8  798   1.426   4.182   0.699  0.1853  0.0125 -0.3395
   52TCq2    O4  799   1.506   4.278   0.702  0.1490  0.0072  0.1748
   52TCq2    C9  800   1.700   3.929   1.002 -0.0063  0.9705 -0.3394
   52TCq2    O5  801   1.730   3.824   1.065 -0.1028  0.2324 -0.4371
   52TCq2    O6  802   1.775   4.030   0.988 -0.0851 -0.8728  0.2206
   52TCq2    H2  803   1.537   3.730   0.947 -0.6217  0.1867  1.0517
   52TCq2    H3  804   1.637   4.136   0.841 -0.1470 -0.3505  1.0732
   52TCq2    H4  805   1.315   3.950   0.657 -1.5871 -0.4273  0.9581
   53TMC2    C1  806   2.261   2.332  12.061 -0.0121  0.0940 -0.2692
   53TMC2    C2  807   2.344   2.258  12.139  0.0471 -0.4976  0.3998
   53TMC2    C3  808   2.295   2.203  12.257 -0.1503 -0.1413 -0.7516
   53TMC2    C4  809   2.134   2.366  12.108 -0.2957  0.7094  0.5567
   53TMC2    C5  810   2.080   2.298  12.217  0.3971 -0.1136  0.2710
   53TMC2    C6  811   2.161   2.215  12.290 -0.4032 -0.0981  0.7857
   53TMC2     C  812   2.303   2.366  11.927  0.4493  1.0128 -0.1132
   53TMC2     O  813   2.413   2.330  11.888  0.0520 -0.1191 -0.5337
   53TMC2     H  814   2.432   2.221  12.088 -1.6143 -3.3370 -0.4257
   53TMC2    H1  815   2.077   2.442  12.056  0.9590  0.2820 -1.4360
   53TMC2    H2  816   2.116   2.145  12.359  0.5269 -1.1462  0.3277
   53TMC2    C7  817   1.950   2.339  12.271  0.9380  0.1728 -0.4880
   53TMC2    C8  818   2.391   2.131  12.338  0.4545 -0.4982 -0.2159
   53TMC2    O1  819   1.884   2.413  12.197 -0.3887 -0.4541  0.6706
   53TMC2    O2  820   2.353   2.048  12.417  0.1261  0.9217 -0.0355
   53TMC2    O5  821   2.478   2.223  12.377 -0.4099 -0.1893 -0.9098
   53TMC2    H5  822   2.496   2.283  12.302 -0.6161  2.0349  0.8193
   54MPD2     C  823   2.277   2.402  11.622 -0.7644  0.0984  0.0237
   54MPD2    C1  824   2.173   2.385  11.710  0.1267 -0.0403 -0.3084
   54MPD2    C2  825   2.044   2.377  11.656 -0.3139  0.6572  0.8110
   54MPD2    C3  826   2.019   2.385  11.525 -0.8186  0.2024 -0.3124
   54MPD2    C4  827   2.127   2.395  11.438 -0.1367 -1.0307 -0.3992
   54MPD2    C5  828   2.256   2.398  11.485  0.1730  0.1481 -0.0263
   54MPD2     H  829   1.965   2.368  11.730  0.2838 -0.1814  1.3451
   54MPD2    H1  830   2.117   2.390  11.330 -1.0085  0.8582 -0.3911
   54MPD2    H2  831   2.377   2.409  11.662  0.0664 -1.4998 -1.7196
   54MPD2    H3  832   2.345   2.409  11.423  0.2527  1.9840  0.4385
   54MPD2     N  833   1.895   2.385  11.469  0.0117 -0.2035 -0.3811
   54MPD2    H5  834   1.885   2.393  11.368  2.2315  2.8370 -0.3728
   54MPD2    N1  835   2.192   2.381  11.854  0.1067  0.6200  0.1604
   54MPD2    H7  836   2.107   2.381  11.910  0.9369 -2.0698  1.4034
   55MPD2     C  837   2.849   4.605   0.098 -0.5937 -0.6070  0.0888
   55MPD2    C1  838   2.771   4.506   0.146  0.9910 -0.2114 -0.3868
   55MPD2    C2  839   2.636   4.533   0.183 -0.6067 -0.6141  0.0849
   55MPD2    C3  840   2.579   4.662   0.165 -0.0109 -0.5060  0.5466
   55MPD2    C4  841   2.661   0.036   0.107  0.2288  0.9516  0.5851
   55MPD2    C5  842   2.794   0.008   0.089  0.4424 -0.5808 -0.2809
   55MPD2     H  843   2.566   4.465   0.230  0.1181 -0.8101  0.8756
   55MPD2    H1  844   2.634   0.138   0.084  2.1159  0.8828 -1.8802
   55MPD2    H2  845   2.946   4.586   0.053 -0.3663 -0.9225  0.7196
   55MPD2    H3  846   2.867   0.077   0.049 -0.9032  0.7147 -0.5069
   55MPD2     N  847   2.443   4.682   0.202 -0.6482 -0.3895  0.2714
   55MPD2    H5  848   2.397   4.602   0.242  0.2107 -0.9461  0.1340
   55MPD2    N1  849   2.830   4.375   0.150  0.2726  0.3401 -0.7910
   55MPD2    H7  850   2.923   4.360   0.113  0.8815  3.8682 -0.7400
   56TCq2    C1  851   2.763   4.260   0.196 -0.1255 -0.1125 -0.4933
   56TCq2    O2  852   2.657   4.239   0.247 -0.3425  0.6689  0.8231
   56TCq2    C2  853   2.846   4.141   0.186  0.6767  0.1909 -0.5310
   56TCq2    C3  854   2.942   4.134   0.091  0.1262 -0.4659 -0.1686
   56TCq2    C4  855   2.999   4.010   0.056  0.1927 -0.5295 -0.0935
   56TCq2    C5  856   2.957   3.893   0.120 -0.3476  0.5989  0.6446
   56TCq2    C6  857   2.877   3.909   0.227 -0.0676 -0.1950  0.1200
   56TCq2    C7  858   2.806   4.026   0.252  0.1951 -0.4211  0.3813
   56TCq2    C8  859   2.829   3.782   0.289  0.0421  0.5933 -0.0498
   56TCq2    O4  860   2.868   3.683   0.238 -0.2174  0.0093  0.4801
   56TCq2    C9  861   3.069   3.993  17.634  0.8278  0.4573 -0.0230
   56TCq2    O5  862   3.129   3.884  17.619  0.4737 -0.5767 -0.0980
   56TCq2    O6  863   3.065   4.090  17.560  0.3701  0.2592 -0.2694
   56TCq2    H2  864   2.972   4.223   0.036  1.0762 -1.7680 -1.7286
   56TCq2    H3  865   2.994   3.797   0.086  0.5363  1.7868 -1.7085
   56TCq2    H4  866   2.725   4.037   0.323  0.4047 -0.7041  0.6653
   57TMC2    C1  867   1.319   1.151  13.456 -0.1042  0.0904 -0.0739
   57TMC2    C2  868   1.441   1.223  13.474  0.3383  0.0832  0.5598
   57TMC2    C3  869   1.487   1.280  13.357 -0.0254 -0.2253  0.1245
   57TMC2    C4  870   1.257   1.135  13.333 -0.1704 -0.2535 -0.4374
   57TMC2    C5  871   1.330   1.163  13.226  0.0059  0.2000  0.6620
   57TMC2    C6  872   1.439   1.246  13.231  0.4552  0.3325  0.0782
   57TMC2     C  873   1.246   1.117  13.576 -0.1438 -0.1537 -0.3538
   57TMC2     O  874   1.126   1.093  13.562 -0.4389 -0.6799 -0.4990
   57TMC2     H  875   1.477   1.258  13.570  0.5220 -0.2144  0.6000
   57TMC2    H1  876   1.186   1.054  13.323  1.7663 -1.8897 -0.8937
   57TMC2    H2  877   1.491   1.288  13.146 -2.3357  0.7422 -1.4060
   57TMC2    C7  878   1.305   1.081  13.105  0.0604 -0.4153 -0.4860
   57TMC2    C8  879   1.600   1.361  13.355  0.3944 -0.2016 -0.1380
   57TMC2    O1  880   1.208   1.008  13.105  0.3547 -0.7209 -0.4904
   57TMC2    O2  881   1.601   1.464  13.290 -0.5421  0.2233  0.2497
   57TMC2    O5  882   1.671   1.326  13.463 -0.0031 -0.0102  0.0386
   57TMC2    H5  883   1.679   1.229  13.473  0.1530  0.3233  2.9222
   58MPD2     C  884   1.265   1.026  14.089  0.0336  0.7674 -1.1137
   58MPD2    C1  885   1.170   1.085  14.006  0.1702 -0.0737  0.1356
   58MPD2    C2  886   1.181   1.103  13.871 -0.0888  0.5958 -0.1034
   58MPD2    C3  887   1.298   1.056  13.818 -0.2046 -0.1778  0.0361
   58MPD2    C4  888   1.396   0.990  13.890 -0.3168 -0.5385 -0.4190
   58MPD2    C5  889   1.384   0.990  14.024  0.4202  0.5355 -0.1217
   58MPD2     H  890   1.102   1.146  13.809 -1.1614  0.4166  1.1521
   58MPD2    H1  891   1.476   0.939  13.837  0.1098  0.4855 -0.7617
   58MPD2    H2  892   1.255   1.023  14.197  0.5084 -2.0889 -1.1314
   58MPD2    H3  893   1.460   0.950  14.089 -1.2965  1.1033  2.2472
   58MPD2     N  894   1.330   1.084  13.679  0.5934  0.1498  0.4851
   58MPD2    H5  895   1.428   1.071  13.653  0.2553  0.1177 -0.7759
   58MPD2    N1  896   1.050   1.141  14.058 -0.5151  0.4054 -0.2116
   58MPD2    H7  897   0.986   1.190  13.996 -0.1446 -1.7367 -2.2883
   59MPD2     C  898   3.895   1.176  13.287 -0.1843 -0.9414 -0.5312
   59MPD2    C1  899   3.986   1.127  13.196  0.1845  0.5649  0.7532
   59MPD2    C2  900   4.122   1.159  13.201 -0.3568 -0.2560  0.2318
   59MPD2    C3  901   4.168   1.232  13.307  0.6598 -0.7534 -0.3438
   59MPD2    C4  902   4.076   1.284  13.393 -1.0004  0.3196  0.1244
   59MPD2    C5  903   3.941   1.250  13.391  0.2700 -0.5136 -0.2005
   59MPD2     H  904   4.194   1.110  13.135  0.8048  0.6781  0.8011
   59MPD2    H1  905   4.103   1.347  13.477 -1.5273  0.3268  0.2891
   59MPD2    H2  906   3.788   1.162  13.288 -0.2797 -0.1554  0.9970
   59MPD2    H3  907   3.873   1.310  13.451 -1.1818 -0.3446 -2.0312
   59MPD2     N  908   4.304   1.280  13.323  0.1282 -0.4139 -0.2571
   59MPD2    H5  909   4.322   1.356  13.388 -0.6223 -1.2261  0.8929
   59MPD2    N1  910   3.941   1.030  13.096  0.4154 -0.5264 -0.4430
   59MPD2    H7  911   3.850   0.988  13.107 -0.9712  2.9036  0.9714
   60TCq2    C1  912   4.011   1.005  12.975 -0.0308  0.1850 -0.3370
   60TCq2    O2  913   4.114   1.060  12.927 -0.7838 -0.5126  0.3502
   60TCq2    C2  914   3.928   0.921  12.892  0.3531 -0.0147  0.0712
   60TCq2    C3  915   3.834   0.836  12.944 -1.1863 -0.3434  0.6407
   60TCq2    C4  916   3.756   0.774  12.851 -0.0768 -0.5392 -0.3277
   60TCq2    C5  917   3.770   0.793  12.718  0.0531 -0.5114 -0.2940
   60TCq2    C6  918   3.872   0.872  12.670  0.2926 -0.6235  0.5765
   60TCq2    C7  919   3.954   0.933  12.760  0.2000 -0.1656  0.0917
   60TCq2    C8  920   3.881   0.894  12.526  0.9189  0.3735  0.3202
   60TCq2    O4  921   3.831   0.808  12.453  0.6254 -0.2559 -0.1686
   60TCq2    C9  922   3.641   0.697  12.898 -0.0674  0.0107  0.0180
   60TCq2    O5  923   3.632   0.670  13.020 -0.0946 -0.9287 -0.1240
   60TCq2    O6  924   3.560   0.659  12.810 -0.4512 -0.3614 -0.2635
   60TCq2    H2  925   3.815   0.814  13.049 -1.1091  1.4041  1.0191
   60TCq2    H3  926   3.716   0.728  12.651 -2.4535  1.5697 -0.2789
   60TCq2    H4  927   4.029   1.003  12.726  0.5489 -0.3558  0.4625
   61MPD2     C  928   3.334   2.644  14.189 -0.1582  0.1270  0.1381
   61MPD2    C1  929   3.384   2.774  14.210 -0.3335 -0.2156 -0.4851
   61MPD2    C2  930   3.369   2.869  14.114  0.2898 -0.0600 -0.1264
   61MPD2    C3  931   3.300   2.847  14.001 -0.7383  0.5054  0.0682
   61MPD2    C4  932   3.226   2.735  13.995 -0.7663  0.1637  0.1502
   61MPD2    C5  933   3.251   2.632  14.080  0.1548 -0.1729  0.2572
   61MPD2     H  934   3.430   2.957  14.130  1.3544 -0.8465  0.1107
   61MPD2    H1  935   3.173   2.709  13.904 -0.7897  0.6256  0.0357
   61MPD2    H2  936   3.346   2.558  14.255 -0.3065  0.9715  1.2720
   61MPD2    H3  937   3.205   2.534  14.067  0.7727 -0.3492 -0.6013
   61MPD2     N  938   3.304   2.940  13.885 -0.7755 -0.0619 -0.2724
   61MPD2    H5  939   3.267   2.905  13.797 -0.7197 -1.9464  0.4433
   61MPD2    N1  940   3.444   2.814  14.332 -0.1365 -0.0289  0.4042
   61MPD2    H7  941   3.476   2.909  14.338  0.2298 -0.1189 -0.1210
   62TCq2    C1  942   3.491   2.727  14.427 -0.2395 -0.6574  0.3051
   62TCq2    O2  943   3.468   2.607  14.441  0.0706 -0.4470 -0.3825
   62TCq2    C2  944   3.577   2.789  14.523 -0.4202  0.7859 -0.1444
   62TCq2    C3  945   3.663   2.709  14.592 -0.2469  0.0619  0.0723
   62TCq2    C4  946   3.739   2.764  14.691 -0.4411  0.9006 -0.6181
   62TCq2    C5  947   3.737   2.894  14.726 -0.2529  0.1871  1.0030
   62TCq2    C6  948   3.654   2.972  14.654  0.1790 -0.4085  0.2344
   62TCq2    C7  949   3.567   2.920  14.559 -0.2169  0.0023 -1.2538
   62TCq2    C8  950   3.626   3.109  14.703 -0.0544  0.3146 -0.1669
   62TCq2    O4  951   3.726   3.168  14.745 -0.2736 -0.2901  0.1057
   62TCq2    C9  952   3.819   2.671  14.764 -0.5576 -0.4042 -0.2096
   62TCq2    O5  953   3.831   2.551  14.723  0.1719  0.0491 -0.4725
   62TCq2    O6  954   3.883   2.725  14.861 -0.0348  0.3479 -0.0683
   62TCq2    H2  955   3.657   2.604  14.568 -2.5896  0.5061 -1.3496
   62TCq2    H3  956   3.810   2.925  14.801  0.7479 -2.3522  1.0685
   62TCq2    H4  957   3.496   2.985  14.509 -2.0186 -1.5885 -0.7550
   63TMC2    C1  958   3.093   2.795  11.165  0.4756 -0.7927 -0.1231
   63TMC2    C2  959   3.190   2.854  11.244 -1.6056 -0.2851 -0.2792
   63TMC2    C3  960   3.292   2.916  11.186 -0.7694 -0.1148 -0.0240
   63TMC2    C4  961   3.097   2.815  11.029  0.1387  0.6731  0.1281
   63TMC2    C5  962   3.201   2.876  10.972  0.2841  0.2702 -0.0598
   63TMC2    C6  963   3.306   2.922  11.046 -0.0498  0.2104  0.2407
   63TMC2     C  964   2.964   2.765  11.230 -0.3219 -0.5605  0.2371
   63TMC2     O  965   2.934   2.833  11.326  0.2594 -0.8553 -0.3284
   63TMC2     H  966   3.175   2.848  11.351 -1.1040 -0.2651 -0.2098
   63TMC2    H1  967   3.017   2.780  10.964  0.7955  2.7575 -1.7954
   63TMC2    H2  968   3.395   2.960  10.997  1.1794 -1.7233  0.9890
   63TMC2    C7  969   3.170   2.925  10.832 -0.2231 -0.1887 -0.6402
   63TMC2    C8  970   3.399   2.970  11.264 -0.5239  0.4338 -0.2110
   63TMC2    O1  971   3.060   2.905  10.784  0.0765  0.0065  0.8946
   63TMC2    O2  972   3.477   3.055  11.227  0.0724 -0.1911  0.0960
   63TMC2    O5  973   3.423   2.881  11.361 -0.2095 -0.0968 -0.6986
   63TMC2    H5  974   3.366   2.802  11.350 -0.2528 -0.1408 -0.1784
   64MPD2     C  975   2.496   2.557  11.227 -0.0114 -0.3513 -0.7692
   64MPD2    C1  976   2.567   2.505  11.127  0.6392 -0.0274  0.1387
   64MPD2    C2  977   2.693   2.554  11.106  0.2804  0.4756  0.2017
   64MPD2    C3  978   2.755   2.646  11.183  0.3365  0.1956 -0.0968
   64MPD2    C4  979   2.670   2.704  11.283  0.7554  0.3199  0.1540
   64MPD2    C5  980   2.551   2.654  11.304 -0.0205  0.9825 -0.6321
   64MPD2     H  981   2.752   2.510  11.026  1.7922  1.8094  0.5813
   64MPD2    H1  982   2.703   2.778  11.355  1.5246  0.2319 -0.0992
   64MPD2    H2  983   2.394   2.524  11.242 -0.3842  2.0738  1.9828
   64MPD2    H3  984   2.493   2.709  11.377  1.6895 -1.4958  2.5703
   64MPD2     N  985   2.885   2.685  11.156  0.2136  0.0790 -0.5493
   64MPD2    H5  986   2.920   2.648  11.068 -3.0225 -2.4049 -0.7955
   64MPD2    N1  987   2.527   2.390  11.048 -0.6268  0.5237 -0.0252
   64MPD2    H7  988   2.591   2.356  10.977  1.4655  1.3338  1.4792
   65MPD2     C  989   4.103   2.084  15.726  0.7308 -0.5084  0.8057
   65MPD2    C1  990   4.135   2.053  15.594  0.4559 -0.5028 -0.8496
   65MPD2    C2  991   4.148   1.922  15.562  0.8256 -0.0062 -0.1017
   65MPD2    C3  992   4.128   1.819  15.657  0.0670  0.7723  0.6904
   65MPD2    C4  993   4.119   1.859  15.790 -0.5015  0.3793 -0.6067
   65MPD2    C5  994   4.098   1.988  15.821  0.3785  0.5351  0.8147
   65MPD2     H  995   4.161   1.902  15.456  1.1433 -1.5152  0.2267
   65MPD2    H1  996   4.108   1.781  15.865 -0.7673  1.2048  0.2107
   65MPD2    H2  997   4.084   2.184  15.762 -0.9599 -0.4469 -0.2696
   65MPD2    H3  998   4.073   2.021  15.921  2.2033  3.1547  0.4196
   65MPD2     N  999   4.125   1.677  15.620 -0.8516 -0.3840 -0.2965
   65MPD2    H5 1000   4.100   1.616  15.697  1.3651 -0.3116  0.4794
   65MPD2    N1 1001   4.160   2.142  15.492  0.6203  0.2508  0.1869
   65MPD2    H7 1002   4.179   2.099  15.402  2.5906  0.5637  0.4559
   66TCq2    C1 1003   4.161   2.282  15.505 -0.0460  0.8929  0.0743
   66TCq2    O2 1004   4.098   2.350  15.581  0.3178  0.0389 -0.5498
   66TCq2    C2 1005   4.194   2.357  15.380 -0.0840 -0.4093 -0.0214
   66TCq2    C3 1006   4.238   2.289  15.274  0.4214  0.2567  0.7640
   66TCq2    C4 1007   4.236   2.348  15.154 -0.9895  0.7556  0.1411
   66TCq2    C5 1008   4.207   2.480  15.142  0.4730  1.0624 -0.7170
   66TCq2    C6 1009   4.175   2.550  15.255 -0.4849 -0.4839 -0.0020
   66TCq2    C7 1010   4.157   2.485  15.371  0.0539 -0.7705 -0.0103
   66TCq2    C8 1011   4.145   2.687  15.249 -0.8121 -0.2272 -0.3878
   66TCq2    O4 1012   4.103   2.719  15.138 -0.2908 -0.3071 -0.2987
   66TCq2    C9 1013   4.287   2.281  15.044  0.1305  0.2906 -0.5161
   66TCq2    O5 1014   4.282   2.152  15.036  0.2765 -0.4005  0.0887
   66TCq2    O6 1015   4.297   2.360  14.948 -0.8598  0.5429 -0.1998
   66TCq2    H2 1016   4.277   2.188  15.276 -1.9060 -0.6581 -0.5876
   66TCq2    H3 1017   4.198   2.536  15.049  1.6403 -0.1671 -1.5694
   66TCq2    H4 1018   4.121   2.535  15.460  1.0676  1.8233 -1.0731
   67MPD2     C 1019   3.997   2.124  14.213  0.3460 -0.5078  0.2434
   67MPD2    C1 1020   4.078   2.014  14.192 -0.8793  0.1084 -0.3105
   67MPD2    C2 1021   4.059   1.939  14.074 -0.3923 -0.2413  0.7453
   67MPD2    C3 1022   3.969   1.977  13.971  1.4919  0.2238  0.4250
   67MPD2    C4 1023   3.899   2.093  13.992 -0.3594 -0.5030  0.5329
   67MPD2    C5 1024   3.918   2.168  14.110  0.7028 -0.0556  0.0471
   67MPD2     H 1025   4.126   1.853  14.070 -0.0295  0.1239 -1.0685
   67MPD2    H1 1026   3.834   2.132  13.915 -1.9308 -3.2947  0.4727
   67MPD2    H2 1027   4.005   2.181  14.306 -3.1624 -0.3942  0.4901
   67MPD2    H3 1028   3.859   2.258  14.119 -2.0004 -1.6645 -1.3775
   67MPD2     N 1029   3.958   1.905  13.849 -0.1373  0.3278  0.8032
   67MPD2    H5 1030   3.901   1.946  13.775  0.5932 -3.3596 -1.7881
   67MPD2    N1 1031   4.175   1.990  14.296 -0.7634  0.4483  0.1866
   67MPD2    H7 1032   4.163   2.020  14.392  0.9354 -0.1089  0.5695
   68TCq2    C1 1033   4.271   1.890  14.289 -0.4627 -0.8104 -0.3505
   68TCq2    O2 1034   4.289   1.804  14.208  0.1869  0.7378  0.1530
   68TCq2    C2 1035   4.352   1.898  14.410  0.2064 -0.1658 -0.2767
   68TCq2    C3 1036   4.379   2.026  14.459 -0.5201  0.1020  0.0667
   68TCq2    C4 1037   4.452   2.040  14.571  0.2108 -0.6256  0.5672
   68TCq2    C5 1038   4.507   1.928  14.626  0.0831  0.2933 -0.1877
   68TCq2    C6 1039   4.477   1.804  14.577  0.4105 -0.2387  0.3407
   68TCq2    C7 1040   4.402   1.786  14.463  0.1618  0.2321 -0.3384
   68TCq2    C8 1041   4.535   1.686  14.647 -0.1230 -0.1188 -0.4285
   68TCq2    O4 1042   4.555   1.587  14.577  0.2692  0.7625  0.1278
   68TCq2    C9 1043   4.466   2.166  14.631 -0.3800 -0.0339  0.2013
   68TCq2    O5 1044   4.523   2.171  14.746  0.2272 -0.0939 -0.3708
   68TCq2    O6 1045   4.404   2.262  14.581  0.8634  0.0397 -0.0934
   68TCq2    H2 1046   4.333   2.111  14.410 -0.2797 -0.2410 -0.7378
   68TCq2    H3 1047   4.567   1.939  14.716  0.8755 -0.9267 -0.5539
   68TCq2    H4 1048   4.370   1.688  14.432 -1.2374  0.1682  1.2850
   69TMC2    C1 1049   0.900   3.277  12.361  0.5885 -0.1730  0.0801
   69TMC2    C2 1050   0.826   3.383  12.348 -0.0542 -0.6118  0.4743
   69TMC2    C3 1051   0.796   3.425  12.222 -0.5840  0.7649 -0.2877
   69TMC2    C4 1052   0.957   3.219  12.252  0.5285  0.2565 -0.1278
   69TMC2    C5 1053   0.925   3.261  12.127  1.1893  0.2823  0.3415
   69TMC2    C6 1054   0.838   3.361  12.107  0.4338  0.3525 -0.3366
   69TMC2     C 1055   0.913   3.191  12.476  0.3791  0.0132 -0.6928
   69TMC2     O 1056   0.922   3.072  12.456 -0.1582  0.7077 -0.6323
   69TMC2     H 1057   0.779   3.429  12.435 -1.4431  0.2307 -0.7233
   69TMC2    H1 1058   1.033   3.143  12.267 -0.8738 -1.1061  0.0838
   69TMC2    H2 1059   0.788   3.379  12.012 -3.5414 -0.5666  1.5717
   69TMC2    C7 1060   0.996   3.200  12.025 -0.2239 -1.2454  0.4126
   69TMC2    C8 1061   0.680   3.516  12.206  0.0605  0.0071  0.0103
   69TMC2    O1 1062   1.072   3.105  12.050 -0.5146  0.7553  0.2001
   69TMC2    O2 1063   0.624   3.569  12.302  0.0754 -0.5914 -0.0703
   69TMC2    O5 1064   0.706   3.582  12.094  0.2458  0.1292  0.7268
   69TMC2    H5 1065   0.794   3.555  12.059 -0.0918 -2.1236  1.6559
   70MPD2     C 1066   1.038   3.303  12.805 -0.3898  0.0324  0.3575
   70MPD2    C1 1067   1.009   3.222  12.702 -0.8363  0.0260  0.3080
   70MPD2    C2 1068   1.064   3.088  12.710 -0.2274 -0.1451  0.5256
   70MPD2    C3 1069   1.142   3.052  12.820 -0.6616 -0.1691  0.3277
   70MPD2    C4 1070   1.173   3.148  12.919  0.5596 -0.9720 -0.3830
   70MPD2    C5 1071   1.109   3.270  12.914 -0.0174  0.8216  0.3633
   70MPD2     H 1072   1.051   3.011  12.635  0.7109 -0.4408  0.6728
   70MPD2    H1 1073   1.239   3.132  13.004 -0.1808 -0.6974  0.2446
   70MPD2    H2 1074   0.990   3.400  12.810 -1.3104 -0.4632  1.0314
   70MPD2    H3 1075   1.137   3.348  12.985  0.6271 -1.0132  2.1214
   70MPD2     N 1076   1.198   2.922  12.821 -0.3373 -0.6100  0.5250
   70MPD2    H5 1077   1.180   2.866  12.739  1.4815  0.6098 -0.7225
   70MPD2    N1 1078   0.934   3.269  12.587  0.3398 -0.4078  0.0554
   70MPD2    H7 1079   0.905   3.366  12.582  1.1172 -0.1594  0.3357
   71TMC2    C1 1080   4.640   3.898   1.334 -1.2131  0.3885  0.7259
   71TMC2    C2 1081   0.016   3.985   1.311 -0.0367  0.5475  0.3543
   71TMC2    C3 1082   0.035   4.088   1.398  0.0836 -0.4630  0.1650
   71TMC2    C4 1083   4.558   3.921   1.440  0.1663  0.5613 -0.6635
   71TMC2    C5 1084   4.573   4.027   1.523  0.3398  0.0187  0.1296
   71TMC2    C6 1085   4.681   4.113   1.507 -0.0913  0.1810 -0.0613
   71TMC2     C 1086   4.587   3.820   1.226 -0.2842 -0.4520  0.0825
   71TMC2     O 1087   4.467   3.801   1.228 -0.3852 -0.0716  0.1097
   71TMC2     H 1088   0.071   3.987   1.217  0.6141 -0.6841  0.7030
   71TMC2    H1 1089   4.488   3.843   1.469  0.8145 -0.3707 -1.5832
   71TMC2    H2 1090   4.701   4.198   1.571 -1.1950  0.3494  0.0487
   71TMC2    C7 1091   4.486   4.043   1.632  0.0506  0.3473  0.0388
   71TMC2    C8 1092   0.163   4.147   1.393 -0.0491  0.8475 -0.9258
   71TMC2    O1 1093   4.531   4.111   1.723  0.0176  0.0606 -0.2565
   71TMC2    O2 1094   0.258   4.075   1.372 -0.3858  0.2199  0.4798
   71TMC2    O5 1095   0.164   4.275   1.430 -0.0954 -0.9005  0.1665
   71TMC2    H5 1096   0.074   4.311   1.439  0.6268  0.4734  1.8634
   72MPD2     C 1097   4.564   3.610   0.756 -0.1490  0.3417  0.0164
   72MPD2    C1 1098   4.465   3.662   0.843  0.6908 -0.3126  0.0387
   72MPD2    C2 1099   4.504   3.713   0.970 -0.1300 -0.2211  1.1724
   72MPD2    C3 1100   4.636   3.726   1.001  0.1784  0.5251 -0.2655
   72MPD2    C4 1101   0.007   3.687   0.909  0.6264 -0.0278  0.2732
   72MPD2    C5 1102   4.699   3.621   0.793 -0.5161 -0.6005 -0.8947
   72MPD2     H 1103   4.417   3.743   1.027 -0.9407 -0.1025 -0.1227
   72MPD2    H1 1104   0.111   3.699   0.933  1.0455  1.5716 -2.2976
   72MPD2    H2 1105   4.542   3.561   0.662  0.0645  1.3109 -0.5464
   72MPD2    H3 1106   0.049   3.591   0.721 -0.1764 -3.3757  0.6030
   72MPD2     N 1107   4.677   3.774   1.129 -0.5896 -0.3249  0.3776
   72MPD2    H5 1108   0.050   3.796   1.144 -0.0749 -2.5892  0.2779
   72MPD2    N1 1109   4.323   3.671   0.821  0.2683  0.0758 -0.2130
   72MPD2    H7 1110   4.259   3.711   0.890 -0.0876  0.5036 -0.7897
   73TMC2    C1 1111   3.816   0.319  14.138 -0.1825  0.1272  0.3042
   73TMC2    C2 1112   3.885   0.229  14.211 -0.2397 -0.1370  0.3547
   73TMC2    C3 1113   4.005   0.260  14.266 -0.1370 -0.6022 -0.1060
   73TMC2    C4 1114   3.867   0.444  14.115  0.5847 -0.0094  0.3144
   73TMC2    C5 1115   3.990   0.473  14.162  0.4880  0.4690  0.2954
   73TMC2    C6 1116   4.061   0.384  14.242 -0.7995  0.6477 -0.0861
   73TMC2     C 1117   3.774   0.269  14.006 -0.2706 -0.3134  0.5590
   73TMC2     O 1118   3.808   0.328  13.906 -0.0129 -0.3537 -0.1801
   73TMC2     H 1119   3.848   0.129  14.230  0.7327 -0.7658 -1.0656
   73TMC2    H1 1120   3.815   0.505  14.041  0.3130  0.2790  0.7403
   73TMC2    H2 1121   4.160   0.412  14.275  0.0090 -2.2789 -0.0428
   73TMC2    C7 1122   4.069   0.547  14.065 -0.1169 -0.0153 -0.2070
   73TMC2    C8 1123   4.057   0.187  14.378 -0.2899 -0.2818 -0.5880
   73TMC2    O1 1124   4.171   0.613  14.094 -0.1306 -0.2750 -0.1817
   73TMC2    O2 1125   4.142   0.248  14.438 -0.4375  0.4214  0.1863
   73TMC2    O5 1126   4.066   0.059  14.331  1.0721  0.1099 -0.9071
   73TMC2    H5 1127   4.039   0.042  14.239 -0.7133  1.5560 -0.6657
   74MPD2     C 1128   3.735   4.580  13.687  0.5939 -0.1269 -0.3687
   74MPD2    C1 1129   3.773   4.712  13.661 -0.2003  0.4913  0.8548
   74MPD2    C2 1130   3.774   0.077  13.765  0.7147 -0.6768 -0.4081
   74MPD2    C3 1131   3.723   0.051  13.893 -0.6827 -0.1947  0.0587
   74MPD2    C4 1132   3.675   4.643  13.909  0.3354  0.1366  0.5193
   74MPD2    C5 1133   3.690   4.546  13.817 -1.4528 -0.1006 -0.2331
   74MPD2     H 1134   3.811   0.178  13.753  1.1167 -0.7560  0.1337
   74MPD2    H1 1135   3.647   4.614  14.010 -0.1199  0.5709  0.5169
   74MPD2    H2 1136   3.747   4.497  13.619  0.1368 -0.2205 -0.3377
   74MPD2    H3 1137   3.653   4.446  13.838 -3.4777  0.6403 -0.3109
   74MPD2     N 1138   3.729   0.136  14.007  0.1021 -0.6070  0.6266
   74MPD2    H5 1139   3.713   0.092  14.097  0.5172  0.3516  1.1663
   74MPD2    N1 1140   3.815   0.017  13.530 -0.4774 -0.6038 -0.0910
   74MPD2    H7 1141   3.814   4.665  13.464  1.1586 -0.9004  0.2175
   75TCq2    C1 1142   4.016   1.779  13.826  0.9823 -0.4273 -0.3906
   75TCq2    O2 1143   4.057   1.688  13.901 -0.1335 -1.0146  0.3892
   75TCq2    C2 1144   4.006   1.747  13.681 -0.5321  0.3103  0.6398
   75TCq2    C3 1145   4.098   1.661  13.626 -0.2249 -0.3556  1.0155
   75TCq2    C4 1146   4.117   1.651  13.491  0.2220  0.1997  0.8368
   75TCq2    C5 1147   4.034   1.723  13.410 -0.1194 -0.0765  0.4596
   75TCq2    C6 1148   3.938   1.798  13.472 -0.5483 -0.3288  0.1220
   75TCq2    C7 1149   3.916   1.815  13.608  0.3022  0.0083 -0.6675
   75TCq2    C8 1150   3.822   1.821  13.393 -0.0800  0.2401 -0.1608
   75TCq2    O4 1151   3.807   1.750  13.291 -0.2736 -0.0118 -0.0157
   75TCq2    C9 1152   4.235   1.588  13.438  0.4235  0.4226  0.7295
   75TCq2    O5 1153   4.272   1.614  13.323  0.6415 -0.2605 -0.3649
   75TCq2    O6 1154   4.288   1.493  13.502  0.5637 -0.3569  0.5291
   75TCq2    H2 1155   4.171   1.614  13.691 -0.1650 -1.7679 -0.0803
   75TCq2    H3 1156   4.034   1.718  13.302 -1.2340 -0.1457  0.4627
   75TCq2    H4 1157   3.817   1.831  13.649 -0.2080  1.0768 -2.3479
   76MPD2     C 1158   2.091   2.769  12.000  0.1477  0.7527  0.5536
   76MPD2    C1 1159   2.112   2.819  11.872  0.4210  0.2713  1.1544
   76MPD2    C2 1160   2.239   2.814  11.809  0.0541  0.0449  0.1561
   76MPD2    C3 1161   2.337   2.739  11.870  0.1508  0.4500 -0.0652
   76MPD2    C4 1162   2.310   2.683  11.994 -0.6149  0.5249 -0.0190
   76MPD2    C5 1163   2.196   2.710  12.065  0.2942  0.1275  0.1205
   76MPD2     H 1164   2.245   2.868  11.715 -3.6434  1.8973  0.9694
   76MPD2    H1 1165   2.391   2.625  12.039 -1.5144 -1.4725 -0.9614
   76MPD2    H2 1166   1.994   2.793  12.044  0.4114  2.9475 -0.0811
   76MPD2    H3 1167   2.185   2.681  12.169 -0.2875 -0.4975 -0.1207
   76MPD2     N 1168   2.459   2.708  11.812  0.0519  0.8442 -0.2714
   76MPD2    H5 1169   2.531   2.654  11.860 -1.3133 -1.3037 -0.6780
   76MPD2    N1 1170   2.006   2.885  11.805  0.2274  0.1094 -0.4428
   76MPD2    H7 1171   2.029   2.923  11.714  0.0115  2.0800  0.3312
   77TCq2    C1 1172   2.492   2.753  11.688  0.5583  0.2278  0.2314
   77TCq2    O2 1173   2.433   2.803  11.595 -0.7986 -0.3829 -0.0586
   77TCq2    C2 1174   2.621   2.691  11.652 -0.4754 -0.5214  0.5297
   77TCq2    C3 1175   2.611   2.557  11.614  0.6218  0.2216  0.3607
   77TCq2    C4 1176   2.718   2.472  11.628 -0.0685 -0.4458  0.3724
   77TCq2    C5 1177   2.828   2.508  11.699  0.7806 -0.5078 -0.1995
   77TCq2    C6 1178   2.832   2.638  11.749  0.0286  0.2727 -0.6032
   77TCq2    C7 1179   2.730   2.731  11.727 -0.0811  0.4337 -0.4659
   77TCq2    C8 1180   2.936   2.677  11.851  0.4611  0.2646 -0.7998
   77TCq2    O4 1181   2.946   2.793  11.885  0.3601 -0.1588 -0.1414
   77TCq2    C9 1182   2.696   2.334  11.596  0.1559 -0.2458  0.4743
   77TCq2    O5 1183   2.576   2.304  11.568  0.0863 -0.2134  0.4124
   77TCq2    O6 1184   2.758   2.251  11.667  0.2656 -0.0481 -0.2239
   77TCq2    H2 1185   2.515   2.523  11.576 -0.3498  2.1943  1.0212
   77TCq2    H3 1186   2.908   2.436  11.708 -0.4668 -1.7952  0.5676
   77TCq2    H4 1187   2.740   2.835  11.753  1.1818  0.0793  0.4620
   78MPD1     C 1188   3.476   3.488   1.877  0.3938  0.0366  0.2339
   78MPD1    C1 1189   3.552   3.399   1.805 -0.2652  0.2930  0.0670
   78MPD1    C2 1190   3.689   3.420   1.828  0.0339 -0.1511 -0.6315
   78MPD1    C3 1191   3.746   3.529   1.898 -0.4120  0.0829 -0.1282
   78MPD1    C4 1192   3.653   3.608   1.961  0.5651 -0.8485  0.1876
   78MPD1    C5 1193   3.520   3.594   1.947 -0.1930  0.1299 -0.7343
   78MPD1     H 1194   3.761   3.347   1.792  1.1482  0.0169  1.2169
   78MPD1    H1 1195   3.682   3.700   2.010  2.4795 -1.9714  1.1624
   78MPD1    H2 1196   3.370   3.465   1.882  0.1261  1.6127  1.5949
   78MPD1    H3 1197   3.444   3.655   1.994 -0.9960 -1.5333  0.1085
   78MPD1     N 1198   3.880   3.546   1.915  0.0019  0.6542  0.2964
   78MPD1    H5 1199   3.903   3.623   1.977  3.3834 -0.3798  0.3025
   78MPD1    N1 1200   3.492   3.277   1.772  0.3508  0.3656  0.5103
   78MPD1    H6 1201   3.540   3.241   1.690  1.5906  0.7867  1.0551
   78MPD1    H7 1202   3.395   3.281   1.741  0.2198 -0.5353  0.7788
   79TCq2    C1 1203   3.984   3.494   1.839 -0.5764 -0.2093  0.7882
   79TCq2    O2 1204   3.976   3.422   1.739 -0.3710  0.5129  0.2067
   79TCq2    C2 1205   4.115   3.547   1.890  0.6975 -0.4839 -0.6957
   79TCq2    C3 1206   4.131   3.598   2.012  0.1292  0.3478  0.2580
   79TCq2    C4 1207   4.244   3.669   2.050  0.4655  0.9163 -0.1607
   79TCq2    C5 1208   4.331   3.703   1.960 -0.1877  0.8419  0.5469
   79TCq2    C6 1209   4.314   3.651   1.829 -0.0069 -0.3528  0.7401
   79TCq2    C7 1210   4.204   3.573   1.793  0.6039 -0.3157  0.0798
   79TCq2    C8 1211   4.414   3.662   1.723 -0.8019 -0.8590 -0.0492
   79TCq2    O4 1212   4.394   3.627   1.609 -0.1069 -0.1291 -0.9074
   79TCq2    C9 1213   4.257   3.737   2.181 -0.6349 -0.2940  1.3783
   79TCq2    O5 1214   4.375   3.769   2.209 -1.3256  0.4889  0.5981
   79TCq2    O6 1215   4.165   3.740   2.262 -0.8123  0.3400  0.2608
   79TCq2    H2 1216   4.058   3.573   2.088  1.2032 -1.4341  0.7207
   79TCq2    H3 1217   4.392   3.788   1.985  0.8372  0.2767 -0.0592
   79TCq2    H4 1218   4.197   3.525   1.696 -0.3190 -0.6181  0.2953
   80MPD2     C 1219   2.050   1.872  12.270 -0.8852 -0.3685 -0.6949
   80MPD2    C1 1220   1.972   1.965  12.201  0.2322 -0.1318 -0.9252
   80MPD2    C2 1221   1.848   1.991  12.242 -0.4449  0.6690 -0.1570
   80MPD2    C3 1222   1.788   1.925  12.358 -0.1247  0.7560 -0.1049
   80MPD2    C4 1223   1.869   1.845  12.438  0.2354  0.0893 -0.2509
   80MPD2    C5 1224   1.998   1.816  12.390 -0.1329  0.6397 -0.5713
   80MPD2     H 1225   1.794   2.066  12.186  0.1212 -0.3043 -1.9873
   80MPD2    H1 1226   1.840   1.787  12.526 -0.5569 -0.7743 -1.0830
   80MPD2    H2 1227   2.150   1.841  12.243 -0.7055  0.4979 -1.0125
   80MPD2    H3 1228   2.057   1.740  12.440  0.1599  1.9092  1.0051
   80MPD2     N 1229   1.658   1.953  12.404  0.1693 -0.4472 -0.4673
   80MPD2    H5 1230   1.625   1.896  12.481  1.9656 -0.5962  0.2078
   80MPD2    N1 1231   2.005   2.013  12.072  0.0460  0.2288  0.0737
   80MPD2    H7 1232   1.940   2.065  12.014 -0.5982  0.7525  1.2670
   81TCq2    C1 1233   2.114   1.970  11.996 -0.4171  0.3556  0.1682
   81TCq2    O2 1234   2.212   1.904  12.026 -0.4657  0.4735 -0.0181
   81TCq2    C2 1235   2.105   1.998  11.854  0.0397  0.4475 -0.7578
   81TCq2    C3 1236   2.227   1.988  11.784  0.7435  1.1060 -1.0974
   81TCq2    C4 1237   2.218   2.012  11.651 -0.2058  0.2058  0.4694
   81TCq2    C5 1238   2.101   2.015  11.581 -0.0856 -0.2988 -0.1673
   81TCq2    C6 1239   1.989   2.035  11.656 -0.6828  0.3354  0.0356
   81TCq2    C7 1240   1.988   2.027  11.791 -0.0637  0.4967 -0.6995
   81TCq2    C8 1241   1.863   2.013  11.587 -0.1646 -0.2325  0.4852
   81TCq2    O4 1242   1.865   2.005  11.465  0.1852 -0.0125  0.2159
   81TCq2    C9 1243   2.340   2.025  11.573 -0.0270 -0.4746 -0.1011
   81TCq2    O5 1244   2.455   2.033  11.633  1.0124 -0.3072  0.4685
   81TCq2    O6 1245   2.326   2.005  11.448 -0.6535  0.3689 -0.0445
   81TCq2    H2 1246   2.320   1.982  11.839 -1.6096 -0.5707  2.7307
   81TCq2    H3 1247   2.102   2.014  11.472  3.3963 -1.4584 -0.0968
   81TCq2    H4 1248   1.900   2.026  11.855  0.7780  1.3440  0.4488
   82MPD2     C 1249   4.558   1.537  10.739  0.4470  0.0105  0.1488
   82MPD2    C1 1250   4.547   1.416  10.684  0.5713 -0.1470 -0.3245
   82MPD2    C2 1251   4.588   1.300  10.754 -0.3403  0.2453 -0.1209
   82MPD2    C3 1252   4.619   1.308  10.888 -1.0904  0.6194 -0.7636
   82MPD2    C4 1253   4.628   1.433  10.950  0.0462 -0.3169 -0.0749
   82MPD2    C5 1254   4.593   1.544  10.872  0.0578  0.4325 -0.8669
   82MPD2     H 1255   4.564   1.204  10.708 -1.8201  0.4078  0.3249
   82MPD2    H1 1256   4.645   1.432  11.057 -0.4596 -1.7193 -0.0115
   82MPD2    H2 1257   4.526   1.627  10.689  0.3586  1.0652  2.1220
   82MPD2    H3 1258   4.593   1.645  10.911 -0.2656 -0.2448  0.8751
   82MPD2     N 1259   4.642   1.198  10.976  0.0537  1.3731  0.5213
   82MPD2    H5 1260   4.648   1.223  11.074 -2.0885  1.2681  0.6849
   82MPD2    N1 1261   4.486   1.408  10.557 -0.2161 -0.1066 -0.3522
   82MPD2    H7 1262   4.447   1.496  10.524 -1.1471 -0.6704 -0.7734
   83TCq2    C1 1263   4.626   1.068  10.943  0.0296  0.5058  0.5081
   83TCq2    O2 1264   4.608   1.009  10.835 -0.4673 -0.0817 -0.1894
   83TCq2    C2 1265   4.638   0.993  11.068  0.1190  0.2532  0.1002
   83TCq2    C3 1266   4.698   1.042  11.184 -1.1828  0.4668  0.4024
   83TCq2    C4 1267   4.683   0.976  11.301 -0.4968  0.3430  0.4348
   83TCq2    C5 1268   4.613   0.861  11.310 -0.2264 -0.7790  0.9340
   83TCq2    C6 1269   4.550   0.814  11.197  0.3139  0.6342  0.0367
   83TCq2    C7 1270   4.561   0.874  11.073  0.2464 -0.6190 -0.1001
   83TCq2    C8 1271   4.433   0.727  11.217 -0.0034  0.0296 -0.2222
   83TCq2    O4 1272   4.377   0.744  11.325 -0.0735  0.3614 -0.0224
   83TCq2    C9 1273   0.040   1.027  11.413  0.2822  0.5262 -0.3706
   83TCq2    O5 1274   0.037   1.153  11.421  0.1300 -0.3663 -0.0092
   83TCq2    O6 1275   0.055   0.943  11.507  0.1528 -0.1299  0.0246
   83TCq2    H2 1276   0.028   1.135  11.187 -1.1581  0.4887 -0.7266
   83TCq2    H3 1277   4.622   0.796  11.396 -0.1218 -3.9697 -1.5005
   83TCq2    H4 1278   4.509   0.844  10.983  0.0088 -0.1220 -0.1273
   84TCq2    C1 1279   1.044   0.685  10.248 -0.3494  0.4345 -0.0543
   84TCq2    O2 1280   1.116   0.686  10.149 -0.2950 -0.1551  0.1348
   84TCq2    C2 1281   1.048   0.805  10.338 -0.0198 -0.4831 -0.1604
   84TCq2    C3 1282   1.103   0.915  10.272  0.0977  0.3042 -0.3083
   84TCq2    C4 1283   1.129   1.023  10.350  1.0292 -0.8105 -0.6602
   84TCq2    C5 1284   1.096   1.018  10.481  0.0708  1.2355 -0.2449
   84TCq2    C6 1285   1.049   0.900  10.545 -0.0549  0.0954 -0.5589
   84TCq2    C7 1286   1.013   0.793  10.474  0.3256 -0.3689  0.0816
   84TCq2    C8 1287   0.970   0.928  10.662  0.3958  0.1605  0.1063
   84TCq2    O4 1288   1.015   1.009  10.739 -0.2637 -0.6009 -0.4401
   84TCq2    C9 1289   1.164   1.147  10.285  0.1412  0.1524 -0.1955
   84TCq2    O5 1290   1.181   1.243  10.363  0.0033 -0.1042 -0.1168
   84TCq2    O6 1291   1.165   1.159  10.163 -0.0965  0.0542 -0.5194
   84TCq2    H2 1292   1.128   0.906  10.167  1.4646 -1.2013  0.1495
   84TCq2    H3 1293   1.111   1.108  10.539 -1.8735  1.3991  0.0242
   84TCq2    H4 1294   0.990   0.701  10.526  0.5233 -0.7789 -0.5445
   85MPD2     C 1295   1.570   3.121  16.177 -0.1325  0.1471  0.6294
   85MPD2    C1 1296   1.485   3.168  16.082  0.4518  0.1857  0.5219
   85MPD2    C2 1297   1.515   3.281  16.001 -0.0764 -0.1019  0.5649
   85MPD2    C3 1298   1.625   3.360  16.037  0.4890 -0.3572  1.0056
   85MPD2    C4 1299   1.696   3.324  16.152  0.7032  0.0391 -0.3709
   85MPD2    C5 1300   1.669   3.206  16.213 -0.4374 -0.2056 -0.0713
   85MPD2     H 1301   1.450   3.323  15.925  0.6990 -1.1111 -0.6555
   85MPD2    H1 1302   1.784   3.378  16.185  0.3152  0.5072 -0.1080
   85MPD2    H2 1303   1.554   3.025  16.224  0.9000 -0.1741  0.3097
   85MPD2    H3 1304   1.747   3.175  16.282 -0.1114  1.3399  0.2385
   85MPD2     N 1305   1.665   3.476  15.955  0.2038  0.1973  0.3889
   85MPD2    H5 1306   1.615   3.503  15.871 -0.1184 -0.5815  0.3237
   85MPD2    N1 1307   1.374   3.088  16.045  0.2821  0.0296  0.6990
   85MPD2    H7 1308   1.327   3.112  15.959  1.4040 -0.0355  0.0603
   86TCq2    C1 1309   1.767   3.563  15.992 -0.1760  0.6014  0.4020
   86TCq2    O2 1310   1.859   3.556  16.074 -0.3536 -0.2838  0.1594
   86TCq2    C2 1311   1.782   3.673  15.889 -0.1625 -0.0508  0.1469
   86TCq2    C3 1312   1.681   3.733  15.825 -0.2895 -0.0404  0.1211
   86TCq2    C4 1313   1.707   3.844  15.749 -0.0754 -0.0538  0.5492
   86TCq2    C5 1314   1.839   3.884  15.729 -0.3194 -0.1874  0.4908
   86TCq2    C6 1315   1.942   3.832  15.797  0.2959  0.0079 -0.2107
   86TCq2    C7 1316   1.914   3.722  15.875 -0.5121 -0.0179  0.6209
   86TCq2    C8 1317   2.076   3.820  15.742  0.0681  0.4970  0.0941
   86TCq2    O4 1318   2.138   3.720  15.768  0.0533  0.1645  0.2143
   86TCq2    C9 1319   1.597   3.918  15.698 -0.1618 -0.5748 -0.2701
   86TCq2    O5 1320   1.630   4.019  15.631 -0.2439 -0.6024  0.0299
   86TCq2    O6 1321   1.481   3.883  15.727 -0.3695  0.2642 -0.1621
   86TCq2    H2 1322   1.579   3.700  15.838 -1.1565  1.5575 -2.6353
   86TCq2    H3 1323   1.851   3.976  15.673 -2.2591 -0.7457 -0.8536
   86TCq2    H4 1324   1.993   3.657  15.912 -0.8212  0.3311  1.8718
   87MPD2     C 1325   2.885   2.092   0.423 -0.1341 -0.0881 -0.3707
   87MPD2    C1 1326   2.941   2.098   0.290 -0.5488  0.1416  1.1213
   87MPD2    C2 1327   2.862   2.125   0.177 -0.7890  0.0530 -0.4693
   87MPD2    C3 1328   2.729   2.167   0.201  0.1495 -0.5507  0.4846
   87MPD2    C4 1329   2.674   2.133   0.320 -0.2503  0.2303  0.4627
   87MPD2    C5 1330   2.744   2.099   0.434 -0.8046 -0.7420 -0.1973
   87MPD2     H 1331   2.901   2.128   0.076  0.1723  2.1056 -0.0286
   87MPD2    H1 1332   2.572   2.151   0.355 -0.6271 -2.8203  0.9524
   87MPD2    H2 1333   2.945   2.071   0.511  0.7876  1.1861 -0.6924
   87MPD2    H3 1334   2.691   2.076   0.526  1.2812  0.7468  1.3639
   87MPD2     N 1335   2.645   2.221   0.099  0.0747  0.1599 -0.1360
   87MPD2    H5 1336   2.551   2.251   0.123  0.1852 -0.6127  1.2503
   87MPD2    N1 1337   3.085   2.072   0.286  0.1299 -0.0795 -0.2648
   87MPD2    H7 1338   3.141   2.068   0.371 -0.7897  0.0594  0.3515
   88TCq2    C1 1339   3.149   2.036   0.164  0.5002 -0.2356  0.5124
   88TCq2    O2 1340   3.104   2.029   0.055 -0.6365  0.1780  0.5963
   88TCq2    C2 1341   3.285   1.995   0.189  0.2657  0.3285  0.1911
   88TCq2    C3 1342   3.347   2.005   0.320  0.0348  0.0107 -0.5688
   88TCq2    C4 1343   3.461   1.935   0.344  0.1032 -0.0161 -1.2586
   88TCq2    C5 1344   3.521   1.855   0.249 -0.4965  0.4176 -0.7137
   88TCq2    C6 1345   3.464   1.851   0.123 -0.3791 -0.1563  0.4210
   88TCq2    C7 1346   3.344   1.905   0.096  0.4406  0.5340  0.1500
   88TCq2    C8 1347   3.532   1.780   0.013  0.1816 -0.0510 -0.5030
   88TCq2    O4 1348   3.469   1.747  17.616  0.1183 -0.0861  0.7733
   88TCq2    C9 1349   3.510   1.925   0.480 -0.8644 -0.1311 -0.2297
   88TCq2    O5 1350   3.435   1.975   0.571 -0.3466 -0.1020 -0.1711
   88TCq2    O6 1351   3.629   1.893   0.502 -0.0285  0.1221 -0.2559
   88TCq2    H2 1352   3.310   2.069   0.399 -0.8362 -1.5678  0.3074
   88TCq2    H3 1353   3.613   1.804   0.274 -1.5171 -1.3960 -0.6341
   88TCq2    H4 1354   3.298   1.889  17.701  2.7273  2.7550 -1.3053
   89MPD2     C 1355   4.506   0.266   1.591 -0.3617 -0.1943 -0.5421
   89MPD2    C1 1356   4.434   0.384   1.568 -0.2690  0.6712  0.2029
   89MPD2    C2 1357   4.503   0.489   1.519 -0.6843 -0.2897 -0.1232
   89MPD2    C3 1358   4.638   0.493   1.497 -0.0151  0.8552  0.5990
   89MPD2    C4 1359   4.708   0.377   1.529 -0.4704  0.0751 -0.3455
   89MPD2    C5 1360   4.642   0.265   1.573 -0.3365  0.3344 -0.2070
   89MPD2     H 1361   4.443   0.577   1.500  0.0888  0.6543  1.8314
   89MPD2    H1 1362   0.088   0.371   1.504 -0.3315 -0.6837  0.4220
   89MPD2    H2 1363   4.457   0.171   1.607 -1.9323  0.4240 -1.5812
   89MPD2    H3 1364   4.691   0.169   1.581  1.6078  1.5880  3.0681
   89MPD2     N 1365   4.696   0.613   1.459  0.1550  0.7094  0.0189
   89MPD2    H5 1366   4.639   0.694   1.437  0.2267  1.3022  1.9733
   89MPD2    N1 1367   4.297   0.392   1.598 -0.0679  0.4046 -0.4857
   89MPD2    H7 1368   4.250   0.476   1.566 -1.3059  0.3441  1.2076
   90TCq2    C1 1369   0.103   0.640   1.466 -0.6822  0.3932  0.1672
   90TCq2    O2 1370   0.203   0.565   1.472 -0.2798  0.0833  0.3038
   90TCq2    C2 1371   0.125   0.779   1.442  0.8890 -0.0871  0.0751
   90TCq2    C3 1372   0.035   0.865   1.494  0.0339  0.3604  0.2135
   90TCq2    C4 1373   0.077   0.986   1.541  0.3966 -0.2262 -0.4473
   90TCq2    C5 1374   0.211   1.018   1.547 -0.4842 -0.4936 -0.5590
   90TCq2    C6 1375   0.297   0.934   1.492  0.0715 -0.6590  0.2638
   90TCq2    C7 1376   0.251   0.823   1.430 -0.4197 -0.2801  0.3450
   90TCq2    C8 1377   0.439   0.970   1.496 -0.0644  0.9004  0.1578
   90TCq2    O4 1378   0.463   1.057   1.572 -0.5251 -0.7065  0.1268
   90TCq2    C9 1379   4.712   1.064   1.613  0.2145 -0.4509  0.1083
   90TCq2    O5 1380   4.596   1.022   1.632  0.2600 -0.2979  1.0392
   90TCq2    O6 1381   0.030   1.170   1.663  0.1304 -0.3666 -0.2422
   90TCq2    H2 1382   4.655   0.843   1.507 -0.3790  1.4420 -1.3006
   90TCq2    H3 1383   0.243   1.109   1.596 -2.6607  1.1243 -2.1441
   90TCq2    H4 1384   0.326   0.751   1.399  0.0492  0.2147  0.3302
   91TMC2    C1 1385   1.745   4.006  16.421  0.3382 -0.0100 -0.0553
   91TMC2    C2 1386   1.812   4.041  16.533 -0.8722  0.5743  0.0275
   91TMC2    C3 1387   1.735   4.060  16.645 -0.1825  0.3895 -0.8833
   91TMC2    C4 1388   1.613   3.978  16.409  0.2958 -0.2434 -0.1395
   91TMC2    C5 1389   1.542   3.978  16.527 -0.3957  0.1237 -0.0425
   91TMC2    C6 1390   1.598   4.031  16.644 -0.1703  0.1888  0.2605
   91TMC2     C 1391   1.822   3.989  16.298 -0.7575  0.3644 -0.3935
   91TMC2     O 1392   1.761   3.934  16.208 -0.0684 -0.1645  0.4764
   91TMC2     H 1393   1.920   4.045  16.538 -0.7879 -2.6179  0.2768
   91TMC2    H1 1394   1.572   3.952  16.312 -0.9464 -1.2489  0.6546
   91TMC2    H2 1395   1.542   4.027  16.737 -1.1287  2.1514 -0.2235
   91TMC2    C7 1396   1.401   3.934  16.539 -0.5016  0.5201  0.0382
   91TMC2    C8 1397   1.807   4.087  16.772 -0.0620  0.1074 -0.3622
   91TMC2    O1 1398   1.358   3.908  16.658 -0.4094 -0.0959  0.4320
   91TMC2    O2 1399   1.747   4.067  16.879 -0.3966  0.1294  0.4146
   91TMC2    O5 1400   1.854   4.211  16.744 -0.0642  0.0703  0.1831
   91TMC2    H5 1401   1.868   4.228  16.649  0.0306  1.4585  0.4459
   92MPD2     C 1402   2.057   3.901  16.144  0.0222 -0.5462 -1.3310
   92MPD2    C1 1403   2.047   4.026  16.196  1.1085 -0.3073  0.5267
   92MPD2    C2 1404   2.149   4.108  16.177  0.0183 -0.3117 -0.5252
   92MPD2    C3 1405   2.252   4.087  16.085  0.1259 -0.2554  0.2818
   92MPD2    C4 1406   2.255   3.965  16.024 -0.1182 -0.1879 -0.2433
   92MPD2    C5 1407   2.162   3.868  16.061  0.3983 -0.8766 -0.0827
   92MPD2     H 1408   2.150   4.205  16.225  2.9270 -1.3726  1.5847
   92MPD2    H1 1409   2.333   3.940  15.954  2.0388 -1.5747  2.6735
   92MPD2    H2 1410   1.989   3.823  16.175 -2.1709  1.2726 -1.5826
   92MPD2    H3 1411   2.163   3.762  16.039 -0.3430 -0.6581 -1.1438
   92MPD2     N 1412   2.342   4.200  16.064  0.3510  0.2758 -0.0089
   92MPD2    H5 1413   2.351   4.275  16.131  0.2425  0.1745  0.1199
   92MPD2    N1 1414   1.949   4.047  16.293 -0.5359 -0.2647  0.0353
   92MPD2    H7 1415   1.964   4.117  16.365 -1.6102  0.9520 -0.9062
   93MPD2     C 1416   3.676   3.975  13.892 -0.2869 -0.0703  0.4988
   93MPD2    C1 1417   3.650   4.106  13.926  0.1040  0.0715  0.7034
   93MPD2    C2 1418   3.523   4.140  13.985 -1.1767  0.5494  0.1105
   93MPD2    C3 1419   3.429   4.042  13.994 -0.3553 -0.0944 -0.1500
   93MPD2    C4 1420   3.462   3.915  13.977  0.1064  0.0776  0.4844
   93MPD2    C5 1421   3.582   3.885  13.931 -0.4123  0.6254 -0.6624
   93MPD2     H 1422   3.510   4.244  14.010 -0.4762 -0.1867  3.5211
   93MPD2    H1 1423   3.388   3.838  13.996 -0.9515  1.0379  0.2496
   93MPD2    H2 1424   3.767   3.940  13.844 -0.8429 -1.2693  0.3266
   93MPD2    H3 1425   3.610   3.780  13.927 -2.4359  0.0192  0.8679
   93MPD2     N 1426   3.297   4.080  14.019 -0.0295 -0.1261  0.6330
   93MPD2    H5 1427   3.227   4.007  14.028 -0.4787  0.4740  2.0363
   93MPD2    N1 1428   3.747   4.214  13.918  0.1875 -0.2779 -0.0783
   93MPD2    H7 1429   3.734   4.299  13.972  0.6988 -1.4414  1.8623
   94TCq2    C1 1430   3.860   4.201  13.840 -0.1205  0.1872  0.5166
   94TCq2    O2 1431   3.890   4.114  13.755 -0.0337  0.3084 -0.2143
   94TCq2    C2 1432   3.947   4.317  13.852 -0.0008  0.3264  0.5938
   94TCq2    C3 1433   3.944   4.389  13.970 -0.1739  0.9288  0.4958
   94TCq2    C4 1434   3.985   4.522  13.967  0.3130  1.1516  0.6157
   94TCq2    C5 1435   4.046   4.571  13.854 -0.1444 -0.2781  0.5466
   94TCq2    C6 1436   4.044   4.499  13.739  0.1113 -0.4670  0.1790
   94TCq2    C7 1437   3.997   4.370  13.735  0.6443 -0.6371 -0.1332
   94TCq2    C8 1438   4.150   4.530  13.640 -0.0694 -0.2454 -0.3733
   94TCq2    O4 1439   4.209   4.434  13.597 -0.0822 -0.2679 -0.1565
   94TCq2    C9 1440   3.965   4.600  14.088  0.0071  0.2227 -0.1846
   94TCq2    O5 1441   3.869   4.573  14.165  0.1927  0.4868  0.4031
   94TCq2    O6 1442   4.037   4.708  14.092  0.0827 -0.6343 -0.0851
   94TCq2    H2 1443   3.900   4.350  14.061  0.5220  0.6932  0.7318
   94TCq2    H3 1444   4.058   4.679  13.851  1.5841 -0.5964 -3.9705
   94TCq2    H4 1445   4.013   4.309  13.646  0.6700 -2.3030  1.0233
   95TMC2    C1 1446   3.215   1.595  15.944  0.4266 -1.1883  0.3110
   95TMC2    C2 1447   3.164   1.509  16.041  0.1933  0.5020 -0.1227
   95TMC2    C3 1448   3.136   1.570  16.161  0.9298 -0.0270 -0.4964
   95TMC2    C4 1449   3.233   1.731  15.966 -0.3946  0.4005  0.4328
   95TMC2    C5 1450   3.194   1.785  16.084 -0.2167 -0.4745 -1.2731
   95TMC2    C6 1451   3.145   1.705  16.181  0.3162 -0.2784  0.0022
   95TMC2     C 1452   3.273   1.544  15.826  0.2041 -0.4060  0.5028
   95TMC2     O 1453   3.327   1.622  15.752  0.5649 -0.4758  0.3576
   95TMC2     H 1454   3.151   1.401  16.036 -1.1956  0.7365 -1.2945
   95TMC2    H1 1455   3.260   1.787  15.878 -0.9641  1.6924  1.0805
   95TMC2    H2 1456   3.121   1.749  16.278  3.5102  0.0236  0.6833
   95TMC2    C7 1457   3.181   1.931  16.093 -0.7656  0.1812  0.0845
   95TMC2    C8 1458   3.069   1.492  16.263  0.3370 -0.1972  0.3607
   95TMC2    O1 1459   3.138   1.969  16.202  0.0614 -0.5264  0.5697
   95TMC2    O2 1460   3.112   1.386  16.316  0.0366 -0.5324 -0.5673
   95TMC2    O5 1461   2.981   1.574  16.319  0.3231 -0.1161 -0.1107
   95TMC2    H5 1462   2.954   1.645  16.257  0.3739 -1.0859 -1.2629
   96MPD2     C 1463   3.435   1.173  15.510 -0.8096 -0.2044 -0.7299
   96MPD2    C1 1464   3.498   1.294  15.541 -0.2683  0.6457 -0.1024
   96MPD2    C2 1465   3.433   1.373  15.637 -0.5046 -0.0227 -0.3039
   96MPD2    C3 1466   3.314   1.334  15.697 -0.7733 -0.3352  0.3354
   96MPD2    C4 1467   3.256   1.218  15.659  0.1448 -0.1788 -0.0653
   96MPD2    C5 1468   3.317   1.138  15.574 -0.6242 -0.3018 -0.3353
   96MPD2     H 1469   3.479   1.466  15.666 -1.8137  1.1105 -1.8661
   96MPD2    H1 1470   3.162   1.186  15.703  0.3643  0.0044  0.5308
   96MPD2    H2 1471   3.468   1.108  15.430 -2.5912 -1.4591 -0.4375
   96MPD2    H3 1472   3.263   1.052  15.536 -1.6860 -0.9144  2.5408
   96MPD2     N 1473   3.256   1.407  15.807 -0.0440 -0.2307 -0.2940
   96MPD2    H5 1474   3.188   1.357  15.864 -1.8739 -0.8283 -2.9680
   96MPD2    N1 1475   3.631   1.311  15.492  0.1047 -0.2671  0.4966
   96MPD2    H7 1476   3.658   1.245  15.419  2.9259  2.1137 -0.6244
   97MPD2     C 1477   4.635   3.783   0.470 -0.0940 -0.4232  0.0832
   97MPD2    C1 1478   0.038   3.794   0.504  0.2991  0.7224 -0.2327
   97MPD2    C2 1479   0.139   3.711   0.448  0.0366  0.2167 -0.0618
   97MPD2    C3 1480   0.099   3.623   0.352  0.4189 -0.1563  0.0684
   97MPD2    C4 1481   4.693   3.615   0.312  0.0455  0.0482  1.0035
   97MPD2    C5 1482   4.598   3.690   0.380  0.1853  0.2245  0.1726
   97MPD2     H 1483   0.242   3.714   0.480  0.6169 -0.6993 -1.8503
   97MPD2    H1 1484   4.669   3.537   0.240  2.4630 -1.6197  1.9815
   97MPD2    H2 1485   4.550   3.843   0.500 -0.3125  0.9858 -3.3554
   97MPD2    H3 1486   4.500   3.687   0.334  0.0397 -3.5775  0.7328
   97MPD2     N 1487   0.187   3.556   0.271 -0.4285  0.2820  0.3480
   97MPD2    H5 1488   0.140   3.502   0.200  1.2197 -2.1677  1.1135
   97MPD2    N1 1489   0.083   3.887   0.597 -0.6490  0.3346  0.1887
   97MPD2    H7 1490   0.184   3.890   0.606 -0.5167  3.8053 -2.4786
   98TCq2    C1 1491   0.323   3.574   0.270 -0.0926 -0.4666 -0.4377
   98TCq2    O2 1492   0.395   3.644   0.349  0.1506  0.0710 -0.3646
   98TCq2    C2 1493   0.388   3.528   0.148 -0.9866 -0.2670 -0.2290
   98TCq2    C3 1494   0.316   3.484   0.043 -0.2590  0.2019  0.5443
   98TCq2    C4 1495   0.386   3.488  17.623  0.1843  0.1435 -0.2706
   98TCq2    C5 1496   0.523   3.510  17.618 -0.1635  0.2361 -0.1458
   98TCq2    C6 1497   0.590   3.534   0.027  0.7651  0.2278 -0.4897
   98TCq2    C7 1498   0.530   3.541   0.143 -0.4511 -0.6492  0.1485
   98TCq2    C8 1499   0.711   3.612   0.017  0.2717 -0.1705  0.2010
   98TCq2    O4 1500   0.794   3.577  17.632 -0.5116  0.5037  0.4575
   98TCq2    C9 1501   0.314   3.478  17.496 -0.1330  0.4847 -0.0167
   98TCq2    O5 1502   0.365   3.523  17.392  0.5607 -0.0559 -0.5704
   98TCq2    O6 1503   0.191   3.449  17.513  0.6645 -0.0088 -0.0469
   98TCq2    H2 1504   0.209   3.470   0.048 -0.3250 -0.2643 -1.9808
   98TCq2    H3 1505   0.585   3.512  17.529 -1.3016 -0.0522 -0.9521
   98TCq2    H4 1506   0.580   3.569   0.235  1.1496 -1.2386 -0.5595
   99MPD2     C 1507   4.223   1.654   1.080  0.7562  0.2104  0.1637
   99MPD2    C1 1508   4.107   1.601   1.037 -0.0156  0.3233  0.5150
   99MPD2    C2 1509   4.103   1.510   0.934 -0.2999  1.2492 -0.0661
   99MPD2    C3 1510   4.216   1.479   0.867  0.3205  0.5077  0.3851
   99MPD2    C4 1511   4.331   1.546   0.902  0.3342  0.3178 -0.4594
   99MPD2    C5 1512   4.336   1.624   1.009 -0.0089 -0.5003 -0.0374
   99MPD2     H 1513   4.008   1.467   0.904 -0.3464  0.6114  0.9642
   99MPD2    H1 1514   4.422   1.528   0.846  0.8184  1.7619 -0.1250
   99MPD2    H2 1515   4.224   1.718   1.168  2.6451 -0.8764  0.9476
   99MPD2    H3 1516   4.429   1.670   1.043 -2.5793  3.0429  2.2280
   99MPD2     N 1517   4.204   1.393   0.758 -0.1439 -0.7587  0.4752
   99MPD2    H5 1518   4.113   1.352   0.738 -0.3542  1.0510 -2.3110
   99MPD2    N1 1519   3.986   1.636   1.108 -0.2658 -0.3047 -0.1320
   99MPD2    H7 1520   3.906   1.582   1.076 -0.2889 -0.4890  0.2455
  100TCq2    C1 1521   3.966   1.722   1.214  0.0106 -0.5347  0.7567
  100TCq2    O2 1522   4.044   1.797   1.270 -0.1285 -0.4328  1.2060
  100TCq2    C2 1523   3.830   1.729   1.260  0.2544  0.0309 -0.3563
  100TCq2    C3 1524   3.787   1.845   1.316  0.1595 -0.0085 -0.3518
  100TCq2    C4 1525   3.656   1.859   1.338  0.2215  1.1575 -0.8685
  100TCq2    C5 1526   3.564   1.763   1.302 -0.3207  1.3099  0.2606
  100TCq2    C6 1527   3.607   1.647   1.249  0.5726  0.2409 -0.5677
  100TCq2    C7 1528   3.741   1.630   1.233 -0.5905 -0.3704 -0.0961
  100TCq2    C8 1529   3.518   1.545   1.190  0.2651  0.6736  0.0307
  100TCq2    O4 1530   3.571   1.440   1.161 -1.1698 -0.2533  0.4941
  100TCq2    C9 1531   3.607   1.984   1.390 -0.7124  0.3460  0.1169
  100TCq2    O5 1532   3.486   1.995   1.427  0.1788  0.5178 -0.1726
  100TCq2    O6 1533   3.698   2.068   1.406  0.2976  0.7288  0.0406
  100TCq2    H2 1534   3.856   1.919   1.355 -1.1572  1.2111 -0.3700
  100TCq2    H3 1535   3.458   1.782   1.316 -0.0184  1.0586  2.9803
  100TCq2    H4 1536   3.770   1.528   1.211  2.0511  0.8611 -2.2389
  101MPD2     C 1537   0.352   1.762  12.759 -0.3233  0.1734  0.0078
  101MPD2    C1 1538   0.244   1.832  12.799 -0.1686 -0.8180  0.6550
  101MPD2    C2 1539   0.158   1.770  12.889 -0.3681  0.3223  0.3271
  101MPD2    C3 1540   0.176   1.646  12.939  0.3063 -0.5543 -0.1590
  101MPD2    C4 1541   0.277   1.573  12.893  0.0303 -0.2611  0.5131
  101MPD2    C5 1542   0.368   1.632  12.812 -0.3966 -0.4685 -0.4677
  101MPD2     H 1543   0.076   1.829  12.927  1.1911  0.7291  3.0353
  101MPD2    H1 1544   0.304   1.479  12.940 -0.4715 -0.6914 -0.0503
  101MPD2    H2 1545   0.429   1.812  12.702  0.4371 -0.1045  0.7886
  101MPD2    H3 1546   0.457   1.573  12.790 -0.3581 -1.5377  2.5552
  101MPD2     N 1547   0.086   1.598  13.045 -0.0407  0.5719  0.9941
  101MPD2    H5 1548   0.021   1.660  13.093 -0.1529  0.6837  0.6915
  101MPD2    N1 1549   0.234   1.963  12.744  0.0151 -0.5538  0.5616
  101MPD2    H7 1550   0.308   1.995  12.683  0.4511  0.9391  1.8789
  102TCq2    C1 1551   0.363   2.354  12.486  0.4458 -0.1185  0.4320
  102TCq2    O2 1552   0.452   2.272  12.466  0.0343  0.0072  0.3028
  102TCq2    C2 1553   0.247   2.319  12.566 -0.0617 -0.0945 -0.7758
  102TCq2    C3 1554   0.167   2.420  12.612 -0.3562 -0.1632 -0.5523
  102TCq2    C4 1555   0.058   2.385  12.686 -0.9319  0.1237  0.2767
  102TCq2    C5 1556   0.041   2.252  12.720 -1.0215  0.1617  0.5718
  102TCq2    C6 1557   0.129   2.158  12.680 -0.9718 -0.5307 -0.6115
  102TCq2    C7 1558   0.231   2.192  12.604 -0.5126  0.0047  0.4466
  102TCq2    C8 1559   0.116   2.022  12.734 -1.1043 -0.0910  0.2883
  102TCq2    O4 1560   0.007   1.992  12.775  0.4634 -0.3018 -0.0405
  102TCq2    C9 1561   4.675   2.479  12.718  0.0887  0.5867  0.2016
  102TCq2    O5 1562   4.569   2.425  12.763  0.0368 -0.7751  0.1025
  102TCq2    O6 1563   4.676   2.585  12.646 -0.2904  0.0804 -0.3598
  102TCq2    H2 1564   0.182   2.527  12.613 -0.8165 -0.1022 -0.0456
  102TCq2    H3 1565   4.685   2.217  12.783 -1.6291 -2.0953 -1.4304
  102TCq2    H4 1566   0.299   2.121  12.558 -0.9373  0.1209 -0.3656
  103TMC2    C1 1567   3.520   2.925  12.112 -0.5779  0.0443 -0.0873
  103TMC2    C2 1568   3.561   3.028  12.036 -0.0878  0.1671 -0.3937
  103TMC2    C3 1569   3.636   3.125  12.100 -0.1732  0.2004  0.5893
  103TMC2    C4 1570   3.547   2.919  12.240 -0.8178 -0.1619  0.4221
  103TMC2    C5 1571   3.615   3.019  12.301  0.0239 -0.2536 -0.2217
  103TMC2    C6 1572   3.665   3.130  12.233  0.4188 -0.1516 -0.1221
  103TMC2     C 1573   3.407   2.854  12.054  0.5150 -0.1950  0.3903
  103TMC2     O 1574   3.347   2.902  11.964 -0.5895  0.1987  0.4279
  103TMC2     H 1575   3.542   3.037  11.930 -0.7158 -0.1457 -0.3077
  103TMC2    H1 1576   3.511   2.845  12.311 -0.0306  1.0808  2.1080
  103TMC2    H2 1577   3.718   3.206  12.288  0.9549 -0.0744 -0.7550
  103TMC2    C7 1578   3.627   3.010  12.443  0.9714  0.1571 -0.2910
  103TMC2    C8 1579   3.690   3.226  12.019  0.2596  1.4288  0.4887
  103TMC2    O1 1580   3.637   2.896  12.489 -0.3775  0.4078  0.3876
  103TMC2    O2 1581   3.627   3.266  11.924  0.1132 -0.2880  0.1364
  103TMC2    O5 1582   3.807   3.266  12.070  0.2342  0.1347 -0.3628
  103TMC2    H5 1583   3.839   3.213  12.146 -0.6673 -0.6849 -0.5491
  104MPD2     C 1584   3.278   2.549  12.203 -0.2407  0.1132 -0.3614
  104MPD2    C1 1585   3.273   2.656  12.119  0.8129 -0.3051 -0.7505
  104MPD2    C2 1586   3.169   2.671  12.027 -0.3083 -0.3478 -0.0788
  104MPD2    C3 1587   3.074   2.567  12.022  0.6814  0.6640  0.5284
  104MPD2    C4 1588   3.082   2.456  12.101  0.3019  0.0161 -0.0141
  104MPD2    C5 1589   3.189   2.450  12.192 -0.2374  0.0839 -0.7029
  104MPD2     H 1590   3.173   2.745  11.948  1.1064 -1.5090 -1.0964
  104MPD2    H1 1591   3.005   2.380  12.089  1.4014 -1.5344  2.7650
  104MPD2    H2 1592   3.366   2.529  12.263  0.4554 -1.0164 -1.7471
  104MPD2    H3 1593   3.209   2.359  12.247  0.2442  0.1767 -0.7264
  104MPD2     N 1594   2.977   2.563  11.918  0.3782 -0.7260 -0.3014
  104MPD2    H5 1595   2.922   2.479  11.900  2.0678 -1.4747 -2.0450
  104MPD2    N1 1596   3.378   2.750  12.134  0.2122 -0.2169 -0.1741
  104MPD2    H7 1597   3.452   2.715  12.193 -0.0114  2.6133  1.8218
  105MPD2     C 1598   0.326   1.547  17.314 -0.3912  0.2108 -0.2117
  105MPD2    C1 1599   0.200   1.573  17.262 -0.5517  0.4796 -0.3848
  105MPD2    C2 1600   0.090   1.581  17.346  0.6034 -0.4937 -0.3481
  105MPD2    C3 1601   0.112   1.568  17.482  0.1501 -0.2462 -0.1211
  105MPD2    C4 1602   0.240   1.540  17.530  0.5389 -0.2861 -0.1597
  105MPD2    C5 1603   0.344   1.518  17.445 -0.1583 -0.2284  0.6999
  105MPD2     H 1604   4.714   1.598  17.311  0.0084  1.1742  2.2004
  105MPD2    H1 1605   0.256   1.532  17.637  1.4499  1.2306 -0.1757
  105MPD2    H2 1606   0.421   1.562  17.263  0.2999 -2.3335  0.3483
  105MPD2    H3 1607   0.444   1.517  17.486  0.0614  1.1465  0.1582
  105MPD2     N 1608   0.002   1.592  17.565 -0.1801 -0.1536  0.5517
  105MPD2    H5 1609   4.646   1.623  17.513 -0.3492 -0.3670  0.6908
  105MPD2    N1 1610   0.177   1.604  17.124  0.2133  0.2247  0.6424
  105MPD2    H7 1611   0.087   1.630  17.084 -0.0685  0.2927  1.3234
  106TCq2    C1 1612   4.720   1.627  17.698 -0.1932  0.0843  0.5155
  106TCq2    O2 1613   0.084   1.639   0.078 -0.6151  0.4997 -0.2115
  106TCq2    C2 1614   4.594   1.694   0.021  0.7190 -1.2071 -0.3777
  106TCq2    C3 1615   4.588   1.797   0.113 -0.2532 -0.2422 -0.2858
  106TCq2    C4 1616   4.479   1.885   0.107 -0.5096 -1.2752  0.9462
  106TCq2    C5 1617   4.361   1.856   0.044 -0.3744  0.1290  0.6981
  106TCq2    C6 1618   4.371   1.745  17.664  0.9288  0.1809 -0.4133
  106TCq2    C7 1619   4.485   1.669  17.645  0.7664 -0.3412  0.1302
  106TCq2    C8 1620   4.251   1.701  17.588 -0.2107 -0.2598 -0.0141
  106TCq2    O4 1621   4.269   1.621  17.497  0.2831 -0.0225  0.3220
  106TCq2    C9 1622   4.483   1.995   0.198 -0.1351 -0.1766  0.0454
  106TCq2    O5 1623   4.376   2.066   0.206 -0.3602 -0.3979  0.1789
  106TCq2    O6 1624   4.578   2.001   0.280 -0.4107 -0.6600 -0.0286
  106TCq2    H2 1625   4.670   1.817   0.180 -1.0093 -1.2391  0.9269
  106TCq2    H3 1626   4.280   1.928   0.052 -0.0204  0.6133 -0.1248
  106TCq2    H4 1627   4.486   1.592  17.568 -1.4112 -0.4171  0.2000
  107TMC2    C1 1628   0.534   1.277  11.446  0.9199 -1.0360  0.4944
  107TMC2    C2 1629   0.580   1.391  11.383  0.5171 -0.5845  0.8731
  107TMC2    C3 1630   0.652   1.379  11.264  0.1538  0.2789  0.0926
  107TMC2    C4 1631   0.554   1.157  11.391  0.6464 -0.1848 -0.0754
  107TMC2    C5 1632   0.621   1.145  11.276  0.2823 -0.1170  0.0794
  107TMC2    C6 1633   0.672   1.255  11.204 -0.3106 -0.0096  0.0579
  107TMC2     C 1634   0.436   1.277  11.553  0.7173  0.0213 -0.9852
  107TMC2     O 1635   0.381   1.170  11.574  0.1317  0.4813  0.1623
  107TMC2     H 1636   0.568   1.491  11.424 -3.9267 -0.8172  0.1214
  107TMC2    H1 1637   0.542   1.066  11.449 -2.4367 -0.0210 -0.4571
  107TMC2    H2 1638   0.728   1.243  11.112 -1.4652 -1.6570 -0.4356
  107TMC2    C7 1639   0.617   1.015  11.213  0.5704 -1.0179 -0.3001
  107TMC2    C8 1640   0.711   1.503  11.211  0.5892 -0.8644  0.3754
  107TMC2    O1 1641   0.554   0.925  11.274 -0.4676  0.0726 -0.0413
  107TMC2    O2 1642   0.696   1.606  11.272  0.0236 -0.5256  0.4019
  107TMC2    O5 1643   0.813   1.481  11.126  0.3124 -0.1894 -0.4713
  107TMC2    H5 1644   0.821   1.388  11.097  0.7194 -0.5949  0.9972
  108MPD2     C 1645   0.346   1.548  11.789 -0.2266 -0.4051 -0.2801
  108MPD2    C1 1646   0.355   1.419  11.743  0.0792 -0.0871  0.6527
  108MPD2    C2 1647   0.289   1.314  11.816  0.6837  0.5509 -0.8508
  108MPD2    C3 1648   0.228   1.342  11.937 -0.0381  0.3205 -0.2044
  108MPD2    C4 1649   0.230   1.474  11.980  0.0177  0.3206 -0.5353
  108MPD2    C5 1650   0.295   1.573  11.910 -1.2431 -0.1584  0.0194
  108MPD2     H 1651   0.291   1.212  11.779  0.7770 -0.2126  1.2980
  108MPD2    H1 1652   0.165   1.501  12.062  1.0984 -1.0581  0.7616
  108MPD2    H2 1653   0.395   1.632  11.740  2.5077 -3.0384 -2.0546
  108MPD2    H3 1654   0.283   1.672  11.953  2.2982  0.9266 -1.4831
  108MPD2     N 1655   0.147   1.250  12.013  0.1857  0.1224  0.1417
  108MPD2    H5 1656   0.115   1.275  12.106 -0.6725  0.8429 -0.3451
  108MPD2    N1 1657   0.424   1.395  11.622  0.6898  0.2615  0.1727
  108MPD2    H7 1658   0.476   1.477  11.592 -1.4106  1.5475 -0.0058
  109MPD2     C 1659   0.825   3.217   1.163  0.0399  0.6356  0.4918
  109MPD2    C1 1660   0.742   3.330   1.163 -0.2784  0.7354  0.1181
  109MPD2    C2 1661   0.797   3.457   1.135  0.3286 -0.4961  0.7878
  109MPD2    C3 1662   0.933   3.477   1.123 -0.4821  0.7104  0.2014
  109MPD2    C4 1663   1.012   3.367   1.104 -0.5544 -0.4271  0.0394
  109MPD2    C5 1664   0.956   3.240   1.116 -0.2576 -0.1016 -0.2984
  109MPD2     H 1665   0.738   3.548   1.139  0.5536 -0.3685  1.2576
  109MPD2    H1 1666   1.119   3.364   1.090 -0.4905 -0.9152  0.5998
  109MPD2    H2 1667   0.784   3.116   1.164  2.3310 -0.2955 -0.7542
  109MPD2    H3 1668   1.019   3.155   1.093 -0.9029 -0.9935  1.1967
  109MPD2     N 1669   0.987   3.606   1.116 -0.1356  0.3039 -0.4800
  109MPD2    H5 1670   0.913   3.675   1.126 -1.2939 -1.3797  2.7052
  109MPD2    N1 1671   0.598   3.315   1.185  0.3629 -0.3644 -0.1348
  109MPD2    H7 1672   0.569   3.221   1.210 -1.8637 -0.2665 -2.3791
  110TCq2    C1 1673   1.114   3.651   1.102  0.8015 -0.1499 -0.0461
  110TCq2    O2 1674   1.218   3.586   1.122  0.3058  0.5078  0.6382
  110TCq2    C2 1675   1.127   3.796   1.092 -0.3360  0.4760  0.4499
  110TCq2    C3 1676   1.235   3.861   1.147 -0.9491  0.0311  0.8039
  110TCq2    C4 1677   1.251   3.998   1.115  0.0021  0.7416  0.3199
  110TCq2    C5 1678   1.167   4.068   1.037 -0.4696 -0.5835 -0.1504
  110TCq2    C6 1679   1.062   3.994   0.987 -0.2637 -0.0672  0.2500
  110TCq2    C7 1680   1.039   3.861   1.013 -0.3711 -0.0404  0.1401
  110TCq2    C8 1681   0.945   4.056   0.926  0.4966  0.4174  0.4422
  110TCq2    O4 1682   0.858   3.979   0.886  0.7484 -0.1358 -0.1753
  110TCq2    C9 1683   1.360   4.066   1.179  0.3045 -0.6455 -0.7483
  110TCq2    O5 1684   1.426   4.005   1.265 -0.3494  1.2067  0.6155
  110TCq2    O6 1685   1.354   4.194   1.173  0.0687  0.3945 -0.4268
  110TCq2    H2 1686   1.304   3.820   1.220 -1.5488 -1.7132  0.3881
  110TCq2    H3 1687   1.191   4.165   0.994  0.8360 -2.3746 -3.5049
  110TCq2    H4 1688   0.950   3.807   0.983 -2.0161  3.8829 -2.0930
  111TMC2    C1 1689   0.936   2.986  11.292  0.5475  0.0103  0.7867
  111TMC2    C2 1690   0.989   2.970  11.168  0.3624 -0.8843  0.2900
  111TMC2    C3 1691   1.109   2.906  11.164  0.9486 -0.6065 -0.2314
  111TMC2    C4 1692   0.998   2.936  11.403 -0.4296  0.1039 -0.4843
  111TMC2    C5 1693   1.120   2.870  11.389 -0.5738 -0.0833 -0.0093
  111TMC2    C6 1694   1.183   2.858  11.274  0.2108 -0.0362  0.6137
  111TMC2     C 1695   0.805   3.046  11.299 -0.4514 -0.0468 -0.3383
  111TMC2     O 1696   0.752   3.056  11.187  0.1512  0.3248  0.3155
  111TMC2     H 1697   0.941   3.000  11.076  1.0344 -3.4574 -0.8775
  111TMC2    H1 1698   0.965   2.950  11.505  1.3380 -0.0547  0.1006
  111TMC2    H2 1699   1.275   2.803  11.255  0.6768  0.3515  1.7368
  111TMC2    C7 1700   1.175   2.828  11.514  0.3359 -0.5745  0.4082
  111TMC2    C8 1701   1.197   2.939  11.056  0.3410  0.2146 -0.0193
  111TMC2    O1 1702   1.103   2.830  11.612 -0.2284 -0.3485  1.0770
  111TMC2    O2 1703   1.320   2.959  11.067 -0.5752  0.4555  0.1198
  111TMC2    O5 1704   1.145   2.890  10.946  0.5525  0.5942  0.1736
  111TMC2    H5 1705   1.079   2.819  10.962 -0.7624  1.5803 -0.8182
  112MPD2     C 1706   0.367   3.207  11.502  0.4867 -0.2981  0.0223
  112MPD2    C1 1707   0.404   3.197  11.367  0.1163 -0.0762 -0.1691
  112MPD2    C2 1708   0.526   3.140  11.336 -0.0742 -0.4246 -0.2067
  112MPD2    C3 1709   0.614   3.109  11.440  0.7431  0.9048 -0.5259
  112MPD2    C4 1710   0.579   3.124  11.573  0.1278  0.1353 -0.8476
  112MPD2    C5 1711   0.449   3.168  11.604 -0.5792 -1.2381  0.0706
  112MPD2     H 1712   0.544   3.117  11.232  3.9749  0.0720  0.4025
  112MPD2    H1 1713   0.642   3.113  11.660  0.3036  2.0590 -0.7195
  112MPD2    H2 1714   0.275   3.257  11.528  1.2554  0.7038  0.8621
  112MPD2    H3 1715   0.426   3.182  11.709  0.0796  0.2004  0.0211
  112MPD2     N 1716   0.747   3.058  11.423  0.2167 -0.1412  0.3589
  112MPD2    H5 1717   0.801   3.030  11.504  0.1523  1.8689  1.0828
  112MPD2    N1 1718   0.330   3.234  11.259  0.3093 -0.9020  0.0654
  112MPD2    H7 1719   0.377   3.228  11.170 -1.8868  0.1128 -1.1493
  113MPD2     C 1720   3.480   1.024   0.580  0.1694 -0.0290 -1.0353
  113MPD2    C1 1721   3.368   1.077   0.633  0.2045 -0.6588  0.2376
  113MPD2    C2 1722   3.255   0.997   0.634  0.4157  0.5775 -0.3539
  113MPD2    C3 1723   3.265   0.865   0.597  0.3060  0.5295  0.3025
  113MPD2    C4 1724   3.389   0.814   0.577 -1.2281  0.2143 -0.2242
  113MPD2    C5 1725   3.492   0.893   0.556 -0.2899 -0.0550 -0.0536
  113MPD2     H 1726   3.158   1.038   0.662  0.7811  0.5327  0.9564
  113MPD2    H1 1727   3.400   0.706   0.572  0.3509  0.3583  0.3533
  113MPD2    H2 1728   3.567   1.082   0.552  0.3391  0.3305  0.2342
  113MPD2    H3 1729   3.583   0.849   0.516 -1.4222 -1.0727 -1.5087
  113MPD2     N 1730   3.153   0.774   0.608  0.4453 -0.8302 -0.6428
  113MPD2    H5 1731   3.166   0.674   0.596 -1.2089 -1.0694 -0.4489
  113MPD2    N1 1732   3.356   1.217   0.674  0.0069  0.0018  0.3382
  113MPD2    H7 1733   3.269   1.252   0.713 -0.9944 -0.3472 -1.5786
  114TCq2    C1 1734   3.023   0.810   0.600  0.1817  0.6437  0.3652
  114TCq2    O2 1735   2.987   0.924   0.584 -0.3242  0.0422 -0.5166
  114TCq2    C2 1736   2.917   0.724   0.647 -0.1820  0.0977  0.6561
  114TCq2    C3 1737   2.791   0.775   0.664 -0.2893  0.1664  0.2050
  114TCq2    C4 1738   2.688   0.696   0.698 -0.2972 -0.2677 -0.4577
  114TCq2    C5 1739   2.708   0.563   0.718 -0.4257 -0.3113  0.6809
  114TCq2    C6 1740   2.830   0.518   0.702  0.6901 -0.0097 -0.3306
  114TCq2    C7 1741   2.938   0.591   0.667  0.0204 -0.4436  0.4894
  114TCq2    C8 1742   2.851   0.380   0.738 -1.3233  0.7016 -0.6322
  114TCq2    O4 1743   2.937   0.309   0.683  0.3276 -0.2587  0.1928
  114TCq2    C9 1744   2.556   0.742   0.720 -0.6534 -0.2699  0.4303
  114TCq2    O5 1745   2.475   0.672   0.783 -0.7707  0.6512 -0.4741
  114TCq2    O6 1746   2.533   0.862   0.692 -0.3586  0.0332 -0.3897
  114TCq2    H2 1747   2.773   0.881   0.653  1.0861  0.7787  3.8011
  114TCq2    H3 1748   2.619   0.502   0.732  0.2604 -0.9917  2.1818
  114TCq2    H4 1749   3.034   0.543   0.656  0.9245  1.3050  0.7102
  115TMC2    C1 1750   4.123   3.155   0.226 -0.0805 -0.6721  0.7689
  115TMC2    C2 1751   4.259   3.132   0.226  0.1460 -0.3766  0.7560
  115TMC2    C3 1752   4.344   3.236   0.241 -0.0729 -0.4163 -0.2486
  115TMC2    C4 1753   4.076   3.278   0.259 -0.3191 -0.4872  0.1467
  115TMC2    C5 1754   4.169   3.381   0.274 -0.0337 -0.2388  0.8438
  115TMC2    C6 1755   4.301   3.365   0.250 -0.0470 -0.2872 -0.1021
  115TMC2     C 1756   4.037   3.056   0.178 -0.1135 -0.0729  0.2627
  115TMC2     O 1757   4.084   2.954   0.133  0.4887 -0.0460 -0.2630
  115TMC2     H 1758   4.293   3.033   0.197  0.1905 -0.6096  1.6155
  115TMC2    H1 1759   3.973   3.308   0.277 -0.0931  1.1282 -1.2911
  115TMC2    H2 1760   4.373   3.445   0.258 -1.2950  0.8694 -0.4084
  115TMC2    C7 1761   4.118   3.511   0.297 -0.4702  0.6029 -0.4092
  115TMC2    C8 1762   4.485   3.214   0.200  0.7581 -0.3870 -0.6630
  115TMC2    O1 1763   4.004   3.518   0.348  0.3980 -0.5607 -0.3836
  115TMC2    O2 1764   4.525   3.141   0.107 -0.5986 -0.7174  0.5146
  115TMC2    O5 1765   4.565   3.272   0.291  0.1143  0.1373 -0.0514
  115TMC2    H5 1766   4.512   3.308   0.365  2.3479  1.9942  0.6411
  116MPD2     C 1767   3.633   2.931  17.588 -0.2904 -0.1754  0.4841
  116MPD2    C1 1768   3.765   2.895  17.578  0.2966 -0.0831 -0.4150
  116MPD2    C2 1769   3.860   2.941  17.667 -0.3820 -0.5237  0.1602
  116MPD2    C3 1770   3.819   3.028   0.064 -0.1102 -0.7575 -0.0308
  116MPD2    C4 1771   3.691   3.072   0.073  0.3240 -0.1335 -0.4008
  116MPD2    C5 1772   3.600   3.018  17.690 -0.3379 -0.0031 -0.2008
  116MPD2     H 1773   3.961   2.900  17.660  0.5725  2.2444 -2.1985
  116MPD2    H1 1774   3.663   3.150   0.143 -2.3778 -0.2479 -1.3145
  116MPD2    H2 1775   3.548   2.893  17.532 -0.5420 -2.3293  2.3629
  116MPD2    H3 1776   3.499   3.049   0.010  0.6608  2.1747  1.3084
  116MPD2     N 1777   3.903   3.091   0.157  0.6795 -0.0103  0.2949
  116MPD2    H5 1778   3.865   3.171   0.206 -0.5840 -0.6433  0.3461
  116MPD2    N1 1779   3.789   2.806  17.467 -0.2374  0.3680  0.3678
  116MPD2    H7 1780   3.709   2.790  17.406  0.1519  2.0784 -0.5920
  117TMC2    C1 1781   2.724   0.096  13.939 -0.2599 -0.1618 -0.4886
  117TMC2    C2 1782   2.777   4.714  14.003  0.1563  0.2586 -0.1907
  117TMC2    C3 1783   2.910   4.717  14.033 -0.1503 -0.2923  0.0961
  117TMC2    C4 1784   2.800   0.209  13.917  0.5424 -0.3376 -0.1008
  117TMC2    C5 1785   2.932   0.213  13.956  0.7986  0.1112 -1.1799
  117TMC2    C6 1786   2.993   0.100  14.014 -0.4810  0.1866  0.1512
  117TMC2     C 1787   2.594   0.094  13.892 -0.3560 -0.3276 -0.5182
  117TMC2     O 1788   2.524   4.721  13.922 -0.0404 -0.2446 -0.2740
  117TMC2     H 1789   2.718   4.625  14.023  1.2603 -0.9188 -2.2145
  117TMC2    H1 1790   2.757   0.307  13.896 -2.6551 -1.7110  0.0240
  117TMC2    H2 1791   3.090   0.109  14.063 -0.3998  2.1265 -0.3581
  117TMC2    C7 1792   3.009   0.321  13.897  0.3455 -0.7993 -0.3554
  117TMC2    C8 1793   2.939   4.607  14.126 -1.1801 -0.4240  0.5881
  117TMC2    O1 1794   2.995   0.339  13.775  0.9587  0.3459  0.4075
  117TMC2    O2 1795   2.858   4.555  14.198 -0.0973 -0.3162 -0.2548
  117TMC2    O5 1796   3.061   4.553  14.105  0.0560  0.4249 -0.1665
  117TMC2    H5 1797   3.106   4.593  14.027 -0.5642  0.2698 -0.6071
  118MPD2     C 1798   3.311   0.466  14.065  0.4935 -0.0991 -0.1857
  118MPD2    C1 1799   3.227   0.427  13.959  0.5760  0.2285  0.8021
  118MPD2    C2 1800   3.265   0.454  13.834  1.0611 -0.0442 -0.0060
  118MPD2    C3 1801   3.390   0.510  13.811 -0.4576 -0.3357  0.7766
  118MPD2    C4 1802   3.479   0.524  13.912  0.0703 -0.2484 -0.4581
  118MPD2    C5 1803   3.436   0.507  14.042  0.3326  0.1334  0.2088
  118MPD2     H 1804   3.198   0.422  13.755  1.4457 -2.9665  0.8475
  118MPD2    H1 1805   3.573   0.578  13.912  0.3554 -0.7359 -0.1367
  118MPD2    H2 1806   3.279   0.449  14.167  1.1975  3.1771  0.5632
  118MPD2    H3 1807   3.500   0.537  14.124 -0.0201 -0.3673  0.6730
  118MPD2     N 1808   3.440   0.538  13.686 -0.4284  0.0666 -0.8071
  118MPD2    H5 1809   3.541   0.546  13.675 -0.6509  1.1851 -2.0728
  118MPD2    N1 1810   3.103   0.367  13.989  0.0496  0.7217  0.4770
  118MPD2    H7 1811   3.084   0.350  14.088 -0.8909 -0.0308  0.1777
  119MPD2     C 1812   1.198   1.499  13.754  0.2404  0.6190 -0.0288
  119MPD2    C1 1813   1.065   1.521  13.785  0.2805 -0.5843 -0.3056
  119MPD2    C2 1814   0.972   1.546  13.682 -0.7130  0.3258 -0.7299
  119MPD2    C3 1815   1.010   1.538  13.555  0.1611  0.3066  1.2801
  119MPD2    C4 1816   1.140   1.514  13.523  0.8715  0.9045  0.0138
  119MPD2    C5 1817   1.237   1.497  13.625 -0.1096  0.1274 -0.3150
  119MPD2     H 1818   0.864   1.551  13.698 -0.4934  2.0182  0.2884
  119MPD2    H1 1819   1.183   1.509  13.423 -2.0827 -1.9336 -1.0986
  119MPD2    H2 1820   1.270   1.492  13.834  0.5769  0.2072 -0.3617
  119MPD2    H3 1821   1.344   1.496  13.609 -0.1189  3.4527 -0.7075
  119MPD2     N 1822   0.920   1.551  13.445  0.5493 -0.2914  0.1636
  119MPD2    H5 1823   0.958   1.537  13.352 -1.2415 -0.7598 -0.5031
  119MPD2    N1 1824   1.033   1.511  13.919 -0.2143  0.0688 -0.4569
  119MPD2    H7 1825   1.108   1.479  13.980  0.0274 -0.6644 -1.1501
  120TCq2    C1 1826   0.782   1.575  13.452 -0.0177  0.1575 -0.6949
  120TCq2    O2 1827   0.706   1.598  13.545 -0.1862 -0.0279  0.6484
  120TCq2    C2 1828   0.713   1.520  13.336  0.2541 -0.7880 -0.0466
  120TCq2    C3 1829   0.776   1.498  13.216 -0.6331  0.3919 -1.1009
  120TCq2    C4 1830   0.705   1.446  13.117  0.1475  0.5433 -0.3353
  120TCq2    C5 1831   0.577   1.411  13.126 -0.1311  0.5577 -0.8824
  120TCq2    C6 1832   0.513   1.449  13.238  0.6103  0.3852 -0.7588
  120TCq2    C7 1833   0.579   1.504  13.346  0.7942  0.1815 -0.0942
  120TCq2    C8 1834   0.404   1.357  13.278  0.0033  0.0733  0.1514
  120TCq2    O4 1835   0.336   1.302  13.192  0.3935 -0.2410  0.1195
  120TCq2    C9 1836   0.772   1.395  13.001 -0.5940  0.7079 -0.2786
  120TCq2    O5 1837   0.895   1.428  12.997 -0.2297  0.1499  0.0356
  120TCq2    O6 1838   0.723   1.307  12.927  0.0700 -0.2116  0.5895
  120TCq2    H2 1839   0.880   1.523  13.200 -0.3081 -0.1165  0.1649
  120TCq2    H3 1840   0.530   1.359  13.042 -1.2319 -1.1074  0.7689
  120TCq2    H4 1841   0.526   1.537  13.435 -2.1644  1.0062 -2.1535
  121TMC2    C1 1842   2.501   2.946  14.464 -0.3072  0.2113  0.5677
  121TMC2    C2 1843   2.581   2.915  14.570  0.3582 -0.1881  0.2955
  121TMC2    C3 1844   2.518   2.828  14.659  0.4995 -0.0851 -0.2969
  121TMC2    C4 1845   2.367   2.918  14.455 -0.2078  0.2631  0.2178
  121TMC2    C5 1846   2.314   2.836  14.547  0.8018  0.4424 -0.2850
  121TMC2    C6 1847   2.387   2.791  14.651  0.6833  0.1422 -0.3460
  121TMC2     C 1848   2.551   3.017  14.352 -0.3862 -0.1111  0.3735
  121TMC2     O 1849   2.484   3.024  14.252  0.3386  0.1462 -0.8204
  121TMC2     H 1850   2.688   2.929  14.568  0.8595 -3.4635  3.7424
  121TMC2    H1 1851   2.313   2.948  14.366 -1.2275  0.7772  1.0083
  121TMC2    H2 1852   2.343   2.711  14.710  2.4118 -0.7047 -0.1861
  121TMC2    C7 1853   2.163   2.829  14.561  0.4226 -0.4593  0.2692
  121TMC2    C8 1854   2.611   2.756  14.739 -0.1956  0.3030  0.0861
  121TMC2    O1 1855   2.127   2.788  14.672 -0.3380  0.1754 -0.0496
  121TMC2    O2 1856   2.734   2.791  14.740 -0.7309 -0.1502  1.1150
  121TMC2    O5 1857   2.551   2.683  14.836 -0.2381  0.3212  0.3535
  121TMC2    H5 1858   2.454   2.696  14.840 -0.0382  2.2365 -0.9408
  122MPD2     C 1859   2.816   3.275  14.357 -1.0033 -0.3590 -0.2490
  122MPD2    C1 1860   2.710   3.203  14.304  0.6659 -0.1263 -0.0336
  122MPD2    C2 1861   2.674   3.231  14.169 -0.3204 -0.8874 -0.2377
  122MPD2    C3 1862   2.743   3.336  14.098  0.1578  0.3906 -0.2547
  122MPD2    C4 1863   2.855   3.401  14.158  0.7335  0.3575  1.2281
  122MPD2    C5 1864   2.883   3.373  14.289 -0.1071  0.0733 -0.9206
  122MPD2     H 1865   2.597   3.175  14.119 -1.1622 -1.4858  1.7471
  122MPD2    H1 1866   2.901   3.489  14.116  1.9210  0.7391  3.3663
  122MPD2    H2 1867   2.845   3.254  14.460 -3.2466 -0.2629  0.4186
  122MPD2    H3 1868   2.962   3.427  14.340 -1.3868  1.3583 -0.2785
  122MPD2     N 1869   2.695   3.388  13.969 -0.3675  0.2133  0.1886
  122MPD2    H5 1870   2.739   3.470  13.930 -0.0917 -0.0962 -0.1460
  122MPD2    N1 1871   2.656   3.098  14.387 -0.3844 -0.1189  0.1032
  122MPD2    H7 1872   2.686   3.097  14.484  0.1869  2.6416 -0.0511
  123MPD2     C 1873   0.756   1.094  10.274  0.3167  0.0014 -0.0684
  123MPD2    C1 1874   0.736   1.119  10.141  0.3036  0.2081 -0.2163
  123MPD2    C2 1875   0.774   1.244  10.108  0.5033  0.0896  0.5953
  123MPD2    C3 1876   0.825   1.341  10.194  0.1543  0.3364 -0.2078
  123MPD2    C4 1877   0.839   1.309  10.327 -0.3958 -0.4869 -0.5981
  123MPD2    C5 1878   0.804   1.183  10.365  0.2409 -0.1500 -0.2091
  123MPD2     H 1879   0.754   1.283  10.009 -3.8791 -0.2603  1.3550
  123MPD2    H1 1880   0.900   1.371  10.393 -1.0357 -0.0974 -0.3714
  123MPD2    H2 1881   0.735   0.998  10.320  1.6492 -0.2069  0.1090
  123MPD2    H3 1882   0.807   1.154  10.469 -0.4244 -0.3228 -0.2414
  123MPD2     N 1883   0.848   1.477  10.150 -0.3565  0.5136 -0.0152
  123MPD2    H5 1884   0.833   1.498  10.052 -1.1047 -0.2593 -0.0727
  123MPD2    N1 1885   0.676   1.021  10.058 -0.5950  0.1690 -0.1725
  123MPD2    H7 1886   0.650   0.931  10.097  1.4545 -0.6431 -0.6933
  124TCq2    C1 1887   0.865   1.584  10.237 -0.3536 -0.3720  0.0144
  124TCq2    O2 1888   0.853   1.601  10.359 -0.8370  0.0488  0.2577
  124TCq2    C2 1889   0.862   1.700  10.152 -0.0783 -0.3818 -0.7867
  124TCq2    C3 1890   0.759   1.792  10.183  0.4075  0.4449  0.5658
  124TCq2    C4 1891   0.701   1.853  10.074 -0.5850  0.3500  0.0233
  124TCq2    C5 1892   0.745   1.844   9.944 -0.3050 -0.3845  0.2264
  124TCq2    C6 1893   0.846   1.757   9.918  0.4253 -0.3732 -0.2110
  124TCq2    C7 1894   0.903   1.683  10.022  0.0523  0.2077 -0.2879
  124TCq2    C8 1895   0.860   1.703   9.784 -0.5574 -0.5315  1.0622
  124TCq2    O4 1896   0.875   1.577   9.790 -0.2863 -0.0762  0.2001
  124TCq2    C9 1897   0.580   1.937  10.101  0.4407  0.2858  0.1513
  124TCq2    O5 1898   0.535   1.996   9.997 -0.1704 -0.2278  0.4328
  124TCq2    O6 1899   0.529   1.943  10.218 -0.2982 -0.1943  0.1373
  124TCq2    H2 1900   0.719   1.813  10.281  1.1176  0.6689  0.8070
  124TCq2    H3 1901   0.686   1.895   9.869 -3.2784 -1.6990  1.6730
  124TCq2    H4 1902   0.971   1.607   9.986 -0.5322 -0.0292 -0.9022
  125TMC2    C1 1903   2.184   3.018   9.206  0.0189 -0.6562 -0.1739
  125TMC2    C2 1904   2.185   2.984   9.339 -0.5833 -0.1573 -0.8771
  125TMC2    C3 1905   2.303   2.954   9.397 -0.2742 -0.2781  0.2913
  125TMC2    C4 1906   2.301   3.025   9.129  1.1251  0.2257  0.9408
  125TMC2    C5 1907   2.416   2.996   9.190 -0.0465  0.0911 -0.4599
  125TMC2    C6 1908   2.418   2.953   9.320  0.6623  0.7045 -0.7716
  125TMC2     C 1909   2.056   3.067   9.153 -0.5356 -0.0766 -0.4915
  125TMC2     O 1910   1.954   3.012   9.200 -0.0156 -0.4083  0.1420
  125TMC2     H 1911   2.093   2.969   9.395  0.4938  1.6281  1.3630
  125TMC2    H1 1912   2.293   3.052   9.025 -1.3901  1.9523  1.5523
  125TMC2    H2 1913   2.505   2.911   9.369 -0.8018  0.3813  1.5622
  125TMC2    C7 1914   2.524   2.972   9.099  0.2734 -0.1401 -0.7646
  125TMC2    C8 1915   2.296   2.877   9.524 -0.3171 -0.2942 -0.0957
  125TMC2    O1 1916   2.498   2.959   8.984 -0.1585 -0.2765  0.5966
  125TMC2    O2 1917   2.354   2.769   9.537 -0.4369  0.2374 -0.1229
  125TMC2    O5 1918   2.218   2.948   9.611 -0.6133  0.4918 -0.3812
  125TMC2    H5 1919   2.204   3.039   9.580 -0.0289  1.8173  3.2550
  126MPD1     C 1920   1.793   3.320   8.790  0.2055 -0.4167  0.3387
  126MPD1    C1 1921   1.905   3.395   8.817 -0.3214  0.5602 -0.3885
  126MPD1    C2 1922   1.996   3.338   8.902 -0.1027  0.2132 -0.3933
  126MPD1    C3 1923   1.976   3.214   8.966  0.1198  0.4844  0.2171
  126MPD1    C4 1924   1.851   3.157   8.953 -0.7311 -0.3249  0.3969
  126MPD1    C5 1925   1.765   3.212   8.867 -0.1340 -0.9578  0.1512
  126MPD1     H 1926   2.083   3.400   8.916  0.2471 -0.2584 -0.4633
  126MPD1    H1 1927   1.813   3.071   9.007  0.7539 -0.2565  1.5465
  126MPD1    H2 1928   1.714   3.356   8.726 -0.3885 -0.8523  0.8329
  126MPD1    H3 1929   1.677   3.151   8.845  0.8678 -1.8624 -1.3647
  126MPD1     N 1930   2.075   3.162   9.054 -0.5617 -0.0660 -0.9511
  126MPD1    H5 1931   2.170   3.197   9.051 -0.1503 -1.1961 -1.0732
  126MPD1    N1 1932   1.941   3.500   8.721 -0.6904  0.3307 -0.0593
  126MPD1    H6 1933   1.867   3.542   8.664 -1.4844  1.7233  2.0089
  126MPD1    H7 1934   1.992   3.577   8.764  0.4529 -0.1443 -0.5765
  127MPD2     C 1935   3.608   1.952   9.528  0.5024 -0.1078  0.2994
  127MPD2    C1 1936   3.557   2.056   9.607 -0.8973  0.2867 -0.0631
  127MPD2    C2 1937   3.620   2.102   9.717  0.0556  0.1348  0.5635
  127MPD2    C3 1938   3.745   2.057   9.754  0.4793 -0.4303 -0.3106
  127MPD2    C4 1939   3.798   1.954   9.671 -0.7470  0.3104 -0.6159
  127MPD2    C5 1940   3.721   1.894   9.568 -0.4159 -0.1417  0.2528
  127MPD2     H 1941   3.569   2.175   9.778 -0.0961  0.4990  0.0034
  127MPD2    H1 1942   3.897   1.924   9.704 -0.1696  2.4981 -0.4207
  127MPD2    H2 1943   3.557   1.914   9.441 -1.1930  1.8733  0.4102
  127MPD2    H3 1944   3.752   1.802   9.520 -3.1007 -1.7708  1.6079
  127MPD2     N 1945   3.802   2.116   9.879  0.4445  0.1586  0.6775
  127MPD2    H5 1946   3.745   2.184   9.929 -0.7853 -0.9512  0.7920
  127MPD2    N1 1947   3.426   2.109   9.593 -0.3058 -0.1539  0.3786
  127MPD2    H7 1948   3.408   2.175   9.668 -0.2429 -0.7588  0.9277
  128TCq2    C1 1949   3.320   2.055   9.519 -0.0532 -0.1503  0.4704
  128TCq2    O2 1950   3.323   1.994   9.416  0.6663  0.6179  0.0413
  128TCq2    C2 1951   3.197   2.079   9.588  0.4159 -0.8710 -0.2862
  128TCq2    C3 1952   3.199   2.112   9.721  0.0529 -0.4961 -0.0802
  128TCq2    C4 1953   3.078   2.120   9.784 -0.2368 -0.4134  0.8196
  128TCq2    C5 1954   2.964   2.116   9.715  0.4608 -0.1476 -0.7351
  128TCq2    C6 1955   2.965   2.087   9.583  0.0585  0.5051 -0.0767
  128TCq2    C7 1956   3.082   2.073   9.515  0.0417  0.3486  0.1940
  128TCq2    C8 1957   2.838   2.059   9.511 -0.5617  0.5946  0.8435
  128TCq2    O4 1958   2.842   2.093   9.393  0.2493  0.0460 -0.2008
  128TCq2    C9 1959   3.078   2.136   9.931 -0.0438 -0.1711 -0.1645
  128TCq2    O5 1960   3.196   2.153   9.979  0.1139  0.1124 -0.1282
  128TCq2    O6 1961   2.962   2.140   9.989 -0.7088  0.2054  0.4091
  128TCq2    H2 1962   3.289   2.112   9.781 -0.1087 -2.9531  0.1402
  128TCq2    H3 1963   2.865   2.109   9.759  0.2194 -0.1485 -1.2764
  128TCq2    H4 1964   3.079   2.052   9.409  1.8149 -0.1707  0.2500
  129MPD2     C 1965   0.861   2.424   1.339  0.2149 -0.4655  0.0976
  129MPD2    C1 1966   0.988   2.411   1.293 -0.0000 -0.3271 -0.5813
  129MPD2    C2 1967   1.036   2.513   1.211 -0.1593  0.9344 -0.4870
  129MPD2    C3 1968   0.958   2.620   1.178 -0.0132  0.7882 -0.1557
  129MPD2    C4 1969   0.835   2.633   1.227 -0.1353 -0.4230  0.5925
  129MPD2    C5 1970   0.787   2.532   1.311  0.3422  0.2360  0.3386
  129MPD2     H 1971   1.137   2.502   1.174 -0.0852 -0.6467  0.1720
  129MPD2    H1 1972   0.763   2.712   1.208 -1.7644 -2.5038 -1.7792
  129MPD2    H2 1973   0.796   2.356   1.393  0.8472 -0.3287  1.0215
  129MPD2    H3 1974   0.688   2.546   1.353  0.0040 -1.8823  0.2479
  129MPD2     N 1975   1.014   2.700   1.073 -0.4478  0.0087 -0.2137
  129MPD2    H5 1976   1.106   2.670   1.044 -0.2084  0.7290 -0.2095
  129MPD2    N1 1977   1.062   2.298   1.328  0.5050  0.0612 -0.1792
  129MPD2    H7 1978   1.153   2.285   1.286  0.9792  1.2427  0.4570
  130TCq2    C1 1979   1.017   2.191   1.402 -0.7662 -0.2195 -0.5133
  130TCq2    O2 1980   0.904   2.172   1.457 -0.2741  0.2031 -0.6661
  130TCq2    C2 1981   1.131   2.099   1.429  0.2971 -0.0108  0.3594
  130TCq2    C3 1982   1.256   2.117   1.380 -0.2780  0.3240  0.1566
  130TCq2    C4 1983   1.347   2.020   1.403 -0.5638 -0.3235 -0.5293
  130TCq2    C5 1984   1.311   1.910   1.475  0.0449 -0.6402 -0.1344
  130TCq2    C6 1985   1.187   1.894   1.514 -0.1113 -0.8950 -0.5754
  130TCq2    C7 1986   1.093   1.988   1.497 -0.5911 -0.7141 -0.3104
  130TCq2    C8 1987   1.142   1.759   1.559  0.8759  0.2187 -0.0766
  130TCq2    O4 1988   1.228   1.673   1.564  0.1623 -0.1908 -0.6037
  130TCq2    C9 1989   1.479   2.023   1.337  0.5077  0.3599  0.3048
  130TCq2    O5 1990   1.498   2.108   1.244  0.4221 -0.0243  0.3050
  130TCq2    O6 1991   1.572   1.948   1.376  0.3466 -0.2085  0.2554
  130TCq2    H2 1992   1.291   2.202   1.321 -0.9520  1.2072  1.0482
  130TCq2    H3 1993   1.385   1.836   1.503 -1.3336 -1.8356  0.3206
  130TCq2    H4 1994   0.988   1.972   1.519 -0.4992  1.7463  1.9591
  131MPD2     C 1995   0.205   1.382   9.281  0.0200 -0.2917  0.5302
  131MPD2    C1 1996   0.291   1.434   9.376 -0.2061  0.3754 -0.6867
  131MPD2    C2 1997   0.356   1.336   9.459 -0.8737 -0.9017 -0.5395
  131MPD2    C3 1998   0.330   1.195   9.439  0.1032  0.6425 -0.1600
  131MPD2    C4 1999   0.244   1.156   9.337 -0.1554  0.0122 -0.2913
  131MPD2    C5 2000   0.177   1.253   9.266 -0.6776 -0.0643  0.2893
  131MPD2     H 2001   0.434   1.367   9.529 -2.9761 -2.6643  2.5880
  131MPD2    H1 2002   0.210   1.054   9.323  1.7550 -0.5823 -0.6036
  131MPD2    H2 2003   0.147   1.444   9.213  0.8650 -0.4390 -0.3182
  131MPD2    H3 2004   0.106   1.225   9.190  0.4862  0.4384 -0.9856
  131MPD2     N 2005   0.388   1.110   9.532  0.0231 -0.1263 -0.0740
  131MPD2    H5 2006   0.438   1.152   9.610 -0.8026 -3.5753  2.2881
  131MPD2    N1 2007   0.319   1.571   9.385 -0.1634  0.1491  0.1203
  131MPD2    H7 2008   0.287   1.628   9.308 -0.3705  0.4843  0.4596
  132TCq2    C1 2009   0.443   2.010   9.187  0.2427  0.2756 -0.2834
  132TCq2    O2 2010   0.393   1.924   9.112  1.1577 -0.2229 -0.1937
  132TCq2    C2 2011   0.450   1.961   9.329 -0.0455  0.6123 -0.1511
  132TCq2    C3 2012   0.450   2.045   9.433 -0.0479 -0.9120 -0.1680
  132TCq2    C4 2013   0.423   1.990   9.557  0.2326  0.4694  0.1759
  132TCq2    C5 2014   0.410   1.853   9.581 -0.1395 -0.4616 -0.2864
  132TCq2    C6 2015   0.414   1.768   9.477 -0.0894  0.2754  0.3954
  132TCq2    C7 2016   0.427   1.823   9.345  0.0008 -0.2373 -0.0211
  132TCq2    C8 2017   0.387   1.625   9.493  0.0843 -0.3246 -0.3926
  132TCq2    O4 2018   0.421   1.580   9.604 -0.4709  0.6474 -0.7200
  132TCq2    C9 2019   0.415   2.081   9.671  0.7620  0.1874  0.7835
  132TCq2    O5 2020   0.373   2.041   9.779  0.0220  0.6921 -0.0331
  132TCq2    O6 2021   0.466   2.196   9.665 -0.2287 -0.2059  0.1145
  132TCq2    H2 2022   0.470   2.152   9.430 -2.1016 -0.4926  1.1053
  132TCq2    H3 2023   0.405   1.819   9.684 -0.0801  0.2051 -0.0668
  132TCq2    H4 2024   0.419   1.751   9.264 -1.0017  0.8010 -0.8338
  133MPD2     C 2025   4.170   2.965   8.774  0.3606  0.0479  0.1117
  133MPD2    C1 2026   4.293   2.919   8.817  0.1318 -1.0670  0.1813
  133MPD2    C2 2027   4.304   2.778   8.834 -0.2944  0.0183 -0.1026
  133MPD2    C3 2028   4.200   2.691   8.818 -0.0966  0.1073 -1.0317
  133MPD2    C4 2029   4.081   2.745   8.793  0.4452 -0.9169  0.5561
  133MPD2    C5 2030   4.065   2.878   8.768  0.2538 -0.9582 -0.0017
  133MPD2     H 2031   4.399   2.744   8.874 -0.2067 -1.7403 -1.8245
  133MPD2    H1 2032   3.994   2.680   8.803 -0.6126  0.0484 -2.4315
  133MPD2    H2 2033   4.145   3.069   8.756  0.2907  0.3916  2.2550
  133MPD2    H3 2034   3.968   2.917   8.739  0.6874  0.2025  0.0894
  133MPD2     N 2035   4.206   2.554   8.839  0.1557 -0.3522 -0.0151
  133MPD2    H5 2036   4.119   2.501   8.834 -1.2668  1.9630  0.4909
  133MPD2    N1 2037   4.393   3.013   8.848 -0.5029 -0.1389 -0.2764
  133MPD2    H7 2038   4.363   3.111   8.847  1.4074  0.4422  0.2999
  134TCq2    C1 2039   4.512   2.989   8.917 -0.3456  0.0554 -0.2258
  134TCq2    O2 2040   4.556   2.881   8.957 -0.2327  0.6384 -0.4630
  134TCq2    C2 2041   4.578   3.113   8.960 -0.1141  0.1488  0.3203
  134TCq2    C3 2042   4.560   3.223   8.877  0.5268 -0.0589 -0.1930
  134TCq2    C4 2043   4.587   3.340   8.936 -0.1538 -0.0044 -0.2015
  134TCq2    C5 2044   4.645   3.352   9.061  0.1986 -0.1556 -1.0231
  134TCq2    C6 2045   4.681   3.237   9.133  0.0184  0.4312 -0.7376
  134TCq2    C7 2046   4.643   3.117   9.081  0.1423 -0.0259  0.5775
  134TCq2    C8 2047   0.016   3.237   9.262  0.2521 -0.1407 -0.9073
  134TCq2    O4 2048   0.041   3.131   9.318 -0.2535 -0.6014  0.0749
  134TCq2    C9 2049   4.558   3.461   8.860  0.4676  0.6762  0.1276
  134TCq2    O5 2050   4.557   3.562   8.933 -0.6748  0.2070 -0.3722
  134TCq2    O6 2051   4.527   3.448   8.741 -0.2451 -0.4006 -0.0115
  134TCq2    H2 2052   4.521   3.220   8.776 -1.4062  1.2754  0.5316
  134TCq2    H3 2053   4.682   3.450   9.087  2.8024 -1.7899  1.4226
  134TCq2    H4 2054   4.657   3.024   9.135 -0.8347 -0.0482  0.7969
  135MPD2     C 2055   2.582   3.692   9.443  0.3604 -0.5392  0.6301
  135MPD2    C1 2056   2.500   3.610   9.364  0.4146 -0.0186 -0.1022
  135MPD2    C2 2057   2.557   3.528   9.272  0.1182  0.3927 -0.3370
  135MPD2    C3 2058   2.691   3.538   9.252  0.2937 -0.4286  0.2696
  135MPD2    C4 2059   2.772   3.627   9.319 -0.0194 -0.4317 -0.3720
  135MPD2    C5 2060   2.716   3.704   9.418  0.0647 -0.4669  0.6614
  135MPD2     H 2061   2.490   3.452   9.232 -0.0547  0.1289  0.4540
  135MPD2    H1 2062   2.879   3.630   9.305 -0.1839  2.4824 -0.8843
  135MPD2    H2 2063   2.552   3.756   9.525 -2.3542 -1.0420 -0.0001
  135MPD2    H3 2064   2.775   3.767   9.484  1.5657 -1.0785 -0.0943
  135MPD2     N 2065   2.762   3.447   9.171 -0.6747  0.1101 -0.0807
  135MPD2    H5 2066   2.863   3.456   9.177 -0.8490  3.4944 -2.1956
  135MPD2    N1 2067   2.359   3.593   9.382 -0.1809 -0.0979  1.0239
  135MPD2    H7 2068   2.307   3.532   9.318  2.0893 -1.4104  0.4381
  136TCq2    C1 2069   2.284   3.664   9.474 -0.0020 -0.0214  0.5482
  136TCq2    O2 2070   2.305   3.782   9.511  0.1422 -0.2363  0.2479
  136TCq2    C2 2071   2.169   3.589   9.523  0.0707  0.3270 -0.5388
  136TCq2    C3 2072   2.163   3.451   9.515 -0.8473 -0.5626 -0.1167
  136TCq2    C4 2073   2.063   3.389   9.579  0.1479 -0.8987 -0.1097
  136TCq2    C5 2074   1.965   3.453   9.654 -0.7464  0.1695  0.3781
  136TCq2    C6 2075   1.983   3.593   9.674 -0.2853  0.1310  0.4476
  136TCq2    C7 2076   2.080   3.661   9.598 -0.1144 -0.2227 -1.1547
  136TCq2    C8 2077   1.872   3.679   9.711  0.2864  0.0815  0.6115
  136TCq2    O4 2078   1.892   3.798   9.706  0.1108  0.6731  0.0100
  136TCq2    C9 2079   2.062   3.245   9.578  0.3703  0.0335 -0.1141
  136TCq2    O5 2080   1.975   3.192   9.651 -0.0317  0.2930 -0.2661
  136TCq2    O6 2081   2.177   3.194   9.568 -0.4956 -0.2405 -0.3885
  136TCq2    H2 2082   2.240   3.393   9.465  0.5123 -0.5753  2.0400
  136TCq2    H3 2083   1.898   3.396   9.716  1.5820 -0.7913  2.0312
  136TCq2    H4 2084   2.096   3.767   9.613  1.2065 -0.4937 -0.5903
  137MPD2     C 2085   2.204   2.815   8.756 -0.2925 -0.1684 -0.5824
  137MPD2    C1 2086   2.072   2.833   8.792  0.3401  0.3560  0.2034
  137MPD2    C2 2087   2.021   2.791   8.916  0.7680 -0.0026 -0.9068
  137MPD2    C3 2088   2.105   2.726   9.006 -0.5520  0.0249 -0.1341
  137MPD2    C4 2089   2.235   2.706   8.966  0.3116  0.1087  0.9891
  137MPD2    C5 2090   2.286   2.754   8.850 -0.4113  0.1502 -0.1915
  137MPD2     H 2091   1.919   2.793   8.951  0.9662  0.0908 -0.3334
  137MPD2    H1 2092   2.308   2.649   9.022  1.9661  0.4524 -0.8311
  137MPD2    H2 2093   2.241   2.855   8.662 -0.7814  0.8560 -0.3394
  137MPD2    H3 2094   2.391   2.739   8.824  0.1092  0.6883  1.6023
  137MPD2     N 2095   2.051   2.676   9.129  1.0667 -0.3109 -0.4084
  137MPD2    H5 2096   1.952   2.692   9.145  1.1545 -0.5718  0.3918
  137MPD2    N1 2097   1.986   2.891   8.696  0.4861 -0.4118 -0.0206
  137MPD2    H7 2098   2.024   2.921   8.607  1.9708  1.1194  1.1140
  138TCq2    C1 2099   1.849   2.907   8.711 -0.5456 -0.0372 -0.2991
  138TCq2    O2 2100   1.775   2.850   8.797  0.0570 -0.1901  0.1254
  138TCq2    C2 2101   1.784   2.990   8.603 -0.0560  0.1326  0.4014
  138TCq2    C3 2102   1.852   3.081   8.525 -0.1596 -0.0580 -0.9797
  138TCq2    C4 2103   1.792   3.136   8.409  0.5588 -0.3258 -0.7800
  138TCq2    C5 2104   1.669   3.104   8.365  0.7352 -0.6028  0.7400
  138TCq2    C6 2105   1.597   3.016   8.451 -0.9681  0.4321  0.3269
  138TCq2    C7 2106   1.650   2.957   8.565  0.3797 -0.0806 -0.0383
  138TCq2    C8 2107   1.497   2.942   8.381  0.6191 -1.1620 -0.7362
  138TCq2    O4 2108   1.497   2.949   8.257  0.2200  0.3036 -0.3106
  138TCq2    C9 2109   1.872   3.210   8.323 -0.7531  0.0887  0.6094
  138TCq2    O5 2110   1.996   3.210   8.349  0.2525  0.5850  0.6900
  138TCq2    O6 2111   1.824   3.260   8.218 -0.5504 -0.7256 -0.3073
  138TCq2    H2 2112   1.951   3.114   8.556  0.1859 -1.5896 -0.4231
  138TCq2    H3 2113   1.627   3.141   8.272  1.1658 -1.5796  0.1524
  138TCq2    H4 2114   1.609   2.868   8.610  0.5538 -0.1986 -0.1142
  139TMC2    C1 2115   2.229   1.204  13.393  1.0842 -0.0585  0.5355
  139TMC2    C2 2116   2.175   1.217  13.278  0.1078 -0.5120 -0.6059
  139TMC2    C3 2117   2.059   1.288  13.263 -0.3408 -0.8009 -0.1291
  139TMC2    C4 2118   2.172   1.275  13.502 -0.1057  0.4400  0.3979
  139TMC2    C5 2119   2.057   1.341  13.489  0.5979 -0.4940  0.3371
  139TMC2    C6 2120   1.994   1.350  13.367 -0.3498 -0.1423  0.4979
  139TMC2     C 2121   2.314   1.085  13.412 -1.0665 -0.2133 -0.1083
  139TMC2     O 2122   2.346   1.014  13.317  0.1566 -0.3741  0.2263
  139TMC2     H 2123   2.219   1.161  13.196 -1.3200 -1.6709 -0.5729
  139TMC2    H1 2124   2.218   1.275  13.600 -1.5505 -0.5806  1.0709
  139TMC2    H2 2125   1.893   1.387  13.356 -1.2821 -3.0288 -0.5347
  139TMC2    C7 2126   2.031   1.457  13.571 -0.4720  1.0560  0.3487
  139TMC2    C8 2127   1.998   1.291  13.133 -0.1339  0.0323  0.3527
  139TMC2    O1 2128   1.966   1.543  13.512 -0.4126 -0.5922 -0.7371
  139TMC2    O2 2129   1.955   1.190  13.078 -0.2489 -0.1271  0.1538
  139TMC2    O5 2130   1.945   1.414  13.124  0.5219 -0.1524 -0.1388
  139TMC2    H5 2131   2.000   1.478  13.174 -1.0347  0.3736  0.9100
  140MPD2     C 2132   2.441   0.966  13.747 -0.0462 -0.2622 -0.0906
  140MPD2    C1 2133   2.422   0.966  13.607  0.2541  0.5201 -0.1906
  140MPD2    C2 2134   2.467   0.854  13.538 -0.5317 -0.2230  1.3426
  140MPD2    C3 2135   2.528   0.747  13.600 -0.3405 -0.1976  0.1916
  140MPD2    C4 2136   2.557   0.757  13.734 -0.5727  0.6761  0.0374
  140MPD2    C5 2137   2.507   0.862  13.807 -0.7406 -0.3595  0.0967
  140MPD2     H 2138   2.454   0.847  13.430 -1.2371 -0.9768  1.4776
  140MPD2    H1 2139   2.606   0.675  13.785  0.9297  1.5699  0.0362
  140MPD2    H2 2140   2.405   1.045  13.811 -0.5568 -0.5306 -0.0436
  140MPD2    H3 2141   2.525   0.871  13.913 -0.9921 -0.0247  0.1122
  140MPD2     N 2142   2.566   0.635  13.529 -0.2341 -0.6435 -0.0716
  140MPD2    H5 2143   2.526   0.636  13.435  3.0644 -0.5104 -1.4882
  140MPD2    N1 2144   2.351   1.076  13.543  0.7535  0.1328 -0.1295
  140MPD2    H7 2145   2.330   1.154  13.604 -1.7660 -1.8290  1.5152
  141TCq2    C1 2146   2.905   2.455  13.616  0.4751 -0.3705  0.1364
  141TCq2    O2 2147   2.999   2.529  13.650 -0.0916 -0.0507 -0.0496
  141TCq2    C2 2148   2.801   2.435  13.713 -0.3036 -0.4432  0.0153
  141TCq2    C3 2149   2.693   2.370  13.674 -0.2823  0.2920 -0.2474
  141TCq2    C4 2150   2.606   2.332  13.772  0.3576 -0.5330  0.0046
  141TCq2    C5 2151   2.627   2.370  13.900 -0.0534  0.5209 -0.2017
  141TCq2    C6 2152   2.730   2.453  13.936  0.1830 -0.1696 -0.5208
  141TCq2    C7 2153   2.818   2.487  13.838 -0.0548  0.4383  0.1094
  141TCq2    C8 2154   2.736   2.529  14.065  0.4719  0.1311  0.4659
  141TCq2    O4 2155   2.675   2.478  14.157  0.1056  0.0305  0.3838
  141TCq2    C9 2156   2.488   2.261  13.740  0.3400 -0.1179 -0.5927
  141TCq2    O5 2157   2.436   2.200  13.837 -0.3432 -0.1073 -0.4240
  141TCq2    O6 2158   2.438   2.280  13.626 -0.7683 -0.3772  0.4703
  141TCq2    H2 2159   2.673   2.337  13.573 -0.3722 -0.0345 -0.1218
  141TCq2    H3 2160   2.552   2.351  13.977  0.1283 -0.5054 -0.2784
  141TCq2    H4 2161   2.907   2.546  13.859  1.3175 -1.8485  0.8041
  142MPD2     C 2162   0.811   0.664   9.962  0.0119  0.3856  0.4636
  142MPD2    C1 2163   0.747   0.606   9.858  0.5343  0.0011  0.0627
  142MPD2    C2 2164   0.747   0.667   9.735 -0.4088 -0.8727  0.3064
  142MPD2    C3 2165   0.827   0.788   9.716 -0.1902 -0.3658  0.0787
  142MPD2    C4 2166   0.898   0.842   9.821 -0.2898  0.4545  0.2840
  142MPD2    C5 2167   0.892   0.773   9.940 -0.0064  0.3147  0.2745
  142MPD2     H 2168   0.688   0.624   9.655  1.8899 -3.7262  0.1745
  142MPD2    H1 2169   0.936   0.944   9.823  0.4029  0.1880  0.5841
  142MPD2    H2 2170   0.805   0.624  10.063 -0.6583 -1.2700 -0.2427
  142MPD2    H3 2171   0.935   0.814  10.031  2.1571  2.0465 -1.5370
  142MPD2     N 2172   0.817   0.871   9.600 -0.0066  0.5178  0.1882
  142MPD2    H5 2173   0.876   0.953   9.597 -0.2869  0.7022 -0.2297
  142MPD2    N1 2174   0.698   0.474   9.885 -0.5343  0.1493 -0.1452
  142MPD2    H7 2175   0.714   0.435   9.978  1.0481  0.4249 -0.3052
  143TCq2    C1 2176   0.740   0.853   9.491  0.3774 -0.2208 -0.8447
  143TCq2    O2 2177   0.674   0.758   9.455  0.4243 -0.4779 -0.3112
  143TCq2    C2 2178   0.743   0.964   9.400 -0.3453  0.0289 -0.6566
  143TCq2    C3 2179   0.694   0.945   9.273  0.2491 -0.6621 -0.1135
  143TCq2    C4 2180   0.674   1.051   9.192 -0.3114 -0.2366  1.2413
  143TCq2    C5 2181   0.713   1.175   9.236  0.1291 -0.3042  0.4772
  143TCq2    C6 2182   0.770   1.190   9.357 -0.0774  0.2826 -0.3648
  143TCq2    C7 2183   0.786   1.087   9.448  0.7077 -0.3919  0.2396
  143TCq2    C8 2184   0.794   1.320   9.418  0.0548 -0.4641  0.6730
  143TCq2    O4 2185   0.841   1.326   9.533  0.1268  0.1720  0.3084
  143TCq2    C9 2186   0.615   1.045   9.063 -0.8601  0.3643 -0.3608
  143TCq2    O5 2187   0.582   0.934   9.017  0.0672 -0.5475 -0.2448
  143TCq2    O6 2188   0.598   1.156   9.004 -0.4904 -0.0297 -0.0726
  143TCq2    H2 2189   0.655   0.849   9.242  0.7717 -0.3685 -1.6553
  143TCq2    H3 2190   0.697   1.258   9.169 -1.8909 -1.0307  0.0506
  143TCq2    H4 2191   0.820   1.105   9.549 -1.7060 -0.7091  1.0960
  144MPD2     C 2192   3.062   0.316  17.632  0.5142  0.2721  0.0963
  144MPD2    C1 2193   3.099   0.183  17.621  0.1251 -0.8061 -0.5202
  144MPD2    C2 2194   3.171   0.123   0.020 -0.3649 -0.9274  0.4925
  144MPD2    C3 2195   3.183   0.178   0.143 -0.4377  0.5317 -0.3667
  144MPD2    C4 2196   3.139   0.308   0.158 -0.3153  0.2342  0.6302
  144MPD2    C5 2197   3.080   0.374   0.050  0.2428 -0.3548 -0.1366
  144MPD2     H 2198   3.201   0.019   0.008  2.3447  0.1552 -1.9231
  144MPD2    H1 2199   3.168   0.366   0.246 -1.2035  2.1664 -0.3427
  144MPD2    H2 2200   3.018   0.378  17.555  1.0950 -0.2014 -0.6173
  144MPD2    H3 2201   3.038   0.472   0.066 -1.1902 -0.8084 -1.1331
  144MPD2     N 2202   3.253   0.120   0.252 -0.1065  0.4381  0.0524
  144MPD2    H5 2203   3.255   0.175   0.337  0.8133 -0.3231  0.5362
  144MPD2    N1 2204   3.083   0.102  17.505 -0.2533 -0.2786  0.2584
  144MPD2    H7 2205   3.128   0.011  17.509 -0.5910 -0.4548  0.0049
  145TCq2    C1 2206   3.297   4.714   0.262 -0.0331 -0.2492 -0.0482
  145TCq2    O2 2207   3.267   4.623   0.187  0.3655 -0.4419  0.6550
  145TCq2    C2 2208   3.371   4.684   0.386 -0.4518 -0.0023 -0.4805
  145TCq2    C3 2209   3.404   4.546   0.399 -0.3442  0.3949  0.3756
  145TCq2    C4 2210   3.520   4.519   0.464 -0.0210 -0.2618  0.3575
  145TCq2    C5 2211   3.599   4.615   0.529  0.1588 -0.3941 -0.0071
  145TCq2    C6 2212   3.556   0.022   0.513 -0.2352  0.1765 -0.3262
  145TCq2    C7 2213   3.441   0.057   0.452  0.1774 -0.7093  0.1872
  145TCq2    C8 2214   3.636   0.134   0.569 -0.0828  0.5065  0.7365
  145TCq2    O4 2215   3.746   0.109   0.620  0.4253 -0.0793 -0.4177
  145TCq2    C9 2216   3.562   4.379   0.466  0.6184  0.2654  0.6899
  145TCq2    O5 2217   3.687   4.353   0.475 -0.3181 -0.2936  0.4467
  145TCq2    O6 2218   3.480   4.285   0.435  0.1599 -0.3951  0.8531
  145TCq2    H2 2219   3.363   4.467   0.337 -1.7497  1.6182 -0.2510
  145TCq2    H3 2220   3.686   4.581   0.584 -0.5897 -0.9471  0.8313
  145TCq2    H4 2221   3.419   0.159   0.423 -1.9450 -1.4494 -0.7436
  146TMC2    C1 2222   4.692   3.313  12.583  0.5488 -0.3376  0.3093
  146TMC2    C2 2223   4.647   3.371  12.466 -0.1633 -0.7740 -0.0455
  146TMC2    C3 2224   4.636   3.297  12.349  0.2321  0.1511 -0.2624
  146TMC2    C4 2225   0.002   3.181  12.581 -0.1142  0.1828 -0.0817
  146TMC2    C5 2226   4.721   3.109  12.467  0.1393  0.0896  0.4780
  146TMC2    C6 2227   4.670   3.159  12.353 -0.0230 -0.5902  0.4057
  146TMC2     C 2228   4.695   3.391  12.710 -0.3199 -0.5496  0.6692
  146TMC2     O 2229   4.668   3.508  12.692  0.2727  0.0338 -0.4641
  146TMC2     H 2230   4.643   3.479  12.458 -1.6428 -0.8982 -0.8661
  146TMC2    H1 2231   0.038   3.140  12.674 -2.2640  1.1912  1.1893
  146TMC2    H2 2232   4.672   3.105  12.259 -0.5265 -0.3722  0.2668
  146TMC2    C7 2233   0.110   3.019  12.452 -0.1523  0.4094  0.5475
  146TMC2    C8 2234   4.702   3.368  12.245  0.0012  0.5010 -0.3013
  146TMC2    O1 2235   0.160   3.019  12.339  0.2846  0.2549 -0.7137
  146TMC2    O2 2236   0.065   3.445  12.276 -0.0986  0.0478 -0.3130
  146TMC2    O5 2237   4.710   3.290  12.136 -0.1927  0.6531  0.0182
  146TMC2    H5 2238   4.637   3.227  12.118  1.7228 -1.9282  1.2059
  147MPD2     C 2239   0.503   2.745  12.632  0.6388  0.2464 -0.7288
  147MPD2    C1 2240   0.391   2.708  12.702 -0.1146  0.6244  0.1831
  147MPD2    C2 2241   0.271   2.771  12.673  0.3583  0.3156  0.2533
  147MPD2    C3 2242   0.265   2.879  12.581 -0.6654 -0.6299 -0.1174
  147MPD2    C4 2243   0.386   2.905  12.512  0.2292  0.3170 -0.1025
  147MPD2    C5 2244   0.499   2.842  12.539 -0.0155  0.9090  0.4855
  147MPD2     H 2245   0.178   2.743  12.722  0.9022 -1.2192  0.4055
  147MPD2    H1 2246   0.384   2.980  12.433 -0.3848  0.6454  0.2222
  147MPD2    H2 2247   0.602   2.702  12.640  0.9330  1.1250  0.4172
  147MPD2    H3 2248   0.585   2.863  12.476  0.6982 -3.3161  0.0472
  147MPD2     N 2249   0.141   2.947  12.563 -0.2826  0.4656  0.2015
  147MPD2    H5 2250   0.069   2.926  12.632  0.8153 -0.1855  1.1615
  147MPD2    N1 2251   0.405   2.609  12.807  0.2052 -0.6450 -0.2031
  147MPD2    H7 2252   0.501   2.578  12.817 -0.0133 -0.8270  1.3964
  148MPD2     C 2253   0.299   1.264  11.171 -0.4577 -0.2690 -0.1547
  148MPD2    C1 2254   0.256   1.357  11.077 -0.0055 -0.2072  0.4670
  148MPD2    C2 2255   0.228   1.308  10.949  0.1964 -0.3587  0.2407
  148MPD2    C3 2256   0.237   1.169  10.917  0.3580  0.0118  0.4722
  148MPD2    C4 2257   0.269   1.083  11.022  0.1359  0.8767 -0.6631
  148MPD2    C5 2258   0.293   1.130  11.150 -0.1178 -0.2792 -0.1344
  148MPD2     H 2259   0.190   1.384  10.881 -0.6067  0.3856  1.5213
  148MPD2    H1 2260   0.268   0.975  11.014 -0.1801  0.8682 -0.5129
  148MPD2    H2 2261   0.310   1.284  11.277 -3.5628 -1.2215  0.3423
  148MPD2    H3 2262   0.311   1.065  11.234  0.2577  2.4983  1.9302
  148MPD2     N 2263   0.204   1.118  10.790  0.5669  0.4737  0.4706
  148MPD2    H5 2264   0.192   1.017  10.800 -1.4512  0.6448 -0.1933
  148MPD2    N1 2265   0.245   1.492  11.104  0.1768  0.2344  0.3601
  148MPD2    H7 2266   0.219   1.553  11.027 -1.6504  0.2509  0.9882
  149TCq2    C1 2267   0.262   1.540  11.231 -0.4282  0.4598  0.0670
  149TCq2    O2 2268   0.284   1.489  11.336  0.0838  0.2591 -0.8724
  149TCq2    C2 2269   0.260   1.689  11.233 -0.2154 -0.3055 -0.0966
  149TCq2    C3 2270   0.361   1.738  11.305 -0.4180  0.2825 -0.6150
  149TCq2    C4 2271   0.421   1.860  11.271  0.4541 -0.2043 -0.1568
  149TCq2    C5 2272   0.410   1.910  11.144 -0.2051  0.5208 -0.2302
  149TCq2    C6 2273   0.307   1.857  11.070  0.0368 -0.1749  0.1581
  149TCq2    C7 2274   0.230   1.753  11.112  0.1633  0.1735  0.3689
  149TCq2    C8 2275   0.339   1.839  10.929 -0.0509 -0.2313  0.5488
  149TCq2    O4 2276   0.287   1.750  10.868 -0.5149  0.1781  0.1619
  149TCq2    C9 2277   0.536   1.894  11.344  0.1069 -0.1050  0.1019
  149TCq2    O5 2278   0.636   1.942  11.288 -0.2970  0.2511 -0.1229
  149TCq2    O6 2279   0.530   1.856  11.464  0.5985 -0.5127  0.0961
  149TCq2    H2 2280   0.382   1.691  11.400 -0.8033  1.4704  0.0711
  149TCq2    H3 2281   0.482   1.979  11.100  1.3048  0.1853  1.7180
  149TCq2    H4 2282   0.146   1.721  11.051  1.8157 -1.4604 -1.0713
  150MPD2     C 2283   2.040   1.343  11.949  0.2945 -0.0722  0.1292
  150MPD2    C1 2284   2.018   1.475  11.909 -1.1346 -0.0438  0.0936
  150MPD2    C2 2285   2.106   1.575  11.961 -0.4655 -0.0887 -0.7249
  150MPD2    C3 2286   2.214   1.540  12.039  0.3794 -0.3801  0.2402
  150MPD2    C4 2287   2.244   1.404  12.062 -0.5399 -0.1757  0.7154
  150MPD2    C5 2288   2.155   1.308  12.016 -0.9079 -0.3428 -0.8036
  150MPD2     H 2289   2.084   1.681  11.949  1.7154  0.5685  1.0581
  150MPD2    H1 2290   2.325   1.367  12.124  0.3539 -0.9478 -0.9064
  150MPD2    H2 2291   1.978   1.266  11.904  0.8208 -0.7120  0.5021
  150MPD2    H3 2292   2.187   1.208  12.043  2.2039  0.9148  0.0771
  150MPD2     N 2293   2.293   1.648  12.091  0.6009 -0.8601 -0.9181
  150MPD2    H5 2294   2.289   1.742  12.053  3.3222  0.3754  1.9048
  150MPD2    N1 2295   1.914   1.506  11.820 -0.2055  0.2695 -0.1495
  150MPD2    H7 2296   1.843   1.436  11.804 -0.4536  0.5635 -0.3251
  151TCq2    C1 2297   2.394   1.636  12.185 -0.1056  0.1217  0.6772
  151TCq2    O2 2298   2.422   1.528  12.244  0.1340  0.1006  0.2999
  151TCq2    C2 2299   2.478   1.754  12.202 -0.1762 -0.0046  0.4525
  151TCq2    C3 2300   2.504   1.845  12.096  0.4391  0.3848 -0.2612
  151TCq2    C4 2301   2.601   1.940  12.117 -0.7029 -0.2591 -0.1829
  151TCq2    C5 2302   2.671   1.949  12.235 -0.5823  0.1292  0.5961
  151TCq2    C6 2303   2.643   1.857  12.329  0.2472  0.6790 -0.0118
  151TCq2    C7 2304   2.555   1.753  12.311 -0.0404 -0.1392 -0.2519
  151TCq2    C8 2305   2.754   1.830  12.415  0.2769  0.4765  0.6375
  151TCq2    O4 2306   2.830   1.917  12.447  0.0703 -0.5556 -0.1383
  151TCq2    C9 2307   2.642   2.029  12.004 -0.0642 -0.7856  0.1893
  151TCq2    O5 2308   2.719   2.126  12.023  0.1154 -0.2698 -0.6629
  151TCq2    O6 2309   2.587   2.002  11.888 -0.5192  0.1285 -0.6959
  151TCq2    H2 2310   2.446   1.854  12.005  0.5073  0.4027 -0.3030
  151TCq2    H3 2311   2.741   2.029  12.254  0.2724  0.1919 -2.8855
  151TCq2    H4 2312   2.535   1.681  12.389 -0.3672  0.4009  0.1589
  152MPD2     C 2313   1.794   1.120  12.112  0.2074  0.2356 -0.2701
  152MPD2    C1 2314   1.808   1.240  12.173 -0.5554 -0.4579 -0.4797
  152MPD2    C2 2315   1.707   1.330  12.164 -0.0828 -0.2791  0.5324
  152MPD2    C3 2316   1.588   1.308  12.104  0.2600  0.2642 -0.4165
  152MPD2    C4 2317   1.561   1.185  12.052 -0.8234 -0.0774 -0.6846
  152MPD2    C5 2318   1.671   1.095  12.057  0.0094 -0.3953 -0.1977
  152MPD2     H 2319   1.714   1.420  12.224 -1.5803  0.3953 -0.3165
  152MPD2    H1 2320   1.473   1.152  11.998 -0.9408 -0.3193 -0.3422
  152MPD2    H2 2321   1.873   1.047  12.130 -0.1004 -0.1404 -0.4483
  152MPD2    H3 2322   1.663   1.002  12.001 -0.9720 -0.4158 -0.0329
  152MPD2     N 2323   1.492   1.407  12.093  0.2973 -0.9177 -1.0506
  152MPD2    H5 2324   1.516   1.498  12.131 -2.0150 -0.1956 -1.3111
  152MPD2    N1 2325   1.929   1.260  12.246  0.5568 -0.0209 -0.7490
  152MPD2    H7 2326   1.992   1.181  12.246 -2.5969 -2.5054  1.6237
  153TCq2    C1 2327   1.966   1.371  12.320  0.2039  0.6791  0.3177
  153TCq2    O2 2328   1.893   1.467  12.342 -0.6774  0.2573  0.4249
  153TCq2    C2 2329   2.097   1.358  12.378 -0.3345  0.0113  0.3027
  153TCq2    C3 2330   2.187   1.255  12.368 -0.3380  0.5906 -0.6925
  153TCq2    C4 2331   2.307   1.258  12.425  0.5104 -0.4763  0.1884
  153TCq2    C5 2332   2.342   1.361  12.498  0.1858  0.1761 -0.4493
  153TCq2    C6 2333   2.245   1.462  12.525 -0.3576  0.4608  0.3748
  153TCq2    C7 2334   2.126   1.462  12.463 -0.6721 -0.1679  0.0364
  153TCq2    C8 2335   2.285   1.581  12.601  0.3072  0.2843 -0.1072
  153TCq2    O4 2336   2.196   1.665  12.627  0.5371 -0.0071  0.0516
  153TCq2    C9 2337   2.390   1.147  12.391 -0.3437  1.3055  0.3000
  153TCq2    O5 2338   2.514   1.162  12.397  0.3746 -0.6617 -0.5701
  153TCq2    O6 2339   2.332   1.034  12.380  0.9290 -0.0633  0.2217
  153TCq2    H2 2340   2.168   1.165  12.310  0.3539  0.7137 -1.1134
  153TCq2    H3 2341   2.439   1.348  12.544 -0.2404  0.5460  0.5636
  153TCq2    H4 2342   2.048   1.535  12.481 -1.0981 -0.6449  0.1283
  154MPD2     C 2343   3.615   0.987  17.057  0.2618 -0.2095  0.2996
  154MPD2    C1 2344   3.628   1.027  17.191 -0.8624  0.8230  0.2454
  154MPD2    C2 2345   3.566   1.145  17.240  0.3724 -0.7215  0.2186
  154MPD2    C3 2346   3.473   1.214  17.164 -0.5671  0.2027  0.2608
  154MPD2    C4 2347   3.450   1.168  17.038 -0.0432  0.6552  0.1639
  154MPD2    C5 2348   3.524   1.067  16.988  0.0454 -0.4694  0.3544
  154MPD2     H 2349   3.596   1.178  17.339 -0.3342  0.1713  0.1385
  154MPD2    H1 2350   3.379   1.219  16.974 -0.6718  1.2018  1.3050
  154MPD2    H2 2351   3.675   0.908  17.015 -0.7295 -0.2360 -1.0530
  154MPD2    H3 2352   3.505   1.030  16.888  1.7499 -0.6276  0.0912
  154MPD2     N 2353   3.397   1.326  17.210  0.7330 -0.1370 -0.2180
  154MPD2    H5 2354   3.330   1.369  17.148  2.8916  0.0820 -2.4191
  154MPD2    N1 2355   3.720   0.955  17.263 -0.4091 -0.6865  0.3641
  154MPD2    H7 2356   3.776   0.888  17.211 -3.0614  0.0020 -3.4097
  155TCq2    C1 2357   3.731   0.954  17.402  0.3008  0.1140 -0.0534
  155TCq2    O2 2358   3.648   1.011  17.477  0.0033  0.8716  0.5601
  155TCq2    C2 2359   3.833   0.868  17.464  0.6143 -0.5760 -0.3537
  155TCq2    C3 2360   3.822   0.844  17.600 -0.1038  0.2300 -0.3633
  155TCq2    C4 2361   3.914   0.760  17.651 -0.1799 -0.5907 -0.0580
  155TCq2    C5 2362   4.006   0.694  17.577 -0.3356 -0.0210  0.6582
  155TCq2    C6 2363   4.022   0.727  17.443  0.1168  0.3074 -0.5993
  155TCq2    C7 2364   3.929   0.807  17.385  0.5255  0.1193  0.0722
  155TCq2    C8 2365   4.066   0.617  17.356 -1.0926  0.0938 -0.3921
  155TCq2    O4 2366   4.036   0.625  17.237  0.4123 -0.7249  0.3179
  155TCq2    C9 2367   3.902   0.726   0.084 -0.0736  0.3747 -0.0611
  155TCq2    O5 2368   3.814   0.795   0.143  0.5930 -0.0768 -0.2828
  155TCq2    O6 2369   3.982   0.642   0.133 -0.6579 -0.0389  0.1803
  155TCq2    H2 2370   3.740   0.885  17.658  1.1572  1.1925  0.7471
  155TCq2    H3 2371   4.079   0.629  17.623 -1.7951 -0.9712  1.6057
  155TCq2    H4 2372   3.936   0.828  17.279  1.1451 -0.0987  0.0718
  156MPD2     C 2373   2.212   3.391  11.991 -0.6496 -0.4742 -0.1534
  156MPD2    C1 2374   2.182   3.513  11.925 -0.0734  1.0334 -0.7406
  156MPD2    C2 2375   2.167   3.629  11.994  0.2188 -0.3839 -1.0274
  156MPD2    C3 2376   2.175   3.630  12.133  0.4801  0.5351  0.0586
  156MPD2    C4 2377   2.215   3.508  12.195 -0.5307  0.4825  0.1775
  156MPD2    C5 2378   2.234   3.396  12.122 -0.1264  0.1829 -0.0952
  156MPD2     H 2379   2.139   3.720  11.942 -0.4682  0.7293  1.2934
  156MPD2    H1 2380   2.239   3.503  12.300 -1.1570 -1.7160  0.2020
  156MPD2    H2 2381   2.206   3.296  11.940 -1.1711 -1.2528  1.3779
  156MPD2    H3 2382   2.271   3.309  12.175  2.2361  1.0057 -0.3973
  156MPD2     N 2383   2.148   3.753  12.207 -0.0555  0.2244  0.4017
  156MPD2    H5 2384   2.134   3.841  12.158  0.4077 -0.8957 -1.7475
  156MPD2    N1 2385   2.140   3.499  11.791  0.1372  0.1593 -0.0336
  156MPD2    H7 2386   2.159   3.410  11.747  1.1454 -0.0205  0.7664
  157TCq2    C1 2387   2.101   3.602  11.711  0.5195 -1.1062  0.5171
  157TCq2    O2 2388   2.077   3.720  11.736 -0.2437 -0.5338  0.8154
  157TCq2    C2 2389   2.060   3.546  11.586 -0.6566 -0.5747  0.4425
  157TCq2    C3 2390   2.099   3.426  11.532 -0.3947  0.5646 -0.3512
  157TCq2    C4 2391   2.050   3.385  11.405  0.4134  0.0375 -0.6417
  157TCq2    C5 2392   1.965   3.470  11.341 -0.2200 -0.1509  0.3718
  157TCq2    C6 2393   1.920   3.580  11.403  0.1610 -0.3513  0.3961
  157TCq2    C7 2394   1.983   3.631  11.514 -0.8440 -0.3351  0.2037
  157TCq2    C8 2395   1.829   3.665  11.325 -0.3558 -0.4440  0.1044
  157TCq2    O4 2396   1.833   3.783  11.344 -0.1000 -0.0071  0.2306
  157TCq2    C9 2397   2.092   3.265  11.341  0.7099  0.1202 -0.2118
  157TCq2    O5 2398   2.060   3.245  11.227 -0.4371  0.3069 -0.1393
  157TCq2    O6 2399   2.167   3.196  11.417 -0.1163  0.1760 -0.0638
  157TCq2    H2 2400   2.172   3.364  11.583 -0.2859  0.4240 -0.6746
  157TCq2    H3 2401   1.940   3.456  11.236 -0.8617  2.4190  0.1925
  157TCq2    H4 2402   1.945   3.724  11.555 -1.0902 -0.1077 -0.5531
  158TMC2    C1 2403   2.651   2.864  13.394  0.6811 -0.3451  0.0767
  158TMC2    C2 2404   2.739   2.913  13.301  0.0271 -0.1828  0.2830
  158TMC2    C3 2405   2.725   2.886  13.173 -0.2950 -0.5288 -1.0001
  158TMC2    C4 2406   2.547   2.775  13.356  0.7476  0.3106 -0.2541
  158TMC2    C5 2407   2.534   2.769  13.218  0.5201  0.1251 -0.5929
  158TMC2    C6 2408   2.617   2.814  13.121 -0.0512  0.4911 -0.5134
  158TMC2     C 2409   2.677   2.893  13.530 -0.4070 -0.5294  0.7615
  158TMC2     O 2410   2.760   2.977  13.557 -0.2887  0.1690 -0.3158
  158TMC2     H 2411   2.834   2.956  13.330  0.6992  0.1910 -2.4649
  158TMC2    H1 2412   2.464   2.749  13.420  1.1847 -1.0221 -0.2412
  158TMC2    H2 2413   2.608   2.778  13.019  0.9589  1.4660 -0.9352
  158TMC2    C7 2414   2.407   2.711  13.166  0.3583  0.1836  0.2705
  158TMC2    C8 2415   2.820   2.951  13.080 -0.3607  0.0408  0.2360
  158TMC2    O1 2416   2.369   2.757  13.060 -0.2013 -0.4255  0.2594
  158TMC2    O2 2417   2.924   3.006  13.112  0.8858  0.0201  0.6298
  158TMC2    O5 2418   2.754   2.980  12.963  0.4512 -0.0454 -0.0551
  158TMC2    H5 2419   2.664   2.943  12.950  1.0869 -0.5950 -2.8212
  159MPD2     C 2420   2.546   2.812  14.026 -0.0389 -0.6397 -0.4524
  159MPD2    C1 2421   2.482   2.715  13.949 -0.1367  0.1581  0.2441
  159MPD2    C2 2422   2.502   2.717  13.812 -0.2821  0.5622 -0.7246
  159MPD2    C3 2423   2.581   2.815  13.752  0.7066  0.3293 -0.5154
  159MPD2    C4 2424   2.641   2.912  13.830 -0.4438  1.1423 -0.3301
  159MPD2    C5 2425   2.625   2.909  13.970 -0.2247 -0.3607  0.5284
  159MPD2     H 2426   2.456   2.651  13.739 -0.1639 -1.1679  0.7552
  159MPD2    H1 2427   2.709   2.990  13.795 -1.2847  0.9549 -2.3707
  159MPD2    H2 2428   2.537   2.812  14.134 -0.0885  0.3459 -0.4504
  159MPD2    H3 2429   2.674   2.985  14.030  1.5953 -0.2697 -1.0651
  159MPD2     N 2430   2.595   2.820  13.608 -0.8959 -0.5833 -0.2775
  159MPD2    H5 2431   2.537   2.747  13.568 -0.6812  0.0874 -1.7984
  159MPD2    N1 2432   2.393   2.630  14.011  0.5006 -0.0192 -0.2673
  159MPD2    H7 2433   2.384   2.645  14.111  0.2868  0.2417 -0.3226
  160TMC2    C1 2434   2.320   4.673   0.797  0.8248 -0.2691  0.2335
  160TMC2    C2 2435   2.370   4.553   0.771  0.1327  0.0884  0.6640
  160TMC2    C3 2436   2.463   4.546   0.678 -0.1844 -1.1598 -0.2792
  160TMC2    C4 2437   2.376   0.068   0.745  0.5930  0.5079  0.5009
  160TMC2    C5 2438   2.471   0.051   0.651  0.2910 -0.2858  0.7968
  160TMC2    C6 2439   2.517   4.648   0.611 -0.3038 -0.4956  0.0728
  160TMC2     C 2440   2.212   4.693   0.888  0.1999  0.5563  0.9218
  160TMC2     O 2441   2.210   4.614   0.980 -0.8050 -0.2747  0.0460
  160TMC2     H 2442   2.323   4.467   0.818  0.1143 -0.9592 -1.3070
  160TMC2    H1 2443   2.360   0.162   0.797  3.9244  1.8857 -1.0195
  160TMC2    H2 2444   2.590   4.619   0.536  1.1248  2.0336  0.4506
  160TMC2    C7 2445   2.525   0.156   0.564  0.4891 -0.6542  0.5353
  160TMC2    C8 2446   2.512   4.412   0.656 -0.3183 -0.2621 -0.7043
  160TMC2    O1 2447   2.618   0.136   0.486 -0.1182  0.1431 -0.2389
  160TMC2    O2 2448   2.619   4.384   0.615 -0.6484 -0.2442 -0.2683
  160TMC2    O5 2449   2.404   4.338   0.637  0.0118 -0.2397 -0.0193
  160TMC2    H5 2450   2.326   4.398   0.638 -0.2013 -0.4947 -1.6048
  161MPD2     C 2451   2.042   0.124   1.077  0.4766  0.5681 -0.2435
  161MPD2    C1 2452   2.047   0.150   0.942 -0.4350  0.2104 -1.1393
  161MPD2    C2 2453   1.977   0.253   0.886  0.0397  0.2761  0.0946
  161MPD2    C3 2454   1.886   0.326   0.963 -0.1324  0.4610 -0.2341
  161MPD2    C4 2455   1.873   0.294   1.101 -0.3172 -0.1226  0.7782
  161MPD2    C5 2456   1.947   0.187   1.152 -0.3946 -0.6913  0.2491
  161MPD2     H 2457   1.989   0.283   0.782  0.8412 -0.6596 -0.0807
  161MPD2    H1 2458   1.797   0.344   1.160 -1.7171 -0.5770 -0.6413
  161MPD2    H2 2459   2.100   0.043   1.118  0.1375 -0.4973 -1.8680
  161MPD2    H3 2460   1.946   0.165   1.258  1.4343 -0.0123  0.4022
  161MPD2     N 2461   1.801   0.433   0.922 -0.3876  0.8642 -0.5416
  161MPD2    H5 2462   1.745   0.481   0.991 -1.3279 -1.9031  0.6401
  161MPD2    N1 2463   2.146   0.083   0.860  0.1075  0.1737 -0.3583
  161MPD2    H7 2464   2.156   0.117   0.765  0.6483  0.7381 -0.1034
  162TMC2    C1 2465   4.664   2.450   1.229 -0.4310 -0.2814 -0.4335
  162TMC2    C2 2466   4.592   2.561   1.268  0.1210  0.0087  0.0091
  162TMC2    C3 2467   4.529   2.555   1.388  0.3558 -0.4191 -0.2573
  162TMC2    C4 2468   4.657   2.333   1.303  0.1530  0.0039 -0.5606
  162TMC2    C5 2469   4.577   2.327   1.408 -0.0424 -0.1936 -0.1211
  162TMC2    C6 2470   4.513   2.436   1.459  0.4125  0.1976 -0.5371
  162TMC2     C 2471   4.723   2.454   1.096  0.4024  0.1569 -0.1178
  162TMC2     O 2472   0.019   2.346   1.050  0.2508 -0.2564 -0.4288
  162TMC2     H 2473   4.586   2.656   1.216  1.6207 -0.5035 -1.1222
  162TMC2    H1 2474   4.710   2.247   1.265  1.4503  0.3193  0.5415
  162TMC2    H2 2475   4.462   2.429   1.554 -2.2686 -0.1596 -1.9903
  162TMC2    C7 2476   4.585   2.212   1.495 -0.3522  0.2140 -0.9385
  162TMC2    C8 2477   4.439   2.662   1.420 -0.2697 -1.0146 -1.0425
  162TMC2    O1 2478   4.543   2.226   1.606 -0.0213 -0.6336 -0.2474
  162TMC2    O2 2479   4.346   2.687   1.344 -0.2117 -0.2396  0.1543
  162TMC2    O5 2480   4.420   2.657   1.557  0.3492  0.2928  0.2273
  162TMC2    H5 2481   4.504   2.621   1.593  0.3716 -0.0492 -0.1679
  163MPD2     C 2482   0.264   2.697   0.753 -0.0877 -0.0405 -0.6534
  163MPD2    C1 2483   0.226   2.568   0.752 -0.1929 -0.2442  0.8189
  163MPD2    C2 2484   0.137   2.532   0.852 -0.4713 -0.3438 -0.4499
  163MPD2    C3 2485   0.098   2.619   0.947 -1.0529  0.1304 -0.3789
  163MPD2    C4 2486   0.145   2.745   0.948  0.5115 -0.4326  0.3733
  163MPD2    C5 2487   0.224   2.786   0.843 -0.6259  0.0863 -0.2589
  163MPD2     H 2488   0.086   2.438   0.834 -2.6232  0.2276  2.7135
  163MPD2    H1 2489   0.129   2.819   1.025 -1.6522 -0.8021  0.2818
  163MPD2    H2 2490   0.343   2.732   0.687  2.1780 -0.7795  1.6587
  163MPD2    H3 2491   0.256   2.889   0.831 -0.1426  0.0864  0.9388
  163MPD2     N 2492   0.035   2.582   1.062 -0.5390 -0.2874 -0.8439
  163MPD2    H5 2493   0.012   2.650   1.134  0.1279 -2.1133  1.0769
  163MPD2    N1 2494   0.258   2.482   0.642  0.2459 -0.1044  0.2031
  163MPD2    H7 2495   0.305   2.536   0.570  0.2997  0.5333  0.7149
  164TCq2    C1 2496   0.825   2.194  10.984  0.2713 -0.4623  0.6055
  164TCq2    O2 2497   0.771   2.092  11.032  0.1348 -0.3576  0.2733
  164TCq2    C2 2498   0.814   2.319  11.051 -1.4595  0.0814 -0.8175
  164TCq2    C3 2499   0.880   2.430  11.008  1.1931 -0.0507 -0.5426
  164TCq2    C4 2500   0.842   2.545  11.066 -0.2494  0.3211 -0.0813
  164TCq2    C5 2501   0.728   2.553  11.145  0.1964 -1.0319  0.4011
  164TCq2    C6 2502   0.678   2.441  11.199 -1.2640  0.0312  0.3180
  164TCq2    C7 2503   0.711   2.316  11.145 -0.3846 -0.5708  0.3444
  164TCq2    C8 2504   0.559   2.447  11.287  0.0809 -0.2641  0.0908
  164TCq2    O4 2505   0.470   2.361  11.267 -0.8914 -0.1918  0.8256
  164TCq2    C9 2506   0.895   2.666  11.012  0.4327  0.2888 -0.0047
  164TCq2    O5 2507   0.816   2.760  10.998 -0.1694  0.6087 -0.0279
  164TCq2    O6 2508   1.021   2.671  10.990  0.1901 -0.3945  0.0827
  164TCq2    H2 2509   0.960   2.430  10.934 -0.3718  0.1696 -2.2455
  164TCq2    H3 2510   0.687   2.651  11.168 -0.2890 -1.7344  2.5581
  164TCq2    H4 2511   0.674   2.219  11.179  1.2806 -0.6339  2.0079
  165MPD2     C 2512   1.101   4.329   0.636 -0.2064 -0.2797 -0.5204
  165MPD2    C1 2513   1.226   4.318   0.687  1.4474  0.2487 -0.0972
  165MPD2    C2 2514   1.262   4.415   0.782 -0.0975 -0.1637 -0.0865
  165MPD2    C3 2515   1.183   4.525   0.798 -0.7633 -0.3293  0.2939
  165MPD2    C4 2516   1.058   4.535   0.740  0.3482 -0.1838 -0.3485
  165MPD2    C5 2517   1.020   4.430   0.663 -0.1630 -0.3619  0.1618
  165MPD2     H 2518   1.357   4.401   0.831 -0.4507 -1.0682  0.3575
  165MPD2    H1 2519   0.990   4.619   0.748 -0.7140 -1.1354  0.5698
  165MPD2    H2 2520   1.056   4.259   0.567  1.2944  0.6116 -2.4070
  165MPD2    H3 2521   0.918   4.438   0.628  0.1638  2.5083 -0.1300
  165MPD2     N 2522   1.218   4.622   0.895  0.1843  0.6661  0.1945
  165MPD2    H5 2523   1.165   4.709   0.888  0.0333  0.4556 -1.2411
  165MPD2    N1 2524   1.289   4.194   0.676  0.0755  0.1789  0.0533
  165MPD2    H7 2525   1.236   4.111   0.649  1.0959 -1.0690  1.8872
  166TCq2    C1 2526   1.318   4.617   0.985 -0.2391 -0.1445 -0.4975
  166TCq2    O2 2527   1.378   4.522   1.018 -0.2399 -0.9472  0.2279
  166TCq2    C2 2528   1.336   0.014   1.073  0.6082  0.6598  0.2415
  166TCq2    C3 2529   1.232   0.107   1.077 -0.0899 -0.0573 -0.2553
  166TCq2    C4 2530   1.235   0.204   1.170 -0.5829 -1.0100  0.3574
  166TCq2    C5 2531   1.330   0.203   1.270  0.2122 -0.3929 -0.4010
  166TCq2    C6 2532   1.432   0.108   1.263  0.1595  1.0455  0.2173
  166TCq2    C7 2533   1.438   0.011   1.161  0.1568  0.0413 -0.8406
  166TCq2    C8 2534   1.546   0.107   1.363  0.0384 -0.3892 -0.3546
  166TCq2    O4 2535   1.624   0.010   1.380 -0.1222  0.1786 -0.0842
  166TCq2    C9 2536   1.139   0.315   1.163  0.3649 -0.0612 -0.1756
  166TCq2    O5 2537   1.159   0.412   1.240  0.6604 -0.4531  0.0854
  166TCq2    O6 2538   1.049   0.305   1.076  0.1463  0.5406  0.1065
  166TCq2    H2 2539   1.164   0.119   0.993  2.3277  2.9062 -1.7919
  166TCq2    H3 2540   1.331   0.281   1.345  1.2190 -3.5730  2.8749
  166TCq2    H4 2541   1.518   4.663   1.171  0.2429  0.5416  2.2666
  167TMC2    C1 2542   4.563   2.274  12.210 -0.4633  0.0448  0.7807
  167TMC2    C2 2543   4.527   2.381  12.282  0.1345  0.2083  0.5021
  167TMC2    C3 2544   4.509   2.383  12.419  0.5110  0.3797  0.3741
  167TMC2    C4 2545   4.569   2.154  12.269  0.0372  0.3748 -0.7062
  167TMC2    C5 2546   4.557   2.156  12.411  0.0446  0.8821 -0.8254
  167TMC2    C6 2547   4.529   2.267  12.490 -0.2136  0.0917 -0.0102
  167TMC2     C 2548   4.534   2.280  12.066 -0.5055 -0.4349 -0.6307
  167TMC2     O 2549   4.472   2.373  12.020 -0.2386  0.5129 -0.2360
  167TMC2     H 2550   4.517   2.482  12.243  0.6495 -0.4510 -1.2961
  167TMC2    H1 2551   4.565   2.063  12.210  2.2671  0.0678 -0.3734
  167TMC2    H2 2552   4.502   2.263  12.594 -0.9681 -0.1890 -0.2136
  167TMC2    C7 2553   4.598   2.035  12.471  0.1283 -0.3317 -0.3794
  167TMC2    C8 2554   4.422   2.489  12.460 -0.5590 -0.5950  0.0461
  167TMC2    O1 2555   4.534   2.003  12.573 -0.0135 -0.0692 -0.5454
  167TMC2    O2 2556   4.361   2.564  12.380  0.3057 -0.3318 -0.1303
  167TMC2    O5 2557   4.389   2.465  12.586 -0.0996 -0.9303  0.3384
  167TMC2    H5 2558   4.465   2.439  12.643  2.2882  1.2251 -1.7963
  168MPD2     C 2559   4.488   2.234  11.765  0.2945  0.9297 -0.7950
  168MPD2    C1 2560   4.557   2.158  11.856 -1.5750  0.2774 -0.2092
  168MPD2    C2 2561   4.615   2.046  11.809 -0.0197 -0.0887 -0.4060
  168MPD2    C3 2562   4.596   1.991  11.683  0.4871 -0.4032 -0.1377
  168MPD2    C4 2563   4.510   2.062  11.601 -0.3017 -0.7105 -0.6793
  168MPD2    C5 2564   4.458   2.181  11.642  0.0015  0.0014  0.7439
  168MPD2     H 2565   4.678   1.984  11.872 -0.2397  0.3703  0.2565
  168MPD2    H1 2566   4.477   2.023  11.505  0.7716  1.7270 -2.0562
  168MPD2    H2 2567   4.456   2.333  11.794 -2.4190 -0.3334  0.5428
  168MPD2    H3 2568   4.394   2.232  11.571 -0.5005  0.6871  1.7003
  168MPD2     N 2569   4.652   1.865  11.633 -0.3289  0.1213  0.0995
  168MPD2    H5 2570   4.612   1.829  11.546 -1.2660  1.5893 -0.0847
  168MPD2    N1 2571   4.584   2.181  11.992  0.6882 -0.1971  0.0814
  168MPD2    H7 2572   4.629   2.108  12.047 -0.5449 -1.9807 -1.2535
  169MPD1     C 2573   1.946   1.884   9.138  0.8710  0.3734 -0.2668
  169MPD1    C1 2574   2.083   1.899   9.108  1.1289  0.9317  0.4509
  169MPD1    C2 2575   2.167   1.801   9.156 -0.0324 -0.4300 -0.3667
  169MPD1    C3 2576   2.120   1.689   9.226  1.3253  0.2313 -0.2760
  169MPD1    C4 2577   1.980   1.680   9.256  0.5827 -0.1443  0.0717
  169MPD1    C5 2578   1.897   1.777   9.205 -0.8268 -0.4413  0.2856
  169MPD1     H 2579   2.274   1.812   9.140  0.1336 -2.1648 -0.5152
  169MPD1    H1 2580   1.934   1.608   9.322 -1.1845  2.6698  1.9218
  169MPD1    H2 2581   1.864   1.950   9.111  0.7124  0.3222  0.0903
  169MPD1    H3 2582   1.792   1.777   9.233 -1.2626 -0.9465 -1.3844
  169MPD1     N 2583   2.213   1.596   9.275 -0.5666 -0.5388  0.2935
  169MPD1    H5 2584   2.308   1.600   9.240 -0.8512 -0.2849 -0.4495
  169MPD1    N1 2585   2.117   1.999   9.018 -0.6728 -0.0858 -0.3984
  169MPD1    H6 2586   2.044   2.067   9.002 -1.2459 -0.4280  0.7593
  169MPD1    H7 2587   2.205   2.041   9.048 -1.3380  1.2131 -0.2600
  170MPD1     C 2588   0.367   4.283  13.013 -0.7416  0.2396 -0.7964
  170MPD1    C1 2589   0.436   4.401  12.999 -0.6685  0.4291 -0.5568
  170MPD1    C2 2590   0.531   4.423  13.097  0.5158 -0.1188 -0.4898
  170MPD1    C3 2591   0.572   4.336  13.194  0.1584 -0.0739 -0.1603
  170MPD1    C4 2592   0.509   4.216  13.198  0.0685  0.4107 -0.3810
  170MPD1    C5 2593   0.409   4.189  13.105  0.9920 -0.0408 -0.3910
  170MPD1     H 2594   0.573   4.523  13.098  1.6526 -0.6084  0.8244
  170MPD1    H1 2595   0.528   4.133  13.265 -0.1292  2.0698  1.7550
  170MPD1    H2 2596   0.278   4.271  12.953 -0.1142  1.2864 -1.9308
  170MPD1    H3 2597   0.353   4.097  13.117  1.7101 -0.4959 -0.5154
  170MPD1     N 2598   0.677   4.371  13.278  0.1368 -1.3327  0.1875
  170MPD1    H5 2599   0.738   4.444  13.242  1.8112 -3.0408 -0.4313
  170MPD1    N1 2600   0.364   4.506  12.933  0.3916  0.0111 -0.1403
  170MPD1    H6 2601   0.305   4.484  12.854  0.1686  0.0658  0.0126
  170MPD1    H7 2602   0.428   4.577  12.896  1.5551 -1.7970 -1.5820
  171MPD1     C 2603   0.043   0.744  15.366 -0.6389  0.2016 -0.7809
  171MPD1    C1 2604   4.673   0.648  15.331  0.6488  0.0921  0.2125
  171MPD1    C2 2605   4.670   0.527  15.400 -1.0256 -0.1373 -0.0223
  171MPD1    C3 2606   0.046   0.482  15.481  1.2189 -0.3087  0.1392
  171MPD1    C4 2607   0.146   0.581  15.516  0.7994  0.2264  0.0681
  171MPD1    C5 2608   0.136   0.709  15.464  0.4268 -0.6271  0.1136
  171MPD1     H 2609   4.591   0.456  15.374  0.6747 -1.9073 -0.3859
  171MPD1    H1 2610   0.232   0.555  15.577 -0.3349 -2.1922  0.6664
  171MPD1    H2 2611   0.066   0.833  15.309  0.4850  1.3929  1.5090
  171MPD1    H3 2612   0.215   0.779  15.486 -1.8340  0.9148  3.2311
  171MPD1     N 2613   0.059   0.354  15.530  0.2311 -0.2699 -0.5236
  171MPD1    H5 2614   0.138   0.335  15.591 -0.0176  1.6977  0.4084
  171MPD1    N1 2615   4.575   0.673  15.236  0.3241 -0.1877  0.9811
  171MPD1    H6 2616   4.566   0.589  15.179 -0.6753  0.2428  0.4994
  171MPD1    H7 2617   4.606   0.751  15.177  0.2765 -1.1501 -0.3244
  172MPD1     C 2618   3.085   0.248  16.632  0.0784 -0.5412  0.5392
  172MPD1    C1 2619   3.192   0.339  16.664 -0.3661 -0.2436 -0.5382
  172MPD1    C2 2620   3.265   0.315  16.775 -0.3580  0.3163  0.1544
  172MPD1    C3 2621   3.254   0.200  16.848 -0.0455  0.0261  0.8157
  172MPD1    C4 2622   3.160   0.106  16.816  0.3411  0.1954 -0.0285
  172MPD1    C5 2623   3.071   0.135  16.711 -0.5116 -0.8822  0.7442
  172MPD1     H 2624   3.330   0.397  16.804 -2.0250  1.6311  0.1616
  172MPD1    H1 2625   3.152   0.015  16.875 -2.1085  0.3407 -0.1293
  172MPD1    H2 2626   3.020   0.261  16.547  0.7993 -2.3469 -0.2981
  172MPD1    H3 2627   2.995   0.059  16.696 -1.1624 -0.0209 -0.3258
  172MPD1     N 2628   3.300   0.189  16.982  0.6551  0.5368 -0.8331
  172MPD1    H5 2629   3.269   0.104  17.029  1.3828 -0.3738 -2.0204
  172MPD1    N1 2630   3.199   0.459  16.605 -0.2409  0.4588  0.0431
  172MPD1    H6 2631   3.169   0.443  16.509 -0.0977  0.4734 -0.0048
  172MPD1    H7 2632   3.287   0.510  16.614  1.1832 -1.5857 -2.3979
  173MPD1     C 2633   0.006   4.170  13.853 -0.1026 -0.2499  0.3547
  173MPD1    C1 2634   0.103   4.240  13.914 -0.1942 -0.4307  0.2236
  173MPD1    C2 2635   0.130   4.210  14.044  0.2779 -0.0268 -0.5972
  173MPD1    C3 2636   0.069   4.104  14.108  1.0679 -0.0505  0.9426
  173MPD1    C4 2637   4.698   4.027  14.044 -0.2998 -0.1533 -0.0204
  173MPD1    C5 2638   4.676   4.058  13.913 -0.9301 -0.2802  0.5831
  173MPD1     H 2639   0.213   4.262  14.090  2.6470 -1.8165 -2.8464
  173MPD1    H1 2640   4.658   3.934  14.083 -0.2605 -0.2780 -0.2756
  173MPD1    H2 2641   4.684   4.199  13.759 -2.6190  0.0446  1.7218
  173MPD1    H3 2642   4.614   3.999  13.846 -1.0947 -0.8031  1.1982
  173MPD1     N 2643   0.126   4.072  14.236 -0.1095 -0.2359 -0.3433
  173MPD1    H5 2644   0.201   4.129  14.274 -0.4427  0.5276 -0.8302
  173MPD1    N1 2645   0.155   4.354  13.851  0.5672  0.1385 -0.1501
  173MPD1    H6 2646   0.172   4.346  13.751 -0.7001 -0.1429 -0.3513
  173MPD1    H7 2647   0.240   4.385  13.897  1.2672 -0.2201 -1.2147
  174MPD1     C 2648   0.964   4.216  14.264 -0.3558  0.5223 -0.6498
  174MPD1    C1 2649   0.950   4.095  14.325 -0.7694 -0.6699  0.1992
  174MPD1    C2 2650   0.827   4.058  14.376 -0.1459 -0.6492  0.2586
  174MPD1    C3 2651   0.712   4.142  14.355 -0.0775  0.3028  0.4645
  174MPD1    C4 2652   0.734   4.257  14.282 -0.7767  0.6764  0.0977
  174MPD1    C5 2653   0.858   4.298  14.246 -0.4056  0.1385 -0.6680
  174MPD1     H 2654   0.816   3.960  14.422  1.4391 -1.3231 -0.7947
  174MPD1    H1 2655   0.643   4.303  14.246  0.0655  1.4656 -1.0007
  174MPD1    H2 2656   1.064   4.244  14.233  0.6481  2.5040  4.2702
  174MPD1    H3 2657   0.874   4.380  14.178 -0.0212 -1.9792 -3.1481
  174MPD1     N 2658   0.579   4.110  14.385 -0.5073  0.7312  0.2321
  174MPD1    H5 2659   0.504   4.167  14.347  1.0984  3.4200  1.0991
  174MPD1    N1 2660   1.067   4.026  14.339 -0.8514  0.1206  0.2672
  174MPD1    H6 2661   1.053   3.926  14.353  1.8739 -0.4343 -0.9945
  174MPD1    H7 2662   1.131   4.047  14.263  0.2056  1.7557  1.6102
  175MPD1     C 2663   3.572   0.590  14.897  0.3839  0.6613 -0.4412
  175MPD1    C1 2664   3.554   0.469  14.954  0.9627  0.4867  0.0117
  175MPD1    C2 2665   3.472   0.458  15.057  0.3918 -0.3646 -0.2284
  175MPD1    C3 2666   3.394   0.569  15.099  0.5182  0.4961  0.9427
  175MPD1    C4 2667   3.413   0.693  15.041  0.0889  0.4693 -0.4901
  175MPD1    C5 2668   3.494   0.700  14.931  1.0975 -0.0467 -0.0913
  175MPD1     H 2669   3.476   0.361  15.105  1.1815 -0.5608 -0.6902
  175MPD1    H1 2670   3.351   0.778  15.063  0.0323 -0.0041  1.1447
  175MPD1    H2 2671   3.638   0.600  14.812  0.1966 -0.3370 -0.7028
  175MPD1    H3 2672   3.497   0.794  14.878  2.3100  0.5507  1.0411
  175MPD1     N 2673   3.302   0.577  15.212  0.4204 -0.2196  0.1121
  175MPD1    H5 2674   3.282   0.675  15.228  1.1709  0.2004 -1.5609
  175MPD1    N1 2675   3.654   0.369  14.927  0.2932 -0.1349  0.2393
  175MPD1    H6 2676   3.698   0.380  14.836 -0.5032  0.8991 -0.0241
  175MPD1    H7 2677   3.614   0.275  14.927  0.3815 -0.1734 -0.1395
  176MPD1     C 2678   0.266   2.318  16.374 -0.4048 -0.0754  0.3942
  176MPD1    C1 2679   0.146   2.383  16.406 -0.4577 -0.0641  0.0205
  176MPD1    C2 2680   0.130   2.411  16.540 -0.1937  0.0118  0.2227
  176MPD1    C3 2681   0.215   2.357  16.636  0.2356  0.8073  0.1204
  176MPD1    C4 2682   0.318   2.280  16.597 -0.0516 -0.0851 -0.1390
  176MPD1    C5 2683   0.345   2.260  16.470 -0.6165 -0.6003  1.0270
  176MPD1     H 2684   0.061   2.486  16.577 -1.6444 -0.3523 -1.7920
  176MPD1    H1 2685   0.380   2.226  16.668 -0.8794  0.7873  1.2541
  176MPD1    H2 2686   0.305   2.314  16.273  1.2262  1.8880  0.9376
  176MPD1    H3 2687   0.438   2.214  16.438 -0.0082  1.4145 -0.1012
  176MPD1     N 2688   0.195   2.400  16.775 -0.1743 -0.3010  0.0362
  176MPD1    H5 2689   0.132   2.476  16.797  0.5162  0.3241 -0.1222
  176MPD1    N1 2690   0.078   2.448  16.303  0.6468  0.9527 -0.2863
  176MPD1    H6 2691   0.088   2.409  16.210  2.2748  0.0057  0.2832
  176MPD1    H7 2692   4.707   2.446  16.334  0.3661 -0.1273 -1.2482
  177MPD1     C 2693   3.964   1.623  10.687 -0.7294 -0.1266  1.0680
  177MPD1    C1 2694   3.915   1.585  10.568  0.2534 -0.4173 -0.3943
  177MPD1    C2 2695   3.886   1.691  10.477 -0.0978  0.7062  0.2457
  177MPD1    C3 2696   3.922   1.821  10.497  0.5273  0.4615  0.6950
  177MPD1    C4 2697   3.977   1.853  10.618 -0.2027 -0.4554  0.6582
  177MPD1    C5 2698   3.994   1.754  10.710  0.6634 -0.4447 -0.4750
  177MPD1     H 2699   3.821   1.674  10.391 -0.2825 -0.0177  0.5306
  177MPD1    H1 2700   4.007   1.953  10.648 -1.6192  0.2147 -0.1625
  177MPD1    H2 2701   3.971   1.554  10.770 -3.0025 -1.8388 -0.1450
  177MPD1    H3 2702   4.024   1.781  10.811 -0.4429 -1.8053  0.2198
  177MPD1     N 2703   3.879   1.919  10.405 -0.2612 -0.4736 -0.6982
  177MPD1    H5 2704   3.831   1.883  10.323 -0.6100  1.9645 -1.5740
  177MPD1    N1 2705   3.859   1.457  10.559 -0.3643 -0.2264  0.6341
  177MPD1    H6 2706   3.923   1.389  10.600 -0.3852  0.8923  2.5122
  177MPD1    H7 2707   3.828   1.420  10.469  0.9093  2.1882 -0.7887
  178MPD1     C 2708   1.004   3.387   0.320 -0.3055  0.9439  0.1725
  178MPD1    C1 2709   1.119   3.323   0.323  0.0950  0.0142  0.4998
  178MPD1    C2 2710   1.184   3.295   0.205 -0.0112 -0.1047  0.1973
  178MPD1    C3 2711   1.136   3.332   0.080 -0.3159  0.2525 -0.5370
  178MPD1    C4 2712   1.011   3.388   0.078 -0.0230 -0.0553  1.1391
  178MPD1    C5 2713   0.945   3.413   0.197  0.5397  0.0375  1.0632
  178MPD1     H 2714   1.276   3.239   0.219  0.9044  0.6898 -2.5612
  178MPD1    H1 2715   0.962   3.404  17.684  1.8258 -2.2540 -0.1718
  178MPD1    H2 2716   0.946   3.402   0.410 -0.9973 -0.6505 -0.0143
  178MPD1    H3 2717   0.845   3.455   0.202  0.4209  0.0411 -1.1298
  178MPD1     N 2718   1.209   3.320  17.660  0.5724 -0.9175  0.7704
  178MPD1    H5 2719   1.167   3.344  17.571  1.1266 -0.9058  0.5087
  178MPD1    N1 2720   1.172   3.272   0.446 -0.1414  0.6174 -0.6355
  178MPD1    H6 2721   1.273   3.274   0.432  0.0370 -0.9117  0.5349
  178MPD1    H7 2722   1.149   3.326   0.529 -1.7328 -1.0289 -0.0149
  179MPD1     C 2723   0.630   1.774  15.684 -0.1382 -0.9772  0.0141
  179MPD1    C1 2724   0.708   1.730  15.787  0.1315 -0.1146  0.6788
  179MPD1    C2 2725   0.724   1.596  15.806  0.4351  0.1246  0.6589
  179MPD1    C3 2726   0.653   1.505  15.736  0.3101 -0.1311 -0.0089
  179MPD1    C4 2727   0.578   1.548  15.635  0.9016  0.2584  0.4668
  179MPD1    C5 2728   0.557   1.676  15.609  0.2194  0.1522 -0.4363
  179MPD1     H 2729   0.778   1.558  15.892  0.2684  0.1186  0.7619
  179MPD1    H1 2730   0.527   1.475  15.573  0.2464 -0.0726  1.3890
  179MPD1    H2 2731   0.612   1.880  15.669 -1.4839 -1.2222 -0.1560
  179MPD1    H3 2732   0.497   1.711  15.525 -1.7530  0.3436  1.0591
  179MPD1     N 2733   0.649   1.364  15.759  0.0190  0.1905  0.5066
  179MPD1    H5 2734   0.589   1.306  15.702 -1.3179  0.7582  1.3431
  179MPD1    N1 2735   0.758   1.824  15.881 -0.1984 -0.1289 -0.3047
  179MPD1    H6 2736   0.803   1.905  15.837  0.2425 -0.8787 -1.2217
  179MPD1    H7 2737   0.823   1.774  15.942  0.4046 -0.0999 -0.9192
  180MPD1     C 2738   1.272   3.016  14.992 -0.5987  0.6330 -0.4830
  180MPD1    C1 2739   1.247   3.092  14.877  0.1744  0.1195 -0.9482
  180MPD1    C2 2740   1.120   3.089  14.823 -0.2201  0.0224 -0.2149
  180MPD1    C3 2741   1.023   3.019  14.892  0.5851 -0.0551  0.8082
  180MPD1    C4 2742   1.044   2.965  15.013 -0.2339  0.1015  0.1972
  180MPD1    C5 2743   1.167   2.961  15.063 -0.0329 -0.2276 -0.0718
  180MPD1     H 2744   1.098   3.132  14.726  0.6676  1.7718  0.3686
  180MPD1    H1 2745   0.971   2.910  15.071  1.6809 -1.4185  1.2002
  180MPD1    H2 2746   1.362   3.013  15.052 -1.0822  0.5681  0.2325
  180MPD1    H3 2747   1.177   2.920  15.163 -2.9907  1.1184  0.7954
  180MPD1     N 2748   0.903   3.004  14.820 -0.1773  0.4756 -0.3435
  180MPD1    H5 2749   0.894   3.061  14.737  0.1875 -0.3259 -0.9261
  180MPD1    N1 2750   1.354   3.147  14.803 -0.3412  0.4720  0.1833
  180MPD1    H6 2751   1.445   3.163  14.846  0.2980 -1.8079 -0.3154
  180MPD1    H7 2752   1.315   3.226  14.752 -0.4616  1.5545  1.9500
  181MPD1     C 2753   2.035   0.106  11.009 -0.1619 -0.6040  0.1958
  181MPD1    C1 2754   2.124   0.205  10.987 -0.4096 -0.1702 -0.4865
  181MPD1    C2 2755   2.186   0.207  10.860 -0.3129  0.1133  0.2754
  181MPD1    C3 2756   2.143   0.123  10.754  0.0984 -0.4540  0.1970
  181MPD1    C4 2757   2.042   0.034  10.783  0.0217 -0.1269  0.2781
  181MPD1    C5 2758   1.993   0.024  10.908 -0.0774 -0.2278 -0.2876
  181MPD1     H 2759   2.261   0.284  10.845  1.2982 -1.0725  2.2593
  181MPD1    H1 2760   1.998   4.690  10.712  0.7647  0.5715 -0.8598
  181MPD1    H2 2761   1.998   0.085  11.109  0.1550  0.1204  0.4645
  181MPD1    H3 2762   1.918   4.674  10.928 -0.3952  0.1074 -0.2131
  181MPD1     N 2763   2.204   0.130  10.629 -0.9717  0.0205  0.5904
  181MPD1    H5 2764   2.284   0.192  10.624 -1.8112  0.9717 -0.8188
  181MPD1    N1 2765   2.168   0.282  11.099 -0.3067 -0.2696 -0.4818
  181MPD1    H6 2766   2.109   0.281  11.182 -1.0947  0.3586 -1.0290
  181MPD1    H7 2767   2.206   0.376  11.088  0.2645 -0.5159 -0.6011
  182MPD1     C 2768   3.820   4.217   1.510  0.5773  0.1421 -0.3032
  182MPD1    C1 2769   3.846   4.095   1.452  0.1663  0.5415  0.3604
  182MPD1    C2 2770   3.729   4.032   1.399  0.2252 -0.8145  0.4779
  182MPD1    C3 2771   3.596   4.082   1.418 -0.1214 -0.2461  0.1342
  182MPD1    C4 2772   3.581   4.192   1.494  0.1480 -0.7762 -0.0659
  182MPD1    C5 2773   3.693   4.265   1.525  0.3582 -0.3689  0.4812
  182MPD1     H 2774   3.737   3.945   1.335 -1.6702 -0.5352 -0.1263
  182MPD1    H1 2775   3.486   4.229   1.530 -0.8920 -1.8396 -1.7246
  182MPD1    H2 2776   3.897   4.272   1.563  1.9638 -1.5738 -0.5374
  182MPD1    H3 2777   3.682   4.344   1.599 -0.4534  2.3850 -2.6122
  182MPD1     N 2778   3.475   4.022   1.367 -0.5803  0.5799 -0.9514
  182MPD1    H5 2779   3.389   4.060   1.405 -0.8603  0.0527 -1.0594
  182MPD1    N1 2780   3.976   4.049   1.426  0.1886 -0.4846 -0.2177
  182MPD1    H6 2781   4.042   4.074   1.500  0.3904  4.1084 -1.9267
  182MPD1    H7 2782   3.985   3.949   1.413 -3.5391 -0.8753  0.4727
  183MPD1     C 2783   4.324   4.384  10.022 -0.3017 -0.4848  0.4079
  183MPD1    C1 2784   4.272   4.325  10.137  0.4283 -0.1694  0.3983
  183MPD1    C2 2785   4.137   4.325  10.140  0.4419  1.3280 -0.0320
  183MPD1    C3 2786   4.059   4.396  10.052 -0.4799  0.2048  0.6552
  183MPD1    C4 2787   4.114   4.465   9.949  0.3620  0.2667  0.1041
  183MPD1    C5 2788   4.246   4.459   9.937  0.1975 -0.7320 -0.0730
  183MPD1     H 2789   4.092   4.278  10.226  2.8867  1.2550  1.1750
  183MPD1    H1 2790   4.060   4.532   9.882  1.3927  0.0360 -0.9736
  183MPD1    H2 2791   4.431   4.373  10.007 -0.2333  0.9267 -0.1164
  183MPD1    H3 2792   4.282   4.503   9.844 -0.2089 -0.9237 -0.3190
  183MPD1     N 2793   3.920   4.384  10.060 -0.5691  0.1342 -0.0617
  183MPD1    H5 2794   3.895   4.314  10.129  0.8054 -0.5894 -0.2933
  183MPD1    N1 2795   4.351   4.251  10.226  0.9525  0.1882  0.2126
  183MPD1    H6 2796   4.443   4.294  10.230  0.7696  0.8491 -2.5952
  183MPD1    H7 2797   4.310   4.257  10.318  0.4140 -0.2627  0.0049
  184MPD1     C 2798   2.712   1.840  10.441 -0.6955 -0.5975  0.0093
  184MPD1    C1 2799   2.593   1.885  10.396 -0.4733 -0.2758  0.4132
  184MPD1    C2 2800   2.590   1.971  10.288 -0.6571 -0.1570  0.2343
  184MPD1    C3 2801   2.700   2.021  10.220  0.6678  1.3880 -0.3811
  184MPD1    C4 2802   2.817   1.967  10.268 -0.3211 -0.6975 -0.6967
  184MPD1    C5 2803   2.823   1.877  10.373  0.5766  0.4449  0.2550
  184MPD1     H 2804   2.495   2.010  10.252 -0.6406 -0.3413 -0.0064
  184MPD1    H1 2805   2.915   1.983  10.226 -0.4343 -0.7515 -0.9841
  184MPD1    H2 2806   2.721   1.759  10.512  0.0230 -1.6631 -1.2949
  184MPD1    H3 2807   2.916   1.829  10.403  0.5869  0.3073  0.0035
  184MPD1     N 2808   2.693   2.110  10.107  0.2664  0.4241  0.7941
  184MPD1    H5 2809   2.784   2.140  10.073  0.1215  0.8167  0.7418
  184MPD1    N1 2810   2.479   1.820  10.429  0.3103  0.6480 -0.4872
  184MPD1    H6 2811   2.476   1.772  10.519 -1.4421  0.4695 -0.6403
  184MPD1    H7 2812   2.419   1.901  10.447 -0.4049  0.8368 -3.6939
  185MPD1     C 2813   2.048   2.226   9.364 -0.1900  0.6116  0.0358
  185MPD1    C1 2814   2.163   2.281   9.316 -0.1939  0.5092  0.1412
  185MPD1    C2 2815   2.266   2.294   9.406  0.3372  0.1836  0.0004
  185MPD1    C3 2816   2.259   2.261   9.538 -0.1558 -0.8295  0.1738
  185MPD1    C4 2817   2.152   2.196   9.581  0.5251 -0.2376 -0.8878
  185MPD1    C5 2818   2.047   2.178   9.494 -1.4136 -0.2167 -0.0535
  185MPD1     H 2819   2.364   2.332   9.378  0.6543  0.1404  1.0591
  185MPD1    H1 2820   2.149   2.160   9.684 -0.7579 -0.7194 -1.0900
  185MPD1    H2 2821   1.961   2.211   9.301 -0.5584 -0.4951  0.8122
  185MPD1    H3 2822   1.963   2.125   9.539 -2.9865  2.1016 -0.2571
  185MPD1     N 2823   2.366   2.269   9.625 -0.3759  0.4315  0.1496
  185MPD1    H5 2824   2.350   2.232   9.718 -0.5065  0.1530  0.0170
  185MPD1    N1 2825   2.171   2.306   9.180 -0.0842 -0.2964  0.0400
  185MPD1    H6 2826   2.080   2.311   9.133  1.0881  0.2769 -2.1678
  185MPD1    H7 2827   2.218   2.396   9.173  0.2888 -0.6386 -1.8644
  186MPD1     C 2828   1.107   1.515  15.677 -0.4958  0.0030 -0.6715
  186MPD1    C1 2829   1.134   1.648  15.640 -0.6282 -0.1204  0.0481
  186MPD1    C2 2830   1.117   1.747  15.734 -0.1116 -0.0527 -0.5712
  186MPD1    C3 2831   1.083   1.715  15.867 -0.2530  0.1928 -0.2665
  186MPD1    C4 2832   1.036   1.589  15.892  0.0777 -0.0283 -0.6732
  186MPD1    C5 2833   1.046   1.497  15.798 -0.5849 -0.1249  0.2499
  186MPD1     H 2834   1.148   1.843  15.696  0.5969 -0.0233  0.0717
  186MPD1    H1 2835   0.991   1.575  15.990 -0.1537  0.6603 -0.6808
  186MPD1    H2 2836   1.107   1.429  15.611 -0.6348  0.2136 -0.9454
  186MPD1    H3 2837   1.001   1.401  15.821 -1.1677  0.5766  2.0616
  186MPD1     N 2838   1.063   1.818  15.971  0.0797 -0.7737 -0.8634
  186MPD1    H5 2839   1.011   1.794  16.055 -0.0927  1.3567 -0.3687
  186MPD1    N1 2840   1.184   1.683  15.518  0.3056 -0.0731  0.2588
  186MPD1    H6 2841   1.154   1.618  15.446 -0.3476 -0.1457  0.5947
  186MPD1    H7 2842   1.166   1.781  15.501 -2.2957 -0.7808 -1.0835
  187MPD1     C 2843   4.569   4.210   0.426  0.6612 -0.2550  0.3573
  187MPD1    C1 2844   4.493   4.131   0.336 -0.1915  0.0042 -0.2610
  187MPD1    C2 2845   4.551   4.045   0.249 -0.4826  0.3430 -0.2983
  187MPD1    C3 2846   4.688   4.049   0.228  1.1037 -0.3706  0.5472
  187MPD1    C4 2847   0.041   4.134   0.311 -0.0359 -0.0806 -0.4283
  187MPD1    C5 2848   4.705   4.212   0.411  0.2288 -0.2176 -0.1601
  187MPD1     H 2849   4.484   3.980   0.194  0.8937 -0.0366 -1.5274
  187MPD1    H1 2850   0.147   4.147   0.292 -0.0276  0.6598  0.1295
  187MPD1    H2 2851   4.535   4.291   0.490  0.2503  0.1577 -0.3902
  187MPD1    H3 2852   0.032   4.276   0.481 -0.6846 -1.7119  1.8870
  187MPD1     N 2853   0.021   3.983   0.120 -0.0175  0.5764  0.0992
  187MPD1    H5 2854   0.121   3.997   0.113 -0.0260  1.2652  1.1581
  187MPD1    N1 2855   4.356   4.134   0.356  0.1752 -0.0386  0.0305
  187MPD1    H6 2856   4.301   4.108   0.274  0.7288  1.3836 -0.7980
  187MPD1    H7 2857   4.324   4.215   0.408  0.8896  0.2554  0.0052
  188MPD1     C 2858   4.107   3.836   9.674  0.2283 -0.2210  0.6697
  188MPD1    C1 2859   4.145   3.761   9.783 -0.0954 -0.1230  0.7087
  188MPD1    C2 2860   4.230   3.654   9.768  0.0500 -0.4091 -0.4100
  188MPD1    C3 2861   4.270   3.619   9.640  0.1995  0.0592 -0.9235
  188MPD1    C4 2862   4.207   3.683   9.537 -0.1843  0.1552  0.5501
  188MPD1    C5 2863   4.125   3.790   9.544  0.1835 -0.0177  0.2202
  188MPD1     H 2864   4.235   3.587   9.854 -1.5842  1.2006  0.9451
  188MPD1    H1 2865   4.233   3.666   9.433 -1.4637 -1.9239  0.5704
  188MPD1    H2 2866   4.034   3.916   9.678  1.7458  1.2147 -0.4934
  188MPD1    H3 2867   4.088   3.839   9.454  0.5542  2.1567  1.2384
  188MPD1     N 2868   4.364   3.514   9.619 -0.4913  0.0211 -0.4596
  188MPD1    H5 2869   4.364   3.481   9.523 -1.5674 -2.2404  0.3216
  188MPD1    N1 2870   4.074   3.781   9.901  0.2126 -0.4798  0.4135
  188MPD1    H6 2871   4.049   3.879   9.905  0.1544 -0.4535 -0.7187
  188MPD1    H7 2872   4.123   3.760   9.988  1.4314  1.8090  0.2626
  189MPD1     C 2873   1.823   3.373   0.268 -0.0819 -0.0160  0.1211
  189MPD1    C1 2874   1.722   3.342   0.180  0.1535 -0.0762 -0.1611
  189MPD1    C2 2875   1.654   3.451   0.128  0.4772 -0.2699 -0.1831
  189MPD1    C3 2876   1.688   3.583   0.152  0.1429 -0.0159 -0.8145
  189MPD1    C4 2877   1.793   3.609   0.244  0.9206 -0.6550  0.2335
  189MPD1    C5 2878   1.854   3.503   0.305 -0.0960  0.4884 -0.4595
  189MPD1     H 2879   1.580   3.432   0.052  0.0374 -1.4744  0.5431
  189MPD1    H1 2880   1.813   3.713   0.265  1.5365 -1.0987  1.7963
  189MPD1    H2 2881   1.885   3.295   0.312 -2.1158 -1.6755  0.0094
  189MPD1    H3 2882   1.929   3.523   0.380 -0.5294 -0.8020  0.3369
  189MPD1     N 2883   1.628   3.688   0.075  0.1480  0.0575  0.4710
  189MPD1    H5 2884   1.574   3.663  17.694  1.2832 -1.5188  0.2058
  189MPD1    N1 2885   1.719   3.219   0.124 -0.5650 -0.5718 -0.0589
  189MPD1    H6 2886   1.753   3.147   0.188  0.7829  1.2586  1.2451
  189MPD1    H7 2887   1.642   3.186   0.066  0.0419 -1.3830 -0.3961
  190MPD1     C 2888   0.190   2.399  15.281 -0.8855  0.1824  0.4007
  190MPD1    C1 2889   0.271   2.426  15.171  0.5659  0.0438 -0.0720
  190MPD1    C2 2890   0.384   2.501  15.194 -0.6657  0.7912 -0.4206
  190MPD1    C3 2891   0.415   2.555  15.320  0.1297 -0.1303 -0.9074
  190MPD1    C4 2892   0.321   2.535  15.420 -0.1054 -0.1732 -0.2367
  190MPD1    C5 2893   0.213   2.452  15.400  0.3026 -0.1614  0.5857
  190MPD1     H 2894   0.454   2.517  15.113  0.5149  1.1997  0.6726
  190MPD1    H1 2895   0.325   2.584  15.516  0.2810 -1.0953  0.2170
  190MPD1    H2 2896   0.108   2.329  15.269  0.4311 -0.7900 -2.6833
  190MPD1    H3 2897   0.151   2.437  15.488 -0.9138  0.1619 -0.2213
  190MPD1     N 2898   0.538   2.624  15.336  0.0034  0.1092  0.0387
  190MPD1    H5 2899   0.594   2.643  15.253 -0.1605  1.0615  0.1479
  190MPD1    N1 2900   0.262   2.349  15.054  0.1903  0.1790 -0.0937
  190MPD1    H6 2901   0.170   2.307  15.040 -0.6561  2.0199 -0.0760
  190MPD1    H7 2902   0.297   2.400  14.974  2.0616 -0.6764  0.1751
  191MPD1     C 2903   0.242   4.250  11.993  0.0344  0.2966 -0.2262
  191MPD1    C1 2904   0.268   4.382  11.952 -0.7583  0.0733 -0.0049
  191MPD1    C2 2905   0.231   4.487  12.031  0.4508 -0.3695 -0.1883
  191MPD1    C3 2906   0.175   4.472  12.160  0.7838  0.5397 -0.2606
  191MPD1    C4 2907   0.153   4.343  12.195 -0.3235 -0.6392 -0.2106
  191MPD1    C5 2908   0.189   4.236  12.118  0.2982 -0.3439  0.4819
  191MPD1     H 2909   0.240   4.584  11.985  1.2406  0.6832  2.2125
  191MPD1    H1 2910   0.117   4.321  12.295 -0.5849  1.9297  0.2591
  191MPD1    H2 2911   0.262   4.163  11.933  0.1486  0.3788 -0.3090
  191MPD1    H3 2912   0.171   4.133  12.145  2.7942 -0.2803  2.4024
  191MPD1     N 2913   0.135   4.590  12.227 -0.1279  1.1819  0.1434
  191MPD1    H5 2914   0.156   4.673  12.173  0.2237  0.2008 -1.2185
  191MPD1    N1 2915   0.353   4.405  11.845  0.2630  0.1315  0.3117
  191MPD1    H6 2916   0.352   4.339  11.768 -0.5124 -1.5182  1.7381
  191MPD1    H7 2917   0.331   4.498  11.812 -2.8634 -0.2441  1.3351
  192MPD1     C 2918   4.116   4.622  12.933 -0.6983 -0.1626 -0.5023
  192MPD1    C1 2919   4.127   0.019  12.871  0.0654 -0.4519  0.1617
  192MPD1    C2 2920   4.236   0.054  12.790 -0.8299 -0.8516 -0.6672
  192MPD1    C3 2921   4.334   4.687  12.756  0.4539 -0.4574 -0.2612
  192MPD1    C4 2922   4.313   4.566  12.816  0.5951  0.6291 -0.3046
  192MPD1    C5 2923   4.214   4.532  12.899  0.6668  0.1825  0.0311
  192MPD1     H 2924   4.255   0.157  12.762 -1.2617 -0.0477  1.9944
  192MPD1    H1 2925   4.386   4.488  12.799  0.6184  0.6014 -0.0637
  192MPD1    H2 2926   4.030   4.602  12.996  0.0168  1.3275  0.9480
  192MPD1    H3 2927   4.224   4.436  12.948 -0.8172 -0.3881 -0.7960
  192MPD1     N 2928   4.448   4.711  12.671  0.3109 -0.1466 -0.1836
  192MPD1    H5 2929   4.500   4.626  12.654 -1.5816 -0.8359 -2.5399
  192MPD1    N1 2930   4.052   0.130  12.915  0.1546  0.4173  0.0017
  192MPD1    H6 2931   3.956   0.106  12.941  0.0191  0.2203 -0.6824
  192MPD1    H7 2932   4.050   0.201  12.843 -3.3433 -0.3764 -0.7203
  193MPD1     C 2933   4.429   4.602  16.052  0.7953  0.8809 -0.0412
  193MPD1    C1 2934   4.382   0.002  16.095  0.1584 -0.0847 -0.7419
  193MPD1    C2 2935   4.440   0.053  16.210 -0.0126  0.1238 -0.1845
  193MPD1    C3 2936   4.545   4.717  16.274 -0.5923 -1.0795  0.2755
  193MPD1    C4 2937   4.596   4.597  16.234  0.5006  0.1812 -0.2961
  193MPD1    C5 2938   4.543   4.547  16.115  0.4577 -0.1009 -0.6261
  193MPD1     H 2939   4.397   0.146  16.247  1.9094  0.9530 -0.0453
  193MPD1    H1 2940   4.686   4.561  16.283  0.6089  0.2062 -0.4792
  193MPD1    H2 2941   4.384   4.552  15.967 -1.2794  1.2968  0.7856
  193MPD1    H3 2942   4.590   4.455  16.081  1.7679  0.2929  0.1254
  193MPD1     N 2943   4.609   0.052  16.382  0.2649  0.0956 -0.3245
  193MPD1    H5 2944   4.678   4.715  16.423 -0.8232 -0.6660  0.3528
  193MPD1    N1 2945   4.269   0.061  16.036 -0.1322  0.0115 -0.0147
  193MPD1    H6 2946   4.242   0.154  16.069  1.0555  0.1379  0.5830
  193MPD1    H7 2947   4.252   0.033  15.939  1.2408 -0.9520  0.0335
  194MPD1     C 2948   2.370   2.477  16.664  0.8067 -0.2805  0.0225
  194MPD1    C1 2949   2.239   2.470  16.609  0.2567 -0.1197  0.0443
  194MPD1    C2 2950   2.204   2.353  16.543 -0.3863  0.9073 -0.0725
  194MPD1    C3 2951   2.291   2.239  16.547 -0.1590  0.0266 -0.7616
  194MPD1    C4 2952   2.402   2.242  16.626 -0.5292 -0.3105 -0.1697
  194MPD1    C5 2953   2.442   2.362  16.682 -0.1364 -0.1839 -0.1799
  194MPD1     H 2954   2.112   2.349  16.486 -0.6879 -1.0834  0.5561
  194MPD1    H1 2955   2.459   2.152  16.643 -0.0894 -0.0346 -0.1916
  194MPD1    H2 2956   2.406   2.566  16.715 -0.3068  0.9786 -1.3594
  194MPD1    H3 2957   2.517   2.380  16.758  1.0342 -0.2216 -1.3247
  194MPD1     N 2958   2.257   2.114  16.498  0.9194 -0.1930  0.2168
  194MPD1    H5 2959   2.319   2.036  16.521 -0.9071 -1.2587  1.5085
  194MPD1    N1 2960   2.159   2.577  16.606 -0.8161  0.2927  0.4693
  194MPD1    H6 2961   2.061   2.554  16.590 -0.9550  0.0222  1.7112
  194MPD1    H7 2962   2.164   2.627  16.694 -0.3289  1.7996 -0.4027
  195MPD1     C 2963   0.284   3.398   0.884  1.0992 -0.7090  0.0653
  195MPD1    C1 2964   0.357   3.379   0.770  0.2247 -0.2547 -0.2995
  195MPD1    C2 2965   0.298   3.295   0.677 -0.3360 -0.4692 -0.4668
  195MPD1    C3 2966   0.174   3.230   0.703  0.3537  0.0711  0.2139
  195MPD1    C4 2967   0.114   3.241   0.822  0.5347  0.1962 -0.3074
  195MPD1    C5 2968   0.169   3.325   0.911 -0.0975 -0.2969  0.1129
  195MPD1     H 2969   0.352   3.273   0.586 -0.2563  1.2467 -0.8327
  195MPD1    H1 2970   0.020   3.192   0.844  1.0529 -1.0773 -0.9112
  195MPD1    H2 2971   0.319   3.468   0.958  3.0545 -1.2763 -0.3384
  195MPD1    H3 2972   0.120   3.338   1.007 -1.7625  2.3327 -1.1102
  195MPD1     N 2973   0.107   3.146   0.617 -0.5933  0.7671  0.1642
  195MPD1    H5 2974   0.019   3.107   0.648  0.1645  0.6937  2.1901
  195MPD1    N1 2975   0.494   3.413   0.765  0.3775  0.3755  0.1664
  195MPD1    H6 2976   0.522   3.487   0.829 -0.0703  1.2003 -0.6001
  195MPD1    H7 2977   0.517   3.441   0.670 -0.8851 -0.2795 -0.3228
  196MPD1     C 2978   3.521   3.137   0.961  0.3767  0.6202 -0.8453
  196MPD1    C1 2979   3.569   3.138   0.833 -0.1387 -0.6931 -0.3390
  196MPD1    C2 2980   3.639   3.244   0.783 -0.0236 -0.7229 -0.6653
  196MPD1    C3 2981   3.677   3.350   0.864 -0.0555  0.8490  0.6052
  196MPD1    C4 2982   3.638   3.344   0.996 -0.0586  0.0010 -0.0946
  196MPD1    C5 2983   3.562   3.244   1.048  0.1800 -0.3749  0.1642
  196MPD1     H 2984   3.661   3.241   0.677  0.5322 -1.1098 -0.5424
  196MPD1    H1 2985   3.661   3.425   1.064  1.7946  0.3047 -1.0982
  196MPD1    H2 2986   3.460   3.058   1.003  0.7892 -0.5475 -2.4421
  196MPD1    H3 2987   3.520   3.260   1.147 -0.5629  1.2568 -0.4087
  196MPD1     N 2988   3.753   3.463   0.822 -0.7050 -0.3335  0.0509
  196MPD1    H5 2989   3.768   3.540   0.887  0.9452 -0.0167 -0.6867
  196MPD1    N1 2990   3.528   3.042   0.739 -0.2674 -0.6265 -0.1121
  196MPD1    H6 2991   3.529   2.948   0.777  1.5761 -0.6226 -0.1398
  196MPD1    H7 2992   3.593   3.033   0.661  0.2701  0.5621  0.1985
  197MPD1     C 2993   3.723   0.456  17.424  0.2827 -0.6826 -0.2984
  197MPD1    C1 2994   3.634   0.551  17.456  0.2158 -0.3120  0.7413
  197MPD1    C2 2995   3.564   0.618  17.361 -0.2171 -0.3091 -0.0806
  197MPD1    C3 2996   3.577   0.579  17.227  0.0963 -0.7335 -0.1435
  197MPD1    C4 2997   3.663   0.477  17.197 -0.2815  0.0437 -0.9567
  197MPD1    C5 2998   3.736   0.408  17.293 -0.1241  0.0297 -0.6219
  197MPD1     H 2999   3.484   0.687  17.384 -0.5341 -0.6547 -0.1504
  197MPD1    H1 3000   3.671   0.429  17.099 -0.1044 -1.4123 -0.2346
  197MPD1    H2 3001   3.774   0.411  17.509 -0.6782 -0.0147  0.6360
  197MPD1    H3 3002   3.816   0.342  17.262  1.7435  1.1206  1.8879
  197MPD1     N 3003   3.508   0.640  17.122  0.7281 -0.5845  0.1264
  197MPD1    H5 3004   3.520   0.607  17.027 -0.7671 -0.8011  0.0085
  197MPD1    N1 3005   3.599   0.568  17.592  0.5427 -0.0804  0.1697
  197MPD1    H6 3006   3.572   0.666  17.598  1.0230  0.2948 -3.6409
  197MPD1    H7 3007   3.681   0.541  17.646 -0.5848  1.7266  2.7431
  198MPD1     C 3008   0.200   4.346  15.855  0.2689 -0.0837  0.1255
  198MPD1    C1 3009   0.165   4.236  15.927  0.5346 -0.0292  0.0519
  198MPD1    C2 3010   0.264   4.140  15.953 -0.1393  0.5825  0.4701
  198MPD1    C3 3011   0.379   4.135  15.880 -0.0898  0.4102  0.8888
  198MPD1    C4 3012   0.408   4.240  15.792 -0.0821  0.1271  0.3178
  198MPD1    C5 3013   0.326   4.346  15.798  0.2686 -0.0920 -0.7870
  198MPD1     H 3014   0.234   4.061  16.020  0.2838  1.6893  1.9606
  198MPD1    H1 3015   0.503   4.245  15.740 -1.6999 -3.2478 -3.0341
  198MPD1    H2 3016   0.133   4.432  15.849 -0.6985 -0.8921 -0.6134
  198MPD1    H3 3017   0.364   4.426  15.735  0.1871  0.9723  0.5215
  198MPD1     N 3018   0.467   4.026  15.885  0.3930 -0.4774  0.3727
  198MPD1    H5 3019   0.447   3.957  15.957 -3.2654 -0.9640 -1.1325
  198MPD1    N1 3020   0.055   4.240  16.017 -0.0884 -0.2944 -0.1536
  198MPD1    H6 3021   4.704   4.288  15.969 -0.2108 -0.0432  0.2909
  198MPD1    H7 3022   0.041   4.144  16.049 -0.5730  0.2775  1.3497
  199MPD1     C 3023   3.765   0.270   9.769 -0.4529 -0.0945  0.4251
  199MPD1    C1 3024   3.730   0.407   9.745 -0.2077  0.7886 -1.1104
  199MPD1    C2 3025   3.593   0.432   9.721  0.3781  0.1112  0.3754
  199MPD1    C3 3026   3.492   0.338   9.733 -0.1947  0.0831 -0.0286
  199MPD1    C4 3027   3.533   0.212   9.766 -0.1880  0.3221  0.1410
  199MPD1    C5 3028   3.666   0.176   9.779 -0.2984  0.0139 -0.6070
  199MPD1     H 3029   3.564   0.530   9.686  0.6905  0.0069 -0.1742
  199MPD1    H1 3030   3.464   0.131   9.788 -1.5766  1.5423  0.2404
  199MPD1    H2 3031   3.866   0.233   9.780 -0.6150 -1.3610 -2.3872
  199MPD1    H3 3032   3.687   0.074   9.810  1.1341  0.5000  0.0387
  199MPD1     N 3033   3.350   0.359   9.728  0.8088  0.1790  0.2399
  199MPD1    H5 3034   3.288   0.279   9.735  0.8306  0.2642  1.3715
  199MPD1    N1 3035   3.837   0.503   9.727  0.9591 -0.1896 -0.3903
  199MPD1    H6 3036   3.807   0.600   9.719  1.7292 -0.0937 -1.9915
  199MPD1    H7 3037   3.887   0.502   9.816 -0.8674 -1.0977  0.6416
  200MPD1     C 3038   1.485   0.476  14.735 -0.5937  0.0607  0.4190
  200MPD1    C1 3039   1.435   0.497  14.607 -0.7444  0.6324  0.1476
  200MPD1    C2 3040   1.520   0.473  14.502 -0.5922  0.5578 -0.1260
  200MPD1    C3 3041   1.644   0.413  14.531 -0.2729  0.1110 -0.4051
  200MPD1    C4 3042   1.687   0.386  14.659  0.4953 -0.2937  0.2377
  200MPD1    C5 3043   1.611   0.421  14.758  0.1366  0.4947 -0.2243
  200MPD1     H 3044   1.504   0.509  14.401  0.9729 -0.1973 -0.6481
  200MPD1    H1 3045   1.781   0.335  14.677  0.5061 -0.1220  0.6686
  200MPD1    H2 3046   1.427   0.489  14.825  0.3383  0.9747  0.8955
  200MPD1    H3 3047   1.654   0.413  14.857  2.5059 -1.8181 -1.4404
  200MPD1     N 3048   1.731   0.402  14.418  0.0098  0.0984  0.4288
  200MPD1    H5 3049   1.693   0.433  14.329 -2.4861 -1.6868  0.8686
  200MPD1    N1 3050   1.305   0.553  14.587 -0.4208  0.7492  0.3156
  200MPD1    H6 3051   1.257   0.538  14.676  0.7801  0.3687  0.9003
  200MPD1    H7 3052   1.257   0.501  14.515  0.5406 -0.6224  0.6662
  201MPD1     C 3053   3.668   4.181  13.063  0.2031 -0.1009  0.1002
  201MPD1    C1 3054   3.664   4.064  12.990  0.3686  0.3717 -0.6562
  201MPD1    C2 3055   3.782   3.993  12.987 -0.0061  0.0507 -0.5141
  201MPD1    C3 3056   3.897   4.039  13.039  0.2594 -0.1972  0.5608
  201MPD1    C4 3057   3.897   4.160  13.100 -0.1344  0.1495 -0.4925
  201MPD1    C5 3058   3.784   4.238  13.096 -0.4399 -0.0633  0.2437
  201MPD1     H 3059   3.766   3.894  12.946  0.0059 -0.1556 -0.0227
  201MPD1    H1 3060   3.980   4.204  13.155 -1.1975  0.4564  0.8758
  201MPD1    H2 3061   3.577   4.239  13.077 -0.2262 -1.0397  1.2756
  201MPD1    H3 3062   3.800   4.343  13.119 -0.2088  0.4556 -2.2867
  201MPD1     N 3063   4.005   3.951  13.054 -0.8925  0.0023 -0.8108
  201MPD1    H5 3064   3.988   3.865  13.003 -0.1611  0.1150 -1.2416
  201MPD1    N1 3065   3.545   4.007  12.950 -0.3989  0.0190 -0.0764
  201MPD1    H6 3066   3.569   3.938  12.879 -0.9423 -0.0649 -0.1795
  201MPD1    H7 3067   3.473   4.070  12.915 -1.8859 -1.5872  0.0646
  202MPD1     C 3068   3.954   3.098   9.077 -0.8988  0.2491  0.2554
  202MPD1    C1 3069   3.861   3.177   9.134  0.1606 -0.5865 -0.1564
  202MPD1    C2 3070   3.898   3.231   9.260 -0.2647  0.7728  0.0731
  202MPD1    C3 3071   4.008   3.188   9.326  0.3263  0.3443  0.1377
  202MPD1    C4 3072   4.086   3.094   9.268  0.0808  0.3119  0.4150
  202MPD1    C5 3073   4.064   3.051   9.145 -0.2008  0.2083 -0.0320
  202MPD1     H 3074   3.826   3.296   9.309 -1.6340  0.5361 -1.6444
  202MPD1    H1 3075   4.178   3.064   9.317  0.0449  0.4133  0.5423
  202MPD1    H2 3076   3.939   3.068   8.974  1.4288  0.8563 -0.2542
  202MPD1    H3 3077   4.127   2.987   9.084 -0.9969 -0.9574  0.3539
  202MPD1     N 3078   4.042   3.225   9.461  0.1872  0.6883 -0.0798
  202MPD1    H5 3079   4.108   3.166   9.511 -0.3553 -1.2717 -1.6568
  202MPD1    N1 3080   3.776   3.255   9.047 -0.0513  0.5556  0.0200
  202MPD1    H6 3081   3.693   3.300   9.085 -0.1111 -0.8002  1.4915
  202MPD1    H7 3082   3.750   3.202   8.964  1.6896  0.3121 -0.3613
  203MPD1     C 3083   2.161   0.158  13.008  0.1641  0.2337  0.3233
  203MPD1    C1 3084   2.252   0.108  13.090 -0.0857  0.0951 -0.2257
  203MPD1    C2 3085   2.279   4.703  13.064 -0.2042  0.1670 -0.4443
  203MPD1    C3 3086   2.230   4.630  12.963  0.4423  0.3312  0.4542
  203MPD1    C4 3087   2.132   4.681  12.884 -0.6711  0.0159  0.3517
  203MPD1    C5 3088   2.102   0.083  12.907  0.1409  0.1482  0.4457
  203MPD1     H 3089   2.361   4.660  13.119  0.7850  1.0851 -1.1914
  203MPD1    H1 3090   2.087   4.630  12.799 -0.6278 -1.3854  1.1718
  203MPD1    H2 3091   2.120   0.258  13.003  1.5803  0.7980  0.2170
  203MPD1    H3 3092   2.029   0.131  12.843  2.4557  2.5625 -0.3738
  203MPD1     N 3093   2.281   4.497  12.938 -0.4367 -0.0578  0.2362
  203MPD1    H5 3094   2.353   4.469  13.004 -0.0634  0.6136  0.1135
  203MPD1    N1 3095   2.289   0.173  13.208  0.3281 -0.9415 -0.4161
  203MPD1    H6 3096   2.294   0.273  13.190  0.2856 -1.4260 -3.1147
  203MPD1    H7 3097   2.378   0.137  13.241  1.9771  2.2674 -1.4036
  204MPD1     C 3098   2.006   0.576   0.038  0.0761  0.5903 -0.3009
  204MPD1    C1 3099   2.118   0.496   0.044  0.4297 -0.2204  0.3837
  204MPD1    C2 3100   2.176   0.465  17.620  0.2816 -0.5081 -0.3211
  204MPD1    C3 3101   2.140   0.535  17.504  0.1868 -0.2853 -0.0241
  204MPD1    C4 3102   2.037   0.633  17.512  0.1295 -0.1974  0.5553
  204MPD1    C5 3103   1.962   0.639  17.624  0.0523 -0.2034 -0.0649
  204MPD1     H 3104   2.255   0.392  17.624  0.8154  0.0840 -0.0595
  204MPD1    H1 3105   2.007   0.684  17.421 -1.2660  1.3893  1.8980
  204MPD1    H2 3106   1.947   0.601   0.126  0.6362  1.4282 -0.1644
  204MPD1    H3 3107   1.881   0.712  17.624  1.8591  1.7596  3.6997
  204MPD1     N 3108   2.207   0.498  17.383 -0.4450 -0.0185 -0.5905
  204MPD1    H5 3109   2.279   0.427  17.393 -1.6577 -1.3325 -1.3170
  204MPD1    N1 3110   2.160   0.424   0.160  0.0601 -0.0205  0.0917
  204MPD1    H6 3111   2.248   0.374   0.161 -0.7322 -1.4815 -1.9999
  204MPD1    H7 3112   2.160   0.483   0.243 -0.3793  1.0349 -0.6695
  205MPD1     C 3113   2.812   4.416  16.297 -0.3231 -0.3488  0.1816
  205MPD1    C1 3114   2.887   4.308  16.334  0.2660 -0.2281 -1.3455
  205MPD1    C2 3115   2.868   4.274  16.462  0.1038  0.1706 -0.9754
  205MPD1    C3 3116   2.790   4.334  16.564 -0.1407 -0.1749 -0.8882
  205MPD1    C4 3117   2.734   4.452  16.518 -0.7309 -0.6401 -0.0884
  205MPD1    C5 3118   2.743   4.490  16.386  0.9208 -0.5121  0.3475
  205MPD1     H 3119   2.924   4.187  16.493  0.4080  0.4114 -0.8392
  205MPD1    H1 3120   2.672   4.519  16.576 -1.2881  2.5485 -4.3103
  205MPD1    H2 3121   2.814   4.447  16.193 -0.2834 -1.8018 -0.2442
  205MPD1    H3 3122   2.687   4.577  16.354 -0.1470 -1.7523 -1.1538
  205MPD1     N 3123   2.772   4.281  16.690 -0.1314  0.4831 -0.2420
  205MPD1    H5 3124   2.710   4.329  16.754 -1.4465  1.7814 -2.4538
  205MPD1    N1 3125   2.950   4.232  16.232 -1.0023 -0.8631  0.0395
  205MPD1    H6 3126   3.016   4.276  16.167 -0.1268 -0.7282  1.0236
  205MPD1    H7 3127   3.007   4.164  16.282 -0.6689 -0.1362  0.6607
  206MPD1     C 3128   2.907   2.546  16.936 -0.1607  0.2861 -0.2714
  206MPD1    C1 3129   2.965   2.507  16.815 -0.1558 -0.7700 -0.0994
  206MPD1    C2 3130   2.889   2.503  16.701  0.3729  0.6228 -0.9614
  206MPD1    C3 3131   2.764   2.563  16.696 -0.6243  0.0114 -0.2696
  206MPD1    C4 3132   2.720   2.629  16.809  0.1764 -0.9610 -0.3605
  206MPD1    C5 3133   2.789   2.619  16.927 -0.9136 -0.2820 -0.7275
  206MPD1     H 3134   2.935   2.447  16.620 -1.2520 -1.9691 -0.0970
  206MPD1    H1 3135   2.640   2.702  16.805  2.1960  1.1362 -2.7724
  206MPD1    H2 3136   2.957   2.538  17.032 -0.2525 -1.4995 -0.3593
  206MPD1    H3 3137   2.753   2.677  17.011  3.5578  1.9248 -0.3118
  206MPD1     N 3138   2.681   2.564  16.583 -0.2020 -0.1169 -0.1919
  206MPD1    H5 3139   2.601   2.626  16.576  0.4862  0.8591  0.5532
  206MPD1    N1 3140   3.074   2.422  16.816  0.1632 -0.1614 -0.2470
  206MPD1    H6 3141   3.130   2.439  16.899 -0.7057  0.5787  0.1918
  206MPD1    H7 3142   3.127   2.442  16.732  1.7269 -0.5975  0.6232
  207MPD1     C 3143   0.358   4.204   9.535  0.2203 -0.7929  0.6491
  207MPD1    C1 3144   0.439   4.297   9.469  0.0943 -0.3028  0.0557
  207MPD1    C2 3145   0.492   4.408   9.538  0.0459  0.0223 -0.7704
  207MPD1    C3 3146   0.455   4.426   9.672 -0.0163  0.1473 -0.7844
  207MPD1    C4 3147   0.371   4.333   9.731 -0.4980 -0.3073  0.0501
  207MPD1    C5 3148   0.333   4.222   9.664 -0.3058  0.3857 -0.0451
  207MPD1     H 3149   0.556   4.473   9.480 -0.8200  0.7051 -0.9643
  207MPD1    H1 3150   0.331   4.349   9.831 -0.4464  0.5384 -0.0649
  207MPD1    H2 3151   0.314   4.114   9.493 -2.3607 -0.5260  2.8174
  207MPD1    H3 3152   0.273   4.146   9.712  0.9032 -0.0551  0.7526
  207MPD1     N 3153   0.486   4.543   9.750 -0.9557  0.3085 -0.3312
  207MPD1    H5 3154   0.439   4.540   9.840  2.4180  1.1178  1.4714
  207MPD1    N1 3155   0.483   4.266   9.335 -0.6607  0.1022 -0.3114
  207MPD1    H6 3156   0.408   4.214   9.291 -1.2557  2.4205 -2.0440
  207MPD1    H7 3157   0.490   4.352   9.281  1.8929  1.0059  1.4485
  208MPD1     C 3158   3.634   4.125  17.469  0.8481 -0.6828 -0.1560
  208MPD1    C1 3159   3.522   4.064  17.412 -0.3193 -0.1764 -0.2155
  208MPD1    C2 3160   3.435   4.005  17.501  0.2427  0.1499  0.8209
  208MPD1    C3 3161   3.466   3.988  17.635  0.0181 -0.1089 -0.1176
  208MPD1    C4 3162   3.595   4.025  17.682 -0.8744  0.7478 -0.1708
  208MPD1    C5 3163   3.671   4.102  17.600 -0.2996  0.3707 -0.2084
  208MPD1     H 3164   3.340   3.971  17.463  0.7946 -1.3889  0.8029
  208MPD1    H1 3165   3.627   4.018   0.084  2.2617 -1.0263 -1.2500
  208MPD1    H2 3166   3.701   4.177  17.401 -0.1810  0.0419 -0.6019
  208MPD1    H3 3167   3.768   4.140  17.629 -0.4550  0.5339  0.1027
  208MPD1     N 3168   3.370   3.902  17.701 -0.4630  0.2871  0.0722
  208MPD1    H5 3169   3.282   3.877  17.658 -1.6458  0.6070  2.2913
  208MPD1    N1 3170   3.472   4.090  17.284  0.4103 -0.4224 -0.7527
  208MPD1    H6 3171   3.426   4.008  17.244 -0.8419 -0.0023 -0.1619
  208MPD1    H7 3172   3.553   4.111  17.225  0.4202 -0.1518 -0.6429
  209MPD1     C 3173   0.418   4.447  11.489  0.3135 -0.3510  0.4773
  209MPD1    C1 3174   0.447   4.391  11.365  0.1758  0.9091 -0.3590
  209MPD1    C2 3175   0.440   4.474  11.253 -0.2229  0.2271  0.0575
  209MPD1    C3 3176   0.423   4.608  11.277  0.2107 -0.1118  0.0883
  209MPD1    C4 3177   0.408   4.659  11.404  0.9022 -0.7085  0.2631
  209MPD1    C5 3178   0.406   4.580  11.508  0.3957  0.2729 -0.4199
  209MPD1     H 3179   0.449   4.438  11.151  2.0844  2.2357 -0.4434
  209MPD1    H1 3180   0.402   0.040  11.424 -0.0298 -0.1991 -2.6767
  209MPD1    H2 3181   0.430   4.380  11.574  0.1912  0.4381  1.1197
  209MPD1    H3 3182   0.403   4.621  11.608  4.1730 -0.9365  0.2264
  209MPD1     N 3183   0.422   4.691  11.163 -0.1546 -0.0019  0.0404
  209MPD1    H5 3184   0.434   4.648  11.072 -2.0725 -0.1598 -0.1326
  209MPD1    N1 3185   0.464   4.251  11.358  0.2618 -0.3798 -0.4625
  209MPD1    H6 3186   0.529   4.221  11.431  1.1252  0.9661 -0.6678
  209MPD1    H7 3187   0.514   4.232  11.272 -0.5166  3.6725 -1.7945
  210MPD1     C 3188   0.993   0.740  11.279 -0.1014  0.3587  0.2558
  210MPD1    C1 3189   1.040   0.663  11.168  0.0275 -0.1925  0.2546
  210MPD1    C2 3190   0.954   0.584  11.093 -0.3214 -0.1624  0.7696
  210MPD1    C3 3191   0.823   0.563  11.143 -0.1142 -0.4055  0.7202
  210MPD1    C4 3192   0.785   0.633  11.259  0.1437 -0.3304 -0.1966
  210MPD1    C5 3193   0.866   0.721  11.317 -0.8500  0.1383  0.6264
  210MPD1     H 3194   0.988   0.531  11.005 -2.5973 -0.6091  0.1517
  210MPD1    H1 3195   0.690   0.611  11.307 -0.6290 -0.1561 -1.6367
  210MPD1    H2 3196   1.047   0.804  11.348  0.2119  1.3263 -0.8771
  210MPD1    H3 3197   0.833   0.773  11.406 -1.1981 -0.1628  0.6764
  210MPD1     N 3198   0.733   0.472  11.089 -0.6715  0.0834  0.0917
  210MPD1    H5 3199   0.646   0.459  11.139  0.1103 -2.2753  0.8099
  210MPD1    N1 3200   1.165   0.693  11.120  0.4644  0.1566 -0.2314
  210MPD1    H6 3201   1.214   0.611  11.083  1.2532  0.7689 -0.5292
  210MPD1    H7 3202   1.225   0.745  11.183 -1.1577  2.3387 -0.5140
  211MPD1     C 3203   3.282   4.129  15.726 -0.1532  0.5876 -0.6200
  211MPD1    C1 3204   3.186   4.046  15.779 -0.5196 -0.6451  0.0173
  211MPD1    C2 3205   3.063   4.096  15.820 -0.9745 -0.7198 -0.6825
  211MPD1    C3 3206   3.034   4.234  15.808  0.4896  0.1797  0.6237
  211MPD1    C4 3207   3.136   4.316  15.756  1.1936  0.5742  0.9688
  211MPD1    C5 3208   3.257   4.267  15.717  0.0970 -0.2472 -0.5449
  211MPD1     H 3209   2.990   4.028  15.861 -1.1004 -0.3276 -0.2488
  211MPD1    H1 3210   3.118   4.421  15.735 -0.9252 -0.3755 -1.9838
  211MPD1    H2 3211   3.373   4.083  15.691  0.1557 -2.1727  3.8951
  211MPD1    H3 3212   3.335   4.330  15.677 -0.8639 -0.3713 -2.6204
  211MPD1     N 3213   2.909   4.273  15.849 -0.6656  0.0023  0.0170
  211MPD1    H5 3214   2.845   4.214  15.901  0.4429 -0.0946  1.2767
  211MPD1    N1 3215   3.226   3.913  15.784  0.1965  0.3568  0.0220
  211MPD1    H6 3216   3.293   3.887  15.712  0.5170  0.4553  0.2860
  211MPD1    H7 3217   3.139   3.859  15.782 -0.5611  1.5831 -0.0692
  212MPD1     C 3218   1.996   2.620  16.252  0.6633 -0.1726 -0.2131
  212MPD1    C1 3219   1.925   2.688  16.348 -0.0614 -0.3345  0.1932
  212MPD1    C2 3220   1.830   2.612  16.414  0.6281 -0.6847 -0.3823
  212MPD1    C3 3221   1.811   2.476  16.405 -0.3579  0.1809 -0.1230
  212MPD1    C4 3222   1.890   2.417  16.313 -0.6632 -0.1476  0.2056
  212MPD1    C5 3223   1.970   2.485  16.227  0.0591  0.3246  0.1714
  212MPD1     H 3224   1.770   2.669  16.484 -1.3719 -2.8284 -0.3276
  212MPD1    H1 3225   1.878   2.310  16.296 -0.7220 -0.1755  0.4332
  212MPD1    H2 3226   2.075   2.669  16.195  0.8728  2.1575  2.1075
  212MPD1    H3 3227   2.020   2.436  16.144 -1.3230 -1.3237  0.3044
  212MPD1     N 3228   1.711   2.398  16.473  0.1327 -0.0547 -0.7460
  212MPD1    H5 3229   1.699   2.300  16.449 -3.8761  0.2862 -0.1052
  212MPD1    N1 3230   1.932   2.827  16.363  0.7494  0.4077  0.0022
  212MPD1    H6 3231   1.889   2.858  16.450  3.6914  2.3702  0.7493
  212MPD1    H7 3232   2.028   2.859  16.369  0.1825  2.4433 -1.7744
  213MPD1     C 3233   0.142   2.662  15.916  0.0151  0.7909  0.1266
  213MPD1    C1 3234   0.090   2.630  15.787 -0.0203  0.1417  0.4265
  213MPD1    C2 3235   0.118   2.720  15.685 -0.2917 -0.2652 -0.0303
  213MPD1    C3 3236   0.168   2.844  15.716 -0.5292 -0.8222  0.0554
  213MPD1    C4 3237   0.198   2.879  15.848 -0.4005  0.7020  0.3760
  213MPD1    C5 3238   0.187   2.784  15.947 -0.4261 -0.5901  0.0821
  213MPD1     H 3239   0.098   2.709  15.580  0.9879  0.3412 -0.3390
  213MPD1    H1 3240   0.248   2.968  15.884 -1.0269  1.5580 -0.8912
  213MPD1    H2 3241   0.143   2.587  15.995 -2.8248 -0.2676 -0.8411
  213MPD1    H3 3242   0.219   2.795  16.050  0.0186  0.3671 -0.1660
  213MPD1     N 3243   0.168   2.942  15.612 -0.0195 -1.3833 -0.5280
  213MPD1    H5 3244   0.137   2.910  15.521  0.6153 -0.5853 -1.0269
  213MPD1    N1 3245   0.091   2.488  15.760 -0.1724  0.4662  0.4254
  213MPD1    H6 3246   0.068   2.438  15.846 -0.1935 -0.8392 -0.3344
  213MPD1    H7 3247   0.032   2.450  15.687  1.2450 -1.7557  0.4249
  214MPD1     C 3248   4.423   2.911  14.887  0.4382 -0.1582  0.3849
  214MPD1    C1 3249   4.530   2.988  14.841  0.5263 -0.7565  1.0793
  214MPD1    C2 3250   4.622   3.044  14.927 -0.3924 -0.0796  0.2723
  214MPD1    C3 3251   4.601   3.018  15.064 -0.6955 -0.3749 -0.0451
  214MPD1    C4 3252   4.498   2.930  15.106  0.1832 -0.3880  0.4424
  214MPD1    C5 3253   4.412   2.873  15.016 -0.0061 -0.2566 -0.9771
  214MPD1     H 3254   4.704   3.102  14.889  0.5893 -0.3481  1.9758
  214MPD1    H1 3255   4.475   2.915  15.210 -1.1774  0.9725  0.3348
  214MPD1    H2 3256   4.335   2.885  14.830  0.9938  1.2251 -1.1309
  214MPD1    H3 3257   4.330   2.812  15.054  1.0787 -1.7121 -0.9877
  214MPD1     N 3258   4.683   3.064  15.167 -0.5284  0.3335 -0.1002
  214MPD1    H5 3259   4.666   3.023  15.258  0.6146  0.1530  0.0349
  214MPD1    N1 3260   4.521   3.051  14.719 -0.4515 -0.0014  0.7056
  214MPD1    H6 3261   4.465   2.989  14.660  1.1226 -0.1898 -0.5995
  214MPD1    H7 3262   4.612   3.072  14.678 -0.7530 -1.4427 -0.7216
  215MPD1     C 3263   0.045   3.433  10.289  0.6188  0.2111  0.5964
  215MPD1    C1 3264   0.085   3.550  10.231 -0.3438 -0.2689 -0.3198
  215MPD1    C2 3265   0.058   3.670  10.294  0.0045 -0.2112 -0.0871
  215MPD1    C3 3266   0.015   3.681  10.427 -0.2924 -0.4254 -0.9051
  215MPD1    C4 3267   4.693   3.563  10.481 -0.5123 -0.1572 -0.1133
  215MPD1    C5 3268   4.716   3.442  10.416  0.5381 -0.4126  0.1541
  215MPD1     H 3269   0.089   3.764  10.249  2.3512 -1.2539 -0.6090
  215MPD1    H1 3270   4.638   3.553  10.573 -0.1707 -0.3578  0.0692
  215MPD1    H2 3271   0.046   3.336  10.241  0.9339  0.1993  0.6269
  215MPD1    H3 3272   4.682   3.345  10.452 -2.4516  1.6363  2.8862
  215MPD1     N 3273   4.718   3.813  10.477  0.9223 -0.3415  0.0091
  215MPD1    H5 3274   0.027   3.893  10.425  0.2026 -0.1418 -0.1582
  215MPD1    N1 3275   0.112   3.541  10.092 -0.0820  0.8370 -0.3848
  215MPD1    H6 3276   0.143   3.453  10.052 -0.8437  1.1823 -1.6967
  215MPD1    H7 3277   0.184   3.602  10.054 -0.0417  1.7331  1.1159
  216MPD1     C 3278   2.462   2.762  17.178 -0.6433  0.6787 -0.3406
  216MPD1    C1 3279   2.364   2.842  17.237 -1.0399  0.4818 -0.2343
  216MPD1    C2 3280   2.231   2.815  17.201  0.1549  0.8775  0.3844
  216MPD1    C3 3281   2.197   2.729  17.105  0.0979  0.4331  0.1580
  216MPD1    C4 3282   2.300   2.668  17.029  0.0684 -0.3542  0.1494
  216MPD1    C5 3283   2.430   2.687  17.063  0.1721  0.0224  0.0117
  216MPD1     H 3284   2.155   2.863  17.261 -0.2846 -0.2135  0.7128
  216MPD1    H1 3285   2.285   2.595  16.951 -0.7964  2.6368 -2.4571
  216MPD1    H2 3286   2.565   2.756  17.210 -0.9422  1.8643  0.8305
  216MPD1    H3 3287   2.506   2.635  17.005  0.3433 -1.6395  1.7273
  216MPD1     N 3288   2.062   2.707  17.074  0.4505  0.0259  0.4409
  216MPD1    H5 3289   1.993   2.751  17.135 -0.8480 -1.7267  0.2522
  216MPD1    N1 3290   2.388   2.930  17.346  0.6659 -0.2872  0.6781
  216MPD1    H6 3291   2.326   3.010  17.353  0.7597 -0.1510 -0.0176
  216MPD1    H7 3292   2.480   2.974  17.346  1.5328 -2.1021  0.0372
  217MPD1     C 3293   3.002   3.030   8.224 -0.0232 -0.5079  0.3633
  217MPD1    C1 3294   2.915   2.948   8.299  0.8447 -0.2821  0.3974
  217MPD1    C2 3295   2.907   2.982   8.433 -0.0623 -0.3496 -0.1899
  217MPD1    C3 3296   2.981   3.084   8.492  1.3663  0.0022 -0.0688
  217MPD1    C4 3297   3.066   3.158   8.415 -0.2592  0.2177 -0.4951
  217MPD1    C5 3298   3.074   3.133   8.279 -0.1003 -0.1398 -0.4812
  217MPD1     H 3299   2.857   2.910   8.497 -0.2814  1.0064  1.1775
  217MPD1    H1 3300   3.132   3.230   8.461 -0.8690  0.3697  0.1563
  217MPD1    H2 3301   3.011   3.017   8.117  0.0327 -2.0829  0.5644
  217MPD1    H3 3302   3.139   3.194   8.218  0.2227 -0.4021 -0.3988
  217MPD1     N 3303   2.973   3.124   8.630  1.0073 -0.1600 -0.6449
  217MPD1    H5 3304   3.033   3.197   8.665  1.4162 -0.4478 -0.7467
  217MPD1    N1 3305   2.865   2.824   8.247  0.4907  0.0377 -0.2882
  217MPD1    H6 3306   2.781   2.797   8.298  0.2670  0.4286 -0.4527
  217MPD1    H7 3307   2.833   2.845   8.153  0.2437  2.0431  0.2441
  218MPD1     C 3308   3.768   4.495  12.782 -0.0911 -1.2761 -0.3996
  218MPD1    C1 3309   3.839   4.595  12.720  0.5216 -0.4700  0.9647
  218MPD1    C2 3310   3.943   4.559  12.640 -0.3934 -0.0698 -0.4827
  218MPD1    C3 3311   3.997   4.430  12.633  0.4424  0.8604 -0.7094
  218MPD1    C4 3312   3.933   4.330  12.714 -0.3822  0.7151  0.5596
  218MPD1    C5 3313   3.820   4.364  12.788  0.1624 -0.0121  0.2009
  218MPD1     H 3314   3.985   4.643  12.586  0.1478  0.1261  0.2382
  218MPD1    H1 3315   3.967   4.228  12.733  0.5921  0.7772 -0.8870
  218MPD1    H2 3316   3.683   4.515  12.846  1.4755  0.8233  1.0360
  218MPD1    H3 3317   3.764   4.290  12.845  0.0982  0.0369  0.2010
  218MPD1     N 3318   4.111   4.413  12.557 -0.3507  0.2482 -0.2029
  218MPD1    H5 3319   4.157   4.495  12.518  2.6604 -1.6716 -0.6786
  218MPD1    N1 3320   3.789   4.725  12.717  0.7678 -0.4493 -0.7813
  218MPD1    H6 3321   3.733   0.021  12.799  0.7700 -1.7024 -0.4521
  218MPD1    H7 3322   3.865   0.067  12.709 -0.0029  0.3253 -1.5611
  219MPD1     C 3323   0.007   0.089  11.883  0.1868  0.8209 -0.0868
  219MPD1    C1 3324   4.672   0.141  11.998  0.6303 -0.4459 -0.3715
  219MPD1    C2 3325   4.608   0.053  12.076  0.1593 -1.5973 -0.0601
  219MPD1    C3 3326   4.590   4.648  12.035  0.0319  0.3971  0.5033
  219MPD1    C4 3327   4.636   4.600  11.916  0.0294  0.3836 -0.3428
  219MPD1    C5 3328   4.719   4.678  11.846 -0.1219  0.8433  0.3212
  219MPD1     H 3329   4.578   0.085  12.175  1.8343  1.2752 -0.4701
  219MPD1    H1 3330   4.613   4.500  11.882  1.4781  0.3646 -1.2513
  219MPD1    H2 3331   0.065   0.166  11.833 -0.4359  0.8590 -0.7574
  219MPD1    H3 3332   0.044   4.645  11.756 -1.0156  0.3798 -0.0025
  219MPD1     N 3333   4.516   4.551  12.112  0.2614  0.6536  0.1702
  219MPD1    H5 3334   4.516   4.456  12.077  2.1143 -0.5369  3.4173
  219MPD1    N1 3335   4.701   0.275  12.032  0.3568  0.2965  0.7032
  219MPD1    H6 3336   4.722   0.322  11.944 -0.4165 -2.6203 -1.0402
  219MPD1    H7 3337   4.622   0.313  12.085  0.2240  0.0681  0.6661
  220MPD1     C 3338   3.742   0.935  10.135  0.9116  0.4981  0.5234
  220MPD1    C1 3339   3.661   0.853  10.218  0.0773 -0.9707 -1.1463
  220MPD1    C2 3340   3.684   0.717  10.229  0.4026 -0.2557  0.1442
  220MPD1    C3 3341   3.793   0.658  10.162  0.5871  0.4094 -0.0546
  220MPD1    C4 3342   3.874   0.742  10.085 -0.3201  0.2731  0.1936
  220MPD1    C5 3343   3.851   0.875  10.071 -0.5129  0.2675  0.1244
  220MPD1     H 3344   3.628   0.653  10.296  1.1033 -1.7667 -0.7182
  220MPD1    H1 3345   3.955   0.700  10.027 -0.4228 -0.8254  0.8500
  220MPD1    H2 3346   3.734   1.043  10.138  0.3404  0.4659  0.1124
  220MPD1    H3 3347   3.927   0.943  10.034 -0.1137  0.0708  0.5898
  220MPD1     N 3348   3.806   0.520  10.164  0.6872 -0.1287  0.3700
  220MPD1    H5 3349   3.745   0.468  10.226  1.1142 -1.2721 -0.1597
  220MPD1    N1 3350   3.546   0.904  10.271  1.0414  0.2200 -0.1958
  220MPD1    H6 3351   3.522   0.838  10.344  0.5166  0.8850  0.2280
  220MPD1    H7 3352   3.557   1.000  10.303  5.1703 -0.4321  0.3808
  221MPD1     C 3353   2.258   3.475  16.912 -0.2874  0.4808  0.2516
  221MPD1    C1 3354   2.257   3.413  16.787  0.3254  0.7369 -0.2257
  221MPD1    C2 3355   2.381   3.392  16.727 -0.8489  0.0218 -0.0529
  221MPD1    C3 3356   2.506   3.432  16.782  0.4800  0.2078  0.3523
  221MPD1    C4 3357   2.506   3.499  16.898 -0.7144 -0.4938  0.0181
  221MPD1    C5 3358   2.384   3.511  16.959 -0.6088 -0.2479 -0.0641
  221MPD1     H 3359   2.380   3.344  16.630 -1.6942 -1.8846  0.8938
  221MPD1    H1 3360   2.591   3.535  16.955 -0.6685 -0.3096 -0.1660
  221MPD1    H2 3361   2.167   3.483  16.970 -1.3045 -0.1888 -1.2457
  221MPD1    H3 3362   2.385   3.552  17.059  0.9262  0.9870 -0.5752
  221MPD1     N 3363   2.632   3.398  16.727 -0.1476  0.5088 -1.0350
  221MPD1    H5 3364   2.719   3.427  16.771  0.4422 -1.1245 -1.0981
  221MPD1    N1 3365   2.140   3.347  16.740 -0.3886  0.1163  0.1309
  221MPD1    H6 3366   2.130   3.332  16.639 -0.6630 -0.8016  0.2927
  221MPD1    H7 3367   2.053   3.384  16.777 -0.6384 -0.6445  0.3107
  222MPD1     C 3368   1.126   2.023  17.639  0.0229 -0.2964  0.2813
  222MPD1    C1 3369   1.231   2.058  17.550 -0.1904  0.0550 -0.2708
  222MPD1    C2 3370   1.254   2.190  17.531  0.0353 -0.3801  0.1375
  222MPD1    C3 3371   1.192   2.294  17.606  0.9021 -0.2939 -0.3117
  222MPD1    C4 3372   1.093   2.253  17.697 -0.4680 -0.3520 -0.4208
  222MPD1    C5 3373   1.065   2.116   0.012 -0.4469 -0.2964 -0.2318
  222MPD1     H 3374   1.320   2.219  17.451  1.8267 -0.0357  1.7320
  222MPD1    H1 3375   1.048   2.327   0.061  0.1923  1.7068 -2.2957
  222MPD1    H2 3376   1.103   1.920  17.665 -3.1073 -0.0559 -1.5307
  222MPD1    H3 3377   0.989   2.091   0.085 -1.2071 -0.5736 -1.1313
  222MPD1     N 3378   1.226   2.429  17.608  0.9343 -0.0308 -0.0433
  222MPD1    H5 3379   1.169   2.494  17.661  2.3419  1.5294 -0.4123
  222MPD1    N1 3380   1.308   1.960  17.492 -0.1889  0.0344  0.5091
  222MPD1    H6 3381   1.268   1.867  17.498  0.5370 -0.2359  1.1290
  222MPD1    H7 3382   1.331   1.979  17.394 -0.5055 -0.6037  0.3101
  223MPD1     C 3383   0.732   3.135   0.023 -0.6169 -0.2838  0.1017
  223MPD1    C1 3384   0.798   3.071   0.127 -0.8821 -0.0281 -0.3055
  223MPD1    C2 3385   0.912   2.998   0.092  0.3458 -0.0156  0.0235
  223MPD1    C3 3386   0.969   2.998  17.671  0.5800  0.5041 -0.4091
  223MPD1    C4 3387   0.905   3.076  17.575  1.1090 -0.1059  0.0239
  223MPD1    C5 3388   0.789   3.150  17.602  0.0875  0.2478 -0.6278
  223MPD1     H 3389   0.955   2.932   0.167 -0.9175 -1.9734 -0.9880
  223MPD1    H1 3390   0.939   3.080  17.472 -1.3148 -0.0292 -0.7903
  223MPD1    H2 3391   0.648   3.196   0.051  0.9791  1.8656  0.1714
  223MPD1    H3 3392   0.731   3.206  17.530 -2.2756  0.6991  1.6002
  223MPD1     N 3393   1.085   2.926  17.649  0.6482  0.9029  0.2715
  223MPD1    H5 3394   1.128   2.879   0.026  0.9831  1.6843  0.5591
  223MPD1    N1 3395   0.747   3.061   0.254  0.3119  0.2314  0.2709
  223MPD1    H6 3396   0.820   3.058   0.324 -0.7715 -2.4171  1.2774
  223MPD1    H7 3397   0.695   3.146   0.275 -1.0389 -0.2747 -1.0201
  224MPD1     C 3398   3.752   4.566   9.581  0.5194 -0.2722  0.0569
  224MPD1    C1 3399   3.631   4.633   9.561 -0.5533  0.2794 -0.1683
  224MPD1    C2 3400   3.513   4.568   9.589 -0.5882 -0.1665 -0.4670
  224MPD1    C3 3401   3.516   4.441   9.653  0.3509  0.0832 -0.5976
  224MPD1    C4 3402   3.639   4.374   9.670  0.1416 -0.4668  0.4695
  224MPD1    C5 3403   3.755   4.436   9.632  0.6780  0.2526  0.2630
  224MPD1     H 3404   3.417   4.615   9.571 -0.2179  0.6558 -0.2880
  224MPD1    H1 3405   3.652   4.270   9.699 -3.3303 -0.4151  2.1668
  224MPD1    H2 3406   3.844   4.610   9.545 -0.9587  3.4241  0.8595
  224MPD1    H3 3407   3.847   4.378   9.634  1.3967  1.3451 -1.4998
  224MPD1     N 3408   3.400   4.369   9.690  0.6359  0.3325 -0.0314
  224MPD1    H5 3409   3.411   4.274   9.724  0.0358  0.6506  1.0567
  224MPD1    N1 3410   3.618   0.024   9.485  0.9659 -0.3196  0.4491
  224MPD1    H6 3411   3.527   0.069   9.497  0.0248 -2.1438  0.0256
  224MPD1    H7 3412   3.698   0.087   9.481  1.1327 -0.5277  0.5169
  225MPD1     C 3413   4.188   0.485  12.954 -0.1773  0.6740 -0.3125
  225MPD1    C1 3414   4.242   0.416  12.848 -0.2093 -0.1970  0.0691
  225MPD1    C2 3415   4.155   0.382  12.741 -0.2315 -0.8433 -0.0732
  225MPD1    C3 3416   4.023   0.424  12.743  0.5036  0.4897 -0.6658
  225MPD1    C4 3417   3.975   0.497  12.849 -0.7128 -0.2268  0.3497
  225MPD1    C5 3418   4.058   0.527  12.956  0.6770  0.0172 -0.3579
  225MPD1     H 3419   4.196   0.329  12.655  2.3323  0.2284  0.4850
  225MPD1    H1 3420   3.869   0.517  12.861 -0.5575 -0.3993  2.0744
  225MPD1    H2 3421   4.255   0.525  13.029  2.1790 -0.3840 -1.8505
  225MPD1    H3 3422   4.013   0.582  13.038 -1.6674 -1.0119 -0.9497
  225MPD1     N 3423   3.934   0.387  12.633 -0.1228 -0.7494  0.7162
  225MPD1    H5 3424   3.844   0.435  12.629  0.5142  0.3391 -0.6657
  225MPD1    N1 3425   4.382   0.406  12.829  0.0022 -0.1547 -0.5039
  225MPD1    H6 3426   4.398   0.338  12.755  0.3828 -0.2299 -0.3526
  225MPD1    H7 3427   4.431   0.380  12.915  0.9024  0.0695 -0.9528
  226MPD1     C 3428   1.834   4.644   9.950  0.5408 -0.7957  0.7271
  226MPD1    C1 3429   1.885   4.540   9.873  0.6245  1.0743  0.3528
  226MPD1    C2 3430   2.023   4.539   9.855  0.1528  0.4115 -0.7361
  226MPD1    C3 3431   2.110   4.636   9.904  0.4804 -0.3426 -0.2010
  226MPD1    C4 3432   2.058   0.013   9.977  0.9234  1.4417  0.6650
  226MPD1    C5 3433   1.917   0.015  10.005 -0.0520 -0.3702 -0.1705
  226MPD1     H 3434   2.064   4.453   9.803 -2.1959 -1.3012  0.2817
  226MPD1    H1 3435   2.126   0.086  10.020 -0.6359  3.3160 -0.0196
  226MPD1    H2 3436   1.731   4.639   9.985 -0.5022  1.1907 -2.0399
  226MPD1    H3 3437   1.875   0.092  10.068  0.0443 -0.2177 -0.2935
  226MPD1     N 3438   2.239   4.638   9.859  0.7680 -0.5522  0.8569
  226MPD1    H5 3439   2.266   4.554   9.809  0.1158 -0.4322  0.2867
  226MPD1    N1 3440   1.807   4.428   9.831 -0.7306  0.0604  0.7232
  226MPD1    H6 3441   1.709   4.445   9.812 -0.7964  0.0845  1.0800
  226MPD1    H7 3442   1.858   4.394   9.750 -2.3841 -0.6711 -0.0119
  227MPD1     C 3443   2.915   4.060   9.484 -0.3960  0.2108 -0.3570
  227MPD1    C1 3444   2.970   4.185   9.455  0.1203  0.2397  0.0711
  227MPD1    C2 3445   2.908   4.296   9.509  0.1881 -0.6949  0.1828
  227MPD1    C3 3446   2.801   4.285   9.592 -0.0768 -0.3254 -0.4052
  227MPD1    C4 3447   2.763   4.160   9.633 -0.2405  0.2854  0.0925
  227MPD1    C5 3448   2.813   4.052   9.573  0.5152 -0.5644 -0.2559
  227MPD1     H 3449   2.960   4.386   9.479  0.1311 -0.8956 -0.5151
  227MPD1    H1 3450   2.688   4.140   9.708  0.3965 -0.0368  0.6449
  227MPD1    H2 3451   2.953   3.967   9.442  1.1539  0.4387  0.5434
  227MPD1    H3 3452   2.768   3.956   9.594  1.0837 -0.5592  0.9769
  227MPD1     N 3453   2.756   4.405   9.642 -0.0259 -0.4536  0.2833
  227MPD1    H5 3454   2.818   4.479   9.612 -0.1326 -0.8773 -0.9558
  227MPD1    N1 3455   3.062   4.202   9.356  0.1917 -0.0919 -0.0748
  227MPD1    H6 3456   3.125   4.276   9.388  1.8027 -1.1916 -0.6814
  227MPD1    H7 3457   3.120   4.123   9.329  0.6736  0.1035  0.3831
  228MPD1     C 3458   1.125   2.369  13.274 -0.0483  0.7251 -0.0967
  228MPD1    C1 3459   1.082   2.499  13.247 -0.1834  0.0851 -0.9627
  228MPD1    C2 3460   0.954   2.517  13.192 -0.1755  0.3896 -0.1852
  228MPD1    C3 3461   0.874   2.401  13.167 -0.2986 -0.4296  0.1518
  228MPD1    C4 3462   0.928   2.280  13.191  0.4802  0.3516 -0.2390
  228MPD1    C5 3463   1.045   2.258  13.245 -0.4393  0.3897  0.5321
  228MPD1     H 3464   0.907   2.613  13.181 -0.7049  0.1276 -0.1872
  228MPD1    H1 3465   0.880   2.187  13.163 -2.4098  2.2081 -1.4532
  228MPD1    H2 3466   1.226   2.353  13.310 -0.0958 -2.0766 -1.2159
  228MPD1    H3 3467   1.074   2.157  13.271 -1.2374  0.6862  2.6311
  228MPD1     N 3468   0.740   2.414  13.126 -0.2638  0.1900  1.1775
  228MPD1    H5 3469   0.707   2.507  13.101 -3.2912 -1.2622 -0.2585
  228MPD1    N1 3470   1.139   2.616  13.315  0.5294 -0.2562 -0.1773
  228MPD1    H6 3471   1.098   2.701  13.276  0.3644 -0.2152  0.0863
  228MPD1    H7 3472   1.241   2.616  13.319  0.4418 -1.7654  1.8607
  229MPD1     C 3473   0.911   1.509  14.836 -0.5132 -0.3735 -0.5460
  229MPD1    C1 3474   0.794   1.452  14.889 -1.2495  0.3630 -0.6680
  229MPD1    C2 3475   0.801   1.334  14.964  0.3900 -0.3827  0.3439
  229MPD1    C3 3476   0.923   1.278  14.997 -0.2874 -0.4410  0.0365
  229MPD1    C4 3477   1.035   1.350  14.954 -0.0866 -0.3845 -0.7499
  229MPD1    C5 3478   1.028   1.455  14.870  0.1535  1.4174  0.2099
  229MPD1     H 3479   0.710   1.278  14.984 -0.3071  0.1280 -1.4339
  229MPD1    H1 3480   1.139   1.322  14.966 -0.7280 -1.0872  3.2676
  229MPD1    H2 3481   0.911   1.592  14.767 -1.9684 -0.2909 -0.4616
  229MPD1    H3 3482   1.122   1.491  14.830 -0.3469  0.0342 -2.2230
  229MPD1     N 3483   0.950   1.156  15.066 -0.0101 -0.2375  0.3773
  229MPD1    H5 3484   1.043   1.135  15.102 -0.9987  0.5465  3.4204
  229MPD1    N1 3485   0.670   1.499  14.840 -0.0431 -0.1913  0.1815
  229MPD1    H6 3486   0.682   1.599  14.825  1.2044 -0.4302 -0.3978
  229MPD1    H7 3487   0.589   1.475  14.897 -1.7360  3.0963 -0.8336
  230MPD1     C 3488   0.725   0.083  15.194 -0.4449 -0.0430  0.3964
  230MPD1    C1 3489   0.823   0.116  15.282 -0.7756  0.0581 -0.1672
  230MPD1    C2 3490   0.855   0.248  15.291  0.2925  0.6598 -0.1462
  230MPD1    C3 3491   0.783   0.349  15.223 -0.1736  0.4944 -0.0680
  230MPD1    C4 3492   0.686   0.313  15.136 -0.7522 -0.4731 -0.3102
  230MPD1    C5 3493   0.664   0.178  15.124 -0.6823 -0.1593 -0.7422
  230MPD1     H 3494   0.943   0.280  15.346  1.0825  1.0394 -1.6289
  230MPD1    H1 3495   0.626   0.380  15.076  0.0816  0.4890 -0.0757
  230MPD1    H2 3496   0.703   4.705  15.169 -2.4094  0.0398  1.8109
  230MPD1    H3 3497   0.581   0.157  15.057  0.0006 -2.2163 -0.9446
  230MPD1     N 3498   0.830   0.484  15.241  0.1413  0.3228  0.4544
  230MPD1    H5 3499   0.895   0.503  15.317  2.8874 -2.3512 -1.2027
  230MPD1    N1 3500   0.898   0.010  15.329  0.4046  0.1671  0.4996
  230MPD1    H6 3501   0.962   0.030  15.406  1.7998  0.9674 -0.8824
  230MPD1    H7 3502   0.847   4.651  15.354  1.8813 -1.5407 -2.2893
  231MPD1     C 3503   3.478   3.095  15.267 -0.0637  0.2973  0.7848
  231MPD1    C1 3504   3.447   3.152  15.149 -0.6113  0.0861 -0.7127
  231MPD1    C2 3505   3.539   3.223  15.081  0.0026 -0.3709  0.0949
  231MPD1    C3 3506   3.675   3.233  15.121  0.4975 -0.1208 -0.3941
  231MPD1    C4 3507   3.701   3.188  15.250  0.8277  0.2082  0.3147
  231MPD1    C5 3508   3.603   3.126  15.322 -0.3903  0.0988  0.0716
  231MPD1     H 3509   3.511   3.278  14.991 -1.9460 -1.0958  0.2618
  231MPD1    H1 3510   3.801   3.191  15.290  1.2652 -3.7781 -0.5268
  231MPD1    H2 3511   3.405   3.040  15.325 -0.7870  0.9335  0.4708
  231MPD1    H3 3512   3.639   3.077  15.412  3.2957  1.7615 -0.5135
  231MPD1     N 3513   3.768   3.310  15.046 -0.1363 -0.2209 -0.0989
  231MPD1    H5 3514   3.728   3.344  14.959  1.0098  0.0620 -0.5154
  231MPD1    N1 3515   3.324   3.118  15.090  0.0378 -0.6493  0.2185
  231MPD1    H6 3516   3.245   3.100  15.151 -0.5149 -3.4535 -1.3414
  231MPD1    H7 3517   3.287   3.199  15.039  1.0328  0.4533  1.2424
  232MPD1     C 3518   1.388   0.474  17.249  0.2143 -0.3901 -0.5217
  232MPD1    C1 3519   1.320   0.576  17.178 -0.5815 -0.2353 -0.1789
  232MPD1    C2 3520   1.212   0.633  17.243 -0.6252  0.3540 -0.3657
  232MPD1    C3 3521   1.163   0.587  17.369 -0.1678  0.4353 -0.6067
  232MPD1    C4 3522   1.220   0.474  17.424 -0.1115 -0.4721  0.0118
  232MPD1    C5 3523   1.333   0.425  17.363 -0.4739  0.6683 -0.3230
  232MPD1     H 3524   1.169   0.717  17.190 -0.6659  0.5363 -0.0433
  232MPD1    H1 3525   1.179   0.439  17.518  0.3737 -1.4377 -0.1419
  232MPD1    H2 3526   1.471   0.420  17.204  0.6210 -0.1933 -0.0044
  232MPD1    H3 3527   1.374   0.337  17.411 -0.5633  1.5822  1.4261
  232MPD1     N 3528   1.050   0.652  17.428  0.2597  0.7902  0.2689
  232MPD1    H5 3529   0.990   0.699  17.360 -2.1669 -1.7634  0.6441
  232MPD1    N1 3530   1.368   0.629  17.058 -0.4035 -0.1160  0.4726
  232MPD1    H6 3531   1.390   0.555  16.992 -1.5133  0.6575 -0.7708
  232MPD1    H7 3532   1.290   0.671  17.009 -0.4270 -1.8261 -0.9121
  233MPD1     C 3533   2.140   0.081   1.832 -0.0926 -0.0055 -0.4026
  233MPD1    C1 3534   2.267   0.131   1.857 -0.3346 -1.1151 -0.1222
  233MPD1    C2 3535   2.368   0.044   1.898  0.0104 -0.2060  0.0976
  233MPD1    C3 3536   2.348   4.633   1.918  0.4025  0.3089  0.1589
  233MPD1    C4 3537   2.222   4.586   1.908 -0.0253 -0.0098 -0.2037
  233MPD1    C5 3538   2.120   4.669   1.857 -0.4223  0.4207  0.1041
  233MPD1     H 3539   2.470   0.081   1.897 -0.7920  2.0394  0.5785
  233MPD1    H1 3540   2.200   4.481   1.923 -1.2167  0.4156  1.0504
  233MPD1    H2 3541   2.058   0.141   1.792 -1.8728 -2.7631 -0.8816
  233MPD1    H3 3542   2.028   4.623   1.824 -0.1580 -0.1951  0.2065
  233MPD1     N 3543   2.443   4.539   1.961  0.8658 -0.6646 -0.5925
  233MPD1    H5 3544   2.416   4.449   2.000  1.9155 -1.5772 -1.9740
  233MPD1    N1 3545   2.298   0.257   1.813 -0.5525 -0.2854 -0.2341
  233MPD1    H6 3546   2.222   0.321   1.835 -0.1085  0.4976 -0.9909
  233MPD1    H7 3547   2.374   0.295   1.870  0.0843  2.1081 -2.7356
  234MPD1     C 3548   4.068   2.892  10.248  0.3680  0.5931 -0.1430
  234MPD1    C1 3549   4.053   3.028  10.266  0.4528 -0.0552 -0.0134
  234MPD1    C2 3550   3.966   3.090  10.171  0.4720 -0.0601 -0.2363
  234MPD1    C3 3551   3.922   3.025  10.061 -0.3111  0.3251  0.2839
  234MPD1    C4 3552   3.960   2.895  10.034 -0.8791 -0.0141 -0.4113
  234MPD1    C5 3553   4.033   2.833  10.130 -0.5248 -0.5604 -0.0087
  234MPD1     H 3554   3.960   3.198  10.176  3.5223  0.0693  0.3524
  234MPD1    H1 3555   3.936   2.834   9.948 -1.6011 -1.0680  0.5346
  234MPD1    H2 3556   4.125   2.827  10.314  0.6612  1.3036  0.3063
  234MPD1    H3 3557   4.051   2.726  10.117 -0.8897 -0.5646 -0.4767
  234MPD1     N 3558   3.839   3.096   9.971 -0.1356 -0.3871  0.0170
  234MPD1    H5 3559   3.813   3.190  10.000  0.0573 -0.9928  2.1661
  234MPD1    N1 3560   4.069   3.085  10.397 -0.0139 -0.3933  0.4076
  234MPD1    H6 3561   4.088   3.185  10.402  0.4803 -0.5955  2.4337
  234MPD1    H7 3562   4.142   3.039  10.451 -0.4565 -0.5290  0.8861
  235MPD1     C 3563   0.143   0.187   9.825  0.5459  0.2089  0.8119
  235MPD1    C1 3564   0.240   0.211   9.723 -0.4561 -0.0406  0.0556
  235MPD1    C2 3565   0.306   0.327   9.714  0.2670  0.5017 -0.7500
  235MPD1    C3 3566   0.292   0.429   9.808  0.6675  0.1123 -0.1553
  235MPD1    C4 3567   0.201   0.408   9.911  0.1792  0.2462 -0.7529
  235MPD1    C5 3568   0.131   0.285   9.920  1.1147  0.0948 -0.0054
  235MPD1     H 3569   0.378   0.336   9.634  0.5852 -2.4076 -0.8103
  235MPD1    H1 3570   0.191   0.480   9.991 -0.3640 -2.0962  1.3011
  235MPD1    H2 3571   0.080   0.099   9.831  1.7471 -0.5635  2.2093
  235MPD1    H3 3572   0.047   0.277   9.988 -0.6454  1.2538 -2.0212
  235MPD1     N 3573   0.363   0.550   9.785  0.0297  0.8256 -0.1376
  235MPD1    H5 3574   0.404   0.579   9.697 -0.0066 -0.4832 -0.5787
  235MPD1    N1 3575   0.255   0.131   9.614  0.4063 -0.2598 -0.0996
  235MPD1    H6 3576   0.347   0.144   9.572  0.8570 -1.6175  0.4573
  235MPD1    H7 3577   0.254   0.031   9.633  2.9605 -0.8882 -3.1312
  236MPD1     C 3578   4.595   1.623   9.940 -0.7850  0.4397 -0.4043
  236MPD1    C1 3579   4.568   1.488   9.912 -0.0244 -0.2873  0.2527
  236MPD1    C2 3580   4.598   1.393  10.012  0.0537  0.1571 -0.1631
  236MPD1    C3 3581   4.659   1.430  10.135 -0.4713  0.2160 -0.8261
  236MPD1    C4 3582   4.685   1.565  10.155  0.2254  0.0267 -0.1076
  236MPD1    C5 3583   4.657   1.655  10.054 -0.2162 -0.0744  0.2763
  236MPD1     H 3584   4.576   1.290   9.985 -0.6990  0.2479  0.1132
  236MPD1    H1 3585   0.025   1.600  10.234  0.9009 -0.1085 -0.5973
  236MPD1    H2 3586   4.580   1.703   9.868 -2.0179 -0.0785 -0.7300
  236MPD1    H3 3587   4.685   1.755  10.082 -0.6309 -0.0028  0.4340
  236MPD1     N 3588   4.704   1.336  10.233  0.4340  0.7864 -0.1155
  236MPD1    H5 3589   0.025   1.372  10.316 -2.1113 -0.4234  1.8089
  236MPD1    N1 3590   4.499   1.453   9.792 -0.2545 -0.5523 -0.4400
  236MPD1    H6 3591   4.500   1.523   9.718 -0.3805 -1.7027 -1.5414
  236MPD1    H7 3592   4.549   1.375   9.750 -0.4516  0.0358 -1.7650
  237MPD1     C 3593   0.215   0.306  14.671 -0.3336 -0.9030 -0.1428
  237MPD1    C1 3594   0.194   0.253  14.800 -0.1683 -0.2246 -0.2956
  237MPD1    C2 3595   0.066   0.214  14.841  0.2305 -0.2421  0.1900
  237MPD1    C3 3596   4.691   0.204  14.751  0.3941 -0.7122  0.2926
  237MPD1    C4 3597   4.716   0.249  14.623  0.2911 -0.2960  0.5061
  237MPD1    C5 3598   0.115   0.299  14.587 -0.1840 -0.4861 -1.2274
  237MPD1     H 3599   0.062   0.173  14.942 -2.2688  1.7605  0.8890
  237MPD1    H1 3600   4.632   0.263  14.556  0.2457 -2.1262  0.1883
  237MPD1    H2 3601   0.315   0.335  14.639 -0.8559 -1.9691 -2.7506
  237MPD1    H3 3602   0.133   0.334  14.485  2.2884  0.6836 -0.3953
  237MPD1     N 3603   4.560   0.155  14.779 -0.1083 -0.5109  0.6634
  237MPD1    H5 3604   4.490   0.145  14.707 -1.5922 -1.7926  2.2553
  237MPD1    N1 3605   0.306   0.252  14.882  0.6710  1.1131  0.0074
  237MPD1    H6 3606   0.292   0.193  14.964  1.0922  0.7512 -0.1801
  237MPD1    H7 3607   0.377   0.208  14.824  0.2213 -1.8562  1.7374
  238MPD1     C 3608   1.564   3.528  14.956 -0.2341 -0.1938  0.0954
  238MPD1    C1 3609   1.498   3.420  15.006 -0.3598  0.0765  0.0346
  238MPD1    C2 3610   1.361   3.412  14.979 -0.7275  0.6654 -0.2843
  238MPD1    C3 3611   1.302   3.509  14.896 -0.1013 -0.9135  0.4525
  238MPD1    C4 3612   1.374   3.598  14.831  0.1931 -0.0374 -0.1411
  238MPD1    C5 3613   1.505   3.608  14.861  0.5255  0.2471 -0.3047
  238MPD1     H 3614   1.305   3.326  15.015  1.0604  0.9575  3.1976
  238MPD1    H1 3615   1.328   3.667  14.762 -0.6147  2.0554  2.4967
  238MPD1    H2 3616   1.665   3.552  14.988 -0.4678  0.8199  0.0527
  238MPD1    H3 3617   1.562   3.691  14.822 -0.9016  0.9645 -0.8597
  238MPD1     N 3618   1.167   3.490  14.850 -0.6062 -0.1104 -0.3093
  238MPD1    H5 3619   1.150   3.532  14.759  2.0906  0.2206 -0.6633
  238MPD1    N1 3620   1.555   3.346  15.113  0.1675 -0.3905  0.0803
  238MPD1    H6 3621   1.656   3.353  15.104 -0.2061  3.3829 -1.4685
  238MPD1    H7 3622   1.521   3.250  15.111  0.2288 -0.4301  1.1326
  239MPD1     C 3623   1.479   3.872  14.572 -0.5863  0.1638 -0.3761
  239MPD1    C1 3624   1.454   3.980  14.650  0.4195 -0.0179 -0.1629
  239MPD1    C2 3625   1.410   4.090  14.575  0.2523 -0.4798 -0.5909
  239MPD1    C3 3626   1.417   4.101  14.433  0.3972 -0.4971 -0.3000
  239MPD1    C4 3627   1.459   3.989  14.368  0.0439 -0.2406 -0.4861
  239MPD1    C5 3628   1.478   3.873  14.434  0.0591 -0.2516  0.2632
  239MPD1     H 3629   1.385   4.180  14.630  1.5488  0.6879 -1.9268
  239MPD1    H1 3630   1.472   3.981  14.261 -1.4207 -0.5375 -0.6546
  239MPD1    H2 3631   1.498   3.773  14.611  1.2518  1.4641  1.9744
  239MPD1    H3 3632   1.483   3.784  14.373 -1.0673  0.5836 -1.0271
  239MPD1     N 3633   1.376   4.211  14.367  0.2826 -0.3111  0.3284
  239MPD1    H5 3634   1.375   4.206  14.266  0.9744  2.3429  0.1844
  239MPD1    N1 3635   1.436   3.959  14.789  1.0837 -0.4469  0.5051
  239MPD1    H6 3636   1.516   3.904  14.821 -0.2372 -1.1167  2.6309
  239MPD1    H7 3637   1.447   4.049  14.836  0.1715  0.7914 -1.6586
  240MPD1     C 3638   0.569   4.439  13.865 -0.5852  0.0270 -0.1974
  240MPD1    C1 3639   0.502   4.380  13.972  0.4358 -0.3876 -0.1086
  240MPD1    C2 3640   0.527   4.243  14.009 -0.1059  0.1470 -0.7619
  240MPD1    C3 3641   0.625   4.172  13.944 -0.0627  0.5702 -0.2909
  240MPD1    C4 3642   0.693   4.232  13.840  0.4431 -0.0620  0.2368
  240MPD1    C5 3643   0.658   4.364  13.795  0.4836 -0.2285 -0.0390
  240MPD1     H 3644   0.468   4.190  14.083  0.9310  1.6234  1.1337
  240MPD1    H1 3645   0.773   4.180  13.789  0.6905 -1.2140  1.8019
  240MPD1    H2 3646   0.566   4.543  13.836 -2.7642  0.2903  0.9979
  240MPD1    H3 3647   0.731   4.406  13.727  1.1696 -0.1464  0.7526
  240MPD1     N 3648   0.661   4.043  13.989 -0.0681 -0.1176  0.0451
  240MPD1    H5 3649   0.596   3.998  14.053  0.3129 -0.8473 -0.0753
  240MPD1    N1 3650   0.382   4.446  14.025  0.0332 -0.2249 -0.1258
  240MPD1    H6 3651   0.368   4.410  14.119 -1.9472 -0.1468 -0.3967
  240MPD1    H7 3652   0.396   4.547  14.019  1.0077 -0.3268  0.3401
  241MPD1     C 3653   1.506   3.538  14.075  0.7680 -0.2249  0.8706
  241MPD1    C1 3654   1.448   3.546  14.198 -0.3519 -0.2246  0.1323
  241MPD1    C2 3655   1.322   3.601  14.211  0.2937  0.4261 -0.3912
  241MPD1    C3 3656   1.250   3.642  14.097 -0.1517 -0.4411  0.1329
  241MPD1    C4 3657   1.307   3.627  13.972 -0.1874 -0.3987 -0.3486
  241MPD1    C5 3658   1.435   3.573  13.962  0.5735  0.1084  0.3400
  241MPD1     H 3659   1.280   3.592  14.311 -0.1676 -1.5971 -0.7675
  241MPD1    H1 3660   1.250   3.656  13.884 -0.5976 -1.9994 -0.6057
  241MPD1    H2 3661   1.610   3.510  14.059  0.1723 -2.1691  0.3530
  241MPD1    H3 3662   1.484   3.549  13.868  1.0936 -1.1789  0.9285
  241MPD1     N 3663   1.114   3.688  14.105  0.2294 -0.0521  0.2560
  241MPD1    H5 3664   1.068   3.717  14.019  0.3050 -1.0702 -0.1276
  241MPD1    N1 3665   1.531   3.517  14.307 -0.6930 -0.1814 -0.3790
  241MPD1    H6 3666   1.481   3.492  14.392 -2.2850 -0.0446 -1.2784
  241MPD1    H7 3667   1.594   3.440  14.286  1.8974  1.6162  0.7889
  242MPD1     C 3668   0.844   2.251  15.862  0.3343 -0.2253 -0.1174
  242MPD1    C1 3669   0.726   2.196  15.811  0.2929 -0.0571 -0.4482
  242MPD1    C2 3670   0.731   2.124  15.695 -0.6318 -0.0570  0.0428
  242MPD1    C3 3671   0.854   2.084  15.640  0.7676  0.3399  0.3732
  242MPD1    C4 3672   0.971   2.131  15.701 -0.5376  0.0851 -1.1931
  242MPD1    C5 3673   0.962   2.216  15.810 -0.5263 -0.1868 -1.1285
  242MPD1     H 3674   0.634   2.093  15.657 -2.8114  0.6845  4.9470
  242MPD1    H1 3675   1.065   2.081  15.685 -1.7339 -2.2635 -0.9080
  242MPD1    H2 3676   0.855   2.313  15.951 -0.5202 -0.1245 -0.0852
  242MPD1    H3 3677   1.051   2.245  15.864 -1.8683  2.8925 -0.5666
  242MPD1     N 3678   0.865   2.003  15.527  0.0228 -0.0020 -0.0235
  242MPD1    H5 3679   0.954   1.964  15.497  0.8352  0.9595  1.1494
  242MPD1    N1 3680   0.605   2.249  15.848  0.2351 -0.6409  0.4967
  242MPD1    H6 3681   0.606   2.278  15.946 -0.0225  0.2256  0.2430
  242MPD1    H7 3682   0.535   2.176  15.840 -0.8062  0.6113 -1.8206
  243MPD1     C 3683   1.298   1.203  17.563  0.0252  0.5375  0.5133
  243MPD1    C1 3684   1.432   1.229  17.532 -0.1491 -0.1914 -0.2497
  243MPD1    C2 3685   1.498   1.129  17.462 -0.5876 -0.2341  0.9132
  243MPD1    C3 3686   1.454   1.004  17.449 -0.5855 -0.2017 -0.1773
  243MPD1    C4 3687   1.332   0.973  17.504 -0.7295 -0.3363 -0.0074
  243MPD1    C5 3688   1.250   1.076  17.545  0.3975  0.2434  0.6203
  243MPD1     H 3689   1.594   1.153  17.417 -0.9078 -1.1847 -0.2683
  243MPD1    H1 3690   1.289   0.875  17.490 -2.2547  0.1159  1.5081
  243MPD1    H2 3691   1.235   1.278  17.610  1.0696  0.7543  1.5886
  243MPD1    H3 3692   1.150   1.051  17.579  0.0900 -1.4088 -1.4643
  243MPD1     N 3693   1.529   0.907  17.377 -0.1503  0.0031  0.0121
  243MPD1    H5 3694   1.609   0.947  17.329 -0.1711  0.2404  0.1775
  243MPD1    N1 3695   1.477   1.361  17.548 -0.0421 -0.4481 -0.0314
  243MPD1    H6 3696   1.437   1.400  17.633  0.3480 -0.0950 -0.0061
  243MPD1    H7 3697   1.578   1.372  17.559 -0.4516  3.2431  0.0584
  244MPD1     C 3698   2.147   4.716  17.339 -0.0705  0.2582  0.2901
  244MPD1    C1 3699   2.074   0.034  17.447 -0.1291  0.4946  0.1161
  244MPD1    C2 3700   2.007   0.151  17.432  1.0950 -0.2733 -0.1045
  244MPD1    C3 3701   1.992   0.208  17.307 -0.3913 -0.3456 -0.1041
  244MPD1    C4 3702   2.057   0.155  17.196 -0.3763  0.3740 -0.2578
  244MPD1    C5 3703   2.133   0.045  17.214 -0.0771  0.3459 -0.6251
  244MPD1     H 3704   1.982   0.207  17.522 -3.0520  1.2978 -2.2423
  244MPD1    H1 3705   2.069   0.214  17.106  0.2601  0.9153  0.1818
  244MPD1    H2 3706   2.221   4.636  17.340  0.9277  1.1944  2.1771
  244MPD1    H3 3707   2.185   0.001  17.130  0.1881  1.8832 -1.2816
  244MPD1     N 3708   1.919   0.323  17.277  0.6794 -0.2954 -0.7496
  244MPD1    H5 3709   1.920   0.364  17.184  3.5559  0.4298 -0.3846
  244MPD1    N1 3710   2.106   4.712  17.575 -0.8245 -0.0616 -0.0284
  244MPD1    H6 3711   2.038   0.015  17.646 -1.7319 -0.2997 -0.8037
  244MPD1    H7 3712   2.103   4.611  17.586 -2.4665  0.0599  0.6365
  245MPD1     C 3713   3.440   1.908  12.587 -0.2862  0.1533  0.5835
  245MPD1    C1 3714   3.383   2.008  12.660  0.3646  0.3574  0.4219
  245MPD1    C2 3715   3.452   2.046  12.770 -0.1965  0.2355 -0.1262
  245MPD1    C3 3716   3.567   1.983  12.808 -0.5577  0.5969 -0.0809
  245MPD1    C4 3717   3.619   1.877  12.741  0.0078 -0.1833  0.0488
  245MPD1    C5 3718   3.550   1.842  12.628 -0.2169  0.3588  0.1120
  245MPD1     H 3719   3.429   2.144  12.812  0.5840  0.1595  0.4827
  245MPD1    H1 3720   3.711   1.820  12.752 -1.1212 -1.9021  0.6239
  245MPD1    H2 3721   3.386   1.868  12.502  2.1687 -0.1130 -0.8558
  245MPD1    H3 3722   3.591   1.766  12.563 -1.6573  0.9414 -1.4730
  245MPD1     N 3723   3.650   2.046  12.904 -0.2023 -0.4893 -0.2910
  245MPD1    H5 3724   3.616   2.140  12.918 -0.9897 -0.7834 -0.2624
  245MPD1    N1 3725   3.283   2.091  12.603  0.3892 -0.5181 -0.4231
  245MPD1    H6 3726   3.221   2.128  12.676  1.6416 -1.1176  0.9514
  245MPD1    H7 3727   3.227   2.046  12.531 -2.1524  3.6030 -1.0149
  246MPD1     C 3728   0.168   3.461   9.700  0.1370 -0.6276  0.4841
  246MPD1    C1 3729   0.102   3.554   9.624  0.0796 -0.2645  0.6683
  246MPD1    C2 3730   0.065   3.518   9.494 -0.1720 -0.5572 -0.2958
  246MPD1    C3 3731   0.083   3.391   9.447 -0.3141  0.2539  0.2153
  246MPD1    C4 3732   0.147   3.299   9.528 -0.1506  0.0900 -0.0635
  246MPD1    C5 3733   0.183   3.328   9.655  0.1621  1.0460  0.4019
  246MPD1     H 3734   0.012   3.598   9.444 -0.7921  1.6383  3.8351
  246MPD1    H1 3735   0.151   3.196   9.495  0.4076  0.3150 -0.7046
  246MPD1    H2 3736   0.213   3.489   9.795 -1.8143 -0.8116  1.4705
  246MPD1    H3 3737   0.238   3.255   9.715 -2.5041 -1.3767 -0.0538
  246MPD1     N 3738   0.032   3.356   9.318  0.4337  0.5921  0.5642
  246MPD1    H5 3739   4.725   3.432   9.259  2.5521 -0.0178 -1.3883
  246MPD1    N1 3740   0.085   3.694   9.659  0.0107 -0.4324  0.0174
  246MPD1    H6 3741   0.004   3.738   9.615  0.3949 -2.7897 -3.0887
  246MPD1    H7 3742   0.087   3.717   9.758  2.8671  3.0137 -0.8273
  247MPD1     C 3743   3.028   2.368  15.872 -0.2914  0.6347  0.0327
  247MPD1    C1 3744   3.058   2.351  16.000 -0.2347 -0.2632 -0.1891
  247MPD1    C2 3745   3.111   2.231  16.039  0.0497 -0.3402 -0.9792
  247MPD1    C3 3746   3.139   2.127  15.950  1.2481  0.0629 -0.4446
  247MPD1    C4 3747   3.113   2.162  15.814  0.4469  0.1410 -0.2882
  247MPD1    C5 3748   3.057   2.279  15.778 -0.3862  0.5476  0.0516
  247MPD1     H 3749   3.133   2.218  16.144  2.9384  0.2652 -1.5241
  247MPD1    H1 3750   3.130   2.108  15.722  0.2568  0.0051 -0.2451
  247MPD1    H2 3751   2.989   2.458  15.826  2.0851  1.3797 -0.5616
  247MPD1    H3 3752   3.042   2.298  15.673 -0.0826 -0.9560 -0.2633
  247MPD1     N 3753   3.190   1.991  15.974  0.0441  0.5911  0.2662
  247MPD1    H5 3754   3.185   1.929  15.893  0.3308  1.9399 -0.7868
  247MPD1    N1 3755   3.053   2.463  16.087  0.0073 -0.7984  0.0273
  247MPD1    H6 3756   2.971   2.521  16.072  0.6640  0.3939  0.9703
  247MPD1    H7 3757   3.053   2.441  16.187 -0.4895 -2.5311 -0.3629
  248MPD1     C 3758   4.270   0.152  17.248  0.3326  0.0357 -0.4857
  248MPD1    C1 3759   4.277   0.173  17.380  0.0824  0.5194  0.0802
  248MPD1    C2 3760   4.212   0.279  17.442  0.3997 -0.6170 -1.1598
  248MPD1    C3 3761   4.154   0.379  17.364 -0.9740 -0.3990 -0.1595
  248MPD1    C4 3762   4.152   0.359  17.231  0.5282  0.4242  0.8891
  248MPD1    C5 3763   4.201   0.245  17.177  0.4749  0.1275 -0.2323
  248MPD1     H 3764   4.207   0.290  17.550  2.5121 -2.1798 -0.9074
  248MPD1    H1 3765   4.104   0.423  17.158  0.6223 -1.2908 -0.6746
  248MPD1    H2 3766   4.296   0.058  17.201  2.6898  1.0526 -1.2529
  248MPD1    H3 3767   4.177   0.232  17.072  1.9568 -1.0926 -0.4171
  248MPD1     N 3768   4.113   0.503  17.423 -0.0758 -0.0804 -0.5664
  248MPD1    H5 3769   4.114   0.506  17.524  1.5122  1.0979 -0.6190
  248MPD1    N1 3770   4.336   0.079  17.464 -0.5568  0.1763 -1.4960
  248MPD1    H6 3771   4.396   0.022  17.405 -0.3995 -1.9433  0.6993
  248MPD1    H7 3772   4.401   0.114  17.534 -3.0149 -0.0644  0.9148
  249MPD1     C 3773   1.799   0.395   9.414  0.1312  0.3373  0.1616
  249MPD1    C1 3774   1.744   0.288   9.339  1.1229  0.3457 -0.0114
  249MPD1    C2 3775   1.620   0.257   9.382 -0.0554  0.1952  0.0083
  249MPD1    C3 3776   1.562   0.299   9.500 -0.0870  0.0542  0.5466
  249MPD1    C4 3777   1.631   0.392   9.580 -0.6343 -0.5287 -0.5880
  249MPD1    C5 3778   1.745   0.438   9.531  0.1725 -0.6420  0.2639
  249MPD1     H 3779   1.564   0.191   9.317 -0.9147  1.9631 -1.0457
  249MPD1    H1 3780   1.596   0.425   9.678 -0.8088 -0.7315 -0.5811
  249MPD1    H2 3781   1.890   0.449   9.390  1.0621 -2.2265 -2.0839
  249MPD1    H3 3782   1.797   0.505   9.599 -0.5149 -0.0063  0.1639
  249MPD1     N 3783   1.441   0.237   9.539  0.6002 -0.6130 -0.0771
  249MPD1    H5 3784   1.381   0.195   9.469  1.9214 -1.1998 -0.8371
  249MPD1    N1 3785   1.789   0.258   9.212  0.4543 -0.2225  0.6448
  249MPD1    H6 3786   1.891   0.253   9.214  0.4960  1.5577  3.1907
  249MPD1    H7 3787   1.755   0.165   9.191 -3.4591  1.0106  1.5267
  250MPD2     C 3788   1.728   0.065  12.913  0.3881  1.1958 -0.3970
  250MPD2    C1 3789   1.699   0.144  12.803 -0.1900 -0.2773  0.2551
  250MPD2    C2 3790   1.623   0.090  12.709  0.1115 -0.4084 -0.0713
  250MPD2    C3 3791   1.551   4.703  12.730 -0.2433  0.0991 -0.2051
  250MPD2    C4 3792   1.573   4.627  12.844 -0.6237 -0.2645  0.6205
  250MPD2    C5 3793   1.664   4.672  12.930 -0.4234  0.5336 -0.8649
  250MPD2     H 3794   1.596   0.161  12.631 -0.8965 -0.3761  0.3097
  250MPD2    H1 3795   1.524   4.530  12.847  1.2696 -1.3479 -2.9064
  250MPD2    H2 3796   1.791   0.108  12.990 -0.0913 -0.0749  0.7141
  250MPD2    H3 3797   1.680   4.620  13.023 -0.2697  1.1497 -0.5479
  250MPD2     N 3798   1.453   4.655  12.640  0.4485 -0.3516 -0.1787
  250MPD2    H5 3799   1.407   4.570  12.668 -2.0020  1.4819  1.3328
  250MPD2    N1 3800   1.760   0.272  12.802  0.6489  0.6453 -1.0651
  250MPD2    H7 3801   1.824   0.297  12.877  0.2116  0.4575 -0.6338
  251TMC3    C1 3802   1.823   0.487  12.719  0.0355  0.3788  0.1650
  251TMC3    C2 3803   1.769   0.605  12.678 -0.2991  0.0589 -0.5058
  251TMC3    C3 3804   1.834   0.727  12.684  0.2110 -0.1465 -0.0517
  251TMC3    C4 3805   1.955   0.485  12.769 -0.2826 -0.1433  0.1449
  251TMC3    C5 3806   2.024   0.607  12.761 -0.3970 -0.0577  0.1242
  251TMC3    C6 3807   1.965   0.725  12.726 -0.7295 -0.3224 -0.0575
  251TMC3     C 3808   1.754   0.358  12.690 -0.0496  0.0812 -0.3113
  251TMC3     O 3809   1.677   0.349  12.592 -0.1132 -0.4824 -0.4760
  251TMC3     H 3810   1.670   0.589  12.636 -0.1846 -0.7081 -0.4803
  251TMC3    H1 3811   2.006   0.390  12.777 -0.8860 -0.5337 -0.6603
  251TMC3    H2 3812   2.017   0.819  12.742  0.0734 -0.8982  0.7223
  251TMC3    C7 3813   2.168   0.591  12.785 -0.4243 -0.3058 -0.3581
  251TMC3    C8 3814   1.764   0.857  12.698 -0.0311 -0.6135  0.0950
  251TMC3    O1 3815   2.187   0.489  12.849  0.2440  0.1531  0.6894
  251TMC3    O2 3816   1.822   0.939  12.772  0.6181  0.4725 -0.0661
  252TMC3    C1 3817   2.317   1.469   9.442 -0.8051  0.7483  0.1561
  252TMC3    C2 3818   2.432   1.534   9.405 -0.1286 -0.0465 -0.3390
  252TMC3    C3 3819   2.547   1.478   9.456  0.1021  0.1389 -0.0299
  252TMC3    C4 3820   2.313   1.368   9.533  0.2829  0.3247 -0.4971
  252TMC3    C5 3821   2.428   1.318   9.584  0.0491  0.5010  0.1613
  252TMC3    C6 3822   2.545   1.370   9.543  0.2455 -0.3177  0.0201
  252TMC3     C 3823   2.191   1.511   9.384 -0.3649  0.1660 -0.1432
  252TMC3     O 3824   2.086   1.476   9.437 -0.3065  0.3208  0.1935
  252TMC3     H 3825   2.441   1.627   9.350 -0.2412  1.2949  1.9077
  252TMC3    H1 3826   2.215   1.331   9.561  0.9408  0.1265  1.5854
  252TMC3    H2 3827   2.633   1.334   9.596  1.4684  1.0404 -1.0825
  252TMC3    C7 3828   2.411   1.189   9.660 -0.1599 -0.0234  0.3472
  252TMC3    C8 3829   2.667   1.553   9.452  0.6927 -0.3259  0.8478
  252TMC3    O1 3830   2.297   1.164   9.682 -0.5812  0.6342  0.5485
  252TMC3    O2 3831   2.688   1.625   9.356 -0.3729 -0.7080 -0.2597
  253MPD2     C 3832   3.595   0.077  15.213  0.0743  0.7304  0.0712
  253MPD2    C1 3833   3.463   0.040  15.185  0.0852  0.1021  0.6307
  253MPD2    C2 3834   3.385   0.000  15.289 -0.5675  0.0651 -0.0872
  253MPD2    C3 3835   3.435   4.718  15.418 -0.1866  0.8305 -0.7295
  253MPD2    C4 3836   3.570   0.033  15.440 -0.3032 -0.1745  0.2339
  253MPD2    C5 3837   3.642   0.081  15.341 -0.1426  0.3514 -0.1418
  253MPD2     H 3838   3.278   4.716  15.270 -0.6086 -0.6209  0.4753
  253MPD2    H1 3839   3.618   0.037  15.538  3.1994 -0.5599 -1.4643
  253MPD2    H2 3840   3.655   0.112  15.129 -0.5324  1.9746  0.1556
  253MPD2    H3 3841   3.743   0.115  15.364  0.7392 -2.1349 -0.3751
  253MPD2     N 3842   3.346   4.713  15.531  0.1643  0.2993  0.2502
  253MPD2    H5 3843   3.392   0.008  15.619  0.5951  0.6833 -0.0568
  253MPD2    N1 3844   3.404   0.038  15.060  0.2694 -0.2114  0.2188
  253MPD2    H7 3845   3.304   0.018  15.068  0.4043 -0.4525  1.2692
  254TMC3    C1 3846   3.154   4.687  15.667  0.0426 -0.3431  0.2572
  254TMC3    C2 3847   3.034   0.022  15.678  0.0591  0.2709 -0.9362
  254TMC3    C3 3848   3.006   0.075  15.802  0.6363  0.2788  0.6149
  254TMC3    C4 3849   3.251   4.679  15.758 -0.0796 -0.0234 -1.4631
  254TMC3    C5 3850   3.221   0.005  15.876  0.1158  0.3774  0.6904
  254TMC3    C6 3851   3.103   0.066  15.902  0.2748 -0.0213 -0.0943
  254TMC3     C 3852   3.210   4.689  15.532  0.5588  0.2162  0.3288
  254TMC3     O 3853   3.136   4.658  15.443 -0.0363  0.4923  0.2601
  254TMC3     H 3854   2.966   0.018  15.594  0.0151 -0.1384 -0.8793
  254TMC3    H1 3855   3.327   4.602  15.748 -1.1698 -1.1200 -1.2995
  254TMC3    H2 3856   3.089   0.109  16.001 -0.2828 -0.9728  0.2480
  254TMC3    C7 3857   3.293   4.684  15.995  0.0976 -0.0446  0.0423
  254TMC3    C8 3858   2.941   0.208  15.812  0.2439  0.0473 -0.3315
  254TMC3    O1 3859   3.230   4.636  16.092  0.2932  0.4170 -0.2804
  254TMC3    O2 3860   2.929   0.261  15.921  0.6330 -0.1614 -0.3040
  255MPD2     C 3861   1.193   2.682   9.587  0.8388 -1.0738 -0.6489
  255MPD2    C1 3862   1.264   2.796   9.637  0.4043  0.6836 -0.1528
  255MPD2    C2 3863   1.401   2.795   9.607 -0.3663 -0.3626 -0.2703
  255MPD2    C3 3864   1.459   2.702   9.522 -0.0000  0.1833  0.5651
  255MPD2    C4 3865   1.382   2.600   9.472  0.6402  0.8994  0.4143
  255MPD2    C5 3866   1.250   2.588   9.501 -0.7434  0.1065 -0.0217
  255MPD2     H 3867   1.468   2.869   9.647 -0.3959 -1.7515  2.3383
  255MPD2    H1 3868   1.417   2.529   9.398 -0.3762  0.7065  0.1275
  255MPD2    H2 3869   1.087   2.664   9.602  1.3066 -4.4141 -1.4724
  255MPD2    H3 3870   1.190   2.501   9.475  0.1094 -0.5238  0.1381
  255MPD2     N 3871   1.598   2.705   9.499  0.9081 -0.3368  0.0088
  255MPD2    H5 3872   1.647   2.788   9.530 -1.8320  1.9871 -1.9821
  255MPD2    N1 3873   1.188   2.892   9.714 -0.0573 -0.1863  0.1886
  255MPD2    H7 3874   1.092   2.866   9.735  0.6234 -2.2071  0.8231
  256TMC3    C1 3875   1.138   3.110   9.804  0.5784  0.7041  0.3565
  256TMC3    C2 3876   1.194   3.233   9.837  0.6682 -0.6227  0.1342
  256TMC3    C3 3877   1.117   3.345   9.844 -0.1766 -0.1710 -0.3029
  256TMC3    C4 3878   1.015   3.108   9.744  0.0675 -0.7265  0.0358
  256TMC3    C5 3879   0.948   3.225   9.730 -0.0161 -0.4489  0.3388
  256TMC3    C6 3880   0.990   3.338   9.785  1.0762 -0.2108 -0.6961
  256TMC3     C 3881   1.233   3.014   9.751  0.5332 -0.2683 -0.8615
  256TMC3     O 3882   1.348   3.055   9.735  0.8764  0.0103  0.3771
  256TMC3     H 3883   1.295   3.237   9.876  1.1789  1.1305 -1.4212
  256TMC3    H1 3884   0.999   3.027   9.674 -0.2313  1.2684 -2.1996
  256TMC3    H2 3885   0.938   3.432   9.770 -0.1031 -0.8339 -0.4735
  256TMC3    C7 3886   0.860   3.223   9.620  1.5876  0.2739  0.5165
  256TMC3    C8 3887   1.184   3.472   9.868 -0.9507 -0.7607 -0.2528
  256TMC3    O1 3888   0.817   3.111   9.587  0.1554  0.1014  0.0847
  256TMC3    O2 3889   1.106   3.560   9.885 -0.0383  0.3326  0.1681
  257MPD2     C 3890   1.139   0.368  13.239 -0.3257  0.5567 -0.3382
  257MPD2    C1 3891   1.065   0.293  13.149  0.2903 -0.3777 -0.1982
  257MPD2    C2 3892   1.029   0.159  13.183  0.4986  0.5463  0.7255
  257MPD2    C3 3893   1.041   0.121  13.315 -0.0227 -0.0383 -0.1550
  257MPD2    C4 3894   1.091   0.209  13.410 -0.9193 -0.6087  0.5772
  257MPD2    C5 3895   1.143   0.332  13.371  0.1624  0.4502  0.1139
  257MPD2     H 3896   0.997   0.095  13.102 -3.0404  1.3139  1.5452
  257MPD2    H1 3897   1.109   0.190  13.516  1.8818 -1.2678 -0.0076
  257MPD2    H2 3898   1.172   0.462  13.197  0.6184  2.1293  3.8832
  257MPD2    H3 3899   1.192   0.397  13.443 -1.8428  1.1585  0.8323
  257MPD2     N 3900   1.002   4.712  13.348 -0.5911  0.4306 -0.1464
  257MPD2    H5 3901   0.942   4.662  13.283  0.6211  0.0746 -1.0025
  257MPD2    N1 3902   1.036   0.352  13.021 -0.1721  0.4726  0.0237
  257MPD2    H7 3903   1.079   0.441  13.000  1.0391 -0.5786 -2.0216
  258TMC3    C1 3904   0.994   4.523  13.484 -0.4986  0.4524 -0.1543
  258TMC3    C2 3905   0.878   4.486  13.422 -0.1697  0.9651 -0.2298
  258TMC3    C3 3906   0.838   4.352  13.445 -0.1517  1.0045  0.2278
  258TMC3    C4 3907   1.080   4.434  13.537  0.0638 -0.6398 -0.3715
  258TMC3    C5 3908   1.037   4.302  13.547  0.9028  1.2945  0.3468
  258TMC3    C6 3909   0.915   4.261  13.503  0.3878 -0.8136  0.1038
  258TMC3     C 3910   1.037   4.656  13.469 -0.0338 -0.0936  0.5378
  258TMC3     O 3911   1.116   4.701  13.555  0.0848 -0.1524  0.4764
  258TMC3     H 3912   0.809   4.553  13.372  0.0209  1.3253  0.0006
  258TMC3    H1 3913   1.178   4.466  13.570 -0.6415  0.7528  0.3766
  258TMC3    H2 3914   0.885   4.157  13.512  2.9065 -1.5611 -0.2007
  258TMC3    C7 3915   1.128   4.194  13.578 -0.3528 -0.0324  0.5596
  258TMC3    C8 3916   0.716   4.307  13.398 -0.4490  0.5122 -0.7894
  258TMC3    O1 3917   1.101   4.085  13.539  0.2440 -0.0096 -0.4748
  258TMC3    O2 3918   0.670   4.213  13.459  0.1511 -0.0696 -0.2036
  259MPD2     C 3919   4.036   1.314  17.682 -0.4727 -0.5066 -0.0370
  259MPD2    C1 3920   4.172   1.323  17.700  1.1059 -0.0254  0.6615
  259MPD2    C2 3921   4.255   1.251  17.611  0.7884  0.1359  0.0437
  259MPD2    C3 3922   4.205   1.198  17.493  0.0977  0.4096 -0.1926
  259MPD2    C4 3923   4.067   1.202  17.469  0.0145 -0.2765  0.3887
  259MPD2    C5 3924   3.990   1.263  17.565 -0.1591  0.6775  0.3189
  259MPD2     H 3925   4.363   1.260  17.616  0.6696  0.7806  1.4754
  259MPD2    H1 3926   4.031   1.156  17.377  1.0713 -0.5204  0.0948
  259MPD2    H2 3927   3.965   1.367   0.043 -0.0111 -2.3991  2.0752
  259MPD2    H3 3928   3.885   1.271  17.540  0.5351 -1.3339 -3.2925
  259MPD2     N 3929   4.289   1.147  17.393 -0.0970 -0.1027 -0.2003
  259MPD2    H5 3930   4.388   1.164  17.404 -0.2990 -0.2618  1.7373
  259MPD2    N1 3931   4.214   1.387   0.118 -0.2347  1.2463  0.3491
  259MPD2    H7 3932   4.140   1.419   0.179 -0.2880  0.6942  0.5743
  260TMC3    C1 3933   4.356   1.036  17.188  0.3267 -0.1974 -0.0311
  260TMC3    C2 3934   4.474   1.098  17.218  0.8363  0.2410  0.1030
  260TMC3    C3 3935   4.590   1.024  17.228 -0.5590  0.9998  0.3145
  260TMC3    C4 3936   4.366   0.907  17.155  0.4797 -0.5773  0.3780
  260TMC3    C5 3937   4.488   0.844  17.132 -0.0425  0.9566  0.0944
  260TMC3    C6 3938   4.602   0.899  17.178 -0.6110  0.2303  0.2651
  260TMC3     C 3939   4.250   1.070  17.280 -0.2950 -0.0050  0.0659
  260TMC3     O 3940   4.149   1.004  17.255  0.0342  0.3906 -0.0635
  260TMC3     H 3941   4.464   1.205  17.214 -1.2627  0.0280  0.0333
  260TMC3    H1 3942   4.277   0.849  17.129 -2.0801  4.6830 -2.4588
  260TMC3    H2 3943   4.698   0.850  17.163 -0.7600 -0.6701  2.3162
  260TMC3    C7 3944   4.492   0.702  17.104 -0.1347 -0.3051 -0.4554
  260TMC3    C8 3945   4.712   1.100  17.234 -0.4017 -0.1225  0.0942
  260TMC3    O1 3946   4.596   0.641  17.107  0.5383  0.6328 -0.4682
  260TMC3    O2 3947   4.700   1.220  17.209  0.3634  0.0176 -0.3045
  261MPD2     C 3948   0.873   0.137  12.098  0.3629 -0.2261 -0.4983
  261MPD2    C1 3949   0.999   0.111  12.067 -0.6645  0.0461 -0.6478
  261MPD2    C2 3950   1.064   0.180  11.968  0.9039 -0.2236  0.9430
  261MPD2    C3 3951   1.001   0.282  11.898 -0.4200  0.0483  0.2648
  261MPD2    C4 3952   0.869   0.304  11.918 -0.1151  0.3185 -0.3091
  261MPD2    C5 3953   0.808   0.231  12.020 -0.3518  0.3080 -0.0598
  261MPD2     H 3954   1.167   0.163  11.938  1.6556  1.0449  2.8261
  261MPD2    H1 3955   0.808   0.368  11.855  2.0379 -0.5322 -3.2817
  261MPD2    H2 3956   0.810   0.083  12.168 -1.3127  0.3600 -1.5310
  261MPD2    H3 3957   0.701   0.239  12.036 -0.2461  0.4429  0.5539
  261MPD2     N 3958   1.080   0.366  11.821 -0.7404  0.6054 -0.2869
  261MPD2    H5 3959   1.174   0.331  11.810 -1.4981 -1.4815 -0.1461
  261MPD2    N1 3960   1.082   0.021  12.140 -0.3113  0.5251 -0.0318
  261MPD2    H7 3961   1.182   0.020  12.127 -0.5934 -1.6261 -2.0035
  262TMC3    C1 3962   1.166   0.556  11.728  0.4851 -0.3821  0.2045
  262TMC3    C2 3963   1.180   0.692  11.750  0.2829 -0.0602  0.1581
  262TMC3    C3 3964   1.298   0.746  11.703 -0.2487 -0.1318 -0.4508
  262TMC3    C4 3965   1.242   0.485  11.640 -0.0277  1.1927 -0.4810
  262TMC3    C5 3966   1.346   0.548  11.584 -0.3422  0.2255 -0.4990
  262TMC3    C6 3967   1.384   0.677  11.620 -0.3500  0.0851 -0.6213
  262TMC3     C 3968   1.049   0.496  11.784  0.3437 -0.4492 -0.8829
  262TMC3     O 3969   0.950   0.567  11.806  0.5140  0.2578  0.5222
  262TMC3     H 3970   1.105   0.743  11.809  1.1476  2.4988 -0.9405
  262TMC3    H1 3971   1.218   0.382  11.615  0.8407  0.5008  1.5851
  262TMC3    H2 3972   1.464   0.730  11.571 -0.9432 -0.5174 -2.2255
  262TMC3    C7 3973   1.379   0.522  11.439  0.0097 -0.5243 -0.5222
  262TMC3    C8 3974   1.340   0.882  11.732 -0.2714  0.7614 -0.1182
  262TMC3    O1 3975   1.462   0.593  11.384  0.5826  0.1943 -0.0140
  262TMC3    O2 3976   1.462   0.908  11.724 -0.5073  0.1648 -0.4598
  263MPD2     C 3977   2.183   4.142  11.505  0.1720  0.7193 -0.8519
  263MPD2    C1 3978   2.288   4.222  11.547  0.4306 -1.0223 -0.2568
  263MPD2    C2 3979   2.322   4.331  11.466  0.3263  0.1281  0.7254
  263MPD2    C3 3980   2.246   4.360  11.352 -0.2263  0.0014 -0.3247
  263MPD2    C4 3981   2.140   4.279  11.307  0.1803  0.0356 -0.2379
  263MPD2    C5 3982   2.113   4.168  11.389  0.1873 -0.3205  0.2534
  263MPD2     H 3983   2.415   4.383  11.484 -0.1952  0.7115  1.7611
  263MPD2    H1 3984   2.085   4.293  11.215  0.9848 -3.4708 -1.2433
  263MPD2    H2 3985   2.149   4.050  11.552 -0.8698  1.0277 -1.0056
  263MPD2    H3 3986   2.026   4.111  11.359 -0.6816  1.2833 -0.2788
  263MPD2     N 3987   2.262   4.481  11.284  0.2325  0.6402 -0.0762
  263MPD2    H5 3988   2.219   4.482  11.192 -0.3163  0.2687  0.1748
  263MPD2    N1 3989   2.360   4.178  11.657 -0.2235 -0.2102 -0.0231
  263MPD2    H7 3990   2.318   4.091  11.688  1.1424 -0.4050  1.2807
  264TMC3    C1 3991   2.325   4.693  11.224 -0.2944 -0.4514  0.5083
  264TMC3    C2 3992   2.378   0.083  11.268  0.5824 -0.2978 -0.4148
  264TMC3    C3 3993   2.451   0.159  11.183  0.8807 -0.4396 -0.3710
  264TMC3    C4 3994   2.356   4.646  11.097  0.6146 -0.1189  0.0946
  264TMC3    C5 3995   2.429   4.722  11.010  0.0930 -0.8242  0.3651
  264TMC3    C6 3996   2.490   0.113  11.057 -0.8616 -0.7432  0.2290
  264TMC3     C 3997   2.309   4.597  11.330 -0.6186 -0.3620  0.1467
  264TMC3     O 3998   2.343   4.618  11.443  0.1524 -0.5864 -0.6956
  264TMC3     H 3999   2.344   0.123  11.363  0.4732 -0.8741 -0.2076
  264TMC3    H1 4000   2.347   4.539  11.080  0.2201 -0.3191  1.5950
  264TMC3    H2 4001   2.545   0.177  10.989 -1.2388 -0.4503  0.1954
  264TMC3    C7 4002   2.473   4.662  10.883  0.0343  0.3761  0.0917
  264TMC3    C8 4003   2.513   0.283  11.231 -0.2555  0.6780  0.3018
  264TMC3    O1 4004   2.583   4.701  10.846  0.6930  0.6494  0.5766
  264TMC3    O2 4005   2.600   0.324  11.151  0.1238 -0.0987 -0.1637
  265MPD2     C 4006   4.699   4.235  15.396 -0.3724 -0.2271 -0.2864
  265MPD2    C1 4007   0.021   4.351  15.342 -0.3303  0.1012 -0.2964
  265MPD2    C2 4008   0.102   4.349  15.232  0.4909  0.2845  1.0965
  265MPD2    C3 4009   0.139   4.224  15.179  0.0465  0.2830  0.6183
  265MPD2    C4 4010   0.082   4.105  15.227  1.2378  0.3555 -0.5317
  265MPD2    C5 4011   0.007   4.111  15.342  0.3957 -0.4256  0.3057
  265MPD2     H 4012   0.140   4.446  15.203  0.4119  0.5573  1.9142
  265MPD2    H1 4013   0.117   4.005  15.209  0.9236  0.2789 -0.7145
  265MPD2    H2 4014   4.624   4.239  15.475  1.3919  0.4044  1.3473
  265MPD2    H3 4015   4.691   4.015  15.372  0.7266 -0.9874 -1.0342
  265MPD2     N 4016   0.233   4.208  15.071  0.5635 -0.0112 -0.1651
  265MPD2    H5 4017   0.262   4.114  15.049 -1.4127 -0.9341  1.1627
  265MPD2    N1 4018   4.724   4.478  15.408  0.5309  0.2008 -0.0928
  265MPD2    H7 4019   0.034   4.561  15.363  2.3655  0.5274  1.9110
  266TMC3    C1 4020   4.681   4.621  15.584  0.8215 -0.7000  0.0319
  266TMC3    C2 4021   4.689   4.634  15.720  1.0855  0.0277  0.0749
  266TMC3    C3 4022   4.711   0.027  15.787  0.7435  0.3242  0.2512
  266TMC3    C4 4023   4.692   0.007  15.504  0.4466  0.5144  0.0117
  266TMC3    C5 4024   0.000   0.124  15.569 -0.3854  0.3958 -0.1286
  266TMC3    C6 4025   0.010   0.132  15.706 -0.1444  0.1291  0.2293
  266TMC3     C 4026   4.658   4.492  15.530 -0.4677 -0.0205  0.0540
  266TMC3     O 4027   4.622   4.407  15.611 -1.2376  0.0394  1.3860
  266TMC3     H 4028   4.687   4.551  15.790  0.4172 -0.7723 -0.8828
  266TMC3    H1 4029   4.683   0.005  15.396  0.0185 -1.4484  0.0839
  266TMC3    H2 4030   0.031   0.228  15.753 -2.1460 -0.2495  1.9090
  266TMC3    C7 4031   4.692   0.249  15.503 -0.4459 -0.1557 -0.3045
  266TMC3    C8 4032   0.043   0.021  15.922 -0.5995  0.0890 -0.7128
  266TMC3    O1 4033   4.590   0.249  15.432  0.4048  0.3296  0.3913
  266TMC3    O2 4034   0.087   4.640  15.960 -0.0002 -0.0233 -0.2099
  267MPD2     C 4035   1.974   2.153  17.679 -0.2625  0.0666 -0.8229
  267MPD2    C1 4036   2.014   2.093  17.561  0.1238 -0.6967  0.3335
  267MPD2    C2 4037   1.978   2.150  17.437 -0.4069 -0.2469  0.2115
  267MPD2    C3 4038   1.908   2.271  17.438 -0.0232  0.7865 -0.1834
  267MPD2    C4 4039   1.879   2.339  17.559 -0.6987 -0.0458  0.2776
  267MPD2    C5 4040   1.909   2.274  17.675 -0.0482 -0.5376  0.2662
  267MPD2     H 4041   2.011   2.110  17.342 -0.2304  1.1219 -0.3091
  267MPD2    H1 4042   1.826   2.434  17.563 -1.4762 -0.5172  1.0048
  267MPD2    H2 4043   1.977   2.101   0.073  0.2714  1.0634 -0.3048
  267MPD2    H3 4044   1.873   2.318   0.066  0.1168  1.6133 -0.6908
  267MPD2     N 4045   1.865   2.328  17.308  0.0200  0.2662 -0.1697
  267MPD2    H5 4046   1.900   2.279  17.226 -2.3969 -1.1325 -0.3482
  267MPD2    N1 4047   2.076   1.964  17.573 -0.3985 -0.3749  0.2508
  267MPD2    H7 4048   2.089   1.933  17.669  1.8716 -0.1942  0.0028
  268TMC3    C1 4049   2.199   1.774  17.517 -0.0831 -0.1018 -0.2269
  268TMC3    C2 4050   2.271   1.726  17.412  0.4480  0.7833 -0.1520
  268TMC3    C3 4051   2.307   1.602  17.423  0.0125 -0.5621  0.3339
  268TMC3    C4 4052   2.158   1.700  17.627  0.4662  0.0833  0.0051
  268TMC3    C5 4053   2.192   1.570  17.630 -0.4903  0.3202 -0.0048
  268TMC3    C6 4054   2.264   1.522  17.525 -0.0303 -0.5196 -0.4211
  268TMC3     C 4055   2.126   1.893  17.469  0.2149  0.3191 -0.2062
  268TMC3     O 4056   2.104   1.904  17.346  0.2238 -0.7208  0.0955
  268TMC3     H 4057   2.313   1.797  17.341  0.2961  1.0228 -0.0012
  268TMC3    H1 4058   2.099   1.751   0.001  2.4540 -0.2009  1.7431
  268TMC3    H2 4059   2.287   1.416  17.518  2.5614  0.0212  0.2555
  268TMC3    C7 4060   2.154   1.485   0.040 -0.2455 -0.4563  0.5494
  268TMC3    C8 4061   2.360   1.537  17.306  0.6535  0.2906  0.0204
  268TMC3    O1 4062   2.230   1.394   0.070  0.6422  1.3111 -0.2805
  268TMC3    O2 4063   2.412   1.427  17.308 -0.5692  0.0036  0.1927
  269MPD2     C 4064   2.655   0.494  15.150 -0.4764 -0.3851 -0.2304
  269MPD2    C1 4065   2.574   0.512  15.257  0.3817 -0.3442  0.0511
  269MPD2    C2 4066   2.523   0.639  15.277 -0.5166 -0.0813  0.1747
  269MPD2    C3 4067   2.559   0.746  15.198 -0.2031  0.0348  0.3311
  269MPD2    C4 4068   2.631   0.727  15.080 -0.0818 -0.9629 -0.8285
  269MPD2    C5 4069   2.682   0.595  15.063 -0.2373 -0.5973  0.5210
  269MPD2     H 4070   2.465   0.662  15.366  0.4572  0.3424  0.7021
  269MPD2    H1 4071   2.671   0.803  15.014  0.1361 -0.5889 -0.2630
  269MPD2    H2 4072   2.709   0.403  15.123  0.4107  0.6406 -1.9089
  269MPD2    H3 4073   2.741   0.566  14.977  0.8333 -0.2244  1.1230
  269MPD2     N 4074   2.509   0.873  15.234 -0.7800  0.5981 -0.2809
  269MPD2    H5 4075   2.479   0.870  15.331 -1.0634 -1.1576 -0.4211
  269MPD2    N1 4076   2.533   0.402  15.340  0.0657  0.1483 -0.0140
  269MPD2    H7 4077   2.590   0.318  15.338  0.8188  0.6973 -1.4283
  270TMC3    C1 4078   2.393   0.286  15.487 -0.2602 -0.0950  0.4951
  270TMC3    C2 4079   2.273   0.224  15.469 -0.0826  0.8238 -0.8706
  270TMC3    C3 4080   2.272   0.084  15.476 -0.2179  0.2322  0.2827
  270TMC3    C4 4081   2.513   0.216  15.518  0.1027  0.2782 -0.9105
  270TMC3    C5 4082   2.511   0.082  15.508 -0.8544  0.4439 -0.6529
  270TMC3    C6 4083   2.388   0.018  15.498 -0.9049 -0.3822 -0.0499
  270TMC3     C 4084   2.415   0.407  15.412 -0.4949  0.2926  0.1363
  270TMC3     O 4085   2.325   0.488  15.409  0.2009 -0.0569 -0.5871
  270TMC3     H 4086   2.191   0.276  15.421 -0.4807 -1.1072 -2.2871
  270TMC3    H1 4087   2.607   0.265  15.537  0.5555 -1.1536  0.4629
  270TMC3    H2 4088   2.382   4.638  15.473 -2.2332 -0.0375 -1.1384
  270TMC3    C7 4089   2.634   0.012  15.527 -0.7527 -0.3267  0.2264
  270TMC3    C8 4090   2.205   0.043  15.359 -0.3890  0.6847  0.3894
  270TMC3    O1 4091   2.747   0.061  15.514 -0.6255  0.2902  0.1816
  270TMC3    O2 4092   2.228   0.112  15.258 -0.1424  0.7235  0.0278
  271MPD2     C 4093   1.816   0.033  13.683 -0.8800 -0.1311 -0.5094
  271MPD2    C1 4094   1.748   0.051  13.801  0.6317 -0.0518  0.4817
  271MPD2    C2 4095   1.657   0.154  13.798  0.0958 -0.4545 -0.9510
  271MPD2    C3 4096   1.642   0.240  13.684  0.0872  0.2351  0.1775
  271MPD2    C4 4097   1.715   0.218  13.574  0.3584  0.5067 -0.1831
  271MPD2    C5 4098   1.804   0.113  13.568 -0.2416  0.0126  0.5375
  271MPD2     H 4099   1.591   0.164  13.884  1.1550 -1.4134 -0.0370
  271MPD2    H1 4100   1.686   0.274  13.485  1.5627 -0.9280 -1.4817
  271MPD2    H2 4101   1.885   4.676  13.671 -1.3163 -0.6256  0.3196
  271MPD2    H3 4102   1.856   0.091  13.475  1.5395 -0.0438  1.5546
  271MPD2     N 4103   1.540   0.346  13.678  0.1547 -0.0114  0.2659
  271MPD2    H5 4104   1.529   0.395  13.590  0.4830  0.2977  0.3955
  271MPD2    N1 4105   1.764   4.699  13.918 -0.1536  0.6391 -0.5585
  271MPD2    H7 4106   1.740   0.010  14.010 -2.1979  0.6393 -1.1077
  272TMC3    C1 4107   1.836   4.536  14.065  0.0120 -0.1250 -0.4166
  272TMC3    C2 4108   1.959   4.478  14.078  0.2914 -0.4890  0.2510
  272TMC3    C3 4109   2.019   4.482  14.198  0.5019 -0.3164 -0.4348
  272TMC3    C4 4110   1.771   4.589  14.169  0.2890 -0.6623 -0.4570
  272TMC3    C5 4111   1.838   4.588  14.287  0.2663 -0.2782 -0.1790
  272TMC3    C6 4112   1.957   4.532  14.310 -0.4987  0.5089  0.0478
  272TMC3     C 4113   1.815   4.569  13.927  0.0279 -0.3030  0.1056
  272TMC3     O 4114   1.855   4.489  13.847 -0.1892 -1.1598 -0.1178
  272TMC3     H 4115   2.014   4.453  13.988  0.0983 -1.0041  0.2783
  272TMC3    H1 4116   1.668   4.620  14.159  0.9794  1.2730 -1.7386
  272TMC3    H2 4117   2.005   4.530  14.408 -2.1747  0.7199  0.8734
  272TMC3    C7 4118   1.772   4.655  14.395  0.3165  0.1810 -0.0298
  272TMC3    C8 4119   2.155   4.428  14.193 -0.7683 -0.6207  0.7699
  272TMC3    O1 4120   1.652   4.652  14.394  0.1432  0.7197  0.6486
  272TMC3    O2 4121   2.188   4.379  14.091 -0.4946  0.3225  0.0741
  273MPD2     C 4122   3.321   3.072  11.690 -0.0956 -0.2000 -0.0035
  273MPD2    C1 4123   3.327   3.176  11.598  0.3017  0.3480 -0.1259
  273MPD2    C2 4124   3.243   3.187  11.488  0.1094 -0.0978  0.0559
  273MPD2    C3 4125   3.148   3.083  11.474  0.1954  0.5547  0.0046
  273MPD2    C4 4126   3.136   2.985  11.566 -0.7306  0.4569  0.0791
  273MPD2    C5 4127   3.217   2.985  11.674  0.3681 -0.8623 -0.4767
  273MPD2     H 4128   3.246   3.270  11.419 -0.4341 -2.8776 -3.3332
  273MPD2    H1 4129   3.061   2.908  11.552 -2.0650  1.3212  2.4426
  273MPD2    H2 4130   3.384   3.064  11.777 -0.6914 -0.8881  0.3711
  273MPD2    H3 4131   3.204   2.907  11.749  1.4200  0.5137  1.1342
  273MPD2     N 4132   3.054   3.102  11.367  0.0969 -0.9846 -0.3442
  273MPD2    H5 4133   2.963   3.058  11.381  0.7917 -1.5150  2.4286
  273MPD2    N1 4134   3.424   3.276  11.625  0.0073 -0.0915  0.1313
  273MPD2    H7 4135   3.470   3.263  11.715  1.0095  1.3931 -0.1633
  274TMC3    C1 4136   2.956   3.205  11.185  0.0282  0.3304  0.1414
  274TMC3    C2 4137   2.842   3.134  11.190 -0.2549 -0.4653 -0.0494
  274TMC3    C3 4138   2.722   3.196  11.221 -0.7752 -0.1251  0.3970
  274TMC3    C4 4139   2.946   3.342  11.198 -0.4558 -0.2353  0.2029
  274TMC3    C5 4140   2.830   3.401  11.229  0.2786  0.0322  0.3642
  274TMC3    C6 4141   2.712   3.333  11.249  0.2365  0.3345 -0.5527
  274TMC3     C 4142   3.075   3.170  11.252  0.1663 -0.3417  0.5908
  274TMC3     O 4143   3.171   3.235  11.214  0.1763 -0.4338 -0.0174
  274TMC3     H 4144   2.853   3.026  11.190 -0.6411 -0.5010  0.4603
  274TMC3    H1 4145   3.032   3.407  11.205  0.5666 -1.4812 -0.8085
  274TMC3    H2 4146   2.617   3.384  11.241  2.1251  4.0027  0.7313
  274TMC3    C7 4147   2.821   3.533  11.288  0.1854  0.4144 -0.3754
  274TMC3    C8 4148   2.594   3.129  11.219  0.0342  0.1304 -0.2553
  274TMC3    O1 4149   2.718   3.563  11.347  0.3291  0.3975 -0.5800
  274TMC3    O2 4150   2.495   3.192  11.252  0.8741 -0.4466 -0.1134
  275MPD2     C 4151   3.327   0.855  14.090 -0.1588  0.5878 -0.5160
  275MPD2    C1 4152   3.241   0.873  14.198 -0.4611  0.3914  0.1717
  275MPD2    C2 4153   3.114   0.837  14.190 -0.1980 -0.1547 -0.8759
  275MPD2    C3 4154   3.059   0.780  14.075 -0.7490 -0.0929  0.1256
  275MPD2    C4 4155   3.144   0.769  13.969 -0.2364  0.2863 -0.0705
  275MPD2    C5 4156   3.275   0.808  13.976 -0.6991 -0.4793 -0.3483
  275MPD2     H 4157   3.050   0.837  14.278 -0.4421  0.3477 -1.0545
  275MPD2    H1 4158   3.102   0.738  13.874 -1.0274  0.5974  0.1733
  275MPD2    H2 4159   3.432   0.883  14.087  0.2283 -0.6721  1.2077
  275MPD2    H3 4160   3.331   0.803  13.883 -0.7684 -1.5153 -0.3325
  275MPD2     N 4161   2.927   0.741  14.068  0.6808 -0.0780  0.2170
  275MPD2    H5 4162   2.902   0.717  13.973 -2.0812  1.3936  0.5397
  275MPD2    N1 4163   3.273   0.922  14.326 -0.5098  0.9286 -0.0558
  275MPD2    H7 4164   3.197   0.921  14.394 -0.1415  0.5877  0.3525
  276TMC3    C1 4165   3.371   1.052  14.484  0.5852  0.0977  0.5604
  276TMC3    C2 4166   3.257   1.040  14.565 -0.3705  0.0693  0.6309
  276TMC3    C3 4167   3.253   1.118  14.676 -0.1085  0.2057 -1.0293
  276TMC3    C4 4168   3.482   1.125  14.530 -0.1094 -0.3814 -0.5591
  276TMC3    C5 4169   3.466   1.198  14.648 -0.3556  0.5005 -0.3552
  276TMC3    C6 4170   3.355   1.198  14.728  0.3075 -0.2502 -0.7804
  276TMC3     C 4171   3.383   0.991  14.355  0.2611 -0.0441  0.2450
  276TMC3     O 4172   3.472   1.025  14.279 -0.5384  0.7084 -0.1055
  276TMC3     H 4173   3.163   1.006  14.524 -0.2006 -0.0747  0.3621
  276TMC3    H1 4174   3.577   1.129  14.478 -0.0266  1.1888 -0.2900
  276TMC3    H2 4175   3.357   1.253  14.821 -1.0365 -2.6653  0.6654
  276TMC3    C7 4176   3.586   1.224  14.723  1.1458 -0.3162  0.6392
  276TMC3    C8 4177   3.186   1.052  14.783 -0.9865 -0.4437  0.1226
  276TMC3    O1 4178   3.576   1.305  14.812  0.4665  0.3059 -0.3699
  276TMC3    O2 4179   3.178   1.119  14.885 -0.3682  0.2489  0.2057
  277MPD2     C 4180   0.646   0.307  13.123  0.3197 -0.4156 -0.1809
  277MPD2    C1 4181   0.541   0.239  13.074  0.4990 -0.0194 -0.8751
  277MPD2    C2 4182   0.490   0.135  13.145  0.6714  0.5822  1.0876
  277MPD2    C3 4183   0.536   0.100  13.269 -0.2924  0.6507 -0.4264
  277MPD2    C4 4184   0.642   0.172  13.325  0.3163 -0.2556  0.1095
  277MPD2    C5 4185   0.702   0.267  13.245  0.6113 -0.0971  0.2384
  277MPD2     H 4186   0.416   0.072  13.097  1.2724  0.2943  0.5450
  277MPD2    H1 4187   0.681   0.148  13.423  1.3566  0.9370 -0.0180
  277MPD2    H2 4188   0.690   0.388  13.064 -0.6249  1.1524  1.2636
  277MPD2    H3 4189   0.790   0.321  13.277  0.6236 -0.1576  0.3058
  277MPD2     N 4190   0.467   4.718  13.326 -0.0461 -0.5655 -0.4747
  277MPD2    H5 4191   0.376   4.700  13.284  0.5917 -0.4773 -1.9025
  277MPD2    N1 4192   0.489   0.265  12.939  0.4783 -0.7758 -0.0206
  277MPD2    H7 4193   0.506   0.361  12.912  1.9642 -1.6479 -2.2401
  278TMC3    C1 4194   0.392   4.600  13.508 -0.4548 -0.6362  0.2105
  278TMC3    C2 4195   0.383   4.463  13.519 -0.0407  0.0323  0.2856
  278TMC3    C3 4196   0.260   4.403  13.511 -0.2074 -0.0950 -1.0989
  278TMC3    C4 4197   0.285   4.676  13.499  0.7202 -0.3699  0.0760
  278TMC3    C5 4198   0.165   4.619  13.484 -0.2654 -0.0608 -0.3031
  278TMC3    C6 4199   0.151   4.480  13.491  0.0305 -0.2564  0.1716
  278TMC3     C 4200   0.510   4.642  13.428 -0.1135  0.7405  0.8204
  278TMC3     O 4201   0.621   4.636  13.483 -0.2848  0.3446  0.1876
  278TMC3     H 4202   0.480   4.416  13.507 -0.0190  0.4942 -1.3586
  278TMC3    H1 4203   0.292   0.059  13.510 -0.5561 -0.2613 -0.1741
  278TMC3    H2 4204   0.050   4.444  13.483  0.3694 -0.9172 -1.0889
  278TMC3    C7 4205   0.051   4.708  13.476 -0.1010  0.6914  0.9696
  278TMC3    C8 4206   0.251   4.262  13.515 -0.3833 -0.7615 -0.2961
  278TMC3    O1 4207   0.068   0.105  13.461  0.6214 -0.1908  0.3046
  278TMC3    O2 4208   0.348   4.211  13.566  0.1555 -0.2424 -0.5448
  279MPD2     C 4209   3.612   0.300   0.133  0.3624 -0.2342 -0.0418
  279MPD2    C1 4210   3.560   0.215   0.035  0.4349 -0.1546  0.3912
  279MPD2    C2 4211   3.583   0.079   0.053  0.0555  0.5374  0.6061
  279MPD2    C3 4212   3.677   0.034   0.144 -0.3265  0.6306  0.0993
  279MPD2    C4 4213   3.744   0.118   0.235 -0.3178  0.4323  0.2207
  279MPD2    C5 4214   3.710   0.252   0.223 -1.1980 -0.0159  0.8695
  279MPD2     H 4215   3.532   0.003  17.697 -2.2090  1.6816  1.1063
  279MPD2    H1 4216   3.831   0.084   0.289 -0.5659 -0.2388  0.2011
  279MPD2    H2 4217   3.611   0.408   0.121 -0.1285 -0.1934  0.3618
  279MPD2    H3 4218   3.765   0.328   0.278  0.7946  0.2073 -1.4396
  279MPD2     N 4219   3.719   4.622   0.150  0.4377 -0.0484  0.4421
  279MPD2    H5 4220   3.809   4.607   0.193 -1.0899 -0.6365  3.4540
  279MPD2    N1 4221   3.502   0.276  17.626  0.4110  0.0222  0.3481
  279MPD2    H7 4222   3.487   0.376  17.627 -1.2508 -0.2405  0.8907
  280TMC3    C1 4223   3.405   0.277  17.411 -0.1361  0.1111 -0.1504
  280TMC3    C2 4224   3.395   0.224  17.283  0.3881 -0.3277 -0.2250
  280TMC3    C3 4225   3.329   0.294  17.188  0.0356  0.4241 -0.5198
  280TMC3    C4 4226   3.340   0.390  17.446 -0.2791 -0.2916 -0.7831
  280TMC3    C5 4227   3.265   0.451  17.352 -1.1846 -0.2879 -0.6996
  280TMC3    C6 4228   3.261   0.410  17.221 -0.1761 -0.2698 -0.0717
  280TMC3     C 4229   3.472   0.197  17.510  0.7453  0.3854 -0.2269
  280TMC3     O 4230   3.524   0.096  17.466  0.2475  0.1647 -0.1735
  280TMC3     H 4231   3.430   0.124  17.257  1.6330 -0.0426  0.3589
  280TMC3    H1 4232   3.344   0.431  17.546  1.8478 -1.5523 -0.3500
  280TMC3    H2 4233   3.251   0.485  17.144 -1.5791 -1.6611 -1.2313
  280TMC3    C7 4234   3.181   0.562  17.386 -0.5155 -0.4170  0.3076
  280TMC3    C8 4235   3.376   0.285  17.049 -0.6478  0.2770  0.2885
  280TMC3    O1 4236   3.194   0.603  17.502  0.2944 -0.1518  0.3582
  280TMC3    O2 4237   3.426   0.383  17.001 -0.0261  0.1922 -0.6146
  281TMC3    C1 4238   2.658   0.435  13.443  0.3714  0.1990 -0.2801
  281TMC3    C2 4239   2.657   0.482  13.316 -0.7914 -0.2706  0.1332
  281TMC3    C3 4240   2.623   0.402  13.216 -0.1692  0.6284  0.3845
  281TMC3    C4 4241   2.638   0.304  13.467 -0.3775 -0.5797 -0.0850
  281TMC3    C5 4242   2.602   0.221  13.360 -1.5296  0.1970  0.0640
  281TMC3    C6 4243   2.599   0.270  13.232 -0.6832 -0.6567  0.1082
  281TMC3     C 4244   2.643   0.520  13.563 -0.6690 -0.0089  0.1214
  281TMC3     O 4245   2.678   0.478  13.674 -0.3934  0.1840  0.5737
  281TMC3     H 4246   2.673   0.587  13.298  2.2825 -0.7930 -0.2222
  281TMC3    H1 4247   2.619   0.271  13.568  1.7834  0.1370  0.5433
  281TMC3    H2 4248   2.565   0.205  13.151 -0.3890 -0.7010  0.0193
  281TMC3    C7 4249   2.578   0.081  13.383  0.0940  0.0639  0.4696
  281TMC3    C8 4250   2.568   0.467  13.097  1.0233  1.0548  0.0979
  281TMC3    O1 4251   2.500   0.022  13.302  0.3207  0.4414  0.0095
  281TMC3    O2 4252   2.500   0.390  13.032  0.1208  0.4468  0.4813
  282MPD2     C 4253   0.001   1.476  15.084  0.2216  0.2585  0.2292
  282MPD2    C1 4254   4.632   1.569  15.119 -0.8681 -1.2786 -0.5239
  282MPD2    C2 4255   4.577   1.643  15.012 -0.4639  0.4938  0.0825
  282MPD2    C3 4256   4.609   1.621  14.877 -0.4631  0.4849 -0.3393
  282MPD2    C4 4257   4.697   1.530  14.842 -0.0505  0.0348 -0.0456
  282MPD2    C5 4258   0.027   1.453  14.950  0.1417 -0.1400  0.6834
  282MPD2     H 4259   4.507   1.724  15.029  0.0586  0.8654  0.4584
  282MPD2    H1 4260   0.012   1.507  14.744 -0.6229 -1.7737  0.1369
  282MPD2    H2 4261   0.063   1.414  15.147  2.3232 -0.6294 -2.7517
  282MPD2    H3 4262   0.107   1.390  14.914 -0.5882 -0.6407 -0.0669
  282MPD2     N 4263   4.537   1.699  14.783  0.1243 -0.7301  0.1974
  282MPD2    H5 4264   4.486   1.776  14.824 -0.7865 -1.3536  0.2262
  282MPD2    N1 4265   4.597   1.595  15.257 -0.4412 -0.1700 -0.2822
  282MPD2    H7 4266   4.523   1.664  15.260 -0.7696 -0.5091 -0.5628
  283TMC3    C1 4267   4.571   1.578  15.487 -0.4075 -0.1482 -1.0691
  283TMC3    C2 4268   4.552   1.707  15.497 -0.3113 -0.8863 -0.6865
  283TMC3    C3 4269   4.488   1.748  15.606  0.3257 -0.0604  1.1852
  283TMC3    C4 4270   4.529   1.487  15.584  0.4110 -0.4104 -0.2346
  283TMC3    C5 4271   4.459   1.532  15.690 -0.0421  0.2243 -0.3897
  283TMC3    C6 4272   4.440   1.669  15.697  0.0475 -0.4557 -0.4439
  283TMC3     C 4273   4.640   1.531  15.370 -0.2881 -0.1446  0.5810
  283TMC3     O 4274   0.001   1.442  15.370 -0.4127  0.1549 -0.3428
  283TMC3     H 4275   4.598   1.777  15.428  0.2191 -0.7667 -0.2163
  283TMC3    H1 4276   4.554   1.383  15.568 -3.2422 -1.5676  1.5398
  283TMC3    H2 4277   4.381   1.705  15.780 -0.5215  1.0057 -1.4722
  283TMC3    C7 4278   4.363   1.450  15.758 -0.4474  0.5136 -0.7289
  283TMC3    C8 4279   4.496   1.892  15.641  0.1701  0.3900  0.4358
  283TMC3    O1 4280   4.268   1.514  15.808 -0.4393 -0.3567  0.3131
  283TMC3    O2 4281   4.477   1.918  15.758 -0.1134 -0.6440 -0.1092
  284MPD2     C 4282   2.378   1.154  11.764 -0.3361  0.1798  0.0742
  284MPD2    C1 4283   2.437   1.105  11.882 -0.3091  0.1418  0.3807
  284MPD2    C2 4284   2.400   0.982  11.921 -0.1441  0.3272  0.2528
  284MPD2    C3 4285   2.312   0.910  11.844 -0.3273  0.2757  0.5349
  284MPD2    C4 4286   2.254   0.954  11.726 -0.6798  0.2210 -0.0474
  284MPD2    C5 4287   2.289   1.080  11.689 -0.1366 -0.9431  0.2405
  284MPD2     H 4288   2.440   0.947  12.016  1.7252 -1.1409 -1.0611
  284MPD2    H1 4289   2.192   0.892  11.663 -2.6276  1.4128  0.7098
  284MPD2    H2 4290   2.398   1.258  11.739  0.3409  0.5461  2.1784
  284MPD2    H3 4291   2.239   1.120  11.602  0.4133 -3.1015 -1.0689
  284MPD2     N 4292   2.277   0.780  11.884 -0.1119 -0.1019  0.3450
  284MPD2    H5 4293   2.217   0.725  11.824 -0.9811 -1.9087  2.9066
  284MPD2    N1 4294   2.525   1.175  11.971  0.6011 -0.0245  0.4129
  284MPD2    H7 4295   2.565   1.128  12.051  0.0109 -3.4999 -1.3268
  285TMC3    C1 4296   2.697   1.322  12.027 -0.2261  0.2833 -0.5298
  285TMC3    C2 4297   2.801   1.233  12.013  0.6596  0.9315 -0.6838
  285TMC3    C3 4298   2.929   1.279  12.034 -0.5406 -0.0178 -1.0493
  285TMC3    C4 4299   2.724   1.455  12.025  0.3728  0.5402 -0.6181
  285TMC3    C5 4300   2.854   1.499  12.051  0.3777 -0.0158  0.3245
  285TMC3    C6 4301   2.962   1.414  12.053  0.3295  0.0856  0.2510
  285TMC3     C 4302   2.581   1.300  11.948  0.0533 -0.3247  0.1719
  285TMC3     O 4303   2.561   1.389  11.865  0.0216  0.6705 -0.2261
  285TMC3     H 4304   2.786   1.126  12.021 -1.0238  1.2404  0.5299
  285TMC3    H1 4305   2.640   1.515  12.056  0.0787  1.0053 -2.3407
  285TMC3    H2 4306   3.063   1.452  12.044  0.6880 -1.0344 -0.4360
  285TMC3    C7 4307   2.882   1.640  12.066  0.0175  0.7655  1.1482
  285TMC3    C8 4308   3.034   1.190  11.995 -0.6230 -0.5512  0.7404
  285TMC3    O1 4309   2.817   1.710  11.990  0.0696  0.1971  0.1221
  285TMC3    O2 4310   3.004   1.071  11.991  0.1417 -0.3640  0.0404
  286MPD2     C 4311   2.768   4.441   1.656  0.3249 -0.7276 -0.4714
  286MPD2    C1 4312   2.729   4.426   1.521 -0.2288  0.6072 -0.8616
  286MPD2    C2 4313   2.824   4.372   1.434  0.0508 -0.0250  0.2523
  286MPD2    C3 4314   2.951   4.350   1.479 -0.1044 -0.7936 -0.0396
  286MPD2    C4 4315   2.990   4.377   1.605  0.5588 -0.0930 -0.4181
  286MPD2    C5 4316   2.896   4.421   1.698 -1.1163 -0.1683 -0.0506
  286MPD2     H 4317   2.799   4.355   1.330 -1.9791 -0.1557  0.7620
  286MPD2    H1 4318   3.088   4.348   1.643 -0.7134 -0.8135  2.2903
  286MPD2    H2 4319   2.702   4.481   1.732  0.0870  0.8095 -1.4661
  286MPD2    H3 4320   2.921   4.434   1.803 -1.8668  0.7034  0.0199
  286MPD2     N 4321   3.052   4.299   1.395  0.2563  0.0844  0.6373
  286MPD2    H5 4322   3.146   4.300   1.434 -0.8050  0.0501  3.1545
  286MPD2    N1 4323   2.620   4.490   1.466  0.3582 -0.1713 -0.5069
  286MPD2    H7 4324   2.607   4.487   1.365 -0.8801 -1.4240 -0.3061
  287TMC3    C1 4325   3.185   4.243   1.216 -0.6569  0.5458  1.1706
  287TMC3    C2 4326   3.195   4.190   1.092  0.2879 -0.1751  0.3503
  287TMC3    C3 4327   3.315   4.206   1.022  0.2616  0.4986  0.3164
  287TMC3    C4 4328   3.290   4.313   1.268  0.2226 -0.1827  0.0069
  287TMC3    C5 4329   3.410   4.319   1.202 -0.0569 -0.3090  0.0468
  287TMC3    C6 4330   3.425   4.262   1.079 -0.4056 -0.3763  0.2043
  287TMC3     C 4331   3.049   4.266   1.260  0.3277  0.3373 -0.0823
  287TMC3     O 4332   2.965   4.286   1.170  0.3799 -0.2707  0.9545
  287TMC3     H 4333   3.116   4.125   1.057 -0.0034  0.9535 -1.1281
  287TMC3    H1 4334   3.275   4.378   1.354  0.2696  1.2884 -1.0949
  287TMC3    H2 4335   3.516   4.282   1.023 -1.1315 -2.1066 -1.5798
  287TMC3    C7 4336   3.513   4.410   1.253 -0.1786  0.9108 -0.7180
  287TMC3    C8 4337   3.327   4.123   0.899 -0.1981 -0.6819 -1.2799
  287TMC3    O1 4338   3.485   4.486   1.346 -0.1089  0.2928 -0.0556
  287TMC3    O2 4339   3.240   4.045   0.881 -0.4585  0.4195  0.5831
  288TMC3    C1 4340   0.413   3.968  14.490  0.4742 -0.4570 -0.2714
  288TMC3    C2 4341   0.378   3.909  14.608  0.0739 -0.0514  0.0071
  288TMC3    C3 4342   0.247   3.864  14.623 -0.5393  0.3270 -0.4763
  288TMC3    C4 4343   0.326   3.996  14.393 -0.2760  0.3927 -0.2605
  288TMC3    C5 4344   0.199   3.942  14.410  0.2567 -0.3619 -0.3083
  288TMC3    C6 4345   0.151   3.880  14.523  0.5993 -0.1054 -0.5807
  288TMC3     C 4346   0.551   4.001  14.468 -0.4185 -0.0743 -0.8791
  288TMC3     O 4347   0.627   3.924  14.528  0.0574 -0.1715 -0.6217
  288TMC3     H 4348   0.447   3.894  14.690 -1.3576  0.0799  1.2244
  288TMC3    H1 4349   0.367   4.025  14.297 -0.7712 -1.0033 -0.8942
  288TMC3    H2 4350   0.048   3.845  14.528  0.6518 -0.0308  0.9568
  288TMC3    C7 4351   0.091   3.970  14.319  0.7124  0.3113 -0.7041
  288TMC3    C8 4352   0.193   3.857  14.762 -0.6853  0.5828  0.8894
  288TMC3    O1 4353   4.712   3.908  14.326 -0.4203 -0.2561 -0.2535
  288TMC3    O2 4354   0.272   3.885  14.848 -0.3773  0.2819 -0.1830
  289MPD2     C 4355   0.485   3.540  14.613  0.4366  0.7072  0.4976
  289MPD2    C1 4356   0.453   3.583  14.486 -0.2309  0.1344 -0.3417
  289MPD2    C2 4357   0.319   3.571  14.443 -0.0978  0.5855  0.9112
  289MPD2    C3 4358   0.225   3.528  14.527  0.8431 -0.4949  0.2868
  289MPD2    C4 4359   0.260   3.490  14.655 -0.1187 -0.3381 -0.2541
  289MPD2    C5 4360   0.389   3.499  14.697  0.6819  0.0444  1.0730
  289MPD2     H 4361   0.289   3.619  14.350 -1.1769 -0.9124  0.4787
  289MPD2    H1 4362   0.187   3.459  14.728 -0.1952  2.7965  1.0033
  289MPD2    H2 4363   0.583   3.552  14.658  0.0305  1.6541  1.1395
  289MPD2    H3 4364   0.405   3.475  14.801  0.8419 -1.6272  0.6696
  289MPD2     N 4365   0.085   3.515  14.495 -0.0839  0.1898  0.6018
  289MPD2    H5 4366   0.019   3.497  14.570 -0.7062  0.3690  0.0988
  289MPD2    N1 4367   0.556   3.632  14.407 -0.0334 -0.2075 -0.1928
  289MPD2    H7 4368   0.643   3.644  14.458 -0.7538  1.9836  0.5280
  290TMC3    C1 4369   4.609   3.539  14.361  0.2038 -0.7331 -0.3890
  290TMC3    C2 4370   4.542   3.632  14.283 -0.1277 -1.1773  0.0409
  290TMC3    C3 4371   4.412   3.600  14.257  1.3888 -0.4854 -0.4052
  290TMC3    C4 4372   4.563   3.416  14.406 -0.2728  0.4303  0.4400
  290TMC3    C5 4373   4.434   3.392  14.363  0.0703 -0.3897  0.6248
  290TMC3    C6 4374   4.362   3.480  14.290  0.5358 -0.9088  0.2000
  290TMC3     C 4375   0.031   3.556  14.374  0.7952 -0.3909 -0.2933
  290TMC3     O 4376   0.082   3.584  14.263 -0.4776  0.1555  0.5548
  290TMC3     H 4377   4.583   3.731  14.264 -3.1067  0.6997  3.3551
  290TMC3    H1 4378   4.629   3.338  14.442  0.1925  0.4288 -0.4267
  290TMC3    H2 4379   4.261   3.452  14.265  0.1742  2.0074 -1.6659
  290TMC3    C7 4380   4.364   3.284  14.418  0.6808  0.3474  0.5875
  290TMC3    C8 4381   4.311   3.688  14.204  0.0021 -0.0163  0.4121
  290TMC3    O1 4382   4.337   3.307  14.539 -0.7353  0.0748  0.4033
  290TMC3    O2 4383   4.201   3.646  14.175  0.1490 -0.0063  0.4399
  291MPD2     C 4384   3.974   3.091   0.601  0.6326 -0.0498  0.1631
  291MPD2    C1 4385   3.999   2.985   0.515 -0.1492 -0.5657 -0.2249
  291MPD2    C2 4386   4.134   2.943   0.493  0.2182  0.2590 -0.0529
  291MPD2    C3 4387   4.237   3.016   0.544 -0.0751  0.2507  0.0357
  291MPD2    C4 4388   4.205   3.131   0.626 -0.0333 -0.3676  0.1147
  291MPD2    C5 4389   4.072   3.165   0.653 -0.3105 -0.9056  0.1239
  291MPD2     H 4390   4.155   2.868   0.418  1.0753 -0.9796  1.4465
  291MPD2    H1 4391   4.282   3.200   0.659 -1.0606  0.4280  0.8521
  291MPD2    H2 4392   3.872   3.110   0.635  0.2955  0.3905 -1.0913
  291MPD2    H3 4393   4.042   3.249   0.715  0.0615 -1.1439  0.6291
  291MPD2     N 4394   4.373   2.986   0.530 -0.0909  0.2230  0.5088
  291MPD2    H5 4395   4.434   3.048   0.582  0.6783 -0.3171  0.2378
  291MPD2    N1 4396   3.894   2.904   0.458  0.0503 -0.1662 -0.6954
  291MPD2    H7 4397   3.918   2.814   0.418 -0.2156 -0.3909 -0.3550
  292TMC3    C1 4398   3.676   2.826   0.398 -0.2541 -0.6968 -0.0167
  292TMC3    C2 4399   3.547   2.821   0.436 -0.4196  0.0574 -0.4690
  292TMC3    C3 4400   3.457   2.762   0.356 -0.5028 -0.4032 -0.2953
  292TMC3    C4 4401   3.720   2.763   0.279  0.7153  0.5429 -0.2961
  292TMC3    C5 4402   3.622   2.693   0.209 -0.1385 -0.3124 -0.6131
  292TMC3    C6 4403   3.489   2.699   0.239  0.6637  0.2464 -0.3164
  292TMC3     C 4404   3.753   2.924   0.464 -0.0043  0.5040  0.2192
  292TMC3     O 4405   3.688   3.015   0.514  0.0644  0.2120 -0.0464
  292TMC3     H 4406   3.529   2.854   0.537 -0.2788  0.1579 -0.4776
  292TMC3    H1 4407   3.823   2.778   0.247  1.2394 -2.7880 -0.2685
  292TMC3    H2 4408   3.416   2.642   0.183 -0.3679  0.1729  1.1104
  292TMC3    C7 4409   3.657   2.631   0.083 -0.4283  0.4891  0.3612
  292TMC3    C8 4410   3.317   2.776   0.391 -0.5665 -0.2174  0.3113
  292TMC3    O1 4411   3.777   2.617   0.070  0.2175  0.6007 -0.1834
  292TMC3    O2 4412   3.296   2.792   0.511  0.0119 -0.0436  0.4360
  293MPD2     C 4413   1.005   0.153  12.500  0.0847 -0.2872  0.4846
  293MPD2    C1 4414   0.960   0.061  12.601  0.2664  0.1151 -0.3733
  293MPD2    C2 4415   1.042   0.041  12.709 -0.4967 -0.8542  0.0157
  293MPD2    C3 4416   1.163   0.109  12.730  0.3752  0.3307  0.1139
  293MPD2    C4 4417   1.210   0.189  12.625  0.1661 -0.4188 -0.0521
  293MPD2    C5 4418   1.134   0.214  12.515  0.6186 -0.1046 -0.4195
  293MPD2     H 4419   1.006   4.706  12.791 -3.1321  1.2386  0.4351
  293MPD2    H1 4420   1.305   0.242  12.624  0.2500 -0.5445  0.9524
  293MPD2    H2 4421   0.946   0.162  12.410  0.0931  1.8271  0.6880
  293MPD2    H3 4422   1.171   0.265  12.427 -0.9207  1.8807  0.0938
  293MPD2     N 4423   1.230   0.107  12.854  0.2616 -0.2711  0.9562
  293MPD2    H5 4424   1.207   0.033  12.919 -3.2886  0.1511  0.1686
  293MPD2    N1 4425   0.841   4.721  12.564 -0.3091 -0.1251 -0.3050
  293MPD2    H7 4426   0.792   0.047  12.490 -3.6407  2.2967  3.5563
  294TMC3    C1 4427   0.674   4.559  12.544  0.5920  0.2016 -0.7708
  294TMC3    C2 4428   0.677   4.438  12.485 -0.0650 -0.0814  0.6073
  294TMC3    C3 4429   0.590   4.419  12.383 -0.1284  0.4271  0.9087
  294TMC3    C4 4430   0.585   4.660  12.505 -0.4312  0.2146  0.1603
  294TMC3    C5 4431   0.498   4.634  12.402 -0.0525 -0.5340  0.8983
  294TMC3    C6 4432   0.502   4.511  12.347 -0.1881 -0.2372 -0.2417
  294TMC3     C 4433   0.803   4.597  12.600 -0.1672 -0.0501  0.0995
  294TMC3     O 4434   0.861   4.514  12.668  0.1955  0.5002  0.5456
  294TMC3     H 4435   0.761   4.371  12.499  0.9356  0.9752 -0.3199
  294TMC3    H1 4436   0.594   0.034  12.550 -0.4089  0.1166  0.3715
  294TMC3    H2 4437   0.430   4.474  12.275 -0.6583  0.8483 -0.3302
  294TMC3    C7 4438   0.461   0.021  12.317  0.1918  0.2090 -0.5400
  294TMC3    C8 4439   0.538   4.279  12.376 -0.4514 -0.3348 -0.3370
  294TMC3    O1 4440   0.393   0.110  12.358 -0.0453 -0.0683  0.3854
  294TMC3    O2 4441   0.553   4.211  12.478  0.4086 -0.5382 -0.0325
  295MPD2     C 4442   1.788   3.157   0.936 -0.4173  0.4163  0.8146
  295MPD2    C1 4443   1.752   3.090   0.820 -0.3473  0.4305  0.2903
  295MPD2    C2 4444   1.638   3.018   0.821 -0.7940  0.1220  0.3336
  295MPD2    C3 4445   1.553   3.022   0.932  0.2073 -0.3654 -0.6927
  295MPD2    C4 4446   1.589   3.092   1.043  0.2152  0.2925 -0.2566
  295MPD2    C5 4447   1.707   3.164   1.041 -0.4058 -0.1677 -0.3204
  295MPD2     H 4448   1.619   2.962   0.730 -0.4723  0.7889 -0.1430
  295MPD2    H1 4449   1.517   3.105   1.123 -0.7341  2.4677 -1.4676
  295MPD2    H2 4450   1.883   3.209   0.942 -0.0627  0.2370 -3.6332
  295MPD2    H3 4451   1.741   3.217   1.130  0.6769 -2.1845  0.4528
  295MPD2     N 4452   1.419   2.974   0.922  0.1092  0.2090  0.4506
  295MPD2    H5 4453   1.361   2.998   1.002 -0.6430 -1.3557  0.3843
  295MPD2    N1 4454   1.828   3.090   0.700 -0.0363  0.3114  0.3353
  295MPD2    H7 4455   1.790   3.035   0.624 -1.1013 -0.9630  1.7862
  296TMC3    C1 4456   1.211   2.953   0.817 -0.0182 -0.0445 -0.0471
  296TMC3    C2 4457   1.145   3.045   0.750 -0.5685 -1.0880  0.6095
  296TMC3    C3 4458   1.010   3.056   0.774 -0.6267 -0.5873 -0.6159
  296TMC3    C4 4459   1.148   2.870   0.903  0.0841 -0.4221 -0.6076
  296TMC3    C5 4460   1.014   2.882   0.921  0.1813 -0.4304  0.5404
  296TMC3    C6 4461   0.940   2.969   0.854 -0.2362 -0.1840 -0.2208
  296TMC3     C 4462   1.353   2.945   0.804  0.3307 -0.1394  0.4622
  296TMC3     O 4463   1.391   2.960   0.686 -0.0520  0.0552  0.2071
  296TMC3     H 4464   1.198   3.108   0.680  0.2040 -1.3042  1.0024
  296TMC3    H1 4465   1.214   2.816   0.971  1.1985  1.9632  0.2009
  296TMC3    H2 4466   0.832   2.966   0.851 -0.2129 -0.0280 -1.5296
  296TMC3    C7 4467   0.944   2.810   1.025 -0.1373 -0.4649  0.0337
  296TMC3    C8 4468   0.950   3.185   0.754 -0.0801 -0.0025  0.0479
  296TMC3    O1 4469   0.822   2.836   1.029  0.1055 -0.1799  0.1015
  296TMC3    O2 4470   0.833   3.198   0.777  0.7256 -0.0378 -0.1769
  297MPD2     C 4471   3.471   0.380  15.975 -0.5058  0.8781 -0.7488
  297MPD2    C1 4472   3.481   0.489  15.895 -0.5039 -0.3070 -0.3515
  297MPD2    C2 4473   3.592   0.572  15.894  0.7353 -1.0464  0.2891
  297MPD2    C3 4474   3.697   0.547  15.987 -0.5688 -0.8924  0.2432
  297MPD2    C4 4475   3.692   0.430  16.067 -0.0614 -0.2040  0.0252
  297MPD2    C5 4476   3.574   0.353  16.063 -0.6439  0.2083  0.5720
  297MPD2     H 4477   3.601   0.658  15.829 -0.5005 -1.3211 -0.2617
  297MPD2    H1 4478   3.773   0.396  16.131 -0.6091 -0.3891  0.6153
  297MPD2    H2 4479   3.385   0.315  15.982  1.3806 -1.6815 -1.1618
  297MPD2    H3 4480   3.561   0.270  16.131  0.1373 -2.4760 -2.6154
  297MPD2     N 4481   3.798   0.648  15.994  0.5103 -0.0659 -0.0877
  297MPD2    H5 4482   3.801   0.727  15.931 -4.7902 -0.2789 -0.6106
  297MPD2    N1 4483   3.384   0.516  15.796  0.5925  0.0013  0.2265
  297MPD2    H7 4484   3.383   0.609  15.755 -0.1965 -0.6563 -1.2678
  298TMC3    C1 4485   3.202   0.492  15.643  0.5575 -0.4503  0.4188
  298TMC3    C2 4486   3.219   0.441  15.517  0.0500 -0.2549  0.2142
  298TMC3    C3 4487   3.186   0.511  15.410  0.9629 -0.2826 -0.2833
  298TMC3    C4 4488   3.140   0.611  15.656 -0.7172 -0.1498  0.2635
  298TMC3    C5 4489   3.110   0.685  15.544  0.2759 -0.2221 -0.2860
  298TMC3    C6 4490   3.127   0.632  15.420  0.5597  0.2828 -0.4560
  298TMC3     C 4491   3.289   0.426  15.753 -0.2402 -0.0624 -0.5039
  298TMC3     O 4492   3.295   0.304  15.758  0.0295  0.8153 -0.6028
  298TMC3     H 4493   3.275   0.348  15.506 -0.6879 -0.8717  1.6336
  298TMC3    H1 4494   3.125   0.651  15.756 -2.3473  1.4950 -0.6184
  298TMC3    H2 4495   3.088   0.676  15.329 -0.9525 -1.7428 -0.7794
  298TMC3    C7 4496   3.029   0.811  15.565 -0.0997 -0.1487  0.4121
  298TMC3    C8 4497   3.267   0.473  15.289  0.9920 -0.2571 -0.5997
  298TMC3    O1 4498   2.988   0.857  15.670  0.0459 -0.4121  0.1342
  298TMC3    O2 4499   3.297   0.356  15.277 -0.0147 -0.4148 -0.0849
  299MPD2     C 4500   4.470   0.847  10.047  0.1766  0.1481 -0.1136
  299MPD2    C1 4501   4.452   0.739  10.130 -0.6331  0.1091 -0.1534
  299MPD2    C2 4502   4.350   0.747  10.225 -0.0774  0.3430 -0.4126
  299MPD2    C3 4503   4.260   0.853  10.226  0.5842 -0.9126  0.1786
  299MPD2    C4 4504   4.288   0.959  10.145  0.6204  0.3469 -0.1540
  299MPD2    C5 4505   4.391   0.957  10.059 -0.1081 -0.8400  0.0734
  299MPD2     H 4506   4.332   0.672  10.301 -0.2191 -0.7522 -1.5396
  299MPD2    H1 4507   4.222   1.045  10.143 -0.6114 -0.6269 -0.6288
  299MPD2    H2 4508   4.548   0.857   9.973  2.2769 -0.8592  1.9499
  299MPD2    H3 4509   4.422   1.042  10.000 -3.0868  2.4586  3.2513
  299MPD2     N 4510   4.154   0.865  10.319  0.6210 -0.5542 -0.8531
  299MPD2    H5 4511   4.121   0.957  10.344  0.4089 -0.9019  0.1755
  299MPD2    N1 4512   4.555   0.641  10.128  0.6000  0.5762 -0.4874
  299MPD2    H7 4513   4.633   0.658  10.067 -0.4222  2.6423 -1.2246
  300TMC3    C1 4514   3.989   0.793  10.468 -0.1032  0.3018 -0.5101
  300TMC3    C2 4515   4.001   0.894  10.554 -0.7443 -0.1515 -0.0261
  300TMC3    C3 4516   3.916   0.915  10.655  0.2596 -0.8154  0.3153
  300TMC3    C4 4517   3.901   0.693  10.494 -0.9082  0.3524  0.6778
  300TMC3    C5 4518   3.815   0.718  10.600 -0.2344  0.1396  0.5752
  300TMC3    C6 4519   3.813   0.833  10.674 -0.1033 -0.8395  0.4247
  300TMC3     C 4520   4.097   0.757  10.377  0.0396 -0.2151  0.1754
  300TMC3     O 4521   4.110   0.637  10.349  0.3571 -0.0710 -0.0328
  300TMC3     H 4522   4.095   0.948  10.546 -0.3399 -0.8294  0.1738
  300TMC3    H1 4523   3.913   0.600  10.441  0.2032  1.6389 -1.3097
  300TMC3    H2 4524   3.736   0.866  10.743  0.7096  0.0142  0.9206
  300TMC3    C7 4525   3.725   0.606  10.636  0.4971 -0.1172  0.2221
  300TMC3    C8 4526   3.924   1.021  10.751 -0.2760 -0.2864  0.2619
  300TMC3    O1 4527   3.744   0.503  10.571 -0.4370 -0.2567  0.1901
  300TMC3    O2 4528   3.832   1.032  10.835  0.2300  0.1738 -0.5059
  301MPD2     C 4529   1.547   1.120   1.351 -0.6805 -0.3341  0.6792
  301MPD2    C1 4530   1.436   1.104   1.268  0.4830 -0.0916  0.4888
  301MPD2    C2 4531   1.454   1.010   1.165  0.2138  0.3181  0.6939
  301MPD2    C3 4532   1.570   0.944   1.142 -0.4849  0.5703 -0.6811
  301MPD2    C4 4533   1.679   0.977   1.217 -0.8440 -0.2889 -0.0711
  301MPD2    C5 4534   1.669   1.066   1.318  0.2252 -0.2039 -0.4276
  301MPD2     H 4535   1.364   1.008   1.104  0.4373 -0.0962  0.3813
  301MPD2    H1 4536   1.775   0.935   1.190  0.8146  2.0828  2.1803
  301MPD2    H2 4537   1.557   1.192   1.432 -1.6823 -1.0009  1.3883
  301MPD2    H3 4538   1.766   1.100   1.353 -0.0442  0.5111 -0.3864
  301MPD2     N 4539   1.590   0.854   1.030  0.6871  0.1096  0.2645
  301MPD2    H5 4540   1.672   0.798   1.008 -0.8018 -3.3440  3.5599
  301MPD2    N1 4541   1.314   1.175   1.265  0.0156  0.3266 -0.3675
  301MPD2    H7 4542   1.244   1.138   1.201 -1.8225  1.6478  0.8962
  302TMC3    C1 4543   1.528   0.726   0.835 -0.3851  0.3497 -0.6978
  302TMC3    C2 4544   1.613   0.627   0.869 -0.1964 -0.6570 -0.3478
  302TMC3    C3 4545   1.649   0.539   0.775 -0.4350 -0.4618 -0.5510
  302TMC3    C4 4546   1.488   0.744   0.704  0.2521 -0.4535 -0.5231
  302TMC3    C5 4547   1.517   0.648   0.609 -0.1013  0.4747  0.1166
  302TMC3    C6 4548   1.604   0.549   0.644 -0.0131 -0.4200 -0.6408
  302TMC3     C 4549   1.490   0.830   0.933  0.2869 -0.3837  0.6734
  302TMC3     O 4550   1.394   0.898   0.894 -0.0380  0.4588  0.0940
  302TMC3     H 4551   1.646   0.614   0.972 -0.3987  1.5529  0.0089
  302TMC3    H1 4552   1.428   0.830   0.678  0.0743 -1.0050 -1.8972
  302TMC3    H2 4553   1.628   0.473   0.570 -0.6792 -2.6105  1.3766
  302TMC3    C7 4554   1.466   0.642   0.469 -1.3920 -0.4205  0.6535
  302TMC3    C8 4555   1.769   0.450   0.792 -0.5505  1.0118  0.7135
  302TMC3    O1 4556   1.483   0.548   0.395 -0.1940 -0.1258 -0.2639
  302TMC3    O2 4557   1.819   0.402   0.691 -0.3886 -0.6583 -0.3009
  303MPD2     C 4558   2.105   0.640  10.218  1.0981  0.2290  0.5192
  303MPD2    C1 4559   2.030   0.524  10.235  0.3398  0.2591 -0.0634
  303MPD2    C2 4560   2.011   0.442  10.127 -0.9968 -0.3578 -0.3832
  303MPD2    C3 4561   2.065   0.481   9.998  0.8872  0.2665 -0.2128
  303MPD2    C4 4562   2.154   0.582   9.992  0.3268 -0.3595  0.9438
  303MPD2    C5 4563   2.170   0.669  10.099 -0.7694  0.2566 -0.5762
  303MPD2     H 4564   1.952   0.353  10.143 -0.0051 -1.2576 -1.7552
  303MPD2    H1 4565   2.188   0.618   9.896  2.7079  0.7543  2.2099
  303MPD2    H2 4566   2.119   0.710  10.299 -1.3949  0.0458  1.1013
  303MPD2    H3 4567   2.240   0.751  10.082 -2.1205  0.9724 -2.7495
  303MPD2     N 4568   2.039   0.409   9.877 -0.0355 -0.1578  0.7235
  303MPD2    H5 4569   2.091   0.430   9.793 -0.5656  2.0185  0.9550
  303MPD2    N1 4570   1.971   0.500  10.363  0.6788  0.0960 -0.1856
  303MPD2    H7 4571   1.968   0.573  10.433 -1.9462 -1.2742  1.1408
  304TMC3    C1 4572   1.867   0.378  10.532 -0.1810  0.5979 -0.1819
  304TMC3    C2 4573   1.781   0.480  10.539  0.5390 -0.2847 -0.1703
  304TMC3    C3 4574   1.680   0.476  10.628  0.1703  0.2891 -0.4840
  304TMC3    C4 4575   1.839   0.264  10.606  0.2658  0.0745 -0.3198
  304TMC3    C5 4576   1.740   0.265  10.702  0.3026 -0.6748 -0.0442
  304TMC3    C6 4577   1.658   0.377  10.715 -0.1087  0.7342 -0.0712
  304TMC3     C 4578   1.954   0.374  10.415  0.4665  0.0821  0.4348
  304TMC3     O 4579   1.971   0.260  10.377 -0.0211 -0.4418 -0.2994
  304TMC3     H 4580   1.784   0.569  10.477 -1.1720  0.4639  0.8370
  304TMC3    H1 4581   1.887   0.171  10.576 -1.8247 -0.5708 -1.6815
  304TMC3    H2 4582   1.573   0.369  10.781  0.8041  2.6241  1.3212
  304TMC3    C7 4583   1.669   0.134  10.710  0.1982 -0.3971 -0.2510
  304TMC3    C8 4584   1.555   0.502  10.556  0.2342  0.1327  0.6232
  304TMC3    O1 4585   1.679   0.062  10.613  0.1612  0.2497  0.1844
  304TMC3    O2 4586   1.537   0.461  10.440  0.0670 -0.3325  0.0689
  305MPD2     C 4587   4.519   1.683  14.014  0.1012 -0.1641 -0.2194
  305MPD2    C1 4588   4.641   1.695  13.948 -0.5416  0.5360 -0.2589
  305MPD2    C2 4589   4.658   1.655  13.817  0.0830  0.6013 -0.1872
  305MPD2    C3 4590   4.554   1.599  13.740 -0.0636  0.3681 -0.2821
  305MPD2    C4 4591   4.437   1.580  13.807 -0.1520 -0.1382  0.3412
  305MPD2    C5 4592   4.421   1.626  13.939 -0.4144  0.1999  0.2117
  305MPD2     H 4593   0.030   1.659  13.770 -0.1169  0.7504 -0.5826
  305MPD2    H1 4594   4.349   1.542  13.756  0.0662  0.3588 -0.4161
  305MPD2    H2 4595   4.495   1.710  14.117 -2.1057  2.8571 -1.5212
  305MPD2    H3 4596   4.324   1.612  13.984  0.4610 -3.8484  0.8566
  305MPD2     N 4597   4.549   1.547  13.611 -0.4607 -0.0255  0.1839
  305MPD2    H5 4598   4.461   1.520  13.568 -0.7475  0.5368  0.4198
  305MPD2    N1 4599   0.039   1.733  14.003  0.5634  0.8789  0.2458
  305MPD2    H7 4600   0.124   1.720  13.951 -0.5038 -0.3350 -1.1782
  306TMC3    C1 4601   0.187   1.790  14.164 -0.1414  0.3160 -0.2985
  306TMC3    C2 4602   0.246   1.670  14.190 -0.3598  0.0854 -0.6017
  306TMC3    C3 4603   0.348   1.670  14.278  0.4400  0.0195  0.5519
  306TMC3    C4 4604   0.224   1.898  14.234 -0.0800 -0.8493  0.1138
  306TMC3    C5 4605   0.333   1.896  14.319 -0.1479 -0.2932  0.2854
  306TMC3    C6 4606   0.396   1.780  14.341 -0.0788 -0.1240  0.0215
  306TMC3     C 4607   0.043   1.781  14.135 -0.1113  0.0845  0.3667
  306TMC3     O 4608   4.679   1.828  14.207 -0.0252 -0.3475 -0.1260
  306TMC3     H 4609   0.232   1.579  14.134  2.1593 -0.4325 -0.3594
  306TMC3    H1 4610   0.159   1.984  14.220  1.7010  0.4671 -0.0912
  306TMC3    H2 4611   0.483   1.775  14.406  0.3046 -0.7386 -0.5437
  306TMC3    C7 4612   0.349   2.006  14.409  0.6713 -1.3703 -0.0822
  306TMC3    C8 4613   0.380   1.545  14.339  0.3741  0.5685 -0.8667
  306TMC3    O1 4614   0.294   2.107  14.378  0.4740 -0.2679 -0.1135
  306TMC3    O2 4615   0.498   1.516  14.367 -0.0371 -0.0397  0.4916
  307MPD2     C 4616   2.662   3.593   0.431  0.9385  0.0089 -0.4760
  307MPD2    C1 4617   2.652   3.728   0.454 -0.7196  0.0758  0.2946
  307MPD2    C2 4618   2.550   3.778   0.536  0.3525 -0.3420  0.8982
  307MPD2    C3 4619   2.452   3.691   0.584  0.0478 -0.4506  0.1034
  307MPD2    C4 4620   2.461   3.555   0.559  0.3897  0.0405 -0.2352
  307MPD2    C5 4621   2.566   3.513   0.483 -0.4486 -0.6904 -0.7631
  307MPD2     H 4622   2.546   3.884   0.558 -1.2830 -0.3334  0.5540
  307MPD2    H1 4623   2.387   3.479   0.584 -1.1392  1.6869  0.2260
  307MPD2    H2 4624   2.740   3.544   0.374  3.1625  1.0249  1.7114
  307MPD2    H3 4625   2.559   3.406   0.463  0.4035 -0.8128 -0.4127
  307MPD2     N 4626   2.333   3.743   0.633  0.1182  0.2868 -0.7367
  307MPD2    H5 4627   2.330   3.844   0.633 -1.2003  0.2456 -1.0055
  307MPD2    N1 4628   2.746   3.814   0.390  0.1048  0.1933  0.1693
  307MPD2    H7 4629   2.751   3.911   0.419 -1.6159  0.1310  0.6715
  308TMC3    C1 4630   1.879   3.797   0.703 -0.2079 -0.0249  0.2189
  308TMC3    C2 4631   1.894   3.932   0.730  0.0746  0.1752  1.2886
  308TMC3    C3 4632   2.024   3.969   0.757  0.0242  0.3569  0.4255
  308TMC3    C4 4633   1.985   3.707   0.708 -0.6550  0.8187  0.4031
  308TMC3    C5 4634   2.113   3.758   0.715 -0.0011 -0.0529  0.1726
  308TMC3    C6 4635   2.132   3.890   0.743  0.3642  0.1967  0.2843
  308TMC3     C 4636   1.764   3.755   0.615  0.1882 -0.0567  0.6427
  308TMC3     O 4637   1.730   3.639   0.613  0.0621 -0.1995  0.0169
  308TMC3     H 4638   1.816   4.006   0.715 -1.1085 -0.9991  1.6991
  308TMC3    H1 4639   1.975   3.605   0.673  0.0490  1.2817 -1.1772
  308TMC3    H2 4640   2.233   3.919   0.770  1.2167 -2.6597  0.1892
  308TMC3    C7 4641   2.226   3.672   0.681 -0.2520  0.3112 -0.2721
  308TMC3    C8 4642   2.048   4.111   0.772  1.3315  0.4026  0.8576
  308TMC3    O1 4643   2.227   3.564   0.734 -0.4220 -0.2268  0.2835
  308TMC3    O2 4644   2.161   4.157   0.761  0.0713  0.7453  0.3095
  309MPD2     C 4645   1.739   0.164  17.053  0.2143 -0.0296 -0.0158
  309MPD2    C1 4646   1.682   0.249  16.955 -0.1276 -1.0335  0.5121
  309MPD2    C2 4647   1.547   0.259  16.974  0.3009  0.1522  0.1369
  309MPD2    C3 4648   1.472   0.188  17.064 -0.2039 -0.6476  0.3856
  309MPD2    C4 4649   1.535   0.121  17.159 -0.4193 -0.7041  0.0546
  309MPD2    C5 4650   1.674   0.113  17.164  0.5281  0.7378  0.3496
  309MPD2     H 4651   1.500   0.315  16.894  0.4062 -0.1517 -0.1381
  309MPD2    H1 4652   1.485   0.079  17.245  0.1177  0.2382  0.8245
  309MPD2    H2 4653   1.847   0.162  17.051  0.2053  0.5498 -1.2803
  309MPD2    H3 4654   1.729   0.053  17.236 -0.4973  0.0651  0.5702
  309MPD2     N 4655   1.333   0.199  17.070 -0.3401 -0.4160  0.6051
  309MPD2    H5 4656   1.287   0.164  17.154 -1.5486  2.3181  1.0888
  309MPD2    N1 4657   1.747   0.307  16.841  0.0114  0.9027  0.2944
  309MPD2    H7 4658   1.697   0.362  16.772  0.9959  0.7358 -0.5469
  310TMC3    C1 4659   1.919   0.354  16.685  0.8866  0.0394 -0.9426
  310TMC3    C2 4660   1.825   0.448  16.643  0.2596 -0.0508  0.2727
  310TMC3    C3 4661   1.831   0.470  16.505 -0.2063 -0.0146  0.4093
  310TMC3    C4 4662   2.008   0.288  16.605 -0.5067  0.3524  0.4274
  310TMC3    C5 4663   2.002   0.314  16.474 -0.4052  0.1587 -0.3909
  310TMC3    C6 4664   1.904   0.395  16.423 -0.6124 -0.2411  0.4763
  310TMC3     C 4665   1.886   0.303  16.815 -0.0107  0.1531 -0.7014
  310TMC3     O 4666   1.977   0.244  16.866  0.6510  0.6516  0.0031
  310TMC3     H 4667   1.768   0.516  16.705  0.0155 -0.3049  0.3274
  310TMC3    H1 4668   2.075   0.213  16.646  0.8386  1.4301  0.1882
  310TMC3    H2 4669   1.865   0.387  16.322 -2.2885 -2.0025  1.2626
  310TMC3    C7 4670   2.101   0.250  16.386  0.3620 -0.2380  0.1291
  310TMC3    C8 4671   1.722   0.551  16.451 -0.5330  0.0888 -0.1405
  310TMC3    O1 4672   2.167   0.157  16.435 -0.4479  0.1971  0.2672
  310TMC3    O2 4673   1.614   0.543  16.506  0.0400 -0.2177 -0.5099
  311MPD2     C 4674   3.749   1.233  12.754 -0.0774  0.3800  0.7216
  311MPD2    C1 4675   3.769   1.366  12.760 -0.5618  0.1662 -0.6167
  311MPD2    C2 4676   3.660   1.448  12.791  0.0013 -0.5364 -0.5828
  311MPD2    C3 4677   3.535   1.405  12.819  0.0942 -0.9662  0.0257
  311MPD2    C4 4678   3.520   1.265  12.827 -0.3534 -0.0715 -0.3357
  311MPD2    C5 4679   3.623   1.181  12.793  0.3852 -0.4439  0.0126
  311MPD2     H 4680   3.678   1.554  12.781 -1.6426 -0.2073 -0.0544
  311MPD2    H1 4681   3.429   1.212  12.854  0.7846 -2.1429 -0.5943
  311MPD2    H2 4682   3.819   1.156  12.723 -0.5865  0.3276 -0.2995
  311MPD2    H3 4683   3.622   1.072  12.799 -0.8596 -0.3842  0.7639
  311MPD2     N 4684   3.438   1.499  12.861 -0.4150 -0.2414  0.0686
  311MPD2    H5 4685   3.476   1.593  12.869  1.5322 -0.6166 -4.5286
  311MPD2    N1 4686   3.894   1.426  12.727  0.2212 -0.3075 -0.2873
  311MPD2    H7 4687   3.911   1.525  12.712  1.6761 -0.4341  0.4716
  312TMC3    C1 4688   3.226   1.594  12.908 -0.8573  0.4842 -0.5950
  312TMC3    C2 4689   3.094   1.589  12.910 -0.4156 -0.1527  0.5187
  312TMC3    C3 4690   3.012   1.693  12.938  0.5109  0.2424  0.1739
  312TMC3    C4 4691   3.292   1.699  12.961 -0.0931  0.0384 -0.0612
  312TMC3    C5 4692   3.214   1.801  13.005 -0.2904 -0.1667 -0.3844
  312TMC3    C6 4693   3.078   1.808  12.980  0.5082  0.7570 -0.6095
  312TMC3     C 4694   3.300   1.477  12.863  0.5758 -0.7575  0.2858
  312TMC3     O 4695   3.245   1.384  12.810  0.4431  0.1967 -0.4090
  312TMC3     H 4696   3.048   1.494  12.882  0.0090  0.3621 -1.8856
  312TMC3    H1 4697   3.400   1.706  12.964 -0.1883  1.2619  0.8520
  312TMC3    H2 4698   3.026   1.900  13.003  3.6192  2.2807  0.3404
  312TMC3    C7 4699   3.277   1.920  13.065  0.4873  0.0578  0.1188
  312TMC3    C8 4700   2.871   1.677  12.904  0.0499 -0.6861  0.4900
  312TMC3    O1 4701   3.209   2.018  13.074  0.7624 -0.2242 -0.4606
  312TMC3    O2 4702   2.834   1.561  12.881  0.1419  0.4541 -0.3190
  313MPD2     C 4703   3.378   1.099  10.963 -0.1384 -0.0557 -0.4139
  313MPD2    C1 4704   3.284   1.008  11.002 -0.2544  0.4495 -0.1518
  313MPD2    C2 4705   3.277   0.898  10.931  0.0857 -0.5700  0.1196
  313MPD2    C3 4706   3.353   0.876  10.815 -0.3210  0.0098 -0.5079
  313MPD2    C4 4707   3.444   0.977  10.777 -0.8253  0.0278  0.4887
  313MPD2    C5 4708   3.464   1.079  10.858  0.5775  0.5381  0.7228
  313MPD2     H 4709   3.220   0.811  10.963 -0.7418 -0.4443 -0.9928
  313MPD2    H1 4710   3.520   0.977  10.700 -0.9069 -1.5817  0.4083
  313MPD2    H2 4711   3.401   1.187  11.022 -1.4805 -0.9716  1.4538
  313MPD2    H3 4712   3.530   1.161  10.831  1.7148 -0.9405 -0.9949
  313MPD2     N 4713   3.331   0.760  10.741 -1.2530  0.3639 -0.1159
  313MPD2    H5 4714   3.267   0.688  10.770 -0.8146 -0.0537 -0.1825
  313MPD2    N1 4715   3.209   1.027  11.120 -0.1330  0.6352  0.2793
  313MPD2    H7 4716   3.120   0.979  11.123  0.3416 -0.0117  4.2341
  314TMC3    C1 4717   3.104   1.157  11.291 -0.2670  0.4904  0.3853
  314TMC3    C2 4718   3.140   1.262  11.377  0.4189  0.1914 -0.4717
  314TMC3    C3 4719   3.098   1.392  11.353 -0.4242 -0.0350  0.6614
  314TMC3    C4 4720   2.997   1.184  11.203 -0.0472 -0.3558  0.1883
  314TMC3    C5 4721   2.958   1.313  11.181  0.3156 -0.3232  0.5559
  314TMC3    C6 4722   3.008   1.418  11.251  0.0981  0.2837  0.5173
  314TMC3     C 4723   3.233   1.118  11.216 -0.5200  0.1814 -0.2327
  314TMC3     O 4724   3.341   1.175  11.244 -0.5274  0.6220 -0.0221
  314TMC3     H 4725   3.218   1.241  11.449 -0.2570 -1.1534 -0.1364
  314TMC3    H1 4726   2.974   1.113  11.125 -0.0903  0.6780 -0.7497
  314TMC3    H2 4727   2.985   1.520  11.224  0.0177  0.0470 -0.3155
  314TMC3    C7 4728   2.883   1.332  11.052  0.2931  0.4552  0.7709
  314TMC3    C8 4729   3.188   1.497  11.382 -0.1254 -0.5077 -0.4696
  314TMC3    O1 4730   2.774   1.280  11.036 -0.1250 -0.3465  0.0476
  314TMC3    O2 4731   3.159   1.604  11.335 -0.4798  0.2811  0.5074
  315MPD2     C 4732   2.722   0.147  16.721  0.0287  0.6909  0.9986
  315MPD2    C1 4733   2.752   0.221  16.837  0.0362  0.0843 -0.9220
  315MPD2    C2 4734   2.726   0.357  16.837 -0.0614  0.3460  0.1288
  315MPD2    C3 4735   2.680   0.424  16.721 -0.0187  0.2702  0.1223
  315MPD2    C4 4736   2.647   0.347  16.613 -0.3934  0.3881 -0.0742
  315MPD2    C5 4737   2.666   0.211  16.617  0.6238  0.7748 -0.3213
  315MPD2     H 4738   2.736   0.421  16.924 -3.7976 -0.6990  1.3681
  315MPD2    H1 4739   2.607   0.389  16.522  0.6901 -0.4386 -0.9294
  315MPD2    H2 4740   2.715   0.038  16.717 -2.6727  0.9336 -0.7041
  315MPD2    H3 4741   2.645   0.144  16.534  1.7774 -0.0938  0.0893
  315MPD2     N 4742   2.661   0.562  16.727 -0.1042  0.0887  0.6598
  315MPD2    H5 4743   2.674   0.609  16.816 -0.4588 -0.2781  0.9084
  315MPD2    N1 4744   2.787   0.153  16.956  0.7089  0.1469 -0.2634
  315MPD2    H7 4745   2.792   0.211  17.039  2.6477  1.0064 -0.9716
  316TMC3    C1 4746   2.640   0.783  16.664 -0.8076  0.4465  0.2099
  316TMC3    C2 4747   2.717   0.821  16.769  0.0658  0.1204  1.0010
  316TMC3    C3 4748   2.697   0.947  16.828 -0.4097  0.3134  0.4434
  316TMC3    C4 4749   2.551   0.872  16.614  0.4720 -0.2245  0.0685
  316TMC3    C5 4750   2.535   0.996  16.674 -0.3786 -0.1857 -0.1715
  316TMC3    C6 4751   2.606   1.037  16.784  0.5668  0.1849  0.2508
  316TMC3     C 4752   2.633   0.645  16.624  0.6083  0.1677 -0.2315
  316TMC3     O 4753   2.564   0.617  16.529  0.2191 -0.6625  0.7861
  316TMC3     H 4754   2.793   0.745  16.789 -1.2818 -1.4239  0.2950
  316TMC3    H1 4755   2.490   0.851  16.528  1.8076  0.4986 -1.0479
  316TMC3    H2 4756   2.603   1.139  16.822  2.5393  0.0439  0.7653
  316TMC3    C7 4757   2.434   1.085  16.618  0.3887  0.2090 -0.1378
  316TMC3    C8 4758   2.777   0.981  16.949  0.4688  0.4503 -0.0167
  316TMC3    O1 4759   2.372   1.160  16.692  0.1170 -0.1841 -0.2575
  316TMC3    O2 4760   2.773   1.095  16.987 -0.2444  0.1844  0.6010
  317MPD2     C 4761   0.104   3.533  12.946 -0.0167  0.1121 -0.8105
  317MPD2    C1 4762   0.084   3.394  12.936  0.0739  0.6297 -0.3495
  317MPD2    C2 4763   0.118   3.311  13.043  0.6301  0.0689  0.4754
  317MPD2    C3 4764   0.167   3.360  13.159  0.0195  0.5818 -0.2282
  317MPD2    C4 4765   0.168   3.498  13.169 -0.1006  0.5193  0.0685
  317MPD2    C5 4766   0.137   3.584  13.068  0.1511 -0.5252 -0.1285
  317MPD2     H 4767   0.104   3.204  13.036 -3.3597  0.6823 -1.3102
  317MPD2    H1 4768   0.190   3.548  13.263  2.8848 -0.5350 -0.0644
  317MPD2    H2 4769   0.070   3.604  12.870  0.5247 -0.4312 -1.5648
  317MPD2    H3 4770   0.120   3.689  13.089 -0.0054 -0.6048  0.1497
  317MPD2     N 4771   0.214   3.274  13.263 -0.2284  0.5663  0.9654
  317MPD2    H5 4772   0.194   3.175  13.255  0.6247  0.3729  1.1691
  317MPD2    N1 4773   0.027   3.334  12.821  0.1211 -0.0823  0.4757
  317MPD2    H7 4774   0.033   3.233  12.831 -1.7643 -0.2166  0.3132
  318TMC3    C1 4775   0.312   3.194  13.456 -0.2472 -0.7372  0.2081
  318TMC3    C2 4776   0.208   3.111  13.483 -0.1458 -0.6916 -0.3227
  318TMC3    C3 4777   0.232   3.002  13.558  0.8766  0.0052 -0.0706
  318TMC3    C4 4778   0.434   3.184  13.523  0.4685  0.1763 -0.2396
  318TMC3    C5 4779   0.442   3.080  13.620 -0.2196 -0.2813  0.2544
  318TMC3    C6 4780   0.342   2.988  13.634 -0.0118  0.3654  0.7614
  318TMC3     C 4781   0.286   3.310  13.373  0.3421  0.8042  0.0960
  318TMC3     O 4782   0.328   3.420  13.398  0.2984  0.0542  0.0432
  318TMC3     H 4783   0.109   3.117  13.439  0.7418 -1.2708 -2.4321
  318TMC3    H1 4784   0.522   3.242  13.499  2.3152 -1.7252  1.9101
  318TMC3    H2 4785   0.344   2.910  13.710 -1.5324  0.9623  1.4106
  318TMC3    C7 4786   0.567   3.041  13.670 -0.0389 -0.6524 -0.3780
  318TMC3    C8 4787   0.130   2.905  13.582  0.6510  0.1973 -1.0602
  318TMC3    O1 4788   0.666   3.032  13.591  0.1794  0.0899 -0.2243
  318TMC3    O2 4789   0.102   2.864  13.693  0.3275  0.5491  0.4160
  319MPD2     C 4790   1.491   4.308  16.341  0.5352 -0.1140 -0.1888
  319MPD2    C1 4791   1.394   4.305  16.444 -0.6505 -0.0493 -0.0640
  319MPD2    C2 4792   1.274   4.264  16.404 -0.2352  0.6020 -0.2505
  319MPD2    C3 4793   1.239   4.236  16.271  0.1817  0.5876  0.1949
  319MPD2    C4 4794   1.334   4.252  16.173 -0.3445  0.6218  0.0168
  319MPD2    C5 4795   1.460   4.290  16.209 -0.3753 -0.6361 -0.3403
  319MPD2     H 4796   1.202   4.246  16.483  0.2928  0.6767  0.2422
  319MPD2    H1 4797   1.300   4.244  16.070  1.7664  0.5108 -0.6526
  319MPD2    H2 4798   1.598   4.318  16.354  0.6696  0.3386 -1.6125
  319MPD2    H3 4799   1.530   4.291  16.127  2.3804  0.4611  2.0142
  319MPD2     N 4800   1.108   4.191  16.239 -1.0046 -0.2010 -0.0419
  319MPD2    H5 4801   1.094   4.171  16.141  1.2823  2.7520 -0.9516
  319MPD2    N1 4802   1.411   4.337  16.577 -0.1432 -0.4740 -0.1871
  319MPD2    H7 4803   1.327   4.348  16.633  0.4790  2.5452  0.1433
  320TMC3    C1 4804   0.874   4.163  16.247  0.2387  0.0692  0.3854
  320TMC3    C2 4805   0.855   4.229  16.128 -0.0142 -0.4006 -0.2770
  320TMC3    C3 4806   0.731   4.270  16.102 -0.1536 -0.4464  0.2588
  320TMC3    C4 4807   0.767   4.134  16.324  0.2031  0.0628 -0.6087
  320TMC3    C5 4808   0.641   4.157  16.284  0.9280  0.0725 -0.0652
  320TMC3    C6 4809   0.618   4.232  16.166 -0.2910  0.1382  0.5645
  320TMC3     C 4810   0.993   4.197  16.320 -0.2199  0.4927 -0.4761
  320TMC3     O 4811   0.981   4.185  16.441  0.4482 -0.2082  0.7250
  320TMC3     H 4812   0.940   4.256  16.066 -0.1941  0.0618 -0.3232
  320TMC3    H1 4813   0.787   4.072  16.410 -0.2686  1.0977  0.2438
  320TMC3    H2 4814   0.518   4.248  16.127 -1.2258 -0.3707  2.7258
  320TMC3    C7 4815   0.542   4.050  16.305 -0.4432 -0.0298 -0.4275
  320TMC3    C8 4816   0.706   4.335  15.974 -0.4948  0.1325 -0.4984
  320TMC3    O1 4817   0.472   4.025  16.203 -0.1728  0.4938  0.0703
  320TMC3    O2 4818   0.785   4.313  15.883  0.1515 -1.0128 -0.3356
  321TMC3    C1 4819   1.533   4.403  16.766  0.5597  0.2887 -0.3087
  321TMC3    C2 4820   1.429   4.361  16.850 -0.4880 -0.6048  0.4589
  321TMC3    C3 4821   1.431   4.385  16.986 -0.2822 -0.0253  0.8305
  321TMC3    C4 4822   1.638   4.464  16.831  0.2497  0.2900  0.6034
  321TMC3    C5 4823   1.636   4.493  16.966  0.1399  0.5171 -0.4056
  321TMC3    C6 4824   1.529   4.456  17.040 -0.5729  0.1122  0.3061
  321TMC3     C 4825   1.530   4.374  16.622 -0.6305 -0.0901  0.5208
  321TMC3     O 4826   1.628   4.406  16.559 -0.2185  0.3407  0.1678
  321TMC3     H 4827   1.344   4.303  16.816 -0.2735 -1.2971  1.0912
  321TMC3    H1 4828   1.731   4.487  16.780 -0.5410 -0.0514 -0.9930
  321TMC3    H2 4829   1.526   4.489  17.143  2.9028  0.7273  0.2257
  321TMC3    C7 4830   1.755   4.469  17.035  0.4275  0.3030  0.2305
  321TMC3    C8 4831   1.399   4.273  17.061  0.4499 -0.3992  0.5921
  321TMC3    O1 4832   1.738   4.412  17.142 -0.4274  0.1040 -0.4992
  321TMC3    O2 4833   1.300   4.205  17.039 -0.1563  0.4931  0.0382
  322MPD2     C 4834   4.484   0.982  13.577  0.0855 -0.2208 -0.3053
  322MPD2    C1 4835   4.552   0.901  13.670  0.8580 -0.5246 -0.8797
  322MPD2    C2 4836   4.655   0.818  13.625 -0.4404  0.0241 -0.3767
  322MPD2    C3 4837   4.676   0.798  13.488 -0.0932  0.9470 -0.4229
  322MPD2    C4 4838   4.588   0.857  13.399  0.5930 -0.1501 -0.4462
  322MPD2    C5 4839   4.494   0.948  13.446  0.4272 -0.4361 -0.5836
  322MPD2     H 4840   4.708   0.755  13.695  1.0444  2.1075  0.3538
  322MPD2    H1 4841   4.596   0.844  13.292  1.5704 -0.9420 -0.2791
  322MPD2    H2 4842   4.420   1.061  13.615 -1.8475 -0.4007 -3.1428
  322MPD2    H3 4843   4.434   1.000  13.373  0.8880 -0.2573 -0.8329
  322MPD2     N 4844   0.053   0.711  13.448 -0.3030 -0.5932  0.2789
  322MPD2    H5 4845   0.114   0.688  13.526 -1.8467  0.8442  1.9150
  322MPD2    N1 4846   4.532   0.918  13.811  0.8957 -0.6561 -0.3056
  322MPD2    H7 4847   4.487   1.003  13.844 -1.6977 -2.2029  0.1118
  323TMC3    C1 4848   4.561   0.861  14.039 -0.0615 -0.3191  0.2780
  323TMC3    C2 4849   4.570   0.998  14.070 -0.1392  0.1329  0.5150
  323TMC3    C3 4850   4.627   1.036  14.191 -0.3001  0.2417 -0.2073
  323TMC3    C4 4851   4.595   0.767  14.136  0.2034 -0.2288  0.5842
  323TMC3    C5 4852   4.632   0.811  14.260 -0.1649  0.0825 -0.5649
  323TMC3    C6 4853   4.640   0.945  14.291 -0.5234 -0.5626  0.1395
  323TMC3     C 4854   4.569   0.821  13.899  0.8870 -0.4118 -0.4385
  323TMC3     O 4855   4.607   0.704  13.879 -0.3040 -0.1908  0.2640
  323TMC3     H 4856   4.553   1.068  13.990  0.1911  0.7738  0.9997
  323TMC3    H1 4857   4.597   0.662  14.107 -0.7748 -0.0065 -0.2425
  323TMC3    H2 4858   4.678   0.984  14.386 -0.0931 -1.0464  0.1652
  323TMC3    C7 4859   0.019   0.741  14.310 -0.2616  0.0432  0.5489
  323TMC3    C8 4860   0.029   1.111  14.179 -0.3586  0.7822 -0.3575
  323TMC3    O1 4861   0.064   0.658  14.233 -0.2348 -0.1561 -0.1978
  323TMC3    O2 4862   0.124   1.079  14.253 -0.5335 -0.3322 -0.7310
  324MPD2     C 4863   1.093   1.923  14.266 -0.5550 -1.0544  0.2426
  324MPD2    C1 4864   1.047   2.032  14.340 -0.3694  0.3536  0.4467
  324MPD2    C2 4865   0.916   2.070  14.327  0.5209 -0.5547  0.1414
  324MPD2    C3 4866   0.835   2.024  14.226 -0.0024  0.1205  0.3204
  324MPD2    C4 4867   0.887   1.927  14.142  0.3880 -0.5768 -0.4466
  324MPD2    C5 4868   1.011   1.873  14.161 -0.0841 -0.6251  0.0247
  324MPD2     H 4869   0.881   2.146  14.396  1.5907  0.0451  0.0151
  324MPD2    H1 4870   0.837   1.892  14.053 -0.2591 -1.6288  0.3432
  324MPD2    H2 4871   1.195   1.888  14.255 -1.0011 -2.3246  0.1261
  324MPD2    H3 4872   1.052   1.798  14.094 -1.3044  0.3041 -1.7897
  324MPD2     N 4873   0.702   2.069  14.200  0.4168  0.3400  0.0511
  324MPD2    H5 4874   0.651   2.011  14.134  0.3047  1.7814 -1.1324
  324MPD2    N1 4875   1.129   2.113  14.421 -0.9169 -0.5754  0.1231
  324MPD2    H7 4876   1.097   2.201  14.461 -3.1821 -1.0208 -0.6887
  325TMC3    C1 4877   0.513   2.206  14.177  0.7830  0.1484 -0.6198
  325TMC3    C2 4878   0.453   2.113  14.106 -0.0325  0.4607 -0.2628
  325TMC3    C3 4879   0.343   2.141  14.025  0.1214  0.4890  0.4210
  325TMC3    C4 4880   0.469   2.335  14.187 -0.0951 -0.0042 -0.2634
  325TMC3    C5 4881   0.364   2.363  14.107 -0.4785  0.4869 -0.3166
  325TMC3    C6 4882   0.285   2.268  14.039 -0.1439  0.1691  0.2699
  325TMC3     C 4883   0.638   2.178  14.248  0.5238  0.2012  0.7732
  325TMC3     O 4884   0.676   2.264  14.329  0.4649  0.3003  1.0755
  325TMC3     H 4885   0.484   2.009  14.100 -1.6077 -0.1397  2.3324
  325TMC3    H1 4886   0.539   2.412  14.219 -1.2886  0.2158  1.7753
  325TMC3    H2 4887   0.197   2.301  13.984 -0.2335 -0.8800 -0.2189
  325TMC3    C7 4888   0.329   2.502  14.073 -0.2538 -0.1318  0.4018
  325TMC3    C8 4889   0.350   2.097  13.887 -0.0673  0.2298  0.0241
  325TMC3    O1 4890   0.228   2.526  14.009 -0.6289  0.1973 -0.0676
  325TMC3    O2 4891   0.441   2.024  13.857  0.4277 -0.2153  0.5364
  326MPD2     C 4892   1.955   3.725  11.023 -0.4294 -0.1394  0.8232
  326MPD2    C1 4893   2.044   3.623  11.012 -0.4054  0.7424 -0.5338
  326MPD2    C2 4894   2.178   3.644  11.040 -0.1186 -0.3675  0.1414
  326MPD2    C3 4895   2.225   3.768  11.082 -0.6518 -0.0028 -0.0115
  326MPD2    C4 4896   2.136   3.873  11.086  0.2409 -0.3167  0.5813
  326MPD2    C5 4897   2.005   3.849  11.059  0.0206  0.1250  0.5665
  326MPD2     H 4898   2.237   3.553  11.045 -0.0702 -0.5161 -2.7375
  326MPD2    H1 4899   2.166   3.972  11.120 -1.1623 -0.0566  1.0721
  326MPD2    H2 4900   1.855   3.721  10.982 -1.0593  4.2020  1.9212
  326MPD2    H3 4901   1.945   3.940  11.056  0.4014  0.4718  3.0083
  326MPD2     N 4902   2.358   3.795  11.126 -0.0305  0.0554 -0.1664
  326MPD2    H5 4903   2.381   3.893  11.139  2.9940 -0.3714 -2.3767
  326MPD2    N1 4904   2.010   3.493  10.968 -0.0179 -0.5012 -0.3720
  326MPD2    H7 4905   2.085   3.424  10.975  1.8507  1.8544  2.7768
  327TMC3    C1 4906   1.922   3.325  10.821  0.0550 -0.0029 -0.1715
  327TMC3    C2 4907   1.913   3.337  10.688 -0.2282 -0.6895 -0.2899
  327TMC3    C3 4908   1.933   3.230  10.609  0.3430  0.2199 -0.0436
  327TMC3    C4 4909   1.967   3.214  10.882 -0.4966  0.0375 -0.0198
  327TMC3    C5 4910   1.982   3.105  10.801  0.1789 -0.0804  0.0907
  327TMC3    C6 4911   1.966   3.112  10.668 -0.4811  0.7617  0.1735
  327TMC3     C 4912   1.896   3.454  10.899  0.0172  0.1490 -0.0011
  327TMC3     O 4913   1.808   3.529  10.856  0.3990 -0.5633  0.7499
  327TMC3     H 4914   1.874   3.427  10.642  2.0542  1.9985  3.0157
  327TMC3    H1 4915   1.965   3.205  10.990 -1.4148 -0.8562 -0.1104
  327TMC3    H2 4916   1.998   3.031  10.604 -2.5136  1.8169 -2.1887
  327TMC3    C7 4917   2.074   3.003  10.834  0.3045  0.6473 -0.5686
  327TMC3    C8 4918   1.967   3.261  10.468  0.2081  0.5260  0.2817
  327TMC3    O1 4919   2.073   2.906  10.765 -0.0451 -0.2217  0.2537
  327TMC3    O2 4920   1.949   3.374  10.430 -0.1118 -0.2338 -0.4602
  328MPD2     C 4921   0.439   3.012  17.327  0.6065 -0.2890 -0.3668
  328MPD2    C1 4922   0.381   2.977  17.204  1.0007 -0.3054 -0.0035
  328MPD2    C2 4923   0.396   3.064  17.096 -0.3960 -0.2312 -0.8616
  328MPD2    C3 4924   0.461   3.183  17.119  0.1679 -0.4872  0.2571
  328MPD2    C4 4925   0.513   3.219  17.239 -0.0874 -0.1714 -0.1201
  328MPD2    C5 4926   0.506   3.131  17.339  0.3592 -0.2247  0.0397
  328MPD2     H 4927   0.357   3.046  16.997 -1.3756  0.2352 -0.5663
  328MPD2    H1 4928   0.559   3.316  17.257 -1.0674  0.3225 -0.2372
  328MPD2    H2 4929   0.435   2.950  17.416  0.1259  0.0690 -0.1410
  328MPD2    H3 4930   0.564   3.149  17.429 -1.0423 -0.2364  0.9470
  328MPD2     N 4931   0.447   3.284  17.021 -0.3290  0.0811 -0.0076
  328MPD2    H5 4932   0.473   3.379  17.046  1.3663 -0.3389 -0.1203
  328MPD2    N1 4933   0.316   2.853  17.197  0.4694 -0.6675 -0.1427
  328MPD2    H7 4934   0.326   2.796  17.280 -0.9510 -0.3023  0.2808
  329TMC3    C1 4935   0.240   2.656  17.094 -0.3217 -0.2528 -0.6372
  329TMC3    C2 4936   0.240   2.602  17.222 -0.0904 -0.0431 -0.8759
  329TMC3    C3 4937   0.261   2.469  17.238 -0.2150 -0.7112  0.2006
  329TMC3    C4 4938   0.233   2.581  16.981  0.1473 -0.3897 -0.9993
  329TMC3    C5 4939   0.242   2.442  16.997 -0.2878 -0.5904 -0.2219
  329TMC3    C6 4940   0.277   2.390  17.121 -0.2525 -0.7432 -0.3319
  329TMC3     C 4941   0.262   2.800  17.082  0.3838 -0.5352 -0.7726
  329TMC3     O 4942   0.242   2.847  16.969 -0.6595  0.7299 -0.2908
  329TMC3     H 4943   0.226   2.663  17.310 -0.7405  1.3364 -1.9483
  329TMC3    H1 4944   0.225   2.619  16.880  0.4044  2.2607 -0.0176
  329TMC3    H2 4945   0.298   2.285  17.140  1.0028 -1.1841 -4.0605
  329TMC3    C7 4946   0.271   2.360  16.884 -0.2131 -0.2414  0.4328
  329TMC3    C8 4947   0.226   2.396  17.363  0.4431  0.0415  0.1521
  329TMC3    O1 4948   0.350   2.263  16.889 -0.2454 -0.1469  0.0083
  329TMC3    O2 4949   0.210   2.276  17.355  0.5551  0.0302 -0.4563
  330TMC3    C1 4950   3.854   2.330  10.189  0.6517  0.1072 -1.1607
  330TMC3    C2 4951   3.885   2.278  10.068  0.3906 -0.6934  0.3836
  330TMC3    C3 4952   3.921   2.145  10.073 -0.1134 -0.1524 -0.0836
  330TMC3    C4 4953   3.844   2.258  10.303  0.6986 -0.5722  0.0373
  330TMC3    C5 4954   3.875   2.123  10.298  0.0584 -0.1437 -0.3873
  330TMC3    C6 4955   3.915   2.071  10.185 -0.4087  0.2926 -0.1536
  330TMC3     C 4956   3.798   2.464  10.202 -0.6299  0.0888  0.3694
  330TMC3     O 4957   3.810   2.527  10.309  0.6082 -0.4875  0.1973
  330TMC3     H 4958   3.895   2.338   9.977 -1.0565  1.5161  1.6826
  330TMC3    H1 4959   3.800   2.305  10.390 -0.2299 -1.5234  0.0905
  330TMC3    H2 4960   3.929   1.965  10.169  0.0549  0.4669 -0.8801
  330TMC3    C7 4961   3.897   2.055  10.420  0.9314 -0.4163  0.0102
  330TMC3    C8 4962   3.910   2.068   9.953  0.2007 -0.0975  0.0824
  330TMC3    O1 4963   3.920   2.121  10.520 -0.2693  0.2301 -0.2559
  330TMC3    O2 4964   3.984   1.975   9.925  0.1959  0.1357 -0.1146
  331MPD2     C 4965   0.873   1.849  12.611  0.0121  0.2052 -0.6107
  331MPD2    C1 4966   1.008   1.868  12.591 -0.2537  0.0876 -0.2056
  331MPD2    C2 4967   1.074   1.789  12.491  0.0925 -0.4020 -0.5158
  331MPD2    C3 4968   0.993   1.729  12.395 -0.0442  0.1344 -0.2830
  331MPD2    C4 4969   0.856   1.720  12.409  0.4666 -0.4413  0.0533
  331MPD2    C5 4970   0.795   1.782  12.522 -0.2637 -0.3347  0.3831
  331MPD2     H 4971   1.180   1.808  12.474 -0.2017  1.9992  0.3580
  331MPD2    H1 4972   0.811   1.663  12.329  3.8188  0.1261 -2.2289
  331MPD2    H2 4973   0.821   1.898  12.692  1.7786 -1.8007  1.7322
  331MPD2    H3 4974   0.689   1.785  12.542 -0.5893  1.8787 -1.7642
  331MPD2     N 4975   1.065   1.677  12.280  0.5553  0.3547  0.3641
  331MPD2    H5 4976   1.166   1.672  12.285  0.5847  0.2315 -0.4254
  331MPD2    N1 4977   1.078   1.960  12.673  0.2042  0.7272 -0.4400
  331MPD2    H7 4978   1.038   1.968  12.766  0.8198  4.0308 -0.4704
  332TMC3    C1 4979   1.101   1.642  12.061  0.4719 -0.1631 -0.3185
  332TMC3    C2 4980   1.163   1.741  11.992 -0.0395 -0.3378 -0.0275
  332TMC3    C3 4981   1.287   1.717  11.945 -0.3342 -0.5217 -0.0102
  332TMC3    C4 4982   1.161   1.522  12.092  0.2664  0.0508  0.7314
  332TMC3    C5 4983   1.289   1.511  12.056  1.0823 -0.0169  0.9209
  332TMC3    C6 4984   1.351   1.600  11.976 -0.4420  0.1346  0.5381
  332TMC3     C 4985   1.001   1.675  12.158  0.2130  0.0498 -0.2422
  332TMC3     O 4986   0.914   1.748  12.119  0.6496  0.0312  0.1940
  332TMC3     H 4987   1.115   1.837  11.974  0.0860 -0.4089 -0.7422
  332TMC3    H1 4988   1.107   1.440  12.137 -0.5841  1.2617  1.9392
  332TMC3    H2 4989   1.457   1.591  11.954 -0.3108  0.3667  1.0692
  332TMC3    C7 4990   1.358   1.382  12.069  0.1684 -0.2781 -0.0264
  332TMC3    C8 4991   1.364   1.834  11.902  0.2155 -0.3533  0.2740
  332TMC3    O1 4992   1.290   1.283  12.095 -0.0220 -0.4231  0.4826
  332TMC3    O2 4993   1.465   1.856  11.966  0.3390  0.2462  0.2225
  333MPD2     C 4994   1.260   2.018  10.946  0.1602  0.0454  0.2418
  333MPD2    C1 4995   1.314   1.918  10.861 -0.0344 -0.1298 -0.8969
  333MPD2    C2 4996   1.335   1.791  10.908  0.1808 -0.5991  0.5414
  333MPD2    C3 4997   1.295   1.758  11.037  0.7060 -0.3684  0.5169
  333MPD2    C4 4998   1.236   1.849  11.120 -0.0596 -0.9354 -0.5636
  333MPD2    C5 4999   1.231   1.982  11.074  0.2821 -0.0236 -0.6079
  333MPD2     H 5000   1.373   1.710  10.846 -1.2012 -0.7425 -0.1182
  333MPD2    H1 5001   1.216   1.825  11.224 -0.6327 -2.1647 -0.9538
  333MPD2    H2 5002   1.238   2.121  10.919  1.7920  0.7272  1.4796
  333MPD2    H3 5003   1.206   2.063  11.142 -0.0960 -0.1641 -0.5777
  333MPD2     N 5004   1.313   1.621  11.078  0.1093 -0.1385  0.6444
  333MPD2    H5 5005   1.382   1.569  11.023 -0.4834 -1.0854  0.7991
  333MPD2    N1 5006   1.344   1.958  10.728  0.2957  0.1088 -0.9363
  333MPD2    H7 5007   1.331   2.055  10.701  0.7562  0.3998 -0.1333
  334TMC3    C1 5008   1.434   1.980  10.522 -0.2065 -0.3722 -0.0132
  334TMC3    C2 5009   1.550   1.961  10.446  0.5976 -0.2088 -0.1354
  334TMC3    C3 5010   1.578   2.049  10.349  0.6593  0.0855  0.4884
  334TMC3    C4 5011   1.338   2.075  10.485  0.4959 -0.5449  0.3355
  334TMC3    C5 5012   1.372   2.158  10.383 -0.0185  0.0476  0.6132
  334TMC3    C6 5013   1.491   2.155  10.314 -0.3615 -0.4605 -0.0443
  334TMC3     C 5014   1.409   1.886  10.630 -0.0349  0.1555 -0.4802
  334TMC3     O 5015   1.470   1.778  10.636 -0.0739 -0.6859  0.0179
  334TMC3     H 5016   1.621   1.882  10.470  2.7079  0.8330 -2.8918
  334TMC3    H1 5017   1.247   2.093  10.540 -0.8610 -1.0644 -1.7313
  334TMC3    H2 5018   1.537   2.238  10.261  3.2624 -1.8086  0.9714
  334TMC3    C7 5019   1.296   2.282  10.367  0.2567  0.1324  0.0521
  334TMC3    C8 5020   1.711   2.075  10.299  0.3566 -0.6991  0.3250
  334TMC3    O1 5021   1.225   2.320  10.458 -0.1271  0.5217 -0.2247
  334TMC3    O2 5022   1.728   2.127  10.191 -0.6170 -0.9917 -0.1176
  335TMC3    C1 5023   1.393   3.286  17.520 -0.0961  0.4511  0.5370
  335TMC3    C2 5024   1.317   3.257  17.408 -1.2427 -1.2089 -0.1962
  335TMC3    C3 5025   1.373   3.224  17.280 -0.2049  0.6039 -0.4957
  335TMC3    C4 5026   1.528   3.278  17.508  0.4423  0.0945 -0.3496
  335TMC3    C5 5027   1.582   3.264  17.384  0.2409  1.0045  0.0495
  335TMC3    C6 5028   1.511   3.226  17.274 -0.3411  0.2950  0.7191
  335TMC3     C 5029   1.339   3.281  17.654  0.3823 -1.0687 -0.3855
  335TMC3     O 5030   1.411   3.230   0.040  0.5731 -0.4507 -0.3220
  335TMC3     H 5031   1.209   3.256  17.412 -1.2401  0.0424  0.0544
  335TMC3    H1 5032   1.583   3.307  17.598 -1.5251  1.5647  0.3876
  335TMC3    H2 5033   1.556   3.201  17.178  1.9253  0.6651  1.6959
  335TMC3    C7 5034   1.712   3.205  17.369  0.9899 -0.0410  0.8679
  335TMC3    C8 5035   1.296   3.199  17.155 -0.4420 -0.9380  0.1006
  335TMC3    O1 5036   1.739   3.139  17.267 -0.3656 -0.0466  0.1783
  335TMC3    O2 5037   1.359   3.199  17.049 -0.0911 -0.7249 -0.2637
  336MPD2     C 5038   0.859   0.659  16.252 -0.1467 -0.2306  0.0481
  336MPD2    C1 5039   0.820   0.623  16.122 -0.1358 -0.3553  0.6351
  336MPD2    C2 5040   0.809   0.497  16.081  0.0505  0.4040 -0.2309
  336MPD2    C3 5041   0.834   0.395  16.170 -0.6925 -0.8935 -0.0891
  336MPD2    C4 5042   0.854   0.426  16.302  0.0811  0.3978  0.6598
  336MPD2    C5 5043   0.879   0.553  16.336 -0.7451  0.1315  0.0865
  336MPD2     H 5044   0.788   0.477  15.977  1.1131 -1.5284 -0.0701
  336MPD2    H1 5045   0.865   0.339  16.366 -3.3779  0.8520  1.8591
  336MPD2    H2 5046   0.867   0.761  16.288  1.4624  0.1545 -1.4613
  336MPD2    H3 5047   0.888   0.580  16.441 -2.0674  2.4653 -0.3968
  336MPD2     N 5048   0.827   0.258  16.147 -0.4829 -0.0113 -0.8540
  336MPD2    H5 5049   0.833   0.196  16.227 -0.5608 -1.1368 -1.7087
  336MPD2    N1 5050   0.790   0.714  16.016 -0.3800 -0.6036  0.8657
  336MPD2    H7 5051   0.742   0.678  15.934  1.3563 -2.0684  0.5082
  337TMC3    C1 5052   0.731   0.927  15.929  0.1967 -0.5622 -0.1316
  337TMC3    C2 5053   0.615   0.888  15.880 -0.2009 -0.0048  0.5906
  337TMC3    C3 5054   0.535   0.979  15.823 -0.2265  0.0253  0.0477
  337TMC3    C4 5055   0.776   1.057  15.914  0.8701  0.4994 -0.3688
  337TMC3    C5 5056   0.688   1.154  15.867  0.4870  0.0236  1.0034
  337TMC3    C6 5057   0.565   1.110  15.827  0.4005  0.0571  0.0963
  337TMC3     C 5058   0.805   0.851  16.023  0.4832  0.1752 -0.0544
  337TMC3     O 5059   0.868   0.913  16.110 -0.0360  0.2762  0.6377
  337TMC3     H 5060   0.588   0.784  15.872 -0.5193  0.1516 -0.3454
  337TMC3    H1 5061   0.868   1.101  15.950  1.7570 -0.5166 -1.3872
  337TMC3    H2 5062   0.490   1.185  15.802  0.0684  0.4620  2.2935
  337TMC3    C7 5063   0.717   1.298  15.859 -0.2331  0.6117 -0.9224
  337TMC3    C8 5064   0.395   0.949  15.814  0.6023  0.5315  0.0519
  337TMC3    O1 5065   0.795   1.347  15.940 -0.4269 -0.6937 -0.3361
  337TMC3    O2 5066   0.362   0.836  15.856 -0.2699  0.0396 -0.0142
  338MPD2     C 5067   1.543   0.038   0.717 -0.1464 -0.0717 -0.8088
  338MPD2    C1 5068   1.435   0.076   0.639  0.1623 -0.1532  0.8200
  338MPD2    C2 5069   1.362   0.190   0.681 -0.2679  0.0215  0.6118
  338MPD2    C3 5070   1.400   0.268   0.791  0.4181 -0.5624  0.1148
  338MPD2    C4 5071   1.510   0.229   0.864 -0.4132  0.2849 -0.4184
  338MPD2    C5 5072   1.577   0.111   0.829 -0.1671 -0.8460 -0.2737
  338MPD2     H 5073   1.273   0.221   0.627 -1.1581 -0.9381  1.5175
  338MPD2    H1 5074   1.539   0.281   0.955  1.1630 -0.3076 -0.5706
  338MPD2    H2 5075   1.596   4.670   0.698 -0.5904 -0.2096 -1.3702
  338MPD2    H3 5076   1.653   0.070   0.894  0.6753 -0.4828 -1.0188
  338MPD2     N 5077   1.327   0.384   0.820  0.0993 -0.7258 -0.1190
  338MPD2    H5 5078   1.244   0.402   0.765  0.7310  2.3049 -0.0786
  338MPD2    N1 5079   1.386   0.008   0.527 -0.1109  0.0221 -0.7498
  338MPD2    H7 5080   1.298   0.039   0.490  0.9946  1.3391 -2.2694
  339TMC3    C1 5081   1.257   0.578   0.914  0.2822  0.5497 -0.2264
  339TMC3    C2 5082   1.214   0.636   1.030  0.3941 -0.2265  0.0360
  339TMC3    C3 5083   1.117   0.734   1.027 -0.2536 -0.1437  0.0214
  339TMC3    C4 5084   1.199   0.611   0.797 -0.0174 -0.1556 -1.0773
  339TMC3    C5 5085   1.102   0.710   0.797 -0.1896  0.0801  0.3550
  339TMC3    C6 5086   1.061   0.778   0.909  0.0647  0.1123 -0.2233
  339TMC3     C 5087   1.343   0.465   0.928  0.1923  0.1660 -0.1164
  339TMC3     O 5088   1.409   0.454   1.029 -0.6315 -0.5597  0.0115
  339TMC3     H 5089   1.251   0.611   1.128  0.7276  0.0219 -0.0304
  339TMC3    H1 5090   1.230   0.565   0.704 -0.4866 -2.5344 -0.0643
  339TMC3    H2 5091   1.010   0.874   0.900  1.8194  0.9435 -1.3051
  339TMC3    C7 5092   1.027   0.707   0.678 -0.2877 -0.2546  0.2113
  339TMC3    C8 5093   1.086   0.808   1.153 -0.0336 -0.1172  0.2304
  339TMC3    O1 5094   1.082   0.667   0.574  0.4869 -0.2285 -0.1105
  339TMC3    O2 5095   1.176   0.839   1.233 -0.4731  0.9153 -0.2016
  340MPD2     C 5096   0.738   3.395   9.161 -0.3478 -0.3548 -0.5429
  340MPD2    C1 5097   0.756   3.274   9.207 -0.1671  0.4688 -0.2269
  340MPD2    C2 5098   0.793   3.253   9.335 -0.1557 -0.3120  0.0181
  340MPD2    C3 5099   0.814   3.362   9.417 -0.4996 -0.2267 -0.1084
  340MPD2    C4 5100   0.812   3.491   9.364 -0.1768  0.3988  0.1198
  340MPD2    C5 5101   0.769   3.505   9.234 -0.2899 -0.4912  1.0222
  340MPD2     H 5102   0.814   3.153   9.369 -1.3472 -0.5188  0.1137
  340MPD2    H1 5103   0.840   3.577   9.424  1.7337 -0.4501  0.4436
  340MPD2    H2 5104   0.699   3.419   9.063  1.1364  0.3522 -0.9598
  340MPD2    H3 5105   0.761   3.599   9.182 -1.1457 -1.4224 -0.5126
  340MPD2     N 5106   0.855   3.342   9.552  0.3710 -0.1732  0.3141
  340MPD2    H5 5107   0.881   3.423   9.607 -2.5149  1.4932 -0.8248
  340MPD2    N1 5108   0.738   3.170   9.108  0.3759  0.0723 -0.6279
  340MPD2    H7 5109   0.720   3.194   9.011  0.4838  1.3809 -0.3269
  341TMC3    C1 5110   0.745   2.949   9.016 -0.5363  0.2894  0.3795
  341TMC3    C2 5111   0.687   2.828   9.041 -0.2314  0.6762 -0.4757
  341TMC3    C3 5112   0.715   2.727   8.951 -0.1159  0.2854 -0.5626
  341TMC3    C4 5113   0.840   2.961   8.923 -0.4288 -0.3309  0.9017
  341TMC3    C5 5114   0.865   2.858   8.832  0.2581 -0.1971  0.0284
  341TMC3    C6 5115   0.798   2.736   8.843 -0.5964 -0.0945 -0.4175
  341TMC3     C 5116   0.753   3.035   9.134 -0.2755 -0.0678  0.0998
  341TMC3     O 5117   0.751   2.967   9.236  0.5636 -0.1921 -0.2968
  341TMC3     H 5118   0.632   2.814   9.133  1.1074  4.6591  0.9027
  341TMC3    H1 5119   0.897   3.054   8.921  1.7872 -1.6670  1.4021
  341TMC3    H2 5120   0.838   2.644   8.801  0.7400  0.7223 -0.9424
  341TMC3    C7 5121   0.972   2.870   8.735  0.4808 -1.1844 -0.2798
  341TMC3    C8 5122   0.678   2.602   9.009 -0.9602  0.5310 -0.0724
  341TMC3    O1 5123   1.060   2.955   8.754  0.4996  0.4761  0.0092
  341TMC3    O2 5124   0.652   2.604   9.128  0.8610 -0.1559  0.3288
  342MPD2     C 5125   3.598   1.442  16.888  0.2463  0.4640  0.5548
  342MPD2    C1 5126   3.740   1.443  16.897  0.2343  0.3445  0.6832
  342MPD2    C2 5127   3.802   1.532  16.983 -0.1099 -0.1748  0.6093
  342MPD2    C3 5128   3.720   1.630  17.049 -0.2987 -0.1812  0.0699
  342MPD2    C4 5129   3.580   1.629  17.036 -0.2814  0.6068  0.3138
  342MPD2    C5 5130   3.518   1.531  16.955  0.3609 -0.3044 -0.1686
  342MPD2     H 5131   3.910   1.540  16.986 -0.2215  0.9349  1.8521
  342MPD2    H1 5132   3.518   1.702  17.088  2.0131  1.6312  1.6542
  342MPD2    H2 5133   3.531   1.370  16.843  1.0999  0.6931 -1.0546
  342MPD2    H3 5134   3.410   1.533  16.947  0.2490 -0.0554  1.4545
  342MPD2     N 5135   3.764   1.733  17.130 -0.6569 -0.3937 -0.4716
  342MPD2    H5 5136   3.691   1.795  17.164  0.6266  2.3219 -2.7252
  342MPD2    N1 5137   3.816   1.351  16.824 -0.1222 -0.1772 -0.6044
  342MPD2    H7 5138   3.916   1.350  16.839 -0.6368 -2.1970  2.4964
  343TMC3    C1 5139   3.865   1.136  16.743 -0.0785  0.3115  0.1003
  343TMC3    C2 5140   4.001   1.155  16.760  0.4662 -0.1095  1.0232
  343TMC3    C3 5141   4.080   1.039  16.746  0.5856 -0.3077 -0.0691
  343TMC3    C4 5142   3.804   1.009  16.744 -0.6672  0.4563  0.0094
  343TMC3    C5 5143   3.891   0.907  16.757  0.3128 -0.4236 -0.9658
  343TMC3    C6 5144   4.025   0.913  16.753 -0.1479 -0.6385 -0.4955
  343TMC3     C 5145   3.766   1.242  16.752  0.3041 -0.0430 -0.4763
  343TMC3     O 5146   3.653   1.211  16.722 -0.0715 -0.5566  0.4436
  343TMC3     H 5147   4.048   1.253  16.763  0.3323  0.1643 -4.9586
  343TMC3    H1 5148   3.697   0.994  16.734 -0.2537 -1.6206 -1.4292
  343TMC3    H2 5149   4.079   0.820  16.758  0.0314 -0.4871  0.4055
  343TMC3    C7 5150   3.815   0.784  16.771  0.6669 -0.7487  0.4736
  343TMC3    C8 5151   4.227   1.039  16.782  0.0880 -0.7342  0.1174
  343TMC3    O1 5152   3.702   0.772  16.730  0.7961  0.4668 -0.7018
  343TMC3    O2 5153   4.276   1.131  16.850  0.0469 -0.5936 -0.0349
  344MPD2     C 5154   0.398   0.793  10.523  0.0452 -0.3324 -0.7253
  344MPD2    C1 5155   0.351   0.812  10.394 -0.4304  0.8550  0.4585
  344MPD2    C2 5156   0.346   0.939  10.344  0.2026 -0.3068  0.1587
  344MPD2    C3 5157   0.415   1.042  10.414 -0.1699 -0.3642 -0.1529
  344MPD2    C4 5158   0.458   1.016  10.539  0.1671  0.1732 -0.6260
  344MPD2    C5 5159   0.458   0.894  10.596  0.0943 -0.0498 -0.1592
  344MPD2     H 5160   0.312   0.966  10.245 -0.1224 -0.1946  0.2973
  344MPD2    H1 5161   0.500   1.089  10.607 -0.1557 -0.2883  0.0726
  344MPD2    H2 5162   0.393   0.695  10.570  0.0496 -0.7973 -1.6856
  344MPD2    H3 5163   0.492   0.875  10.697  1.4995 -1.3172 -0.8747
  344MPD2     N 5164   0.421   1.177  10.370 -0.5629 -0.1446  0.1983
  344MPD2    H5 5165   0.456   1.250  10.431 -0.0734 -0.8245  0.7305
  344MPD2    N1 5166   0.292   0.721  10.309 -0.9213 -0.2711  0.7703
  344MPD2    H7 5167   0.247   0.752  10.223  3.2616 -0.1601 -1.3782
  345TMC3    C1 5168   0.404   1.362  10.224 -0.1200 -0.2031 -0.0344
  345TMC3    C2 5169   0.461   1.428  10.331 -0.3015 -0.1591 -0.2504
  345TMC3    C3 5170   0.455   1.565  10.328  0.0779 -0.4826 -0.5659
  345TMC3    C4 5171   0.357   1.423  10.114  0.3714 -0.0675  0.5647
  345TMC3    C5 5172   0.355   1.558  10.114  0.5849  0.0628  0.1761
  345TMC3    C6 5173   0.398   1.633  10.224  0.4816  0.5507  0.8193
  345TMC3     C 5174   0.376   1.230  10.248  0.2543  0.0140 -0.1080
  345TMC3     O 5175   0.316   1.177  10.157  0.6912  0.5112  0.2712
  345TMC3     H 5176   0.521   1.381  10.408 -1.3370  0.4998  0.9627
  345TMC3    H1 5177   0.292   1.367  10.047 -0.1776  0.3804  0.7216
  345TMC3    H2 5178   0.375   1.738  10.231 -0.9531  0.3234 -0.4646
  345TMC3    C7 5179   0.290   1.632  10.005  0.5724 -0.3918 -0.2326
  345TMC3    C8 5180   0.467   1.629  10.453  0.2648  0.7162  0.1689
  345TMC3    O1 5181   0.283   1.753  10.018 -0.4967 -0.1067 -0.1157
  345TMC3    O2 5182   0.463   1.567  10.561 -0.1215 -0.3933 -0.2147
  346MPD2     C 5183   4.646   2.760  14.439  0.3751  0.1257  0.2760
  346MPD2    C1 5184   0.041   2.756  14.365 -0.6150  0.2201 -0.1361
  346MPD2    C2 5185   0.155   2.809  14.419 -0.0162  0.1040 -0.2261
  346MPD2    C3 5186   0.166   2.844  14.552 -0.7505  0.8495  0.1828
  346MPD2    C4 5187   0.049   2.844  14.626  0.0153  0.1007  0.2933
  346MPD2    C5 5188   4.660   2.797  14.563 -0.0575  0.8333  0.0014
  346MPD2     H 5189   0.247   2.799  14.362  0.0222  0.1905 -0.1789
  346MPD2    H1 5190   0.052   2.865  14.732  2.4125 -0.3949  0.3258
  346MPD2    H2 5191   4.548   2.730  14.405  1.0209  0.7837 -2.1297
  346MPD2    H3 5192   4.573   2.784  14.627 -0.1494 -0.9633 -0.4765
  346MPD2     N 5193   0.297   2.887  14.596 -0.2353 -0.2242  0.5552
  346MPD2    H5 5194   0.369   2.886  14.525 -0.2588 -1.0854  0.5429
  346MPD2    N1 5195   0.039   2.714  14.231 -0.2593  0.4936 -0.4792
  346MPD2    H7 5196   0.130   2.718  14.184  1.0412  1.6280  2.1129
  347TMC3    C1 5197   0.464   2.978  14.713 -0.1919 -0.3342  0.0215
  347TMC3    C2 5198   0.505   3.032  14.591 -0.8131 -0.4682  0.0342
  347TMC3    C3 5199   0.630   3.025  14.546  0.1094 -0.2117 -0.4829
  347TMC3    C4 5200   0.560   2.923  14.796  0.3669 -0.4775  0.1417
  347TMC3    C5 5201   0.690   2.941  14.752 -0.5808 -0.0026 -0.1679
  347TMC3    C6 5202   0.726   2.988  14.632 -0.4488 -0.2479 -0.0099
  347TMC3     C 5203   0.336   2.922  14.724  0.1499  0.8127 -0.6520
  347TMC3     O 5204   0.288   2.899  14.834  0.3209  0.0120 -0.1128
  347TMC3     H 5205   0.428   3.084  14.535 -0.7847 -0.9752 -0.4756
  347TMC3    H1 5206   0.532   2.874  14.889 -0.2380 -2.2357 -0.9780
  347TMC3    H2 5207   0.825   2.972  14.590 -0.3816 -0.6443  0.2977
  347TMC3    C7 5208   0.794   2.924  14.853 -0.1229 -0.1038  0.7229
  347TMC3    C8 5209   0.628   2.954  14.421  1.3369 -0.4749 -0.1700
  347TMC3    O1 5210   0.768   2.853  14.946 -0.3068 -0.2345 -0.1547
  347TMC3    O2 5211   0.713   2.872  14.398  0.2773  0.1583  0.4079
  348MPD2     C 5212   3.684   2.034  12.264  0.6982  0.0843 -0.2222
  348MPD2    C1 5213   3.781   2.059  12.173 -0.0110 -0.7906 -0.3233
  348MPD2    C2 5214   3.767   2.161  12.076  0.4656 -0.0935  0.1985
  348MPD2    C3 5215   3.647   2.226  12.073  0.3137 -0.2948 -0.7023
  348MPD2    C4 5216   3.542   2.192  12.153  0.4208  0.0031 -0.5865
  348MPD2    C5 5217   3.568   2.105  12.257 -0.0896  0.0814  0.6689
  348MPD2     H 5218   3.835   2.170  11.993 -1.4970 -1.7522 -1.5899
  348MPD2    H1 5219   3.440   2.229  12.141  0.9462  1.3222 -0.9981
  348MPD2    H2 5220   3.688   1.960  12.343  0.4154 -0.3668 -0.6287
  348MPD2    H3 5221   3.482   2.080  12.318 -0.3536 -0.4642  0.0687
  348MPD2     N 5222   3.626   2.307  11.960 -0.4065 -0.5257 -0.3663
  348MPD2    H5 5223   3.713   2.333  11.913  1.4052  0.5887  3.6108
  348MPD2    N1 5224   3.908   1.992  12.165  0.2438  0.2393 -0.7463
  348MPD2    H7 5225   3.970   2.027  12.092  0.4764 -1.7719 -1.4922
  349TMC3    C1 5226   4.077   1.828  12.184  0.0412 -0.2347  0.3004
  349TMC3    C2 5227   4.072   1.702  12.241 -0.1051  0.2055 -0.2024
  349TMC3    C3 5228   4.015   1.604  12.164  0.3013 -0.3314 -0.5839
  349TMC3    C4 5229   4.073   1.842  12.044 -0.0742 -0.5082  0.2149
  349TMC3    C5 5230   4.020   1.740  11.974 -0.3592 -0.4589  0.4426
  349TMC3    C6 5231   3.997   1.618  12.027  0.0460  0.4726 -0.8733
  349TMC3     C 5232   3.957   1.894  12.240  0.0291  0.4383 -1.1685
  349TMC3     O 5233   3.891   1.839  12.333 -0.7758 -0.4200 -0.6370
  349TMC3     H 5234   4.075   1.688  12.349 -1.3224 -0.6521 -0.2658
  349TMC3    H1 5235   4.101   1.941  12.009 -1.6047 -0.4608 -0.8675
  349TMC3    H2 5236   3.954   1.539  11.967  0.4795 -1.7843  1.7624
  349TMC3    C7 5237   3.926   1.783  11.878  0.0027  0.2579 -0.6461
  349TMC3    C8 5238   3.995   1.478  12.235 -0.3760  0.6216  0.4898
  349TMC3    O1 5239   3.828   1.718  11.851  0.3995  0.1100  0.1122
  349TMC3    O2 5240   4.001   1.479  12.359 -0.2102  0.2136  0.8730
  350MPD2     C 5241   2.684   0.535  10.196  0.0543  0.2879  0.2428
  350MPD2    C1 5242   2.713   0.417  10.254  0.6257 -0.9499 -0.2548
  350MPD2    C2 5243   2.849   0.386  10.265 -1.0150  0.3606  0.1878
  350MPD2    C3 5244   2.946   0.479  10.221 -0.3416  0.6940 -0.0727
  350MPD2    C4 5245   2.912   0.597  10.153 -0.2768  0.6764 -0.1547
  350MPD2    C5 5246   2.780   0.615  10.139  0.2209  0.0662 -0.2674
  350MPD2     H 5247   2.863   0.294  10.321 -1.2682 -0.8417 -1.7161
  350MPD2    H1 5248   2.979   0.673  10.116 -1.2378  1.1781 -0.8701
  350MPD2    H2 5249   2.581   0.569  10.187 -0.6056 -1.3400  1.7107
  350MPD2    H3 5250   2.756   0.709  10.092 -0.3285 -0.5597 -1.2499
  350MPD2     N 5251   3.081   0.453  10.271  0.1825  0.6714 -0.4293
  350MPD2    H5 5252   3.097   0.374  10.333 -0.0921 -1.6061 -3.2238
  350MPD2    N1 5253   2.627   0.314  10.294  0.2642 -0.0599  0.0648
  350MPD2    H7 5254   2.663   0.228  10.336  0.3876 -1.3356 -2.6439
  351TMC3    C1 5255   2.434   0.195  10.315 -0.1360 -0.2392 -0.0697
  351TMC3    C2 5256   2.498   0.093  10.256  0.1211 -0.6990 -0.3460
  351TMC3    C3 5257   2.453   4.693  10.272  0.3240  0.1850  0.1207
  351TMC3    C4 5258   2.327   0.179  10.394 -0.7297  0.1722 -0.0451
  351TMC3    C5 5259   2.288   0.053  10.422 -0.0924  0.4671  0.1600
  351TMC3    C6 5260   2.347   4.671  10.356 -0.0769 -0.8374  0.5255
  351TMC3     C 5261   2.490   0.330  10.291  0.3684  0.4682 -0.1522
  351TMC3     O 5262   2.419   0.427  10.266 -0.1259  0.1717 -0.2113
  351TMC3     H 5263   2.578   0.115  10.185 -0.1023  0.4936 -0.2184
  351TMC3    H1 5264   2.283   0.263  10.445 -0.3610  0.6996 -0.6019
  351TMC3    H2 5265   2.315   4.570  10.379 -0.1376 -0.7407  0.8712
  351TMC3    C7 5266   2.191   0.034  10.535  0.3611 -0.2570  0.2161
  351TMC3    C8 5267   2.534   4.585  10.227  0.3504 -0.5598  0.5900
  351TMC3    O1 5268   2.121   4.659  10.527 -0.1749  0.4707 -1.1379
  351TMC3    O2 5269   2.653   4.609  10.209  0.4730 -0.0111 -0.0940
  352MPD2     C 5270   1.137   2.057   1.034 -0.2738  0.5970 -0.4810
  352MPD2    C1 5271   1.009   2.014   1.054 -0.2116  0.4268  0.7168
  352MPD2    C2 5272   0.982   1.889   1.107 -0.1030  0.3358  0.3970
  352MPD2    C3 5273   1.081   1.810   1.154  0.3191  0.8968 -0.4409
  352MPD2    C4 5274   1.209   1.855   1.124 -0.3033  0.7354  0.4379
  352MPD2    C5 5275   1.239   1.973   1.066 -0.1276  0.1018  0.0801
  352MPD2     H 5276   0.881   1.860   1.131  0.3217  0.7429  2.6595
  352MPD2    H1 5277   1.293   1.792   1.152  0.7726  1.0182 -2.1955
  352MPD2    H2 5278   1.152   2.151   0.983  0.0086  1.4759  1.2196
  352MPD2    H3 5279   1.341   1.995   1.036 -0.2163  0.8602  0.3275
  352MPD2     N 5280   1.064   1.683   1.206 -0.3151  0.4677 -0.6378
  352MPD2    H5 5281   1.150   1.628   1.205 -0.1284  0.7393  1.6081
  352MPD2    N1 5282   0.914   2.114   1.027 -0.0394  0.5677  0.4003
  352MPD2    H7 5283   0.958   2.198   0.992  2.4814 -1.0685 -0.3761
  353TMC3    C1 5284   0.976   1.483   1.266 -0.2503 -0.2821  0.4537
  353TMC3    C2 5285   1.108   1.448   1.302  0.4464  0.2054  1.4230
  353TMC3    C3 5286   1.145   1.319   1.302 -0.1057  0.6624 -0.2572
  353TMC3    C4 5287   0.892   1.385   1.225  0.2368 -0.3237 -0.5211
  353TMC3    C5 5288   0.934   1.256   1.223 -0.2868  0.3296 -0.6438
  353TMC3    C6 5289   1.058   1.219   1.253  0.0719  0.1383 -0.2847
  353TMC3     C 5290   0.947   1.614   1.222 -0.7823 -0.3628  0.1658
  353TMC3     O 5291   0.832   1.655   1.217 -0.3875 -0.4924 -0.7315
  353TMC3     H 5292   1.179   1.522   1.338  0.3971  0.5286  0.8566
  353TMC3    H1 5293   0.796   1.419   1.189 -1.3981 -2.3480  2.0021
  353TMC3    H2 5294   1.088   1.115   1.241 -0.3773 -0.0078 -0.1169
  353TMC3    C7 5295   0.867   1.183   1.114 -0.4536  0.1225 -0.1365
  353TMC3    C8 5296   1.285   1.283   1.338 -0.3792  0.6803 -0.6678
  353TMC3    O1 5297   0.939   1.138   1.027 -0.0063 -0.2567  0.3981
  353TMC3    O2 5298   1.353   1.354   1.412  0.0548 -0.5367  0.1551
  354TMC3    C1 5299   2.607   3.394  13.757  0.3766  0.2757 -0.5013
  354TMC3    C2 5300   2.642   3.529  13.744  0.4521 -0.2830  0.5317
  354TMC3    C3 5301   2.618   3.590  13.625 -0.2658 -0.7191 -0.2753
  354TMC3    C4 5302   2.535   3.324  13.662 -0.7386 -0.7794  0.0315
  354TMC3    C5 5303   2.531   3.387  13.540 -0.3762 -0.3939 -0.0507
  354TMC3    C6 5304   2.566   3.517  13.524  0.2504 -0.5965 -0.2802
  354TMC3     C 5305   2.610   3.323  13.884 -0.0740 -0.6230 -0.5011
  354TMC3     O 5306   2.546   3.221  13.901 -0.3947 -0.3965 -0.1014
  354TMC3     H 5307   2.699   3.580  13.820  0.0671  0.3702  0.3829
  354TMC3    H1 5308   2.518   3.218  13.669 -0.6845 -0.8387 -0.7346
  354TMC3    H2 5309   2.567   3.546  13.420 -0.9702 -0.9820 -0.3926
  354TMC3    C7 5310   2.504   3.296  13.431 -0.5265 -0.6489  0.0582
  354TMC3    C8 5311   2.650   3.738  13.608  0.2611  0.0417  0.2862
  354TMC3    O1 5312   2.518   3.177  13.455  0.1433  0.1044  0.4357
  354TMC3    O2 5313   2.707   3.791  13.703 -0.1257 -0.1962  0.5541
  355MPD2     C 5314   2.726   4.105  12.262  0.1929  0.1504  0.1317
  355MPD2    C1 5315   2.727   4.177  12.141 -0.3427 -0.1090 -0.0922
  355MPD2    C2 5316   2.826   4.146  12.045  0.4168  0.0983 -0.4882
  355MPD2    C3 5317   2.935   4.066  12.070  0.4110 -0.0018  0.0722
  355MPD2    C4 5318   2.939   3.999  12.191  0.7151  0.5836  0.3069
  355MPD2    C5 5319   2.835   4.020  12.280 -0.7842 -0.0024 -0.6221
  355MPD2     H 5320   2.815   4.202  11.953 -1.9527  0.6755  0.1624
  355MPD2    H1 5321   3.021   3.933  12.219  0.4887 -1.0155 -2.7833
  355MPD2    H2 5322   2.660   4.115  12.348  0.9998  0.2296  0.7418
  355MPD2    H3 5323   2.843   3.962  12.372  0.1061  3.5353  1.5425
  355MPD2     N 5324   3.037   4.052  11.979 -0.6372  0.3578  0.1776
  355MPD2    H5 5325   3.114   3.993  12.010  0.7645  0.7825 -2.5029
  355MPD2    N1 5326   2.638   4.281  12.120  0.2387 -0.2514  0.0433
  355MPD2    H7 5327   2.559   4.295  12.182  0.7143  3.2974 -0.1245
  356TMC3    C1 5328   3.181   4.131  11.812  0.3812  0.7118  0.3324
  356TMC3    C2 5329   3.198   4.203  11.695 -0.4800 -0.0979  0.1078
  356TMC3    C3 5330   3.315   4.272  11.683 -0.3832 -0.0924  0.6360
  356TMC3    C4 5331   3.278   4.122  11.910 -0.0631 -0.0582 -0.5927
  356TMC3    C5 5332   3.391   4.190  11.880 -0.4210 -0.6211 -0.4717
  356TMC3    C6 5333   3.413   4.273  11.778 -0.1982  0.5089  0.1287
  356TMC3     C 5334   3.045   4.111  11.855  0.8192 -0.3678 -0.3384
  356TMC3     O 5335   2.950   4.149  11.785  0.4019 -0.0216  0.2846
  356TMC3     H 5336   3.119   4.231  11.627 -0.2144 -0.9757 -0.5592
  356TMC3    H1 5337   3.266   4.074  12.006 -0.1818  1.6551  0.2637
  356TMC3    H2 5338   3.506   4.327  11.765  0.7352 -1.0213  0.5263
  356TMC3    C7 5339   3.483   4.195  11.995 -0.5415 -0.5115 -1.2579
  356TMC3    C8 5340   3.318   4.357  11.568 -0.0513  0.6118  0.2504
  356TMC3    O1 5341   3.478   4.110  12.081 -0.2798  0.4165 -0.3846
  356TMC3    O2 5342   3.269   4.314  11.462  0.1053 -0.0513  0.5378
  357MPD2     C 5343   2.654   4.064   1.325 -0.3677 -0.2869 -0.0831
  357MPD2    C1 5344   2.767   4.032   1.401  0.1243 -0.6850  0.2836
  357MPD2    C2 5345   2.750   4.055   1.538  0.1519  0.2225 -1.2207
  357MPD2    C3 5346   2.632   4.087   1.598 -0.2689 -1.0329 -0.2714
  357MPD2    C4 5347   2.525   4.110   1.511  0.8906 -0.6762 -0.2548
  357MPD2    C5 5348   2.531   4.113   1.376  0.0617  0.3274 -0.4386
  357MPD2     H 5349   2.842   4.049   1.596 -1.4133  0.5389  1.2800
  357MPD2    H1 5350   2.427   4.145   1.544  0.3127 -1.8574 -0.7303
  357MPD2    H2 5351   2.660   4.048   1.218 -4.6457 -1.7999 -0.0979
  357MPD2    H3 5352   2.446   4.130   1.311 -0.6372 -1.3894  0.0131
  357MPD2     N 5353   2.609   4.116   1.735 -0.1398  0.0269 -0.1141
  357MPD2    H5 5354   2.513   4.146   1.750 -0.0247 -0.6649  2.0257
  357MPD2    N1 5355   2.885   3.977   1.343  0.6506 -0.3190  0.1741
  357MPD2    H7 5356   2.872   3.969   1.243 -1.1602  1.6420  0.2653
  358TMC3    C1 5357   3.109   3.868   1.315 -0.2510  0.3493 -0.1603
  358TMC3    C2 5358   3.077   3.815   1.190  0.3131 -0.2355  0.6180
  358TMC3    C3 5359   3.184   3.774   1.111  0.4621  0.8631 -0.1908
  358TMC3    C4 5360   3.240   3.884   1.362  0.9548  0.8811 -0.7860
  358TMC3    C5 5361   3.338   3.852   1.272 -0.6877 -0.4500 -0.0586
  358TMC3    C6 5362   3.313   3.794   1.146 -0.4568  0.6319 -0.3636
  358TMC3     C 5363   3.002   3.929   1.405 -0.7895 -1.1940 -0.4156
  358TMC3     O 5364   3.041   3.949   1.521 -0.3234 -0.1065  0.3967
  358TMC3     H 5365   2.972   3.813   1.164  0.6191 -1.0686 -0.5540
  358TMC3    H1 5366   3.275   3.912   1.460  0.6563  0.5088 -0.5733
  358TMC3    H2 5367   3.380   3.778   1.062  0.6660 -0.9678  0.8641
  358TMC3    C7 5368   3.467   3.907   1.292  0.8503  0.3782  0.2295
  358TMC3    C8 5369   3.152   3.716   0.981 -0.0115 -0.1983  0.5975
  358TMC3    O1 5370   3.555   3.869   1.214 -0.0012  0.2271 -0.4782
  358TMC3    O2 5371   3.244   3.703   0.900 -0.9253 -0.3970 -0.3124
  359MPD2     C 5372   3.436   3.592  12.280  0.6913 -0.0461 -0.2855
  359MPD2    C1 5373   3.437   3.488  12.190 -0.3074 -0.2202  0.0218
  359MPD2    C2 5374   3.414   3.364  12.244  0.0763  0.0849  0.6970
  359MPD2    C3 5375   3.382   3.348  12.378 -0.1019  0.0271 -0.1559
  359MPD2    C4 5376   3.384   3.454  12.462  0.0074  0.7572  0.1018
  359MPD2    C5 5377   3.416   3.577  12.414 -0.8523 -0.7852 -0.2043
  359MPD2     H 5378   3.412   3.280  12.175  1.9050  0.3138  0.3862
  359MPD2    H1 5379   3.364   3.442  12.568 -1.4449 -1.6615 -0.4501
  359MPD2    H2 5380   3.464   3.692  12.250  0.9315 -0.2373 -0.6878
  359MPD2    H3 5381   3.432   3.658  12.484 -1.6617  0.3990 -1.3763
  359MPD2     N 5382   3.331   3.227  12.437 -0.1878 -0.2972 -0.1140
  359MPD2    H5 5383   3.304   3.245  12.533  1.7946  1.7302  0.0849
  359MPD2    N1 5384   3.463   3.499  12.051 -0.0904 -0.1257 -0.1088
  359MPD2    H7 5385   3.476   3.414  11.998 -0.0147 -1.2025  1.6479
  360TMC3    C1 5386   3.554   3.583  11.853  0.0849 -0.3536 -0.3527
  360TMC3    C2 5387   3.620   3.689  11.794  0.6126  0.1660  0.9217
  360TMC3    C3 5388   3.637   3.681  11.660 -0.1994 -0.2467  0.7724
  360TMC3    C4 5389   3.490   3.489  11.780 -0.2846  0.4188  0.0490
  360TMC3    C5 5390   3.531   3.481  11.646 -0.2839  1.2554 -1.3773
  360TMC3    C6 5391   3.608   3.571  11.581  0.1091 -0.0892  0.2306
  360TMC3     C 5392   3.498   3.612  11.984 -0.4098 -0.8805 -0.5486
  360TMC3     O 5393   3.506   3.726  12.031  0.1652  0.3763  0.1822
  360TMC3     H 5394   3.683   3.752  11.855 -1.1837  0.8144  2.1106
  360TMC3    H1 5395   3.424   3.412  11.818  0.4540 -0.3122 -0.1450
  360TMC3    H2 5396   3.608   3.572  11.472  0.6123  2.1484  0.2695
  360TMC3    C7 5397   3.439   3.399  11.572 -0.2125 -0.3539 -0.1343
  360TMC3    C8 5398   3.756   3.740  11.617  0.1043 -0.7146 -0.4315
  360TMC3    O1 5399   3.395   3.442  11.467 -0.6520  0.1179 -0.2351
  360TMC3    O2 5400   3.767   3.857  11.647  0.1632 -0.0173 -0.4485
  361MPD2     C 5401   0.407   1.896  16.373 -0.1057 -0.4752 -0.8157
  361MPD2    C1 5402   0.356   1.864  16.502  0.4145  0.1196 -0.3694
  361MPD2    C2 5403   0.435   1.796  16.587  0.1241  0.0982  0.0764
  361MPD2    C3 5404   0.552   1.732  16.549 -0.2636 -0.7698  0.5165
  361MPD2    C4 5405   0.598   1.740  16.421  0.1144  0.4913  0.1275
  361MPD2    C5 5406   0.535   1.837  16.341  0.4472  0.1993 -0.1493
  361MPD2     H 5407   0.404   1.798  16.691  0.2814 -0.8993  0.1399
  361MPD2    H1 5408   0.678   1.678  16.383 -0.6174  1.2223 -2.6233
  361MPD2    H2 5409   0.360   1.971  16.311 -1.5338  0.1401  0.9990
  361MPD2    H3 5410   0.576   1.851  16.242  0.9237 -0.2998 -0.0221
  361MPD2     N 5411   0.630   1.658  16.638 -0.6595 -0.4986 -0.5529
  361MPD2    H5 5412   0.700   1.601  16.592  0.1140 -1.6961  2.0918
  361MPD2    N1 5413   0.234   1.918  16.552  0.4752  0.1795  0.5060
  361MPD2    H7 5414   0.215   1.913  16.652  2.7757  0.0236  0.9333
  362TMC3    C1 5415   0.031   2.033  16.556  0.0112 -0.6484 -0.8474
  362TMC3    C2 5416   0.042   2.063  16.689  0.0491  0.3258 -0.1334
  362TMC3    C3 5417   4.662   2.129  16.747  0.5790 -0.1005  0.0142
  362TMC3    C4 5418   4.641   2.059  16.490 -0.6421  0.3541 -0.6822
  362TMC3    C5 5419   4.523   2.102  16.559  0.4794  0.2827 -0.2504
  362TMC3    C6 5420   4.540   2.146  16.690 -0.1805 -0.6148  0.7644
  362TMC3     C 5421   0.141   1.973  16.473  0.1057  0.4997  0.5514
  362TMC3     O 5422   0.134   1.989  16.356  0.1183  0.3200 -0.1363
  362TMC3     H 5423   0.140   2.054  16.736 -0.5726  2.0979  1.5271
  362TMC3    H1 5424   4.651   2.040  16.384 -1.0689  0.4481 -0.7408
  362TMC3    H2 5425   4.451   2.195  16.729  0.2746  0.6810  0.1687
  362TMC3    C7 5426   4.456   2.199  16.480 -0.2925  0.2090 -0.7342
  362TMC3    C8 5427   4.672   2.166  16.893  0.4824 -0.4696 -0.5635
  362TMC3    O1 5428   4.410   2.300  16.532  0.0913 -0.8810  0.0116
  362TMC3    O2 5429   0.045   2.128  16.955 -0.9264  0.1266  0.1566
  363TMC3    C1 5430   3.697   4.402  10.006 -0.6458 -0.0867 -0.0210
  363TMC3    C2 5431   3.677   4.266  10.030 -0.2837  0.0969 -0.1442
  363TMC3    C3 5432   3.552   4.224  10.062 -0.5534  0.7663 -0.5349
  363TMC3    C4 5433   3.597   4.491  10.013  0.2553  0.9192 -0.9883
  363TMC3    C5 5434   3.470   4.440  10.034  0.0813 -0.3844 -0.4963
  363TMC3    C6 5435   3.443   4.311  10.069  0.4712  0.4646 -0.0061
  363TMC3     C 5436   3.827   4.460   9.998 -0.1044 -0.0611  0.3086
  363TMC3     O 5437   3.828   4.566   9.933 -0.3708 -0.1910  0.1809
  363TMC3     H 5438   3.764   4.202  10.019 -0.8208 -0.4382 -1.3562
  363TMC3    H1 5439   3.620   4.597  10.007  2.3655  0.5915  1.4690
  363TMC3    H2 5440   3.345   4.265  10.075  0.7841 -0.0869  0.7823
  363TMC3    C7 5441   3.353   4.522  10.034  0.2145  1.1126 -0.0635
  363TMC3    C8 5442   3.522   4.086  10.067  0.1343 -0.5504  0.1926
  363TMC3    O1 5443   3.251   4.454  10.023  0.3493 -0.0096  0.1353
  363TMC3    O2 5444   3.410   4.060  10.107 -0.1499  0.1667  0.3344
  364MPD2     C 5445   2.125   3.137   9.994  1.0385 -0.0313 -0.1234
  364MPD2    C1 5446   2.122   3.261  10.060 -0.0580 -0.0839 -0.6154
  364MPD2    C2 5447   2.074   3.266  10.186 -0.2568  0.7397  0.1221
  364MPD2    C3 5448   2.020   3.153  10.246 -0.2335  0.9396 -0.9379
  364MPD2    C4 5449   2.036   3.029  10.189  0.1460  0.1140  0.6232
  364MPD2    C5 5450   2.090   3.017  10.060 -0.1819 -0.6786  0.1134
  364MPD2     H 5451   2.075   3.357  10.244  0.9422  0.1917  0.9530
  364MPD2    H1 5452   2.017   2.936  10.241  0.9117  1.3332  3.0615
  364MPD2    H2 5453   2.157   3.120   9.892 -0.1367  2.0521 -0.8479
  364MPD2    H3 5454   2.096   2.924  10.005 -1.8591 -0.4806 -0.4075
  364MPD2     N 5455   1.978   3.152  10.382 -0.2727 -0.1215 -0.2346
  364MPD2    H5 5456   1.956   3.061  10.421  1.8281 -0.4145  0.2403
  364MPD2    N1 5457   2.173   3.374   9.989 -0.5704  0.3892 -0.1378
  364MPD2    H7 5458   2.236   3.345   9.915  0.0771 -0.7503  0.8700
  365TMC3    C1 5459   2.219   3.601   9.934 -0.0757  0.3393 -0.3250
  365TMC3    C2 5460   2.348   3.576   9.898 -0.9763  0.8314 -0.3336
  365TMC3    C3 5461   2.431   3.685   9.869 -0.3989  0.3109  0.4163
  365TMC3    C4 5462   2.174   3.728   9.948  0.7396  0.0566  0.8482
  365TMC3    C5 5463   2.266   3.834   9.921 -0.2521 -0.1976  0.5101
  365TMC3    C6 5464   2.395   3.808   9.875  0.0032 -0.0947  0.5223
  365TMC3     C 5465   2.164   3.507  10.027 -0.8439 -0.1861 -0.2407
  365TMC3     O 5466   2.087   3.547  10.112  0.7612  0.8430  0.1241
  365TMC3     H 5467   2.382   3.473   9.901 -0.1811  1.1323  0.9701
  365TMC3    H1 5468   2.081   3.748   9.999  0.1498 -1.8962  0.5474
  365TMC3    H2 5469   2.458   3.893   9.852  0.1796 -0.3570  0.0263
  365TMC3    C7 5470   2.229   3.978   9.946 -0.1061 -0.4127  0.1332
  365TMC3    C8 5471   2.571   3.659   9.833 -0.4968  0.1224  0.6436
  365TMC3    O1 5472   2.255   4.059   9.861  0.3584 -0.1035 -0.2185
  365TMC3    O2 5473   2.646   3.753   9.805  0.4439  0.5124  0.4129
  366MPD2     C 5474   0.308   4.567  15.449  0.1401  0.1254  0.5217
  366MPD2    C1 5475   0.347   4.651  15.347  0.0263  0.3197 -0.2596
  366MPD2    C2 5476   0.427   4.596  15.246  0.2201  0.2206 -0.6561
  366MPD2    C3 5477   0.456   4.466  15.237  0.4687 -0.3207  0.7635
  366MPD2    C4 5478   0.401   4.385  15.328 -0.3818  0.4636  0.4202
  366MPD2    C5 5479   0.330   4.434  15.436 -0.4736 -0.3218 -0.1475
  366MPD2     H 5480   0.474   4.660  15.173  0.8526  1.2806  0.6660
  366MPD2    H1 5481   0.416   4.277  15.326  3.7934  1.0221  1.5681
  366MPD2    H2 5482   0.260   4.609  15.537 -0.1584 -1.7624  1.2695
  366MPD2    H3 5483   0.307   4.372  15.521  3.0151 -1.1304  0.2109
  366MPD2     N 5484   0.561   4.429  15.149 -0.3285 -0.5163 -0.6744
  366MPD2    H5 5485   0.606   4.502  15.094 -0.2596 -1.1981 -1.5298
  366MPD2    N1 5486   0.318   0.060  15.356  0.8767  0.2558 -1.0077
  366MPD2    H7 5487   0.280   0.091  15.445 -0.7887 -0.4143 -1.4693
  367TMC3    C1 5488   0.276   0.279  15.278 -0.2587  0.2085 -0.2131
  367TMC3    C2 5489   0.375   0.329  15.357 -0.4416  0.1807  0.2874
  367TMC3    C3 5490   0.405   0.458  15.340 -1.3306  0.5778  0.3345
  367TMC3    C4 5491   0.211   0.356  15.183 -0.2282  0.0310  0.1815
  367TMC3    C5 5492   0.264   0.483  15.163 -0.4570  0.3835 -0.0701
  367TMC3    C6 5493   0.364   0.534  15.237  0.3719  0.4262  0.5399
  367TMC3     C 5494   0.290   0.138  15.245 -0.4506  0.1495 -0.3604
  367TMC3     O 5495   0.272   0.097  15.134  0.1176 -0.0180 -0.0294
  367TMC3     H 5496   0.431   0.262  15.421  2.6790 -0.6644 -3.3637
  367TMC3    H1 5497   0.135   0.316  15.118 -1.2005 -0.8214  1.8607
  367TMC3    H2 5498   0.437   0.605  15.200 -0.4818  1.0238 -0.0093
  367TMC3    C7 5499   0.198   0.583  15.083  1.3442  0.7853 -0.2090
  367TMC3    C8 5500   0.516   0.508  15.417  0.2278 -0.7536  0.5300
  367TMC3    O1 5501   0.237   0.698  15.101  0.4648 -0.1017  0.3007
  367TMC3    O2 5502   0.579   0.424  15.480  0.7271 -0.2577 -0.4923
  368MPD2     C 5503   1.736   2.195  13.025  0.2344 -0.0870 -0.0796
  368MPD2    C1 5504   1.744   2.328  12.987 -0.2542  0.8004 -0.3325
  368MPD2    C2 5505   1.865   2.373  12.941 -0.1608  0.7689 -0.1844
  368MPD2    C3 5506   1.981   2.295  12.945 -0.3015 -0.0696 -0.3503
  368MPD2    C4 5507   1.967   2.168  12.996  0.1079 -0.1324  0.6962
  368MPD2    C5 5508   1.845   2.120  13.029 -0.6523  1.0114  0.0684
  368MPD2     H 5509   1.876   2.474  12.903 -2.3995  0.4844 -1.5881
  368MPD2    H1 5510   2.058   2.115  13.019 -0.7073 -2.2035 -0.9470
  368MPD2    H2 5511   1.647   2.152  13.069  0.8853 -0.3614  0.9686
  368MPD2    H3 5512   1.837   2.024  13.078 -0.0482  0.9096 -0.0339
  368MPD2     N 5513   2.104   2.352  12.912 -0.4772  0.2785  0.5944
  368MPD2    H5 5514   2.189   2.304  12.940 -0.1243  0.8420  0.4881
  368MPD2    N1 5515   1.624   2.395  12.978 -0.6651  0.3978 -0.6572
  368MPD2    H7 5516   1.544   2.348  13.018  0.6718 -0.6890  0.7592
  369TMC3    C1 5517   1.477   2.558  12.914  0.1340 -0.8291 -0.2637
  369TMC3    C2 5518   1.444   2.692  12.908  0.1937  0.2807 -0.0883
  369TMC3    C3 5519   1.317   2.727  12.880  0.3159 -0.5253  0.5779
  369TMC3    C4 5520   1.382   2.461  12.880  0.0332 -0.6488  0.4151
  369TMC3    C5 5521   1.257   2.500  12.839  0.1638 -0.2599  0.4553
  369TMC3    C6 5522   1.226   2.631  12.852  0.2662 -0.6038 -0.2019
  369TMC3     C 5523   1.613   2.526  12.934 -0.0460  0.1937  0.0840
  369TMC3     O 5524   1.690   2.614  12.958  0.3775  0.1510 -1.0140
  369TMC3     H 5525   1.516   2.773  12.918  0.4772  0.0142  0.0171
  369TMC3    H1 5526   1.405   2.356  12.867 -0.0869 -0.5509 -0.5798
  369TMC3    H2 5527   1.125   2.667  12.836  0.7861  1.5475  1.2391
  369TMC3    C7 5528   1.152   2.398  12.835 -0.5574 -0.0705 -0.2579
  369TMC3    C8 5529   1.278   2.863  12.917 -0.0976  0.1207 -0.3027
  369TMC3    O1 5530   1.160   2.302  12.911  0.5382 -0.2394 -0.1881
  369TMC3    O2 5531   1.338   2.904  13.013  0.4300 -0.2995  0.2011
  370TMC3    C1 5532   1.210   2.920  16.092  0.2231  0.1821  0.3667
  370TMC3    C2 5533   1.132   2.867  16.190  0.0424 -0.6774  0.3373
  370TMC3    C3 5534   1.082   2.738  16.165 -0.4725 -0.3909  0.7840
  370TMC3    C4 5535   1.231   2.861  15.971 -0.2814  0.4324 -0.3026
  370TMC3    C5 5536   1.181   2.737  15.951  0.2973 -0.5382 -0.1619
  370TMC3    C6 5537   1.107   2.673  16.043 -0.1711 -1.2975 -0.3996
  370TMC3     C 5538   1.312   3.005  16.140  0.9761  0.3362  0.3685
  370TMC3     O 5539   1.318   2.997  16.260  0.2476  0.7695 -0.1994
  370TMC3     H 5540   1.121   2.902  16.292  1.4728  0.8916 -0.0640
  370TMC3    H1 5541   1.285   2.907  15.889 -1.0142 -0.6348 -1.3772
  370TMC3    H2 5542   1.067   2.574  16.027  0.4819 -1.7134  0.5615
  370TMC3    C7 5543   1.209   2.669  15.821  0.7696  0.0564 -0.7901
  370TMC3    C8 5544   1.038   2.655  16.275 -0.1564 -0.2558  0.4731
  370TMC3    O1 5545   1.200   2.739  15.723  0.1821  0.3993 -0.1707
  370TMC3    O2 5546   1.029   2.537  16.249 -0.1921  0.6620 -0.2726
  371TMC3    C1 5547   2.434   1.089  15.225  0.1616  0.3913 -0.1138
  371TMC3    C2 5548   2.328   1.058  15.305  0.0341 -0.9617 -0.0001
  371TMC3    C3 5549   2.231   1.155  15.326  0.5520  0.0692 -0.3743
  371TMC3    C4 5550   2.448   1.206  15.163 -0.5044 -0.3780  0.0389
  371TMC3    C5 5551   2.357   1.305  15.194 -0.1019 -0.0665  0.4121
  371TMC3    C6 5552   2.246   1.282  15.273 -0.1848  0.1684 -0.1453
  371TMC3     C 5553   2.510   0.987  15.155 -0.5924  0.1141  0.0219
  371TMC3     O 5554   2.551   1.010  15.040  0.0174 -0.0116 -0.3388
  371TMC3     H 5555   2.324   0.962  15.354 -0.8088 -0.3208  1.2005
  371TMC3    H1 5556   2.545   1.222  15.118 -0.2497 -0.9236  0.3892
  371TMC3    H2 5557   2.169   1.358  15.267  0.2046  0.5891  0.1065
  371TMC3    C7 5558   2.378   1.441  15.151  0.5316 -0.2699 -0.8417
  371TMC3    C8 5559   2.124   1.121  15.415  0.3120  0.1586 -0.0196
  371TMC3    O1 5560   2.310   1.526  15.205 -0.9285 -0.0496 -0.1817
  371TMC3    O2 5561   2.087   1.005  15.431  1.2380  0.1083  0.5435
  372MPD2     C 5562   2.116   2.647  13.155 -0.0189  0.0417 -0.3779
  372MPD2    C1 5563   2.201   2.599  13.255  0.1222  0.4092  0.1793
  372MPD2    C2 5564   2.140   2.511  13.349 -0.6330  0.0791  0.3226
  372MPD2    C3 5565   2.002   2.478  13.339 -0.4952  0.1057  0.0992
  372MPD2    C4 5566   1.922   2.527  13.235  0.2865 -0.3620  0.6750
  372MPD2    C5 5567   1.984   2.610  13.146 -0.0700  0.4929  0.4349
  372MPD2     H 5568   2.194   2.481  13.438  0.3453  0.4343 -0.1609
  372MPD2    H1 5569   1.819   2.498  13.217 -0.3588  2.4413 -0.2018
  372MPD2    H2 5570   2.147   2.716  13.078  1.1354  2.1122  1.9591
  372MPD2    H3 5571   1.918   2.658  13.074 -3.9354 -1.9309  2.3449
  372MPD2     N 5572   1.945   2.388  13.437  0.2409 -0.2450  0.3380
  372MPD2    H5 5573   2.011   2.365  13.510 -1.4873  0.6083  2.1578
  372MPD2    N1 5574   2.340   2.629  13.261  0.6618 -0.3407  0.3764
  372MPD2    H7 5575   2.374   2.615  13.355  3.7508 -1.7724 -0.9371
  373TMC3    C1 5576   1.789   2.263  13.564  0.5744  0.3686  0.2818
  373TMC3    C2 5577   1.672   2.263  13.622 -0.0912 -0.1221 -0.3777
  373TMC3    C3 5578   1.643   2.173  13.717 -0.3084  0.0790  0.2719
  373TMC3    C4 5579   1.882   2.166  13.587  0.7849  0.5864  0.4526
  373TMC3    C5 5580   1.866   2.077  13.686 -0.1389 -0.6529 -0.1257
  373TMC3    C6 5581   1.740   2.077  13.753  0.1299 -0.1748  0.0230
  373TMC3     C 5582   1.813   2.349  13.449  0.2273  1.1788  0.1718
  373TMC3     O 5583   1.712   2.373  13.381 -0.4296 -0.3313  0.3485
  373TMC3     H 5584   1.597   2.328  13.578  0.1520  0.6750  0.3829
  373TMC3    H1 5585   1.978   2.172  13.538  0.0469 -0.7066 -1.1860
  373TMC3    H2 5586   1.711   1.997  13.819  0.9549  0.6320  1.3567
  373TMC3    C7 5587   1.957   1.956  13.710 -1.0706  0.5816 -1.1736
  373TMC3    C8 5588   1.498   2.152  13.740 -0.1943  0.2491  0.2110
  373TMC3    O1 5589   2.035   1.919  13.626  0.2260 -0.1945 -0.0649
  373TMC3    O2 5590   1.428   2.165  13.640 -0.4733  0.5926 -0.0944
  374TMC3    C1 5591   2.622   2.239   9.928 -0.6298 -0.0948 -0.6522
  374TMC3    C2 5592   2.725   2.327   9.945 -0.0935  0.3313 -0.9116
  374TMC3    C3 5593   2.757   2.403   9.834 -0.5723 -0.0009  0.6571
  374TMC3    C4 5594   2.557   2.222   9.811  0.3146  0.2138 -0.2472
  374TMC3    C5 5595   2.587   2.315   9.707 -0.1119 -0.2497 -0.5656
  374TMC3    C6 5596   2.687   2.409   9.720 -0.1851  0.2002 -0.1635
  374TMC3     C 5597   2.586   2.152  10.034 -0.4096 -0.0840  0.5983
  374TMC3     O 5598   2.475   2.098  10.026  0.3378  0.1679 -0.1492
  374TMC3     H 5599   2.788   2.325  10.033 -1.2681  0.0482 -0.0679
  374TMC3    H1 5600   2.471   2.156   9.803  0.0672  0.6383 -1.1432
  374TMC3    H2 5601   2.709   2.475   9.637  0.1818  2.7209  1.9303
  374TMC3    C7 5602   2.490   2.325   9.603 -0.3157 -0.5462  0.1224
  374TMC3    C8 5603   2.874   2.485   9.830 -0.0088 -0.3243  0.9406
  374TMC3    O1 5604   2.529   2.395   9.507  0.2416 -0.0633  0.2659
  374TMC3    O2 5605   2.923   2.523   9.725 -0.6057  0.1704 -0.3886
  375MPD2     C 5606   2.907   2.931  16.852  0.5962 -0.1612 -0.0031
  375MPD2    C1 5607   2.801   2.948  16.771  0.3720 -0.5070 -0.4193
  375MPD2    C2 5608   2.813   2.923  16.640 -1.0098  0.4100  0.7722
  375MPD2    C3 5609   2.934   2.868  16.594  0.0423 -0.6253  0.1035
  375MPD2    C4 5610   3.042   2.846  16.677 -0.2688 -0.0240 -0.1887
  375MPD2    C5 5611   3.022   2.877  16.805  0.1636  0.2025 -0.2458
  375MPD2     H 5612   2.737   2.934  16.562  0.4580 -1.5479 -0.9479
  375MPD2    H1 5613   3.130   2.790  16.649 -0.1626 -0.5496  1.1553
  375MPD2    H2 5614   2.906   2.948  16.959  0.0596 -3.4631  0.5330
  375MPD2    H3 5615   3.102   2.862  16.877  0.4108 -0.6767 -0.7074
  375MPD2     N 5616   2.966   2.837  16.458  0.2327 -0.0381  0.6871
  375MPD2    H5 5617   3.055   2.791  16.439  0.0032  0.7306 -2.3540
  375MPD2    N1 5618   2.679   3.004  16.807 -0.2081  0.5284  0.4405
  375MPD2    H7 5619   2.610   2.993  16.733 -0.5726 -3.3164  1.3532
  376TMC3    C1 5620   2.982   2.846  16.233 -0.6750  0.4532 -0.1946
  376TMC3    C2 5621   3.123   2.848  16.254 -0.0916  0.2113 -0.4176
  376TMC3    C3 5622   3.195   2.847  16.138 -0.7045 -0.0433 -0.6572
  376TMC3    C4 5623   2.924   2.836  16.111 -0.1892 -0.2280  0.4748
  376TMC3    C5 5624   3.006   2.848  16.000  0.0298 -0.7282 -0.2634
  376TMC3    C6 5625   3.139   2.847  16.015  0.0593  1.1190 -0.5783
  376TMC3     C 5626   2.895   2.865  16.345 -0.2872 -0.2222  0.2127
  376TMC3     O 5627   2.782   2.908  16.328 -0.4430  0.1365 -0.1167
  376TMC3     H 5628   3.174   2.882  16.344 -1.1079 -1.2834  0.7334
  376TMC3    H1 5629   2.816   2.834  16.099 -0.1776 -0.2984  0.3784
  376TMC3    H2 5630   3.202   2.858  15.927 -0.2452 -0.3266 -0.9687
  376TMC3    C7 5631   2.956   2.865  15.863 -0.2207  0.1105 -0.1046
  376TMC3    C8 5632   3.341   2.850  16.154 -0.2554 -0.1227  0.0229
  376TMC3    O1 5633   3.040   2.871  15.776 -0.2092 -0.2836  0.0590
  376TMC3    O2 5634   3.399   2.905  16.065 -0.2542 -0.5011  0.0352
  377MPD2     C 5635   0.609   2.648  12.153 -0.5244 -0.2144  0.0081
  377MPD2    C1 5636   0.661   2.548  12.223 -0.3397  0.1411  1.2171
  377MPD2    C2 5637   0.577   2.473  12.307  0.7377  0.2335 -0.6061
  377MPD2    C3 5638   0.448   2.523  12.333 -0.4630  0.5263 -0.1108
  377MPD2    C4 5639   0.403   2.637  12.272 -0.8973  0.5696  0.3277
  377MPD2    C5 5640   0.483   2.699  12.177  0.5630  0.2588  0.0086
  377MPD2     H 5641   0.613   2.379  12.348  0.9388  0.3649 -0.4818
  377MPD2    H1 5642   0.305   2.676  12.298 -0.3608  0.6828  2.1834
  377MPD2    H2 5643   0.671   2.708  12.088 -0.8853  1.9292  1.6474
  377MPD2    H3 5644   0.461   2.795  12.132  0.3396 -0.4948 -1.4922
  377MPD2     N 5645   0.356   2.470  12.424  0.2130  0.2789  0.9735
  377MPD2    H5 5646   0.267   2.518  12.434 -0.4598 -0.8752  0.4426
  377MPD2    N1 5647   0.799   2.526  12.208  0.4912 -0.3019  0.5581
  377MPD2    H7 5648   0.850   2.596  12.155 -1.4476  0.5480 -0.2098
  378TMC3    C1 5649   1.180   2.496  12.093 -0.1291  0.2412  0.5118
  378TMC3    C2 5650   1.047   2.482  12.126  0.0605 -0.5904  0.0492
  378TMC3    C3 5651   1.009   2.427  12.247 -0.2050  0.6730  0.7130
  378TMC3    C4 5652   1.272   2.491  12.202  0.7989  0.1050  0.5754
  378TMC3    C5 5653   1.228   2.447  12.329  0.3101  0.0377  0.0104
  378TMC3    C6 5654   1.101   2.402  12.349  0.1988 -0.8468  0.0636
  378TMC3     C 5655   1.216   2.563  11.969 -0.0936  0.2858  0.1433
  378TMC3     O 5656   1.114   2.593  11.906  0.0661  0.1710  0.1788
  378TMC3     H 5657   0.980   2.475  12.041 -0.8906  1.6086  0.6257
  378TMC3    H1 5658   1.376   2.522  12.193  1.0667 -0.6367  1.1336
  378TMC3    H2 5659   1.073   2.344  12.436  1.6528  0.1883  1.2307
  378TMC3    C7 5660   1.320   2.404  12.429  0.0135  0.1609  0.4962
  378TMC3    C8 5661   0.869   2.430  12.281  0.0998 -0.0154  0.5475
  378TMC3    O1 5662   1.275   2.365  12.538  0.0639 -0.0128 -0.6296
  378TMC3    O2 5663   0.832   2.341  12.359 -0.8855  0.7342  0.2212
  379MPD2     C 5664   1.530   0.855  16.078  0.1241  0.3777  0.1860
  379MPD2    C1 5665   1.466   0.754  16.150 -1.2772 -0.2600  0.0578
  379MPD2    C2 5666   1.546   0.677  16.243 -0.1907 -0.2507  0.6913
  379MPD2    C3 5667   1.681   0.700  16.256  0.9414 -0.2601 -0.4085
  379MPD2    C4 5668   1.741   0.791  16.172 -0.1853 -0.4618  0.8650
  379MPD2    C5 5669   1.669   0.877  16.090  0.1575 -0.3075 -0.0836
  379MPD2     H 5670   1.497   0.609  16.311 -1.1519  0.7916  1.0319
  379MPD2    H1 5671   1.848   0.810  16.173  0.0024 -1.4148 -1.1675
  379MPD2    H2 5672   1.483   0.914  16.001  2.2792  2.0668  0.1415
  379MPD2    H3 5673   1.725   0.949  16.031  0.4576 -0.3178  0.1853
  379MPD2     N 5674   1.765   0.629  16.344  0.0443  0.0113  0.6655
  379MPD2    H5 5675   1.863   0.631  16.317 -0.2292 -1.6611 -0.4938
  379MPD2    N1 5676   1.336   0.715  16.107 -0.4919  0.2284 -0.2867
  379MPD2    H7 5677   1.311   0.765  16.022  1.5395  3.3199  0.9668
  380TMC3    C1 5678   1.165   0.583  16.047  0.0195  0.0671  0.2844
  380TMC3    C2 5679   1.145   0.455  16.019 -0.8235  0.1492 -0.1567
  380TMC3    C3 5680   1.118   0.415  15.894  0.0847 -0.0513 -0.3490
  380TMC3    C4 5681   1.130   0.681  15.953  1.0819 -0.4884  0.1400
  380TMC3    C5 5682   1.087   0.632  15.833  0.1773 -0.0383  0.0413
  380TMC3    C6 5683   1.085   0.503  15.795  0.3430  0.7283  0.3128
  380TMC3     C 5684   1.256   0.616  16.148  0.1131 -0.0530  0.4067
  380TMC3     O 5685   1.283   0.528  16.229  0.6160 -0.4487  0.1107
  380TMC3     H 5686   1.169   0.388  16.101 -0.2774  1.8663  1.1036
  380TMC3    H1 5687   1.123   0.786  15.977  0.5897 -0.5329  0.1951
  380TMC3    H2 5688   1.056   0.479  15.693 -1.1288 -2.8606  1.5566
  380TMC3    C7 5689   1.012   0.730  15.759  0.0549  0.5631  0.5771
  380TMC3    C8 5690   1.133   0.279  15.853  0.4813  0.3526  0.3115
  380TMC3    O1 5691   1.033   0.846  15.792 -0.1760 -0.1306  0.0089
  380TMC3    O2 5692   1.107   0.253  15.741  0.1034  0.8109  0.6946
  381TMC3    C1 5693   1.089   2.024  16.067 -0.2645  0.2267  0.3698
  381TMC3    C2 5694   1.180   2.120  16.098 -0.4183 -0.3898  0.0809
  381TMC3    C3 5695   1.145   2.215  16.185 -0.6923 -0.4144  0.0197
  381TMC3    C4 5696   0.965   2.027  16.122 -0.6381 -0.5677  0.1289
  381TMC3    C5 5697   0.932   2.131  16.214  0.5310 -0.0539 -0.1299
  381TMC3    C6 5698   1.017   2.229  16.241 -0.7222  0.5479  0.5123
  381TMC3     C 5699   1.133   1.939  15.965 -0.8768  1.0410  0.4765
  381TMC3     O 5700   1.227   1.975  15.894 -0.2018  0.0081 -0.5305
  381TMC3     H 5701   1.266   2.139  16.035 -1.0654 -0.5347 -0.8567
  381TMC3    H1 5702   0.881   1.964  16.093  0.2693 -2.1481  0.8997
  381TMC3    H2 5703   1.017   2.296  16.327  0.3723 -0.4145  1.2615
  381TMC3    C7 5704   0.856   2.078  16.325 -0.3488  0.1319 -1.1656
  381TMC3    C8 5705   1.233   2.334  16.167  0.5753  0.3479  0.2568
  381TMC3    O1 5706   0.822   1.960  16.315  0.0582  0.4422  0.0429
  381TMC3    O2 5707   1.242   2.377  16.055 -0.0695  0.7635 -0.1807
  382MPD2     C 5708   0.882   3.874  17.361  0.1817 -0.0575 -0.1877
  382MPD2    C1 5709   0.808   3.962  17.432 -0.3457  0.0212 -0.6979
  382MPD2    C2 5710   0.671   3.940  17.468 -0.1628  0.4171 -0.2076
  382MPD2    C3 5711   0.620   3.818  17.428  0.2620  0.6452  0.2065
  382MPD2    C4 5712   0.696   3.723  17.364 -0.2650 -0.1314  0.7021
  382MPD2    C5 5713   0.826   3.754  17.323  1.0278  0.2019  0.6759
  382MPD2     H 5714   0.614   4.022  17.510  0.1734  0.1505  0.7770
  382MPD2    H1 5715   0.642   3.631  17.346 -0.2268 -0.2737  1.3109
  382MPD2    H2 5716   0.989   3.881  17.348  0.3675 -0.5374  1.0564
  382MPD2    H3 5717   0.888   3.680  17.274  1.0173 -0.2081  1.2879
  382MPD2     N 5718   0.487   3.781  17.456  0.0095  0.1981  0.2985
  382MPD2    H5 5719   0.451   3.695  17.415  1.9809 -1.0710  1.1961
  382MPD2    N1 5720   0.873   4.077  17.487  0.1628 -0.2193 -0.5851
  382MPD2    H7 5721   0.809   4.128  17.548  0.9114 -0.8781  0.7625
  383TMC3    C1 5722   0.264   3.800  17.536  0.3387 -0.4612  0.5446
  383TMC3    C2 5723   0.213   3.753  17.415  0.0424  0.8265  0.1436
  383TMC3    C3 5724   0.077   3.759  17.416 -0.4438 -0.2458  0.8687
  383TMC3    C4 5725   0.184   3.838  17.648  0.2587  0.2508  0.6064
  383TMC3    C5 5726   0.053   3.841  17.630 -0.5742  0.1269 -0.1396
  383TMC3    C6 5727   4.719   3.807  17.511  0.2629  0.3755 -0.0399
  383TMC3     C 5728   0.402   3.847  17.542  0.0623  0.3426  1.0954
  383TMC3     O 5729   0.434   3.925  17.634  0.8359  0.3412 -0.2781
  383TMC3     H 5730   0.265   3.727  17.323  0.0919  2.1000 -0.1851
  383TMC3    H1 5731   0.220   3.840   0.049  1.4606 -2.5676  0.2231
  383TMC3    H2 5732   4.611   3.805  17.501  0.1546  2.0346  0.7527
  383TMC3    C7 5733   4.687   3.891   0.033  0.6946  0.4963  0.7605
  383TMC3    C8 5734   0.010   3.676  17.317  0.0805  0.2788  0.0496
  383TMC3    O1 5735   4.569   3.867   0.008 -0.1746  0.1645 -0.5324
  383TMC3    O2 5736   4.614   3.699  17.295  0.1520  0.4766 -0.7066
  384MPD2     C 5737   1.992   0.685  11.738  0.5503  0.2800 -0.3697
  384MPD2    C1 5738   2.004   0.597  11.847  0.0624  1.1088  0.4001
  384MPD2    C2 5739   2.035   0.466  11.828  0.8445  0.0256  0.1292
  384MPD2    C3 5740   2.067   0.420  11.696  0.4234  0.2610  0.2409
  384MPD2    C4 5741   2.055   0.507  11.584  0.4459 -0.9697 -0.0977
  384MPD2    C5 5742   2.013   0.639  11.606 -0.5620 -0.3542 -0.1070
  384MPD2     H 5743   2.035   0.396  11.910 -0.0642 -0.4753 -0.2954
  384MPD2    H1 5744   2.071   0.474  11.482 -0.3062  0.6379 -0.7257
  384MPD2    H2 5745   1.975   0.790  11.759 -0.1103  0.2984 -1.0107
  384MPD2    H3 5746   2.015   0.694  11.512  1.6021 -0.2887 -0.0225
  384MPD2     N 5747   2.100   0.281  11.681  0.4776  0.5787  0.1304
  384MPD2    H5 5748   2.082   0.221  11.760 -1.4371  1.0195  0.0194
  384MPD2    N1 5749   1.967   0.633  11.979  0.0303 -0.7195  0.3315
  384MPD2    H7 5750   1.968   0.556  12.045 -1.7749 -0.4562  0.6715
  385TMC3    C1 5751   2.132   0.079  11.585  0.4855  0.0982  0.2879
  385TMC3    C2 5752   2.033   0.022  11.509 -0.1087 -0.0294 -0.4168
  385TMC3    C3 5753   1.930   4.683  11.572 -0.5271  0.4329 -0.3971
  385TMC3    C4 5754   2.139   0.052  11.716  0.2581  0.1984 -0.4119
  385TMC3    C5 5755   2.041   4.708  11.777 -0.4920 -0.1665 -0.5456
  385TMC3    C6 5756   1.921   4.679  11.709  0.2137  0.2242 -0.2745
  385TMC3     C 5757   2.136   0.219  11.562  0.1155  0.2271  0.0217
  385TMC3     O 5758   2.166   0.261  11.450 -0.0798  0.7097  0.6638
  385TMC3     H 5759   2.022   0.056  11.407 -0.3865  0.7279 -0.1354
  385TMC3    H1 5760   2.229   0.083  11.768 -0.5832  0.6191  0.8069
  385TMC3    H2 5761   1.843   4.617  11.754  0.1192  0.5707  0.0387
  385TMC3    C7 5762   2.020   0.039  11.908  0.9187 -0.0885  0.4068
  385TMC3    C8 5763   1.806   4.675  11.508 -0.0188  0.3079 -0.7426
  385TMC3    O1 5764   2.065   0.147  11.927  0.3053 -0.2603  0.4259
  385TMC3    O2 5765   1.703   4.704  11.566  0.2259 -0.3607  0.0089
  386TMC3    C1 5766   1.781   2.943  11.746  0.2491 -0.2686  0.6123
  386TMC3    C2 5767   1.806   2.966  11.613  0.2176 -0.0816  0.3429
  386TMC3    C3 5768   1.733   3.060  11.542 -0.0619  0.8342 -0.3015
  386TMC3    C4 5769   1.654   2.957  11.784 -0.2997 -0.1310  0.6093
  386TMC3    C5 5770   1.573   3.027  11.708 -0.2585  0.2023 -0.4951
  386TMC3    C6 5771   1.608   3.098  11.593 -0.2797 -0.4636 -0.1598
  386TMC3     C 5772   1.874   2.895  11.844  0.0644  0.0721 -0.6884
  386TMC3     O 5773   1.820   2.880  11.954  0.2299 -0.9447  0.0161
  386TMC3     H 5774   1.903   2.936  11.576 -0.9732 -1.8745 -1.3274
  386TMC3    H1 5775   1.609   2.924  11.877 -0.1456 -0.1895  0.6638
  386TMC3    H2 5776   1.548   3.169  11.537  1.9183  0.7854 -0.9619
  386TMC3    C7 5777   1.442   3.056  11.758 -0.1711  0.6270 -0.2269
  386TMC3    C8 5778   1.734   3.060  11.399 -0.0181  0.8087  0.3574
  386TMC3    O1 5779   1.418   3.046  11.878 -0.0791 -0.1225 -0.6854
  386TMC3    O2 5780   1.666   3.146  11.343 -0.2553 -0.1115 -0.0321
  387MPD2     C 5781   4.353   2.849   9.254  0.8049 -0.1328 -0.1526
  387MPD2    C1 5782   4.472   2.853   9.330 -0.4364  0.2534  0.4342
  387MPD2    C2 5783   4.546   2.735   9.338  0.0243 -0.3921  0.4884
  387MPD2    C3 5784   4.510   2.611   9.289  0.4151  0.3357  0.1455
  387MPD2    C4 5785   4.395   2.608   9.214  0.1606 -0.1369 -0.0103
  387MPD2    C5 5786   4.319   2.725   9.199  0.1295  0.4398  0.5385
  387MPD2     H 5787   4.636   2.738   9.399 -0.1422 -0.0264  0.7111
  387MPD2    H1 5788   4.361   2.514   9.172 -0.2954 -0.5985  1.3854
  387MPD2    H2 5789   4.290   2.935   9.235 -1.0706 -1.5678 -0.5075
  387MPD2    H3 5790   4.226   2.719   9.142  0.5223 -1.8201  0.1384
  387MPD2     N 5791   4.589   2.506   9.332 -0.4474  0.5253 -0.3177
  387MPD2    H5 5792   4.663   2.535   9.395 -1.5822 -0.7647  1.6151
  387MPD2    N1 5793   4.515   2.959   9.408  0.3845 -0.8184  0.5027
  387MPD2    H7 5794   4.603   2.932   9.450 -0.2870 -2.5970  0.7642
  388TMC3    C1 5795   4.523   3.156   9.538 -0.6174 -0.0737  0.3603
  388TMC3    C2 5796   4.492   3.284   9.558 -0.0505  0.4342 -0.0212
  388TMC3    C3 5797   4.508   3.341   9.682  0.4756 -0.3768  0.4476
  388TMC3    C4 5798   4.577   3.080   9.639  0.3216  0.1580 -0.2329
  388TMC3    C5 5799   4.603   3.138   9.760 -0.1510 -0.3071 -0.2376
  388TMC3    C6 5800   4.567   3.266   9.776 -0.1974  0.5336 -0.1538
  388TMC3     C 5801   4.468   3.089   9.420 -0.1454  0.9036  0.3047
  388TMC3     O 5802   4.399   3.150   9.342 -0.0657 -0.2354  0.1374
  388TMC3     H 5803   4.473   3.340   9.467 -0.8461  0.7180  0.3133
  388TMC3    H1 5804   4.593   2.973   9.631 -2.7383 -0.0421 -3.4201
  388TMC3    H2 5805   4.586   3.312   9.872 -0.3351 -3.3827  1.7846
  388TMC3    C7 5806   4.685   3.072   9.861  0.5163 -0.2947 -0.0795
  388TMC3    C8 5807   4.438   3.460   9.718  0.4181  0.1541 -0.4169
  388TMC3    O1 5808   4.696   3.119   9.971 -0.1864  0.0239 -0.0426
  388TMC3    O2 5809   4.445   3.490   9.837 -0.0234  0.1376 -0.0279
  389MPD2     C 5810   3.769   0.504  11.209  0.0021 -0.3046  0.2336
  389MPD2    C1 5811   3.773   0.601  11.300  0.5648  0.3276  0.1121
  389MPD2    C2 5812   3.692   0.594  11.412 -0.4673  0.1010 -0.1173
  389MPD2    C3 5813   3.590   0.498  11.417 -0.5836 -1.0543  0.3040
  389MPD2    C4 5814   3.572   0.410  11.317  0.0931 -0.6235  0.1173
  389MPD2    C5 5815   3.669   0.409  11.219  0.0545  0.3195 -0.4474
  389MPD2     H 5816   3.690   0.667  11.492  0.2424  1.2885 -1.1746
  389MPD2    H1 5817   3.483   0.351  11.296 -1.8872  2.6641 -0.7017
  389MPD2    H2 5818   3.830   0.512  11.120  0.5196 -0.7850  0.5418
  389MPD2    H3 5819   3.645   0.343  11.136 -2.3122  2.2103 -1.2960
  389MPD2     N 5820   3.499   0.498  11.526  0.1049 -0.7972  0.1660
  389MPD2    H5 5821   3.412   0.447  11.516 -0.7999  1.0102 -1.1836
  389MPD2    N1 5822   3.863   0.706  11.270  0.0688  0.1922 -0.2081
  389MPD2    H7 5823   3.919   0.699  11.186 -1.6986 -0.3271 -1.3508
  390TMC3    C1 5824   3.418   0.545  11.737 -0.4251  0.4638  0.1047
  390TMC3    C2 5825   3.446   0.540  11.871  0.3793  0.3005  0.9618
  390TMC3    C3 5826   3.348   0.538  11.962 -0.3164  0.2770 -0.2843
  390TMC3    C4 5827   3.289   0.560  11.690  0.0351  0.0620  1.3387
  390TMC3    C5 5828   3.193   0.575  11.777  0.3925 -0.2804 -0.6848
  390TMC3    C6 5829   3.219   0.569  11.913 -0.2494 -0.8329  0.4371
  390TMC3     C 5830   3.528   0.544  11.653 -0.5635  0.4477  0.1274
  390TMC3     O 5831   3.631   0.583  11.699  0.4910 -0.2552  0.6640
  390TMC3     H 5832   3.553   0.537  11.892  0.8139 -1.7094 -1.4742
  390TMC3    H1 5833   3.272   0.572  11.584  1.4249  1.7867  1.2878
  390TMC3    H2 5834   3.134   0.573  11.980 -1.7734 -1.0859 -1.4860
  390TMC3    C7 5835   3.051   0.550  11.742 -0.9909  0.2189 -0.4981
  390TMC3    C8 5836   3.344   0.424  12.050 -0.3842 -0.2853 -0.4011
  390TMC3    O1 5837   2.970   0.617  11.811 -0.4259 -0.2767 -0.1656
  390TMC3    O2 5838   3.414   0.335  12.016  0.4151 -0.4850 -0.0918
  391MPD2     C 5839   3.014   2.347  11.399 -0.9280  0.5361 -0.5264
  391MPD2    C1 5840   3.138   2.414  11.383 -0.4538 -0.0463 -0.1667
  391MPD2    C2 5841   3.171   2.461  11.252 -0.6674 -0.2515 -0.2540
  391MPD2    C3 5842   3.092   2.430  11.144  0.0063  0.2224 -0.2319
  391MPD2    C4 5843   2.976   2.357  11.163 -0.6742  0.0511  0.7187
  391MPD2    C5 5844   2.931   2.321  11.290 -0.7633 -0.2410  0.1881
  391MPD2     H 5845   3.265   2.513  11.237  0.4128 -2.6851 -2.0427
  391MPD2    H1 5846   2.915   2.334  11.076  1.2439 -1.2209 -0.2913
  391MPD2    H2 5847   2.980   2.318  11.498 -0.5811  0.6308 -0.3794
  391MPD2    H3 5848   2.840   2.264  11.303 -0.3878 -0.6022  1.2517
  391MPD2     N 5849   3.146   2.463  11.014  0.2176 -0.0795  0.2531
  391MPD2    H5 5850   3.241   2.500  11.013  1.7183 -3.9242 -1.3586
  391MPD2    N1 5851   3.216   2.438  11.500  0.5937 -0.6816 -0.0132
  391MPD2    H7 5852   3.193   2.392  11.588 -1.0145 -0.7914 -0.4900
  392TMC3    C1 5853   3.159   2.506  10.777 -0.3729 -0.7845 -0.6561
  392TMC3    C2 5854   3.104   2.511  10.654  0.0213  0.5265  0.2212
  392TMC3    C3 5855   3.180   2.569  10.553 -0.1753  0.0003 -0.2019
  392TMC3    C4 5856   3.287   2.542  10.797  0.3048 -0.3230  0.2600
  392TMC3    C5 5857   3.365   2.594  10.688 -0.1776  0.5032  0.7784
  392TMC3    C6 5858   3.304   2.611  10.568 -0.1850  0.0930  0.3593
  392TMC3     C 5859   3.083   2.460  10.893 -0.3733  0.4812  0.2012
  392TMC3     O 5860   2.963   2.458  10.870  0.6180  0.1123  0.2058
  392TMC3     H 5861   2.998   2.492  10.642 -0.3570  0.5620  3.4899
  392TMC3    H1 5862   3.343   2.518  10.887  0.2251  1.7731  0.8739
  392TMC3    H2 5863   3.351   2.674  10.493 -0.3940 -0.7997 -0.5283
  392TMC3    C7 5864   3.460   2.695  10.731  0.3265 -0.0030 -0.0947
  392TMC3    C8 5865   3.121   2.576  10.418  0.0988 -0.2271 -0.2079
  392TMC3    O1 5866   3.451   2.751  10.839 -1.0490  0.5218 -0.3481
  392TMC3    O2 5867   3.009   2.530  10.404  0.3708  0.1772  0.1187
  393TMC3    C1 5868   2.355   0.750  10.490  0.2179 -0.3215  0.2035
  393TMC3    C2 5869   2.228   0.765  10.544  0.4058  0.1894  0.8108
  393TMC3    C3 5870   2.184   0.663  10.618  0.1722  0.4359  0.2001
  393TMC3    C4 5871   2.420   0.635  10.501 -0.1097 -0.5232 -0.2071
  393TMC3    C5 5872   2.376   0.539  10.589 -0.5323  0.0518 -0.0727
  393TMC3    C6 5873   2.253   0.549  10.648 -0.1214  0.4222  0.9921
  393TMC3     C 5874   2.392   0.860  10.410 -0.3856  0.1362 -0.3046
  393TMC3     O 5875   2.301   0.939  10.388  0.3760  0.3736  0.4024
  393TMC3     H 5876   2.169   0.856  10.539 -0.6812 -0.4763  1.4446
  393TMC3    H1 5877   2.514   0.623  10.448  1.4021  2.4491  1.7792
  393TMC3    H2 5878   2.216   0.474  10.718  0.1196  1.0125  1.7536
  393TMC3    C7 5879   2.454   0.426  10.627 -0.2952  0.6044 -0.3992
  393TMC3    C8 5880   2.043   0.664  10.650  0.4706  0.7002 -0.1859
  393TMC3    O1 5881   2.395   0.323  10.665 -0.2659  0.3456 -0.2027
  393TMC3    O2 5882   1.969   0.712  10.565 -0.0199  0.5274  0.5448
  394TMC3    C1 5883   3.924   0.923  11.228 -0.2559  0.3002  0.1533
  394TMC3    C2 5884   3.909   1.056  11.256  0.8996  0.0682  0.3114
  394TMC3    C3 5885   4.005   1.141  11.211  0.4795 -0.7107  0.6010
  394TMC3    C4 5886   4.032   0.878  11.165 -0.4224  0.8583 -0.6618
  394TMC3    C5 5887   4.133   0.962  11.132 -0.2853  0.2846  0.2987
  394TMC3    C6 5888   4.120   1.098  11.156 -0.0054  0.8172 -0.1688
  394TMC3     C 5889   3.847   0.837  11.316 -0.9394  0.0788 -0.7511
  394TMC3     O 5890   3.780   0.870  11.415  0.0908 -0.1518 -0.4049
  394TMC3     H 5891   3.819   1.084  11.309  0.6627  0.3820 -0.2559
  394TMC3    H1 5892   4.058   0.774  11.153  1.4005  1.2076  0.2685
  394TMC3    H2 5893   4.187   1.173  11.116 -1.9042  3.0560  0.8389
  394TMC3    C7 5894   4.219   0.936  11.013  0.2870  0.5632  0.0557
  394TMC3    C8 5895   3.980   1.285  11.226  0.2654 -0.2295 -0.5757
  394TMC3    O1 5896   4.305   1.022  10.992  0.7042 -0.5339 -0.0818
  394TMC3    O2 5897   3.910   1.315  11.322 -0.2191 -0.1688 -0.2817
  395TMC3    C1 5898   3.341   3.148  13.993 -0.4088 -0.4774 -0.2030
  395TMC3    C2 5899   3.216   3.136  14.050  0.1174  0.4504  0.2751
  395TMC3    C3 5900   3.207   3.178  14.182  0.2706  0.0109 -0.4950
  395TMC3    C4 5901   3.449   3.210  14.048  0.8151 -0.1750 -0.3592
  395TMC3    C5 5902   3.435   3.247  14.181  0.3837 -0.1396 -0.0847
  395TMC3    C6 5903   3.319   3.232  14.252  0.3190  0.1241 -0.4236
  395TMC3     C 5904   3.370   3.062  13.883  0.1725  0.1647 -0.1481
  395TMC3     O 5905   3.424   3.112  13.783  0.8327 -0.4855  0.3197
  395TMC3     H 5906   3.142   3.086  13.989 -1.0752  2.0160  0.4631
  395TMC3    H1 5907   3.540   3.214  13.989  1.2126  0.9653  0.3195
  395TMC3    H2 5908   3.309   3.267  14.354 -0.2946 -0.2613 -0.3533
  395TMC3    C7 5909   3.543   3.222  14.270 -0.1192 -0.0749 -0.5674
  395TMC3    C8 5910   3.106   3.115  14.266 -0.2364  0.0996 -0.0211
  395TMC3    O1 5911   3.516   3.206  14.386  0.1956  0.2417  0.1083
  395TMC3    O2 5912   3.128   3.123  14.389  0.5769  0.1779  0.1036
  396MPD2     C 5913   3.111   3.671  16.894 -0.9694  0.3619 -0.0686
  396MPD2    C1 5914   3.197   3.725  16.985  0.2484  0.1457 -0.1045
  396MPD2    C2 5915   3.274   3.828  16.939 -0.8216 -0.1025  0.8374
  396MPD2    C3 5916   3.250   3.902  16.818  0.6827  0.3582  0.9150
  396MPD2    C4 5917   3.152   3.858  16.734  0.3223 -0.3882  0.0032
  396MPD2    C5 5918   3.093   3.738  16.772  0.9246  0.4634  0.3856
  396MPD2     H 5919   3.359   3.862  16.997 -0.1631 -2.2984  1.1402
  396MPD2    H1 5920   3.124   3.903  16.640  0.8304 -1.2495 -0.5606
  396MPD2    H2 5921   3.055   3.579  16.905 -1.4932  0.3776 -2.5154
  396MPD2    H3 5922   3.027   3.693  16.699 -0.5716  0.5379  1.6640
  396MPD2     N 5923   3.353   3.992  16.779 -0.7131  0.2878 -0.2489
  396MPD2    H5 5924   3.424   4.010  16.849 -1.9303  1.7226  0.5993
  396MPD2    N1 5925   3.207   3.677  17.113  0.4669 -0.4233  0.2167
  396MPD2    H7 5926   3.169   3.586  17.136  1.4607 -0.3461  2.1106
  397TMC3    C1 5927   3.284   3.654  17.338 -0.2822 -0.8453  0.1298
  397TMC3    C2 5928   3.402   3.677  17.409 -0.0748  0.1437 -0.2653
  397TMC3    C3 5929   3.491   3.575  17.419 -0.7535 -0.9135  0.0651
  397TMC3    C4 5930   3.240   3.523  17.320  0.3587  0.8011  0.2227
  397TMC3    C5 5931   3.325   3.423  17.365  0.0542 -0.1144 -0.2076
  397TMC3    C6 5932   3.455   3.445  17.400  0.1333 -0.6254 -0.2492
  397TMC3     C 5933   3.269   3.741  17.221 -0.4944  0.6390 -0.0233
  397TMC3     O 5934   3.301   3.861  17.226  0.0194  0.4504  0.3205
  397TMC3     H 5935   3.454   3.769  17.385  0.0697  0.6106  1.8426
  397TMC3    H1 5936   3.135   3.499  17.308  1.3667 -3.6142  0.2251
  397TMC3    H2 5937   3.526   3.366  17.418 -1.7533 -2.1759  0.3331
  397TMC3    C7 5938   3.258   3.323  17.440  0.1140  0.3208 -0.7381
  397TMC3    C8 5939   3.620   3.603  17.354 -0.1989 -0.6688 -0.1082
  397TMC3    O1 5940   3.155   3.271  17.404 -0.4685 -0.0171 -0.0151
  397TMC3    O2 5941   3.652   3.514  17.278  0.1452  0.3662 -0.5053
  398MPD2     C 5942   1.617   4.482  17.523  0.7384  0.1306  0.3137
  398MPD2    C1 5943   1.634   4.417  17.643  0.2167  1.1540 -0.5822
  398MPD2    C2 5944   1.712   4.474   0.029  0.0226  0.9525 -0.2445
  398MPD2    C3 5945   1.769   4.602   0.019 -0.5572 -0.2659 -0.2261
  398MPD2    C4 5946   1.738   4.669  17.602 -0.4162  0.1151 -0.6380
  398MPD2    C5 5947   1.661   4.609  17.505 -0.5854  1.1547 -0.7647
  398MPD2     H 5948   1.733   4.420   0.121 -0.3218 -4.1118 -3.0937
  398MPD2    H1 5949   1.772   0.044  17.576 -0.5935  0.1304 -0.8163
  398MPD2    H2 5950   1.568   4.430  17.442  0.4604  1.3933 -0.3337
  398MPD2    H3 5951   1.636   4.668  17.417  0.6067  0.1454 -1.7788
  398MPD2     N 5952   1.849   4.648   0.124 -0.1171  0.4230  0.3603
  398MPD2    H5 5953   1.883   4.577   0.187 -0.5931 -0.8101 -0.7730
  398MPD2    N1 5954   1.584   4.289  17.667  0.3424 -0.4460 -0.3804
  398MPD2    H7 5955   1.610   4.232   0.045  2.4327 -2.1246 -2.2620
  399TMC3    C1 5956   1.466   4.095  17.636 -0.6312  0.5816  0.8767
  399TMC3    C2 5957   1.564   4.023  17.696  0.0910 -0.2303 -0.3805
  399TMC3    C3 5958   1.532   3.895   0.025  0.5965 -0.1899 -0.5794
  399TMC3    C4 5959   1.346   4.043  17.598  0.3327  0.7436 -0.3747
  399TMC3    C5 5960   1.330   3.912  17.618 -0.0597  0.1670 -0.2994
  399TMC3    C6 5961   1.416   3.830  17.689  0.4060  0.2646  0.1954
  399TMC3     C 5962   1.489   4.228  17.590 -0.1303  0.3631 -0.5461
  399TMC3     O 5963   1.419   4.264  17.498  0.7915 -0.1227 -0.0116
  399TMC3     H 5964   1.667   4.058   0.000  0.2336 -0.6503 -0.3282
  399TMC3    H1 5965   1.274   4.084  17.528 -2.3311  0.4866  2.2069
  399TMC3    H2 5966   1.386   3.733   0.024 -1.6485  1.7373  2.4504
  399TMC3    C7 5967   1.190   3.865  17.617  0.2249 -0.1976 -0.1500
  399TMC3    C8 5968   1.637   3.822   0.098  0.3997 -0.2980 -0.1275
  399TMC3    O1 5969   1.162   3.749  17.591 -0.1433  0.2619  0.4019
  399TMC3    O2 5970   1.706   3.889   0.173  0.5819  0.1411  0.5515
  400TMC3    C1 5971   0.379   3.387  16.831 -0.7716  0.8046 -0.2283
  400TMC3    C2 5972   0.265   3.374  16.755 -0.9216 -0.4601  0.0342
  400TMC3    C3 5973   0.194   3.487  16.731  0.3508  0.9186  0.7255
  400TMC3    C4 5974   0.406   3.508  16.894  0.0476  0.2448  0.1603
  400TMC3    C5 5975   0.332   3.615  16.862  0.5732  0.4999 -0.3305
  400TMC3    C6 5976   0.221   3.611  16.784 -0.5536 -0.1187  0.5306
  400TMC3     C 5977   0.427   3.265  16.887 -0.1882  0.3186 -0.0350
  400TMC3     O 5978   0.436   3.163  16.823  0.2952 -0.0449 -0.3044
  400TMC3     H 5979   0.234   3.278  16.718  0.7401 -1.3336  0.9116
  400TMC3    H1 5980   0.497   3.519  16.951  0.9031 -1.0607 -0.9545
  400TMC3    H2 5981   0.166   3.700  16.756 -0.3837  0.4395  1.9785
  400TMC3    C7 5982   0.365   3.738  16.930  0.2857 -0.1154 -0.4664
  400TMC3    C8 5983   0.063   3.482  16.673 -0.0398  0.6119 -0.0141
  400TMC3    O1 5984   0.482   3.770  16.929 -0.1208  0.1898  0.1046
  400TMC3    O2 5985   4.721   3.583  16.672  0.5778 -0.4067 -0.2218
  401MPD2     C 5986   2.986   2.233  17.122  0.7017 -0.4554 -0.0711
  401MPD2    C1 5987   2.941   2.190  17.248  0.5314  0.2237  0.2662
  401MPD2    C2 5988   2.989   2.072  17.299  0.3828  0.3529 -0.4217
  401MPD2    C3 5989   3.074   1.993  17.225 -0.8496  0.1463 -0.0604
  401MPD2    C4 5990   3.085   2.019  17.093  0.0255  0.0886 -0.0344
  401MPD2    C5 5991   3.049   2.144  17.051 -0.0199 -0.1874  0.5416
  401MPD2     H 5992   2.963   2.049  17.402  0.4912 -0.5379 -0.5948
  401MPD2    H1 5993   3.136   1.948  17.029  1.1724  0.6072  0.2999
  401MPD2    H2 5994   2.960   2.328  17.077  0.6146 -0.0491  0.8392
  401MPD2    H3 5995   3.071   2.177  16.950 -0.6686 -1.7734 -0.1046
  401MPD2     N 5996   3.126   1.883  17.302  0.3355 -0.3578  0.2000
  401MPD2    H5 5997   3.087   1.880  17.395 -2.4647  2.2531 -0.9139
  401MPD2    N1 5998   2.855   2.259  17.334  0.2647 -0.3703 -0.4813
  401MPD2    H7 5999   2.830   2.216  17.422  0.2797 -1.6672 -1.1135
  402TMC3    C1 6000   3.229   1.677  17.351  0.4666  0.0825  0.3042
  402TMC3    C2 6001   3.174   1.681  17.477  0.3744  1.0684  0.7885
  402TMC3    C3 6002   3.181   1.561  17.547 -0.0428  0.3786 -0.4729
  402TMC3    C4 6003   3.294   1.572  17.297 -0.5218 -0.2426  0.3542
  402TMC3    C5 6004   3.321   1.470  17.377  1.1235  0.5453 -0.1875
  402TMC3    C6 6005   3.271   1.463  17.503 -0.5334  0.1906 -0.0671
  402TMC3     C 6006   3.210   1.786  17.254  0.2640 -0.7212  0.0380
  402TMC3     O 6007   3.247   1.775  17.141 -0.1314 -0.4522  0.0514
  402TMC3     H 6008   3.137   1.774  17.520 -2.4358 -0.0146  0.6811
  402TMC3    H1 6009   3.343   1.576  17.200 -0.0941  0.9816  0.6157
  402TMC3    H2 6010   3.280   1.374  17.565  0.1928 -0.6537 -1.3922
  402TMC3    C7 6011   3.420   1.370  17.342  0.4125  0.2570  0.0278
  402TMC3    C8 6012   3.152   1.559  17.690  0.6484 -1.1436 -0.8709
  402TMC3    O1 6013   3.475   1.330  17.442 -0.4336  0.4246 -0.2562
  402TMC3    O2 6014   3.222   1.489   0.058 -0.5782  0.2321 -0.1731
  403MPD2     C 6015   1.686   0.691  13.060  0.8617 -0.1669  0.7463
  403MPD2    C1 6016   1.667   0.607  13.168 -0.0931  0.5096 -0.4893
  403MPD2    C2 6017   1.751   0.631  13.284  0.1800 -0.1359 -0.1790
  403MPD2    C3 6018   1.835   0.743  13.295  0.0125  0.1338 -0.6803
  403MPD2    C4 6019   1.831   0.838  13.200 -0.3799  0.2850  0.1483
  403MPD2    C5 6020   1.774   0.799  13.081 -0.3212  0.5303  0.5193
  403MPD2     H 6021   1.748   0.561  13.367  0.4042  1.0195  0.7987
  403MPD2    H1 6022   1.904   0.918  13.192 -0.3905  0.2720 -0.0715
  403MPD2    H2 6023   1.628   0.676  12.970 -0.0132 -0.2071  1.3205
  403MPD2    H3 6024   1.796   0.858  12.992  1.6797 -0.9300  0.0491
  403MPD2     N 6025   1.903   0.758  13.420  0.6760  0.0041  0.8200
  403MPD2    H5 6026   1.890   0.684  13.488 -2.2763  1.5185  1.8904
  403MPD2    N1 6027   1.572   0.502  13.149 -0.3133  0.0335 -0.3073
  403MPD2    H7 6028   1.539   0.494  13.054 -2.4711 -0.5488  0.5124
  404TMC3    C1 6029   1.433   0.322  13.206 -0.1987  0.5319  0.4989
  404TMC3    C2 6030   1.432   0.208  13.283  0.8114 -0.4970  0.2853
  404TMC3    C3 6031   1.395   0.092  13.222  0.0847 -0.3997  0.5375
  404TMC3    C4 6032   1.394   0.320  13.076  0.6246 -0.4697 -0.6036
  404TMC3    C5 6033   1.369   0.200  13.013  0.8292  0.6674 -0.2768
  404TMC3    C6 6034   1.375   0.077  13.084 -0.2583 -0.0091 -0.6672
  404TMC3     C 6035   1.523   0.430  13.253 -0.3602 -0.1296  0.2163
  404TMC3     O 6036   1.550   0.435  13.371  0.1880  0.3457 -0.1900
  404TMC3     H 6037   1.490   0.199  13.374  0.8074 -0.3969  0.2980
  404TMC3    H1 6038   1.379   0.414  13.024  1.6700 -0.2660 -0.5325
  404TMC3    H2 6039   1.355   4.700  13.055 -0.9899  0.2715 -1.1737
  404TMC3    C7 6040   1.319   0.209  12.887 -0.1811 -0.3117 -0.3867
  404TMC3    C8 6041   1.424   4.700  13.299 -0.3611  0.9956 -0.3287
  404TMC3    O1 6042   1.338   0.320  12.836 -0.0795  0.1711  0.4185
  404TMC3    O2 6043   1.437   4.598  13.236  0.2783 -0.2908 -0.0982
  405MPD2     C 6044   2.011   0.947  14.563 -0.0694  0.4192  0.5642
  405MPD2    C1 6045   2.009   0.912  14.428  0.4823  0.3595  0.0537
  405MPD2    C2 6046   1.959   1.001  14.338 -0.0526  0.0834 -0.0315
  405MPD2    C3 6047   1.930   1.126  14.377 -1.0385  0.0528  0.3747
  405MPD2    C4 6048   1.948   1.165  14.508 -0.3425  0.1799  0.0122
  405MPD2    C5 6049   1.979   1.075  14.605 -0.3208  0.4527 -0.1576
  405MPD2     H 6050   1.944   0.966  14.236 -1.7451 -0.8813  0.5586
  405MPD2    H1 6051   1.921   1.264  14.541  2.4937  0.6103  1.1059
  405MPD2    H2 6052   2.054   0.878  14.634  2.1052 -0.6027 -1.7499
  405MPD2    H3 6053   1.970   1.111  14.706  0.4651 -0.1448  0.1220
  405MPD2     N 6054   1.879   1.210  14.274 -0.3522  0.0326 -0.5251
  405MPD2    H5 6055   1.868   1.168  14.182 -0.2777  0.2677 -0.6437
  405MPD2    N1 6056   2.036   0.771  14.391 -0.2541 -0.4403 -0.1045
  405MPD2    H7 6057   2.045   0.703  14.466  0.3862 -0.6924 -0.4160
  406TMC3    C1 6058   1.501   1.393  14.105  0.3908  0.0347  0.1641
  406TMC3    C2 6059   1.533   1.343  13.978  0.1174 -0.1330  0.0867
  406TMC3    C3 6060   1.658   1.293  13.964  0.4722  0.5143 -0.8649
  406TMC3    C4 6061   1.598   1.399  14.204 -0.3647 -0.2328  0.2805
  406TMC3    C5 6062   1.727   1.349  14.179  0.6005  0.6522 -0.0556
  406TMC3    C6 6063   1.755   1.291  14.064  0.2268  0.4024  0.9217
  406TMC3     C 6064   1.367   1.433  14.145 -0.9790 -0.8089  0.1759
  406TMC3     O 6065   1.290   1.480  14.060  0.3380 -0.3530 -0.5850
  406TMC3     H 6066   1.459   1.345  13.899  1.2151  2.0173 -0.8840
  406TMC3    H1 6067   1.573   1.446  14.299  1.5601 -1.3827  1.3497
  406TMC3    H2 6068   1.851   1.247  14.040  1.0642  1.8239  1.7277
  406TMC3    C7 6069   1.805   1.326  14.300  0.6282  0.2334 -0.5571
  406TMC3    C8 6070   1.687   1.200  13.856  0.3581 -0.3195 -0.4145
  406TMC3    O1 6071   1.786   1.390  14.401  0.0034  0.0833 -0.7077
  406TMC3    O2 6072   1.617   1.209  13.754 -0.0160  0.5303  0.3939
  407MPD2     C 6073   4.049   2.162   9.426 -0.6415 -0.7012 -0.4536
  407MPD2    C1 6074   4.188   2.172   9.400 -0.0260 -0.5385 -0.9822
  407MPD2    C2 6075   4.269   2.198   9.509  0.2147  0.4422  0.1346
  407MPD2    C3 6076   4.208   2.235   9.630 -0.0700  0.7405  0.2392
  407MPD2    C4 6077   4.072   2.230   9.644  1.0358 -0.7585 -0.1090
  407MPD2    C5 6078   3.996   2.193   9.544  0.1971  0.3383 -0.0032
  407MPD2     H 6079   4.376   2.207   9.492  0.5501 -0.0299  1.9953
  407MPD2    H1 6080   4.030   2.249   9.742 -1.8594 -0.5513 -1.3912
  407MPD2    H2 6081   3.980   2.125   9.351 -0.6072 -1.0893 -0.2918
  407MPD2    H3 6082   3.888   2.182   9.555 -0.0522 -1.0053 -3.5857
  407MPD2     N 6083   4.282   2.286   9.738 -0.1710  0.3653 -0.4795
  407MPD2    H5 6084   4.231   2.337   9.809  0.7924  1.8430 -0.8379
  407MPD2    N1 6085   4.251   2.170   9.272 -0.2694  0.5709 -0.0881
  407MPD2    H7 6086   4.351   2.187   9.268 -0.4262  1.6153  0.4896
  408TMC3    C1 6087   4.258   2.189   9.042 -0.4943  0.1791 -0.1899
  408TMC3    C2 6088   4.383   2.129   9.035  0.1235 -0.1703  0.0790
  408TMC3    C3 6089   4.474   2.183   8.948 -0.4640 -0.8658 -0.6122
  408TMC3    C4 6090   4.218   2.289   8.961  0.2486 -0.3906  0.2262
  408TMC3    C5 6091   4.304   2.338   8.872  0.4631 -0.8661 -0.1549
  408TMC3    C6 6092   4.432   2.283   8.860  0.2435  0.3654  0.2541
  408TMC3     C 6093   4.178   2.163   9.158 -0.9818 -0.4916 -0.0430
  408TMC3     O 6094   4.057   2.138   9.132 -0.0002 -0.4761  0.1903
  408TMC3     H 6095   4.412   2.051   9.104  2.2918  0.5533 -0.0286
  408TMC3    H1 6096   4.122   2.335   8.982 -0.2297 -1.0657 -0.5104
  408TMC3    H2 6097   4.500   2.316   8.783 -0.2953  1.6680  0.3427
  408TMC3    C7 6098   4.322   2.480   8.849  0.0421  0.4702 -0.2876
  408TMC3    C8 6099   4.610   2.195   9.001  0.0157 -0.4124  0.2917
  408TMC3    O1 6100   4.439   2.508   8.848  0.0227 -0.5715  0.1101
  408TMC3    O2 6101   4.654   2.103   9.066 -0.1673  0.3990 -0.2794
  409MPD2     C 6102   3.740   2.783  16.773 -0.3666 -0.0092  0.6043
  409MPD2    C1 6103   3.836   2.816  16.871  0.7384 -0.5246  1.2210
  409MPD2    C2 6104   3.905   2.934  16.860 -0.5093 -0.5244  0.5138
  409MPD2    C3 6105   3.893   3.019  16.752  0.0761  0.1173  0.0005
  409MPD2    C4 6106   3.812   2.969  16.654 -0.2796  0.2310 -0.2661
  409MPD2    C5 6107   3.740   2.855  16.662  0.4452 -0.2129  0.0617
  409MPD2     H 6108   3.981   2.958  16.933  1.2310 -0.4884 -1.3297
  409MPD2    H1 6109   3.807   3.019  16.558  0.3659 -0.1639 -0.5102
  409MPD2    H2 6110   3.686   2.689  16.772 -1.4427  0.6560 -4.2629
  409MPD2    H3 6111   3.675   2.828  16.579 -1.1198  0.0248  1.1969
  409MPD2     N 6112   3.974   3.131  16.729 -0.3258  0.0522  0.0441
  409MPD2    H5 6113   3.965   3.170  16.635 -0.2396 -0.8607 -0.3456
  409MPD2    N1 6114   3.834   2.742  16.994 -0.2510 -0.3149  0.5797
  409MPD2    H7 6115   3.888   2.776  17.073  0.7317 -1.2314  0.3079
  410TMC3    C1 6116   4.144   3.300  16.766 -0.3541 -0.2287  0.7666
  410TMC3    C2 6117   4.264   3.312  16.840 -0.0197 -0.0036  0.3772
  410TMC3    C3 6118   4.324   3.434  16.827  0.4918 -0.8356 -0.5596
  410TMC3    C4 6119   4.099   3.395  16.682  0.4031 -0.2030  1.1756
  410TMC3    C5 6120   4.168   3.513  16.675 -0.2171 -0.6005  0.1410
  410TMC3    C6 6121   4.274   3.537  16.753 -0.0134 -0.2377  0.7498
  410TMC3     C 6122   4.066   3.189  16.819  0.0221  0.0320 -0.2732
  410TMC3     O 6123   4.089   3.151  16.937  0.5586 -0.6458  0.1792
  410TMC3     H 6124   4.301   3.232  16.902 -0.0158 -0.9668 -0.8766
  410TMC3    H1 6125   4.003   3.377  16.635  2.1855 -2.0999 -1.7282
  410TMC3    H2 6126   4.315   3.637  16.761 -0.3156  0.0268 -1.0503
  410TMC3    C7 6127   4.155   3.588  16.553 -0.1747  0.4828  0.0029
  410TMC3    C8 6128   4.433   3.470  16.920 -0.8554 -0.2002  0.6892
  410TMC3    O1 6129   4.133   3.515  16.452  0.2947 -0.2455  0.2408
  410TMC3    O2 6130   4.430   3.589  16.956  0.0852 -0.3270 -0.1960
  411MPD2     C 6131   4.505   4.031  14.527 -0.2489 -0.1374  0.5305
  411MPD2    C1 6132   4.384   4.099  14.517 -0.1103  0.2158  0.5680
  411MPD2    C2 6133   4.261   4.034  14.512  0.3235  0.4295 -0.1340
  411MPD2    C3 6134   4.259   3.895  14.510 -0.0917 -0.1457  0.2935
  411MPD2    C4 6135   4.377   3.827  14.506 -0.4999 -0.0896 -0.5672
  411MPD2    C5 6136   4.493   3.888  14.526  0.4607  0.9222 -0.3904
  411MPD2     H 6137   4.171   4.094  14.505 -0.4782 -0.8773 -1.1806
  411MPD2    H1 6138   4.387   3.719  14.511 -0.3059 -0.0093  0.8083
  411MPD2    H2 6139   4.603   4.074  14.541 -0.4612  0.7324 -0.6656
  411MPD2    H3 6140   4.574   3.817  14.540 -1.9447 -1.6053  0.8592
  411MPD2     N 6141   4.135   3.827  14.497 -0.1184 -1.0956 -0.2494
  411MPD2    H5 6142   4.140   3.731  14.464 -0.4277 -1.4995  0.8646
  411MPD2    N1 6143   4.396   4.240  14.523 -0.2453 -0.1905  0.3963
  411MPD2    H7 6144   4.472   4.285  14.573  0.8491 -1.0861 -0.4319
  412TMC3    C1 6145   3.902   3.799  14.454 -0.4375 -0.8715 -0.7846
  412TMC3    C2 6146   3.791   3.787  14.533  0.1896  0.0083  0.4454
  412TMC3    C3 6147   3.693   3.696  14.492 -0.0196 -0.9510 -0.1484
  412TMC3    C4 6148   3.936   3.708  14.363  0.1680  0.4129  0.2495
  412TMC3    C5 6149   3.846   3.607  14.329  0.5420  0.9254  0.2171
  412TMC3    C6 6150   3.721   3.604  14.394 -0.4659  0.1929  0.0731
  412TMC3     C 6151   4.007   3.885  14.510  0.4235 -0.4600  0.1003
  412TMC3     O 6152   3.978   3.981  14.577  0.1268 -0.1949  0.0820
  412TMC3     H 6153   3.762   3.848  14.618 -0.8785  1.1271 -0.7088
  412TMC3    H1 6154   4.026   3.723  14.304  0.0111  1.0998  0.1863
  412TMC3    H2 6155   3.660   3.516  14.383  0.9338 -0.7070 -0.5107
  412TMC3    C7 6156   3.817   3.590  14.189  0.0445  0.2209  0.5943
  412TMC3    C8 6157   3.559   3.750  14.474  0.2852  0.3148 -0.2766
  412TMC3    O1 6158   3.700   3.615  14.163 -0.1180  0.5310  0.0052
  412TMC3    O2 6159   3.524   3.826  14.560  0.0116  0.1196  0.5029
  413MPD2     C 6160   0.823   1.349  15.416  0.3903  0.3625  0.5406
  413MPD2    C1 6161   0.922   1.410  15.346 -0.0083  0.8297  0.0579
  413MPD2    C2 6162   1.049   1.347  15.329 -0.0347  0.0947 -0.4971
  413MPD2    C3 6163   1.075   1.229  15.390  0.3255 -0.9426 -0.1442
  413MPD2    C4 6164   0.984   1.185  15.484 -0.2694  0.2768 -0.1981
  413MPD2    C5 6165   0.860   1.245  15.497 -0.1365 -0.3322 -0.2573
  413MPD2     H 6166   1.132   1.381  15.268  0.4751 -1.8703 -0.9160
  413MPD2    H1 6167   0.995   1.098  15.548  0.1958  0.8097  0.4450
  413MPD2    H2 6168   0.726   1.395  15.424 -0.1877 -0.8177  0.3885
  413MPD2    H3 6169   0.795   1.201  15.572  0.0884  2.0093  1.3011
  413MPD2     N 6170   1.202   1.179  15.387 -0.2537  0.4648 -0.3303
  413MPD2    H5 6171   1.263   1.207  15.311  1.2383 -0.2217  0.6329
  413MPD2    N1 6172   0.896   1.533  15.286  0.5530  0.3315  0.4115
  413MPD2    H7 6173   0.802   1.570  15.292  0.3500  0.2512 -2.3013
  414TMC3    C1 6174   1.387   1.056  15.425  0.0551 -0.2898  0.4034
  414TMC3    C2 6175   1.435   0.931  15.458 -0.1897  0.8454  0.3701
  414TMC3    C3 6176   1.573   0.906  15.463  0.9432  0.1768  0.2455
  414TMC3    C4 6177   1.479   1.147  15.376  0.4019  0.0683 -0.1065
  414TMC3    C5 6178   1.611   1.104  15.354 -0.1295  0.0687 -0.2385
  414TMC3    C6 6179   1.658   0.987  15.406 -0.0187  0.4858  0.2108
  414TMC3     C 6180   1.254   1.081  15.466 -0.2561 -0.8971  0.2920
  414TMC3     O 6181   1.206   1.020  15.560 -0.3948 -0.2382 -0.1344
  414TMC3     H 6182   1.374   0.855  15.505  1.2134 -1.6810 -1.8650
  414TMC3    H1 6183   1.457   1.248  15.345  1.6060 -0.1017 -1.4810
  414TMC3    H2 6184   1.758   0.948  15.393 -0.7740 -0.5164 -2.7616
  414TMC3    C7 6185   1.692   1.183  15.268 -0.1941 -0.4654  0.3846
  414TMC3    C8 6186   1.615   0.782  15.519  1.2063  0.3049  0.1338
  414TMC3    O1 6187   1.659   1.297  15.239 -0.3177 -0.0598  0.2829
  414TMC3    O2 6188   1.523   0.704  15.544  0.1554 -0.1981  0.2788
  415TMC3    C1 6189   1.938   0.233   9.743  0.4086 -0.0481 -0.3775
  415TMC3    C2 6190   2.058   0.207   9.688  0.4747  0.4334  1.3100
  415TMC3    C3 6191   2.055   0.113   9.587  0.3567  0.0366 -0.3547
  415TMC3    C4 6192   1.820   0.171   9.713  0.3239  0.2946  0.0586
  415TMC3    C5 6193   1.827   0.073   9.615 -0.7898 -0.7738 -0.1440
  415TMC3    C6 6194   1.940   0.046   9.558  0.6517 -0.1184  0.2252
  415TMC3     C 6195   1.940   0.311   9.873  0.5208  0.3492  0.3448
  415TMC3     O 6196   1.837   0.302   9.944 -0.7254 -0.2455  0.4902
  415TMC3     H 6197   2.153   0.257   9.708  0.1368  1.6899 -0.2502
  415TMC3    H1 6198   1.724   0.212   9.745  0.2122  0.0848 -0.0123
  415TMC3    H2 6199   1.955   4.700   9.477  1.0376  0.7142 -0.4310
  415TMC3    C7 6200   1.727   4.698   9.613  0.0289 -0.2729  0.0824
  415TMC3    C8 6201   2.173   0.064   9.523 -0.3348 -0.8674 -0.7243
  415TMC3    O1 6202   1.733   4.607   9.533 -0.2355  0.2436 -0.4732
  415TMC3    O2 6203   2.170   4.675   9.485 -0.4109  0.3205 -0.2974
  416MPD2     C 6204   3.019   3.971  11.458  0.3621  0.7972  0.5382
  416MPD2    C1 6205   2.925   3.882  11.513  0.6700 -0.1030 -0.1378
  416MPD2    C2 6206   2.896   3.761  11.453  1.1342 -0.6283 -0.0408
  416MPD2    C3 6207   2.959   3.722  11.330 -0.4106  0.4241  0.4571
  416MPD2    C4 6208   3.053   3.810  11.285  0.4576 -0.0180 -0.0289
  416MPD2    C5 6209   3.082   3.928  11.341 -0.7083  0.4100  0.3253
  416MPD2     H 6210   2.832   3.684  11.495  1.2414 -2.0641 -2.5245
  416MPD2    H1 6211   3.109   3.786  11.196  1.7588  2.0543  0.2440
  416MPD2    H2 6212   3.047   4.066  11.501  0.9643  0.4713  0.8590
  416MPD2    H3 6213   3.160   3.990  11.298 -1.5325  0.2533 -1.4353
  416MPD2     N 6214   2.932   3.605  11.263  0.0218 -0.1322  0.1771
  416MPD2    H5 6215   2.993   3.578  11.187  0.0481  3.1286 -0.9663
  416MPD2    N1 6216   2.865   3.926  11.636  0.4050 -0.0579  0.0834
  416MPD2    H7 6217   2.890   4.019  11.665  0.0482 -0.3753  1.3862
  417TMC3    C1 6218   2.712   3.945  11.804  0.3979  0.1905 -0.8366
  417TMC3    C2 6219   2.635   3.885  11.899 -0.2746 -0.5652  0.1964
  417TMC3    C3 6220   2.528   3.956  11.951 -0.1649 -0.0337  0.2110
  417TMC3    C4 6221   2.661   4.060  11.750 -0.4785  0.6311  0.8175
  417TMC3    C5 6222   2.541   4.118  11.791  0.5833 -0.0581  0.4886
  417TMC3    C6 6223   2.477   4.072  11.902  0.0349 -0.1354 -0.5197
  417TMC3     C 6224   2.778   3.851  11.713  1.3461  0.6584  0.0291
  417TMC3     O 6225   2.730   3.742  11.695 -0.1500  0.3660  0.0520
  417TMC3     H 6226   2.661   3.791  11.948 -0.0544 -0.3960  0.4048
  417TMC3    H1 6227   2.701   4.099  11.657 -1.0345  3.1667  1.6164
  417TMC3    H2 6228   2.382   4.112  11.935 -0.7930 -3.5655  1.2458
  417TMC3    C7 6229   2.482   4.218  11.699  0.1197 -0.7518 -0.1143
  417TMC3    C8 6230   2.481   3.926  12.083  1.3704 -0.2894 -0.1572
  417TMC3    O1 6231   2.559   4.301  11.653  0.0096 -0.3412  0.6470
  417TMC3    O2 6232   2.432   4.023  12.146  0.2896 -0.1485 -0.0774
  418TMC3    C1 6233   2.241   0.073   0.271  0.4050 -0.2030  0.7274
  418TMC3    C2 6234   2.132   0.104   0.196  0.4581  0.9620  0.4311
  418TMC3    C3 6235   2.013   0.049   0.234 -0.1733  0.0918 -0.0830
  418TMC3    C4 6236   2.236   4.722   0.383  0.1236  0.4294 -0.0117
  418TMC3    C5 6237   2.116   4.681   0.418 -0.3508  0.6616 -0.0557
  418TMC3    C6 6238   2.001   4.702   0.349 -0.0200 -0.6626 -0.3830
  418TMC3     C 6239   2.376   0.080   0.204 -0.2079 -0.1315  0.9076
  418TMC3     O 6240   2.410   0.186   0.152 -0.6685  0.3480  0.7932
  418TMC3     H 6241   2.155   0.156   0.104  1.2861 -0.4114 -0.1474
  418TMC3    H1 6242   2.321   4.701   0.447  1.2091  1.9980 -0.9359
  418TMC3    H2 6243   1.902   4.666   0.375 -0.2419  2.5079  2.9535
  418TMC3    C7 6244   2.104   4.590   0.525 -0.3223 -0.1209 -0.7287
  418TMC3    C8 6245   1.915   0.041   0.128 -0.2652  0.1451  0.4468
  418TMC3    O1 6246   2.203   4.518   0.550 -0.2163  0.3676  0.0651
  418TMC3    O2 6247   1.921   0.139   0.055  0.2183 -0.6988 -0.1398
  419MPD2     C 6248   0.562   3.205  12.036 -0.0434  0.7026 -0.5859
  419MPD2    C1 6249   0.478   3.314  12.022  0.2758  0.0455 -0.9185
  419MPD2    C2 6250   0.391   3.348  12.129  0.1799  0.4315  0.4918
  419MPD2    C3 6251   0.415   3.285  12.251  1.0435 -0.2492  0.6400
  419MPD2    C4 6252   0.507   3.185  12.260 -0.6066 -1.5136 -0.2742
  419MPD2    C5 6253   0.569   3.139  12.153 -0.2876 -0.1899 -0.0027
  419MPD2     H 6254   0.331   3.438  12.124 -0.7355 -0.3245 -2.0587
  419MPD2    H1 6255   0.530   3.133  12.352 -0.9619 -1.1856 -0.0025
  419MPD2    H2 6256   0.624   3.170  11.955  0.1767  0.2491 -0.2247
  419MPD2    H3 6257   0.650   3.068  12.162 -0.9612 -1.0805 -0.9970
  419MPD2     N 6258   0.346   3.338  12.366 -0.2831  0.1946 -0.2138
  419MPD2    H5 6259   0.278   3.413  12.358 -1.9668 -1.1371  1.4377
  419MPD2    N1 6260   0.489   3.404  11.910 -0.0041 -0.2431 -0.0432
  419MPD2    H7 6261   0.424   3.483  11.907 -0.1839 -0.2892  2.2629
  420TMC3    C1 6262   0.339   3.416  12.600  0.1789 -0.6929 -0.4772
  420TMC3    C2 6263   0.265   3.523  12.561 -0.3638 -0.0968 -0.7056
  420TMC3    C3 6264   0.256   3.627  12.651  0.7110  0.0165  0.3023
  420TMC3    C4 6265   0.395   3.408  12.725 -0.1606  0.0338  0.2533
  420TMC3    C5 6266   0.408   3.522  12.792  0.3921 -0.3731 -0.9964
  420TMC3    C6 6267   0.336   3.637  12.765  0.3513 -0.1373 -0.5247
  420TMC3     C 6268   0.396   3.330  12.498  0.5503  0.9576 -0.1806
  420TMC3     O 6269   0.484   3.252  12.542 -0.1013  0.2213 -0.1853
  420TMC3     H 6270   0.202   3.525  12.473 -1.9526 -0.2115  0.4277
  420TMC3    H1 6271   0.461   3.328  12.756  1.1124  1.4748  1.3047
  420TMC3    H2 6272   0.310   3.699  12.850  0.9077 -0.7418  0.0926
  420TMC3    C7 6273   0.462   3.516  12.935 -0.4778 -0.8665  0.6196
  420TMC3    C8 6274   0.195   3.743  12.607 -0.2189 -0.0195 -0.8247
  420TMC3    O1 6275   0.480   3.411  12.996 -0.3541  0.1820 -0.1010
  420TMC3    O2 6276   0.125   3.735  12.508 -0.9932 -0.0916 -0.2173
  421TMC3    C1 6277   2.043   0.857  13.577  0.0468 -0.1856 -0.3946
  421TMC3    C2 6278   2.048   0.968  13.657 -0.3221  0.9018 -0.6068
  421TMC3    C3 6279   2.096   0.940  13.783 -0.5563 -0.1132 -0.1500
  421TMC3    C4 6280   2.095   0.733  13.602 -0.2790  0.3462  0.1285
  421TMC3    C5 6281   2.155   0.724  13.722 -0.1844  0.2288 -0.1272
  421TMC3    C6 6282   2.162   0.826  13.811 -0.0084  0.6908 -0.2426
  421TMC3     C 6283   1.970   0.873  13.456 -0.3490  0.3322 -0.4245
  421TMC3     O 6284   1.986   0.979  13.397  0.0285 -0.3118  0.3806
  421TMC3     H 6285   1.979   1.047  13.629 -1.5980  0.9373  2.6634
  421TMC3    H1 6286   2.108   0.666  13.518  1.0356  0.6781  0.0706
  421TMC3    H2 6287   2.219   0.826  13.904  2.5736 -2.2588 -1.8522
  421TMC3    C7 6288   2.229   0.604  13.758  0.1668  0.3428  0.0347
  421TMC3    C8 6289   2.131   1.060  13.855  0.4026  0.1590  0.3235
  421TMC3    O1 6290   2.296   0.605  13.863 -0.1590  0.3968  0.7891
  421TMC3    O2 6291   2.122   1.169  13.794 -0.0377  0.1596  0.0713
  422TMC3    C1 6292   4.304   1.487  12.514  0.2624 -0.7928 -0.1999
  422TMC3    C2 6293   4.304   1.624  12.550 -0.3928  0.4092  0.6373
  422TMC3    C3 6294   4.201   1.666  12.629 -0.2000 -0.1644  0.0377
  422TMC3    C4 6295   4.211   1.397  12.565 -0.4392 -0.0344  0.5710
  422TMC3    C5 6296   4.117   1.443  12.652 -0.1851 -0.9023 -1.0508
  422TMC3    C6 6297   4.106   1.577  12.681 -0.1990  0.8632 -0.0715
  422TMC3     C 6298   4.365   1.466  12.383  0.1913 -0.0115 -0.8876
  422TMC3     O 6299   4.468   1.529  12.360  0.0809 -0.1555 -0.1996
  422TMC3     H 6300   4.372   1.692  12.500 -0.4607  0.0914  0.1146
  422TMC3    H1 6301   4.222   1.291  12.542 -2.3844  0.0025 -0.4558
  422TMC3    H2 6302   4.032   1.614  12.751 -1.0581 -1.6307  0.3389
  422TMC3    C7 6303   4.005   1.355  12.687 -0.9950 -0.5366 -0.3573
  422TMC3    C8 6304   4.188   1.806  12.647 -0.4388  0.3604  0.1623
  422TMC3    O1 6305   4.018   1.234  12.665 -0.9726 -0.1767  0.5370
  422TMC3    O2 6306   4.290   1.875  12.654 -0.4603  0.5986 -0.1931
  423MPD2     C 6307   0.734   2.658   0.550  0.2698  0.2823  0.3259
  423MPD2    C1 6308   0.703   2.527   0.540 -0.1286  0.9150 -0.8987
  423MPD2    C2 6309   0.706   2.467   0.416  0.2980 -0.1559 -0.7578
  423MPD2    C3 6310   0.747   2.542   0.303  0.0227  0.1496  0.2355
  423MPD2    C4 6311   0.765   2.676   0.320  0.5440 -0.0543 -0.2277
  423MPD2    C5 6312   0.772   2.732   0.443 -0.2833  0.6631  0.1367
  423MPD2     H 6313   0.680   2.363   0.396 -0.3207 -0.6633  2.7932
  423MPD2    H1 6314   0.790   2.746   0.241  1.0219  2.1361  1.8535
  423MPD2    H2 6315   0.721   2.717   0.640 -0.4064  1.4505 -0.5460
  423MPD2    H3 6316   0.774   2.839   0.457  1.7196  0.9783 -2.5789
  423MPD2     N 6317   0.758   2.490   0.172 -0.1983 -0.3049 -0.2783
  423MPD2    H5 6318   0.783   2.555   0.098 -0.6134  3.1028  2.5815
  423MPD2    N1 6319   0.669   2.449   0.655  0.6441  0.7364 -0.3386
  423MPD2    H7 6320   0.660   2.350   0.638  0.5380  0.8072 -0.7041
  424TMC3    C1 6321   0.606   2.403   0.887  0.8311  0.2439 -0.0635
  424TMC3    C2 6322   0.707   2.307   0.912 -0.3952 -0.1133 -0.4800
  424TMC3    C3 6323   0.706   2.243   1.034 -0.7561 -0.1756 -0.1574
  424TMC3    C4 6324   0.517   2.432   0.981 -0.3228 -0.8528  0.6694
  424TMC3    C5 6325   0.521   2.357   1.093 -0.3708  0.1190  0.7687
  424TMC3    C6 6326   0.602   2.252   1.119  0.2810 -0.2314 -0.1076
  424TMC3     C 6327   0.632   2.502   0.782 -0.5208 -1.1456 -0.3530
  424TMC3     O 6328   0.615   2.621   0.813  0.0799  0.1152 -0.2979
  424TMC3     H 6329   0.790   2.302   0.843  0.1494 -1.7913  0.3038
  424TMC3    H1 6330   0.453   2.517   0.960 -0.3905 -1.6030 -2.2753
  424TMC3    H2 6331   0.610   2.214   1.220  0.9080 -1.1176 -0.4936
  424TMC3    C7 6332   0.454   2.413   1.212 -0.7206 -0.3160  0.5182
  424TMC3    C8 6333   0.780   2.116   1.065 -0.4627  0.1417 -0.7248
  424TMC3    O1 6334   0.437   2.337   1.306 -0.0218  0.3414  0.0159
  424TMC3    O2 6335   0.709   2.036   1.117  0.2605  0.1585 -0.9186
  425MPD2     C 6336   4.690   1.943  17.312  0.2493 -0.7242  0.3236
  425MPD2    C1 6337   4.619   1.908  17.200 -0.7343 -0.3174  0.1618
  425MPD2    C2 6338   4.478   1.917  17.202  0.1129  0.2650 -0.2866
  425MPD2    C3 6339   4.415   1.954  17.318 -0.1522 -0.0589 -0.2735
  425MPD2    C4 6340   4.491   1.970  17.438 -0.3728 -0.0346 -0.0071
  425MPD2    C5 6341   4.625   1.977  17.430  0.0818 -0.1838 -0.7432
  425MPD2     H 6342   4.417   1.918  17.112 -0.9892  0.3727  0.4630
  425MPD2    H1 6343   4.460   1.993  17.539  2.4940 -1.8372  1.2959
  425MPD2    H2 6344   0.073   1.942  17.308  0.1689 -1.4123 -1.7194
  425MPD2    H3 6345   4.674   2.002  17.523  1.3159  1.1360 -1.7560
  425MPD2     N 6346   4.276   1.971  17.302 -0.3151 -0.2505 -0.3995
  425MPD2    H5 6347   4.224   1.946  17.219 -1.2162 -0.0746  0.1091
  425MPD2    N1 6348   4.692   1.872  17.085 -0.4228  0.2914  0.1614
  425MPD2    H7 6349   0.064   1.903  17.078 -0.0958 -0.7277  0.1437
  426TMC3    C1 6350   0.023   1.781  16.889 -0.1543 -0.3230  0.5923
  426TMC3    C2 6351   4.713   1.693  16.790  0.0295 -0.9227  0.2109
  426TMC3    C3 6352   0.070   1.591  16.755  0.8080 -0.0463  0.6912
  426TMC3    C4 6353   0.142   1.768  16.947  0.7230 -0.5731 -0.2371
  426TMC3    C5 6354   0.231   1.669  16.910  0.2754  1.1297  0.9627
  426TMC3    C6 6355   0.197   1.582  16.816 -0.3419  0.2452  0.1239
  426TMC3     C 6356   4.638   1.831  16.971  0.1552 -0.0391  0.0584
  426TMC3     O 6357   4.523   1.805  16.930 -0.5932  0.0629  0.4857
  426TMC3     H 6358   4.618   1.698  16.738 -0.0738 -4.3558  0.0791
  426TMC3    H1 6359   0.184   1.828  17.027 -0.2008  1.6986 -1.4575
  426TMC3    H2 6360   0.270   1.508  16.784  0.1083  0.5034  0.5532
  426TMC3    C7 6361   0.280   1.609  17.029 -0.2291 -0.7827  0.6379
  426TMC3    C8 6362   0.043   1.489  16.650  0.0686  0.0960  0.0405
  426TMC3    O1 6363   0.395   1.564  17.035 -0.1894 -0.2666 -0.4871
  426TMC3    O2 6364   0.141   1.424  16.616 -0.0168  0.1606 -0.4537
  427MPD2     C 6365   3.445   4.343  14.676 -0.6023 -0.1995  0.2852
  427MPD2    C1 6366   3.412   4.238  14.758  0.3217 -0.3243  0.0681
  427MPD2    C2 6367   3.277   4.229  14.809  0.2552  0.6011 -0.4774
  427MPD2    C3 6368   3.188   4.332  14.776 -0.6655  0.5700 -0.3858
  427MPD2    C4 6369   3.234   4.440  14.700 -0.1596 -0.0701  0.3020
  427MPD2    C5 6370   3.361   4.445  14.655  0.1564  0.4373  0.0834
  427MPD2     H 6371   3.241   4.135  14.849 -1.1341  1.8674  1.2686
  427MPD2    H1 6372   3.171   4.525  14.677 -1.0276 -0.0315  2.8654
  427MPD2    H2 6373   3.541   4.353  14.627 -1.6738  0.6440 -1.6392
  427MPD2    H3 6374   3.385   4.540  14.608  1.7138 -0.0365 -0.0581
  427MPD2     N 6375   3.049   4.317  14.803  0.0827  0.3047 -0.1961
  427MPD2    H5 6376   2.978   4.379  14.767  2.2055  2.5015 -0.5891
  427MPD2    N1 6377   3.490   4.128  14.781 -0.4219 -0.2800  0.9849
  427MPD2    H7 6378   3.450   4.044  14.822  0.5810 -1.1973  0.0721
  428TMC3    C1 6379   3.690   3.996  14.818  1.3012  0.2086 -0.4392
  428TMC3    C2 6380   3.611   3.883  14.842 -0.8499  0.1735 -0.4747
  428TMC3    C3 6381   3.669   3.786  14.917  0.8178 -0.1603 -0.3131
  428TMC3    C4 6382   3.819   4.009  14.863 -0.3882  0.3389 -0.2010
  428TMC3    C5 6383   3.878   3.907  14.935 -0.0130  0.3337 -0.3942
  428TMC3    C6 6384   3.799   3.803  14.968  0.2523  0.4593  0.5096
  428TMC3     C 6385   3.626   4.121  14.768  0.7262  0.4006  0.4368
  428TMC3     O 6386   3.705   4.212  14.746 -0.0504 -0.1231  0.1783
  428TMC3     H 6387   3.508   3.883  14.809 -0.4022 -1.2792 -1.8476
  428TMC3    H1 6388   3.885   4.091  14.835 -1.3741  1.0211 -0.5144
  428TMC3    H2 6389   3.840   3.721  15.026 -0.6749 -0.6334 -0.3861
  428TMC3    C7 6390   4.013   3.914  14.989  0.1624  0.1246  0.8203
  428TMC3    C8 6391   3.636   3.646  14.871 -0.7283 -0.2189 -0.1967
  428TMC3    O1 6392   4.032   3.851  15.089  0.1719 -0.5055 -0.3224
  428TMC3    O2 6393   3.714   3.560  14.903 -0.2479  0.0874  0.8626
  429MPD2     C 6394   4.023   3.785   0.226 -0.7251  0.2574  0.5496
  429MPD2    C1 6395   4.146   3.724   0.189  0.7651 -0.3110 -0.1651
  429MPD2    C2 6396   4.233   3.806   0.117 -0.5639  0.0045  0.0494
  429MPD2    C3 6397   4.188   3.924   0.060  0.0643  0.6162  0.2177
  429MPD2    C4 6398   4.064   3.974   0.090  0.4808 -0.4810 -0.0973
  429MPD2    C5 6399   3.981   3.903   0.174  0.3535  0.0026  0.4008
  429MPD2     H 6400   4.329   3.767   0.084  0.1104  1.6112  0.1197
  429MPD2    H1 6401   4.032   4.069   0.050  0.6902 -1.0313 -1.5857
  429MPD2    H2 6402   3.956   3.730   0.291 -0.6755 -1.6498 -1.0397
  429MPD2    H3 6403   3.881   3.943   0.187  1.0672  1.2112  2.2236
  429MPD2     N 6404   4.274   3.997  17.680  0.5761  0.5838 -0.0966
  429MPD2    H5 6405   4.369   3.960  17.679  0.5045  0.4469 -1.4707
  429MPD2    N1 6406   4.192   3.595   0.225  1.1815  0.1426  0.0449
  429MPD2    H7 6407   4.284   3.568   0.192  1.8958  0.6455  1.6008
  430TMC3    C1 6408   4.338   4.146  17.498 -0.8727 -0.5089 -0.0883
  430TMC3    C2 6409   4.295   4.240  17.414  0.1548 -0.6482 -0.8110
  430TMC3    C3 6410   4.385   4.283  17.320  0.2450  0.9376  0.2832
  430TMC3    C4 6411   4.469   4.106  17.507 -0.4289  0.3614  0.3015
  430TMC3    C5 6412   4.556   4.170  17.423 -0.0744 -0.0325 -0.3729
  430TMC3    C6 6413   4.517   4.253  17.322 -0.2417 -0.5043 -0.8066
  430TMC3     C 6414   4.237   4.087  17.581 -0.3558  0.1136  0.0139
  430TMC3     O 6415   4.124   4.130  17.563 -0.3883  0.0836  0.2006
  430TMC3     H 6416   4.189   4.259  17.408  0.8606  3.7472  0.9404
  430TMC3    H1 6417   4.518   4.038  17.575  0.3199  1.8950  1.3085
  430TMC3    H2 6418   4.590   4.295  17.252  2.0555 -1.7918  0.8193
  430TMC3    C7 6419   4.695   4.123  17.405  0.1533 -0.2657 -0.2341
  430TMC3    C8 6420   4.333   4.339  17.198  0.0835  0.0075  0.4384
  430TMC3    O1 6421   0.043   4.103  17.505 -0.1431  0.3953  0.3057
  430TMC3    O2 6422   4.409   4.320  17.107  0.7187 -0.5043  0.5434
  431MPD2     C 6423   0.423   4.023  12.329  0.3994 -0.3557  0.1031
  431MPD2    C1 6424   0.475   4.096  12.229 -0.2584 -0.5264 -0.2437
  431MPD2    C2 6425   0.518   4.043  12.112  0.3714  0.3678 -0.0969
  431MPD2    C3 6426   0.523   3.906  12.104  0.0791  0.3684 -0.6525
  431MPD2    C4 6427   0.490   3.829  12.217 -0.2544 -0.3356 -0.6190
  431MPD2    C5 6428   0.436   3.884  12.330 -0.3841 -0.5184  0.1290
  431MPD2     H 6429   0.540   4.109  12.029 -0.3885  0.0537 -0.5460
  431MPD2    H1 6430   0.483   3.722  12.200 -0.8652 -0.4358  0.2580
  431MPD2    H2 6431   0.394   4.068  12.423 -0.3649 -0.1748 -0.2213
  431MPD2    H3 6432   0.406   3.828  12.418 -0.3719  0.8261  0.9886
  431MPD2     N 6433   0.566   3.836  11.990  0.3977  0.5471 -0.4075
  431MPD2    H5 6434   0.578   3.736  12.007  0.2792  0.7919  1.1005
  431MPD2    N1 6435   0.511   4.232  12.248  0.4728 -0.2468  0.1920
  431MPD2    H7 6436   0.531   4.291  12.168 -0.8634  3.4598  2.5366
  432TMC3    C1 6437   0.632   3.780  11.778  0.3592  0.3814 -0.6507
  432TMC3    C2 6438   0.739   3.783  11.692 -0.0821  0.2401 -0.1390
  432TMC3    C3 6439   0.784   3.667  11.644  0.3167  0.0115 -0.0126
  432TMC3    C4 6440   0.558   3.663  11.804  0.7774  0.7361 -0.3527
  432TMC3    C5 6441   0.605   3.543  11.749  0.3669 -0.5074 -0.7355
  432TMC3    C6 6442   0.720   3.547  11.674 -0.4448  0.3837 -0.2628
  432TMC3     C 6443   0.609   3.885  11.872  0.5757 -0.0039  0.5563
  432TMC3     O 6444   0.633   3.998  11.825 -0.0496 -0.2365 -0.2842
  432TMC3     H 6445   0.777   3.881  11.666  1.3516  0.2162  1.9273
  432TMC3    H1 6446   0.471   3.661  11.869  0.7415  0.2800 -0.4114
  432TMC3    H2 6447   0.753   3.463  11.615 -1.0798  0.2170 -0.3879
  432TMC3    C7 6448   0.597   3.417  11.827  0.2962  0.5724  0.0175
  432TMC3    C8 6449   0.886   3.658  11.538  0.0074  0.0111  0.4363
  432TMC3    O1 6450   0.692   3.345  11.810  0.2555 -0.5170 -0.2338
  432TMC3    O2 6451   0.920   3.552  11.484 -0.0310 -0.6552 -0.4967
  433MPD2     C 6452   3.854   2.791  11.012 -0.1865 -0.5435  0.2016
  433MPD2    C1 6453   3.974   2.763  10.941  0.0573 -1.2146  0.3523
  433MPD2    C2 6454   4.074   2.854  10.957  0.1748  0.4127  0.1903
  433MPD2    C3 6455   4.069   2.960  11.043  0.1106  0.4074  0.0807
  433MPD2    C4 6456   3.948   2.991  11.111  0.4437  0.1920 -0.1706
  433MPD2    C5 6457   3.842   2.902  11.094 -0.6476  0.4723  1.0807
  433MPD2     H 6458   4.173   2.834  10.915 -0.5380  0.6857 -1.6303
  433MPD2    H1 6459   3.931   3.070  11.184  1.7449 -1.4356  1.8756
  433MPD2    H2 6460   3.765   2.730  11.008 -0.2268 -0.6074  2.2049
  433MPD2    H3 6461   3.754   2.921  11.154 -1.2640  0.9436  0.0298
  433MPD2     N 6462   4.189   3.022  11.075 -0.4837  0.1321  0.5817
  433MPD2    H5 6463   4.273   2.998  11.023 -0.1683  0.0367  1.1394
  433MPD2    N1 6464   3.993   2.639  10.875  0.2311  0.1749  0.3974
  433MPD2    H7 6465   3.922   2.569  10.892 -1.8332  1.9825 -0.8480
  434TMC3    C1 6466   4.099   2.475  10.733  0.1485 -0.6141 -0.2461
  434TMC3    C2 6467   4.122   2.398  10.839  0.4545  1.3063  0.5659
  434TMC3    C3 6468   4.189   2.283  10.820 -0.6421 -0.2453 -0.1110
  434TMC3    C4 6469   4.129   2.440  10.600  0.7789 -1.1564 -0.1852
  434TMC3    C5 6470   4.191   2.317  10.587  0.0720 -0.2469 -0.0467
  434TMC3    C6 6471   4.228   2.243  10.691 -0.7230  0.0375  1.0699
  434TMC3     C 6472   4.078   2.617  10.771 -0.4299 -0.4009  0.8221
  434TMC3     O 6473   4.144   2.699  10.709  0.6794  0.6367 -1.0886
  434TMC3     H 6474   4.113   2.447  10.936  1.0721  2.7159 -0.0802
  434TMC3    H1 6475   4.101   2.511  10.523  1.3152  1.0192  1.6466
  434TMC3    H2 6476   4.289   2.153  10.683  1.1863  1.4010  0.1770
  434TMC3    C7 6477   4.239   2.288  10.454 -0.6687  0.3105  0.0250
  434TMC3    C8 6478   4.274   2.243  10.933 -0.2906 -0.4195  0.2157
  434TMC3    O1 6479   4.256   2.376  10.376  0.2417 -0.6953  0.2353
  434TMC3    O2 6480   4.285   2.323  11.026  0.6668 -0.3971  0.3555
  435MPD2     C 6481   1.271   2.594  15.234 -0.4003 -0.0424 -0.4334
  435MPD2    C1 6482   1.246   2.697  15.322 -0.2169  0.1902  0.4550
  435MPD2    C2 6483   1.341   2.740  15.398 -0.4892  0.3068 -0.4304
  435MPD2    C3 6484   1.464   2.670  15.408  0.1178 -0.1378 -0.3772
  435MPD2    C4 6485   1.494   2.571  15.319 -0.1867  0.3584  0.6805
  435MPD2    C5 6486   1.397   2.538  15.226  0.0401 -0.2391  0.0612
  435MPD2     H 6487   1.322   2.813  15.475 -2.3125 -2.3663  1.6594
  435MPD2    H1 6488   1.591   2.523  15.315 -1.4223 -2.0220 -0.9981
  435MPD2    H2 6489   1.197   2.560  15.162 -0.4963 -3.1431  1.1007
  435MPD2    H3 6490   1.417   2.456  15.159  2.6618  1.8926 -1.7246
  435MPD2     N 6491   1.550   2.711  15.511  0.1125  0.0126  0.6871
  435MPD2    H5 6492   1.515   2.785  15.571 -0.7101 -2.5866  3.3998
  435MPD2    N1 6493   1.121   2.763  15.332  0.0352  0.1004  0.3412
  435MPD2    H7 6494   1.123   2.844  15.392  2.5392 -1.1180  1.9317
  436TMC3    C1 6495   0.862   2.883  15.550 -0.7730  0.4020 -0.5543
  436TMC3    C2 6496   0.927   2.894  15.427  0.4108  0.3988 -0.6600
  436TMC3    C3 6497   0.897   2.804  15.328 -0.2052 -0.5144  0.5236
  436TMC3    C4 6498   0.748   2.806  15.560  0.5179 -0.1010  0.1319
  436TMC3    C5 6499   0.705   2.738  15.443  0.2409 -0.6092  0.1305
  436TMC3    C6 6500   0.784   2.728  15.330  0.8743  0.3289 -0.2652
  436TMC3     C 6501   0.931   2.936  15.672  0.0281  0.2489 -0.5551
  436TMC3     O 6502   1.041   2.998  15.656  0.1143  0.1213 -0.0360
  436TMC3     H 6503   1.011   2.961  15.420 -0.3176  1.4873  1.1325
  436TMC3    H1 6504   0.686   2.809  15.649 -1.8213  1.3311 -1.5266
  436TMC3    H2 6505   0.765   2.657  15.250 -1.5833  1.1826 -0.4420
  436TMC3    C7 6506   0.587   2.661  15.456  0.3066  0.3200 -0.4725
  436TMC3    C8 6507   1.001   2.714  15.281  0.5297  0.1539 -0.2616
  436TMC3    O1 6508   0.551   2.643  15.573 -0.0494 -0.5923  0.9963
  436TMC3    O2 6509   0.974   2.602  15.234  0.2206  0.0252  0.0215
  437TMC3    C1 6510   0.029   4.710  12.392  0.8726 -0.5362  0.1677
  437TMC3    C2 6511   4.649   4.708  12.483 -0.3841  0.3394 -0.1423
  437TMC3    C3 6512   4.598   0.099  12.528  0.5114  0.1568 -0.3640
  437TMC3    C4 6513   0.085   0.103  12.358  0.5256  0.5099  0.0833
  437TMC3    C5 6514   0.023   0.215  12.396 -0.5198 -0.9514 -0.2219
  437TMC3    C6 6515   4.640   0.220  12.481  0.3588 -0.1862  0.4087
  437TMC3     C 6516   0.067   4.585  12.349  0.3132  0.4012 -0.2682
  437TMC3     O 6517   0.031   4.492  12.421 -0.2691  0.0104  0.1808
  437TMC3     H 6518   4.600   4.615  12.510  0.3066 -0.8164 -2.8980
  437TMC3    H1 6519   0.167   0.102  12.287 -0.4713  2.2708 -1.0866
  437TMC3    H2 6520   4.577   0.308  12.493  0.8827  0.6118 -2.6835
  437TMC3    C7 6521   0.083   0.345  12.354  0.1240 -0.0376 -0.1147
  437TMC3    C8 6522   4.475   0.101  12.607  0.6360  0.5527  0.0851
  437TMC3    O1 6523   0.016   0.445  12.354  0.2808 -0.0891 -0.0324
  437TMC3    O2 6524   4.421   0.213  12.618  0.0325 -0.1339 -0.3325
  438MPD2     C 6525   2.173   0.857  16.430 -0.2655  0.0087 -0.5200
  438MPD2    C1 6526   2.254   0.740  16.423 -0.9449  0.1042  0.5440
  438MPD2    C2 6527   2.250   0.656  16.529 -0.3426 -0.2047  0.3979
  438MPD2    C3 6528   2.196   0.685  16.648  1.1020  0.2647  0.1897
  438MPD2    C4 6529   2.118   0.800  16.658 -0.4359 -0.3849 -0.7967
  438MPD2    C5 6530   2.118   0.885  16.552 -0.0262  0.1657  0.2536
  438MPD2     H 6531   2.311   0.567  16.520 -2.1965 -1.4083 -0.4077
  438MPD2    H1 6532   2.046   0.819  16.737 -0.6189 -0.4111 -0.9579
  438MPD2    H2 6533   2.160   0.927  16.349 -1.8631 -1.3353 -1.4407
  438MPD2    H3 6534   2.051   0.970  16.558 -1.8424 -1.3069  0.7885
  438MPD2     N 6535   2.211   0.608  16.772  0.5989 -0.2432  0.7305
  438MPD2    H5 6536   2.190   0.653  16.860  0.0551  0.8267  0.0429
  438MPD2    N1 6537   2.332   0.705  16.310 -0.7022 -0.1540 -0.1490
  438MPD2    H7 6538   2.389   0.623  16.326 -1.5560 -0.8569 -0.7112
  439TMC3    C1 6539   2.485   0.760  16.141  0.5179 -0.4811  0.4297
  439TMC3    C2 6540   2.511   0.817  16.017  0.1338 -0.0537  0.5463
  439TMC3    C3 6541   2.637   0.830  15.970  0.0247 -0.2359 -0.1680
  439TMC3    C4 6542   2.584   0.704  16.216  0.1109 -0.8642  0.2713
  439TMC3    C5 6543   2.712   0.707  16.157 -0.3441  0.1906 -0.1302
  439TMC3    C6 6544   2.744   0.777  16.041 -0.0655  0.3028  0.0494
  439TMC3     C 6545   2.354   0.781  16.203 -1.0663  0.1934  0.3806
  439TMC3     O 6546   2.276   0.855  16.149  0.2150 -0.4430 -0.1845
  439TMC3     H 6547   2.434   0.867  15.959 -0.7809 -1.5994  0.4509
  439TMC3    H1 6548   2.561   0.651  16.308 -1.5767 -3.0932 -1.4249
  439TMC3    H2 6549   2.844   0.810  16.013  0.3732 -1.9788 -1.0614
  439TMC3    C7 6550   2.798   0.597  16.193 -1.0353 -0.3477 -0.6711
  439TMC3    C8 6551   2.657   0.792  15.835 -0.2910 -0.2943 -0.7711
  439TMC3    O1 6552   2.919   0.617  16.181 -0.5946  0.1880 -0.4036
  439TMC3    O2 6553   2.587   0.834  15.743  0.5317  0.1245  0.4246
  440MPD2     C 6554   1.496   0.741  15.143 -0.0859  0.0360  0.4114
  440MPD2    C1 6555   1.404   0.642  15.173  0.7659 -0.4858  0.1438
  440MPD2    C2 6556   1.435   0.507  15.176 -0.2412  0.1172 -0.9551
  440MPD2    C3 6557   1.569   0.475  15.162  0.4083  0.2108 -0.1019
  440MPD2    C4 6558   1.663   0.574  15.154  0.2271  0.7926 -0.0424
  440MPD2    C5 6559   1.625   0.706  15.140 -0.3282  0.3457 -0.3333
  440MPD2     H 6560   1.356   0.435  15.196  0.4698 -0.3796  0.0878
  440MPD2    H1 6561   1.770   0.558  15.154  0.2408  0.7369 -3.8105
  440MPD2    H2 6562   1.482   0.847  15.129  1.4516  0.3034  0.9026
  440MPD2    H3 6563   1.703   0.780  15.127  0.4061 -0.2921  0.4272
  440MPD2     N 6564   1.627   0.344  15.186 -0.2212  0.6359  0.2386
  440MPD2    H5 6565   1.725   0.332  15.166 -0.1420  0.2841  0.8556
  440MPD2    N1 6566   1.270   0.669  15.204  0.2790 -0.1072 -0.2320
  440MPD2    H7 6567   1.203   0.599  15.236  0.7360 -0.6885 -0.5537
  441TMC3    C1 6568   1.626   0.115  15.268 -0.5202  0.2174  0.1134
  441TMC3    C2 6569   1.751   0.141  15.311  0.5986 -0.4081  0.2724
  441TMC3    C3 6570   1.787   0.086  15.434 -0.3668 -0.1215  0.3271
  441TMC3    C4 6571   1.547   0.032  15.341  0.1293  0.4700  0.5401
  441TMC3    C5 6572   1.579   4.713  15.461 -0.0112  0.1126 -0.6575
  441TMC3    C6 6573   1.706   0.012  15.512  0.1508  0.7955 -0.6613
  441TMC3     C 6574   1.554   0.227  15.204  0.2086  0.0363  0.4351
  441TMC3     O 6575   1.434   0.222  15.211  0.0342 -0.1644 -0.8043
  441TMC3     H 6576   1.816   0.215  15.266 -0.5564 -0.4071 -1.3598
  441TMC3    H1 6577   1.456   4.720  15.295 -2.1929  1.8029  3.9659
  441TMC3    H2 6578   1.745   4.710  15.609 -1.2041  0.6653 -0.1644
  441TMC3    C7 6579   1.461   4.716  15.551  0.2710 -1.1166  0.8457
  441TMC3    C8 6580   1.867   0.180  15.513  0.2427  0.2912 -0.0858
  441TMC3    O1 6581   1.369   0.061  15.519  0.6576  0.1216  0.6306
  441TMC3    O2 6582   1.955   0.143  15.586  0.1896 -1.0390  0.1124
  442MPD2     C 6583   3.984   1.511  16.463 -1.0373 -0.2407 -0.2968
  442MPD2    C1 6584   3.870   1.454  16.416  0.3674 -0.2209  0.1146
  442MPD2    C2 6585   3.882   1.342  16.324  0.5052  0.0888  0.2499
  442MPD2    C3 6586   4.013   1.310  16.280  0.3138 -0.0718  0.1205
  442MPD2    C4 6587   4.125   1.380  16.318  0.3510  0.2776  0.1212
  442MPD2    C5 6588   4.103   1.480  16.407  0.4205 -0.0940  0.0181
  442MPD2     H 6589   3.790   1.298  16.290  1.3731 -1.5709  0.0749
  442MPD2    H1 6590   4.226   1.369  16.281  0.3644  0.2262  0.1724
  442MPD2    H2 6591   3.986   1.596  16.531  1.8856  0.7267 -1.5624
  442MPD2    H3 6592   4.191   1.539  16.432 -0.4755  0.3132  2.1983
  442MPD2     N 6593   4.036   1.213  16.182 -0.0466  0.0972 -1.1078
  442MPD2    H5 6594   4.133   1.199  16.155  0.2618 -0.3174  0.2062
  442MPD2    N1 6595   3.738   1.494  16.449 -0.5279  0.6559  0.0948
  442MPD2    H7 6596   3.657   1.439  16.419  0.0638  0.0101 -0.3091
  443TMC3    C1 6597   3.582   1.635  16.544 -0.4735  0.8379  0.8048
  443TMC3    C2 6598   3.544   1.764  16.527 -0.5735  0.2855  0.5346
  443TMC3    C3 6599   3.412   1.795  16.549 -0.1783  0.5982  0.2134
  443TMC3    C4 6600   3.496   1.541  16.584  0.2165  0.2775  0.1416
  443TMC3    C5 6601   3.363   1.583  16.601 -0.3136 -0.3480  0.1912
  443TMC3    C6 6602   3.319   1.709  16.579  0.1780 -0.4730 -0.0944
  443TMC3     C 6603   3.719   1.602  16.533  0.0097 -0.1444  0.4310
  443TMC3     O 6604   3.796   1.694  16.568  0.4864  0.2867  0.1992
  443TMC3     H 6605   3.620   1.836  16.498  0.8416 -1.1001  0.8055
  443TMC3    H1 6606   3.539   1.446  16.614  0.1487  0.7039  1.5814
  443TMC3    H2 6607   3.215   1.732  16.597  0.2334 -0.7406  0.5578
  443TMC3    C7 6608   3.274   1.485  16.658 -0.5802  0.1952  0.3581
  443TMC3    C8 6609   3.360   1.928  16.519  0.0008  0.1153 -0.1374
  443TMC3    O1 6610   3.277   1.372  16.608  0.1914 -0.5377  0.2157
  443TMC3    O2 6611   3.281   1.980  16.600  0.5785  0.1280  0.2790
  444MPD2     C 6612   4.513   0.960  16.793 -0.2950  0.1695  0.0376
  444MPD2    C1 6613   4.420   0.875  16.750 -0.0852  0.4598  0.4129
  444MPD2    C2 6614   4.449   0.737  16.739  0.3290 -0.3151 -0.0914
  444MPD2    C3 6615   4.578   0.694  16.768  0.3158 -0.6958 -0.3999
  444MPD2    C4 6616   4.671   0.776  16.822  0.0695 -0.3506  0.1249
  444MPD2    C5 6617   4.639   0.914  16.828 -0.1971  0.0157 -0.8100
  444MPD2     H 6618   4.380   0.665  16.696  0.2941 -1.1106  1.2965
  444MPD2    H1 6619   0.047   0.744  16.844  0.6170  1.2366 -0.0922
  444MPD2    H2 6620   4.504   1.067  16.803  2.1199  0.3279  0.6219
  444MPD2    H3 6621   4.721   0.977  16.860 -1.2699  1.0714 -0.1721
  444MPD2     N 6622   4.595   0.554  16.747  0.4085  0.5492  0.1839
  444MPD2    H5 6623   4.520   0.517  16.690 -0.1211 -0.6076  1.6325
  444MPD2    N1 6624   4.287   0.922  16.736 -0.6645  0.2712 -0.0831
  444MPD2    H7 6625   4.234   0.850  16.688  0.4278  0.5909 -1.7686
  445TMC3    C1 6626   4.719   0.345  16.720 -0.2652  0.3983  0.5714
  445TMC3    C2 6627   4.652   0.322  16.607  0.2352  0.4281  0.1952
  445TMC3    C3 6628   4.669   0.199  16.554  0.3259 -0.3680 -0.2851
  445TMC3    C4 6629   0.097   0.267  16.773 -0.9149 -0.1779  0.5002
  445TMC3    C5 6630   0.101   0.142  16.719 -0.0151  0.7270 -0.3950
  445TMC3    C6 6631   0.038   0.112  16.603  0.4040 -0.4335 -0.3975
  445TMC3     C 6632   4.699   0.472  16.784  0.0609 -0.3374 -0.0788
  445TMC3     O 6633   0.060   0.505  16.866 -0.3080 -0.1336  0.3694
  445TMC3     H 6634   4.592   0.397  16.557 -1.5458 -0.9386  0.2568
  445TMC3    H1 6635   0.158   0.297  16.857 -0.3717 -0.2707  0.1391
  445TMC3    H2 6636   0.053   0.011  16.569  0.1448  0.1158 -2.1438
  445TMC3    C7 6637   0.223   0.072  16.759  0.2200 -0.4788 -1.0473
  445TMC3    C8 6638   4.581   0.170  16.440  0.3947  0.1844  0.2685
  445TMC3    O1 6639   0.248   0.078  16.880 -0.0041 -0.6374 -0.2658
  445TMC3    O2 6640   4.488   0.251  16.422  0.0674 -0.3189 -0.0202
  446MPD2     C 6641   3.841   2.579  11.316 -0.7566  0.4858 -0.1893
  446MPD2    C1 6642   3.886   2.468  11.242 -0.2524 -0.4533  0.0542
  446MPD2    C2 6643   4.012   2.478  11.199 -0.2185  0.4343  0.9315
  446MPD2    C3 6644   4.091   2.585  11.230  0.0617 -0.2271  0.2392
  446MPD2    C4 6645   4.038   2.696  11.295 -0.1961 -0.4120  0.0200
  446MPD2    C5 6646   3.910   2.695  11.339  0.2982  0.6364 -0.4231
  446MPD2     H 6647   4.053   2.398  11.139 -0.6506  0.2568  0.8762
  446MPD2    H1 6648   4.090   2.789  11.312 -1.4928 -0.0497  1.9869
  446MPD2    H2 6649   3.739   2.591  11.351 -0.9668  2.2349 -1.4142
  446MPD2    H3 6650   3.869   2.779  11.394 -1.5430  0.3336 -1.3226
  446MPD2     N 6651   4.219   2.587  11.168 -0.0327 -0.4963  0.2540
  446MPD2    H5 6652   4.238   2.507  11.109  0.2318  1.4651 -2.3187
  446MPD2    N1 6653   3.797   2.365  11.212 -0.1255  0.2851  0.1958
  446MPD2    H7 6654   3.699   2.384  11.229 -0.4023 -1.8041  0.9688
  447TMC3    C1 6655   4.430   2.661  11.092 -0.4636  0.5000  0.2068
  447TMC3    C2 6656   4.414   2.597  10.970 -0.0777  0.0792 -0.0876
  447TMC3    C3 6657   4.531   2.546  10.913 -0.2778  0.0802 -0.4815
  447TMC3    C4 6658   4.544   2.665  11.164  0.0660  0.2840  0.4655
  447TMC3    C5 6659   4.655   2.605  11.108 -0.1396 -0.6010  0.2913
  447TMC3    C6 6660   4.650   2.556  10.981 -0.0191  0.5498  0.7351
  447TMC3     C 6661   4.309   2.696  11.161  0.0346 -0.3176  0.6173
  447TMC3     O 6662   4.320   2.784  11.243  0.5166 -0.1839 -0.6634
  447TMC3     H 6663   4.321   2.595  10.916 -1.3290  2.7373  1.9562
  447TMC3    H1 6664   4.550   2.704  11.265 -1.6013  0.9094  0.3227
  447TMC3    H2 6665   0.015   2.516  10.936 -0.2711  0.9129 -0.1066
  447TMC3    C7 6666   0.060   2.602  11.174 -0.1450 -0.2564  0.7959
  447TMC3    C8 6667   4.506   2.458  10.801 -0.5834  0.0497 -0.4471
  447TMC3    O1 6668   0.132   2.522  11.120  0.4140  0.1487 -0.2592
  447TMC3    O2 6669   4.417   2.497  10.719  0.8309 -0.1301 -0.9579
  448TMC3    C1 6670   2.134   1.940  16.423  0.1232  0.0685  0.0057
  448TMC3    C2 6671   2.061   1.891  16.315 -0.4206 -0.3434 -0.1747
  448TMC3    C3 6672   2.014   1.759  16.317 -0.4191 -0.0262 -0.5381
  448TMC3    C4 6673   2.150   1.863  16.535 -0.2270  0.4074  0.0420
  448TMC3    C5 6674   2.116   1.732  16.522 -0.0787  0.2137  0.3158
  448TMC3    C6 6675   2.047   1.680  16.420  0.2685  0.3607  0.1589
  448TMC3     C 6676   2.139   2.082  16.432  0.4171 -0.2315 -0.3287
  448TMC3     O 6677   2.047   2.145  16.380  0.4964  0.0259  0.0144
  448TMC3     H 6678   2.028   1.963  16.241  1.1280 -1.9214 -2.4127
  448TMC3    H1 6679   2.210   1.905  16.615 -2.1833  0.0394  1.7154
  448TMC3    H2 6680   2.006   1.579  16.423  2.1414 -0.5053 -2.8348
  448TMC3    C7 6681   2.162   1.631  16.619  0.0313 -0.4839  0.0491
  448TMC3    C8 6682   1.978   1.693  16.186 -0.4907  0.0532  0.4183
  448TMC3    O1 6683   2.135   1.514  16.596  0.4450  0.5510  0.2902
  448TMC3    O2 6684   1.969   1.573  16.178  0.4071 -0.1566  0.6419
  449MPD2     C 6685   4.196   0.616  13.563 -0.3254  0.6935  0.0580
  449MPD2    C1 6686   4.086   0.528  13.576  0.0378  0.0346  0.1358
  449MPD2    C2 6687   4.048   0.494  13.700  0.0558  0.1558  0.4281
  449MPD2    C3 6688   4.101   0.559  13.812 -0.0962  0.0682  0.0425
  449MPD2    C4 6689   4.207   0.648  13.799  0.2666  0.4137  0.2165
  449MPD2    C5 6690   4.260   0.667  13.674 -0.0098  0.4680 -0.3104
  449MPD2     H 6691   3.968   0.424  13.720  0.1288 -0.1166 -0.2233
  449MPD2    H1 6692   4.242   0.694  13.891  0.5881  0.6127 -0.0037
  449MPD2    H2 6693   4.239   0.634  13.465  0.4040 -0.2387  0.1973
  449MPD2    H3 6694   4.347   0.731  13.660  1.5986 -0.8954  3.4344
  449MPD2     N 6695   4.035   0.520  13.935 -0.2974 -0.1282 -0.3350
  449MPD2    H5 6696   3.956   0.460  13.915 -0.4468  0.3455 -1.1553
  449MPD2    N1 6697   4.030   0.452  13.466  0.3241 -0.5654  0.7536
  449MPD2    H7 6698   3.957   0.388  13.495 -0.3108  1.0367  2.7507
  450TMC3    C1 6699   4.027   0.336  13.265  0.0024  0.2175  0.2396
  450TMC3    C2 6700   4.129   0.255  13.231 -0.4076  0.2400  0.7199
  450TMC3    C3 6701   4.114   0.118  13.256 -0.1347  0.7737 -0.6524
  450TMC3    C4 6702   3.910   0.292  13.311  0.4210 -0.1650 -0.9510
  450TMC3    C5 6703   3.901   0.160  13.353  0.2746 -0.2681  0.4064
  450TMC3    C6 6704   4.000   0.068  13.318  0.0654 -0.2163  0.3079
  450TMC3     C 6705   4.073   0.451  13.341  0.8093 -0.0884 -0.2942
  450TMC3     O 6706   4.159   0.524  13.282 -0.1788 -0.0209  0.6312
  450TMC3     H 6707   4.218   0.297  13.186 -2.5563  3.6669 -0.3685
  450TMC3    H1 6708   3.846   0.372  13.346  0.6686  0.4632 -1.9374
  450TMC3    H2 6709   3.985   4.691  13.351  0.8192 -0.3474  0.2478
  450TMC3    C7 6710   3.835   0.148  13.484 -0.0388 -0.0533 -0.5236
  450TMC3    C8 6711   4.218   0.023  13.226 -0.1214  0.1400  0.0879
  450TMC3    O1 6712   3.838   0.257  13.545 -0.2119 -0.0576  0.0530
  450TMC3    O2 6713   4.202   4.630  13.256  0.5888  0.5824 -0.1170
  451MPD2     C 6714   4.350   4.429   1.305 -0.5321 -0.2204 -0.1576
  451MPD2    C1 6715   4.462   4.498   1.247  0.2178 -0.4621 -0.3414
  451MPD2    C2 6716   4.560   4.420   1.177 -0.0346  0.6647  0.3727
  451MPD2    C3 6717   4.546   4.288   1.156 -0.8148 -0.4747 -0.7265
  451MPD2    C4 6718   4.434   4.228   1.208 -0.4250  0.2455  0.8743
  451MPD2    C5 6719   4.340   4.292   1.288 -1.4807  0.2891 -1.2422
  451MPD2     H 6720   4.641   4.468   1.123 -0.0443  1.2619  0.8913
  451MPD2    H1 6721   4.410   4.123   1.191 -0.2784  0.3377  0.1088
  451MPD2    H2 6722   4.276   4.482   1.364  0.2373 -0.2477  0.8318
  451MPD2    H3 6723   4.260   4.230   1.326 -0.4175 -1.0444 -1.1728
  451MPD2     N 6724   4.633   4.221   1.074  0.4534  0.2321  1.1448
  451MPD2    H5 6725   4.593   4.137   1.032 -0.1311  1.6518 -1.1332
  451MPD2    N1 6726   4.473   4.644   1.263  0.3287 -0.5096  0.0984
  451MPD2    H7 6727   4.391   4.692   1.298 -0.3521  0.2301 -2.5060
  452TMC3    C1 6728   0.095   4.218   0.930  0.1730 -0.7470 -0.1128
  452TMC3    C2 6729   0.227   4.239   0.911  0.3815 -0.6718  0.9222
  452TMC3    C3 6730   0.291   4.179   0.811  0.2275  0.8146 -0.0093
  452TMC3    C4 6731   0.031   4.134   0.851  0.1922 -0.3746  0.1959
  452TMC3    C5 6732   0.097   4.062   0.752 -1.2241  0.0789 -0.3248
  452TMC3    C6 6733   0.233   4.088   0.727  0.0161 -0.1774 -0.1588
  452TMC3     C 6734   0.039   4.257   1.052  0.2020  0.1990  0.3087
  452TMC3     O 6735   0.114   4.336   1.107 -0.0033 -0.1127  0.0674
  452TMC3     H 6736   0.285   4.288   0.989 -1.9944 -0.0188  2.2763
  452TMC3    H1 6737   4.648   4.134   0.848  0.1581 -1.2988  1.6268
  452TMC3    H2 6738   0.289   4.037   0.650  0.7571  0.0842  0.2091
  452TMC3    C7 6739   0.013   3.980   0.668 -0.3126 -0.3661  0.4565
  452TMC3    C8 6740   0.437   4.183   0.808 -0.0342  0.2065 -0.0294
  452TMC3    O1 6741   4.618   3.989   0.676 -0.1567 -0.1225  0.1108
  452TMC3    O2 6742   0.505   4.104   0.743 -0.4975 -0.0196  0.5233
  453TMC3    C1 6743   1.779   1.631  11.664 -0.4677 -0.9470  0.3282
  453TMC3    C2 6744   1.662   1.573  11.700 -0.1186 -0.2838 -0.8573
  453TMC3    C3 6745   1.553   1.584  11.615  0.1304  0.8485 -0.6972
  453TMC3    C4 6746   1.800   1.680  11.538  0.1471 -0.5052  1.1241
  453TMC3    C5 6747   1.695   1.681  11.452  0.4604 -0.2145 -0.1302
  453TMC3    C6 6748   1.568   1.647  11.493  0.8882  0.3393 -0.3054
  453TMC3     C 6749   1.896   1.627  11.752 -0.3320  0.3877  0.4419
  453TMC3     O 6750   1.983   1.711  11.740 -0.5239  0.2315  0.1847
  453TMC3     H 6751   1.658   1.508  11.786 -2.6351  3.8372  2.1211
  453TMC3    H1 6752   1.902   1.712  11.522 -0.5095  1.8544  1.6665
  453TMC3    H2 6753   1.486   1.657  11.423  0.8137  1.2572 -0.0847
  453TMC3    C7 6754   1.722   1.692  11.308 -0.0512 -0.1275  0.4961
  453TMC3    C8 6755   1.425   1.527  11.646  0.9406  0.6785 -0.5244
  453TMC3    O1 6756   1.639   1.644  11.229 -0.5147  0.1129 -0.0741
  453TMC3    O2 6757   1.328   1.568  11.579 -0.1051 -0.2920  0.6331
  454MPD2     C 6758   0.539   0.289  16.437  0.3917  0.3729  0.5118
  454MPD2    C1 6759   0.497   0.413  16.412  0.1764 -0.9905  0.8210
  454MPD2    C2 6760   0.469   0.499  16.516 -0.3593 -1.0353 -0.1421
  454MPD2    C3 6761   0.457   0.448  16.640 -1.3451  0.3610 -0.5414
  454MPD2    C4 6762   0.514   0.321  16.668  0.7619 -0.2745  0.2097
  454MPD2    C5 6763   0.559   0.247  16.567  0.1278  0.4338  0.0473
  454MPD2     H 6764   0.440   0.599  16.486  0.4609 -0.3184  1.4573
  454MPD2    H1 6765   0.505   0.283  16.769  1.8828 -0.0633  0.3825
  454MPD2    H2 6766   0.585   0.224  16.363  0.0999 -1.2540  1.7483
  454MPD2    H3 6767   0.614   0.155  16.582  2.1797  1.6701  0.2457
  454MPD2     N 6768   0.396   0.508  16.747 -0.0519  0.0369 -0.1925
  454MPD2    H5 6769   0.417   0.470  16.839  2.7353  0.9392 -0.4483
  454MPD2    N1 6770   0.478   0.462  16.279 -0.3491 -0.0151 -1.1746
  454MPD2    H7 6771   0.456   0.561  16.273 -0.5397 -0.1024 -1.8689
  455TMC3    C1 6772   0.235   0.668  16.641  0.0009 -0.2569  0.3614
  455TMC3    C2 6773   0.210   0.803  16.619 -0.0811 -0.0207 -0.0887
  455TMC3    C3 6774   0.120   0.841  16.526 -0.9712 -0.2215 -0.6044
  455TMC3    C4 6775   0.178   0.574  16.557  0.4697  0.5341 -0.2436
  455TMC3    C5 6776   0.088   0.621  16.463  0.3511  0.2786  0.1563
  455TMC3    C6 6777   0.045   0.754  16.449  0.3310  0.0305 -0.4475
  455TMC3     C 6778   0.329   0.630  16.746  0.3641 -0.0886  0.0726
  455TMC3     O 6779   0.309   0.696  16.848 -0.3969 -0.2512  0.0002
  455TMC3     H 6780   0.253   0.869  16.693  1.4681 -1.7660  0.5903
  455TMC3    H1 6781   0.201   0.471  16.581  1.0409  1.1980  2.1381
  455TMC3    H2 6782   4.706   0.785  16.368  0.2647  0.4563 -0.2292
  455TMC3    C7 6783   0.057   0.521  16.365 -0.1402  0.1831 -0.1932
  455TMC3    C8 6784   0.074   0.983  16.531  0.0498  0.3225 -0.6338
  455TMC3    O1 6785   4.680   0.527  16.301  0.0844  0.3318  0.6876
  455TMC3    O2 6786   0.140   1.062  16.587 -0.0088  0.2218  0.1752
  456MPD2     C 6787   2.997   1.082  15.319  0.1279 -0.6205  0.0735
  456MPD2    C1 6788   2.960   1.006  15.422  0.5966 -0.2549 -0.0034
  456MPD2    C2 6789   2.841   1.027  15.485  0.0349 -0.1345  0.0526
  456MPD2    C3 6790   2.758   1.137  15.452 -0.1463 -0.0265 -0.2645
  456MPD2    C4 6791   2.788   1.211  15.339 -0.7152 -0.6040 -0.2184
  456MPD2    C5 6792   2.911   1.181  15.276 -0.7559  0.1466  0.3640
  456MPD2     H 6793   2.814   0.976  15.577 -0.9051 -2.5610 -1.5612
  456MPD2    H1 6794   2.729   1.297  15.309  0.5401  0.5106  0.4991
  456MPD2    H2 6795   3.080   1.057  15.253 -0.3086 -0.4809 -0.5297
  456MPD2    H3 6796   2.948   1.249  15.200 -0.3689 -0.0783  0.3548
  456MPD2     N 6797   2.661   1.169  15.541 -0.0963 -0.4772  0.1153
  456MPD2    H5 6798   2.646   1.103  15.616 -1.3403  1.5832  1.6706
  456MPD2    N1 6799   3.046   0.894  15.454  0.3609  0.2390  0.9014
  456MPD2    H7 6800   3.125   0.876  15.394 -0.8189 -0.4668 -0.4182
  457TMC3    C1 6801   2.482   1.279  15.644 -0.7026  0.1456  0.2891
  457TMC3    C2 6802   2.365   1.346  15.627 -0.6169  0.0436  0.2988
  457TMC3    C3 6803   2.251   1.305  15.703  0.2044 -0.6100 -0.6188
  457TMC3    C4 6804   2.492   1.169  15.736  0.1200 -0.2418 -0.2235
  457TMC3    C5 6805   2.387   1.149  15.813  0.0471  0.2346  1.2143
  457TMC3    C6 6806   2.264   1.199  15.785  0.0285 -0.1315 -0.0221
  457TMC3     C 6807   2.587   1.284  15.540 -0.3501  0.4937  0.0061
  457TMC3     O 6808   2.584   1.383  15.462  0.1375  0.0903  0.7035
  457TMC3     H 6809   2.353   1.429  15.558  0.6535 -0.8596 -0.9880
  457TMC3    H1 6810   2.585   1.136  15.781 -0.0579  1.5619  1.4542
  457TMC3    H2 6811   2.176   1.159  15.833 -1.2408  0.8882 -1.4639
  457TMC3    C7 6812   2.412   1.136  15.961 -0.2591  0.5102  0.2224
  457TMC3    C8 6813   2.185   1.411  15.783  0.6557  0.5885 -0.0959
  457TMC3    O1 6814   2.523   1.105  16.002 -0.2293 -0.5707 -0.0823
  457TMC3    O2 6815   2.147   1.375  15.893 -0.2404  0.0514  0.6425
  458MPD2     C 6816   0.493   0.651  12.362 -0.2366  0.5650  0.0627
  458MPD2    C1 6817   0.520   0.532  12.430  0.0806  0.3922  0.4445
  458MPD2    C2 6818   0.426   0.431  12.413 -0.0749 -0.4886  0.5363
  458MPD2    C3 6819   0.307   0.444  12.344 -0.7432 -0.3193 -1.0792
  458MPD2    C4 6820   0.274   0.571  12.294  0.1533 -0.2767  0.1193
  458MPD2    C5 6821   0.369   0.665  12.299  0.1331 -0.5341 -0.6629
  458MPD2     H 6822   0.433   0.342  12.474 -0.6356 -1.6924 -1.1532
  458MPD2    H1 6823   0.177   0.590  12.248  0.7656  0.1559 -1.0060
  458MPD2    H2 6824   0.563   0.734  12.355 -0.4979  0.8033  0.2792
  458MPD2    H3 6825   0.332   0.764  12.275 -1.8137 -1.0017  0.3829
  458MPD2     N 6826   0.220   0.332  12.351 -0.5179 -0.0692  0.4172
  458MPD2    H5 6827   0.259   0.242  12.376  1.0224  0.2811 -0.6930
  458MPD2    N1 6828   0.643   0.516  12.494  0.2537  0.2452 -0.3383
  458MPD2    H7 6829   0.700   0.600  12.503 -0.0411  0.5484 -1.2095
  459TMC3    C1 6830   0.804   0.432  12.627 -0.5669 -0.5883  0.2722
  459TMC3    C2 6831   0.889   0.530  12.592 -0.4028 -0.9776  0.6029
  459TMC3    C3 6832   1.001   0.540  12.660 -0.1823 -0.3681  0.5975
  459TMC3    C4 6833   0.833   0.350  12.735 -0.3737  0.6632 -0.6061
  459TMC3    C5 6834   0.943   0.376  12.807  0.3984  0.0487  0.2792
  459TMC3    C6 6835   1.033   0.466  12.775 -0.1566 -0.0395 -0.2314
  459TMC3     C 6836   0.689   0.405  12.552  0.5158  1.0846  0.3822
  459TMC3     O 6837   0.639   0.290  12.559 -0.2130  0.0830  0.0087
  459TMC3     H 6838   0.878   0.563  12.489  0.8343 -2.3096  0.0348
  459TMC3    H1 6839   0.758   0.282  12.774 -1.2693  0.2577 -3.0656
  459TMC3    H2 6840   1.134   0.461  12.814 -0.7647  1.3818  1.5544
  459TMC3    C7 6841   0.950   0.295  12.929 -0.3320  0.8518  0.1721
  459TMC3    C8 6842   1.104   0.623  12.599  0.0496 -0.1520  0.3849
  459TMC3    O1 6843   0.874   0.199  12.931 -0.0848  0.6069 -0.5850
  459TMC3    O2 6844   1.219   0.589  12.621 -0.0935 -0.7288  0.6734
  460MPD2     C 6845   4.717   2.187  10.690 -0.2829 -0.1797 -0.0220
  460MPD2    C1 6846   4.626   2.287  10.679  0.1430  0.4979  0.4505
  460MPD2    C2 6847   4.570   2.319  10.555  0.3368 -0.3107 -0.6767
  460MPD2    C3 6848   4.616   2.251  10.445 -0.3015  0.1369 -0.2140
  460MPD2    C4 6849   4.711   2.151  10.458  0.0176  1.4070  0.3124
  460MPD2    C5 6850   0.032   2.123  10.581 -0.0887  0.0223 -0.5461
  460MPD2     H 6851   4.495   2.397  10.544  0.4256 -0.2079 -0.5528
  460MPD2    H1 6852   0.043   2.109  10.376  0.9899  2.3087  0.5265
  460MPD2    H2 6853   0.048   2.162  10.779 -0.3741 -1.8160 -0.4382
  460MPD2    H3 6854   0.107   2.047  10.602  1.6910  1.4437 -1.8169
  460MPD2     N 6855   4.577   2.297  10.322 -0.4605 -0.1069  0.5282
  460MPD2    H5 6856   4.536   2.390  10.316  0.2385  0.1967  0.4125
  460MPD2    N1 6857   4.605   2.362  10.790 -0.3489 -0.0634  0.2632
  460MPD2    H7 6858   4.655   2.336  10.875 -1.0522 -0.4261  0.5652
  461TMC3    C1 6859   4.574   2.333  10.089 -1.0422 -0.1359  0.1854
  461TMC3    C2 6860   4.542   2.266   9.969 -0.4871  0.1675 -0.8593
  461TMC3    C3 6861   4.455   2.327   9.887 -0.6409  0.1095 -0.2109
  461TMC3    C4 6862   4.541   2.468  10.101  0.5652  0.2884 -0.7172
  461TMC3    C5 6863   4.475   2.529  10.000 -0.1182 -0.1099  0.2811
  461TMC3    C6 6864   4.428   2.459   9.896 -0.4016  0.4935  0.2442
  461TMC3     C 6865   4.614   2.252  10.197 -0.0244 -0.0928  0.0779
  461TMC3     O 6866   4.653   2.137  10.171 -0.1525  0.5407  0.5073
  461TMC3     H 6867   4.559   2.160   9.957  1.3792  0.5578 -1.6887
  461TMC3    H1 6868   4.581   2.523  10.185 -0.1550  1.2848 -1.0259
  461TMC3    H2 6869   4.358   2.505   9.827 -0.9428  1.0693  1.1719
  461TMC3    C7 6870   4.432   2.671  10.005  0.4578 -0.1169 -0.0717
  461TMC3    C8 6871   4.412   2.255   9.767 -0.6710  0.1934 -0.0612
  461TMC3    O1 6872   4.397   2.711   9.898 -0.3847 -0.3309 -0.4539
  461TMC3    O2 6873   4.487   2.178   9.712  0.3274 -0.7034 -0.1560
  462TMC3    C1 6874   0.055   3.014   0.442 -0.2052  0.4840 -0.2757
  462TMC3    C2 6875   0.111   2.926   0.355 -0.7721  0.7722 -0.5126
  462TMC3    C3 6876   0.032   2.820   0.317  0.1688 -0.0556  0.2381
  462TMC3    C4 6877   4.647   3.011   0.467 -0.1998  0.1129  0.0254
  462TMC3    C5 6878   4.576   2.902   0.434  0.7035  0.0280 -0.2920
  462TMC3    C6 6879   4.631   2.806   0.357  0.7327 -0.4780 -0.1710
  462TMC3     C 6880   0.142   3.112   0.493  0.2279  0.6003 -0.3964
  462TMC3     O 6881   0.243   3.132   0.432 -0.6710  0.7651  0.5498
  462TMC3     H 6882   0.213   2.938   0.320 -0.8179 -0.0102 -0.9332
  462TMC3    H1 6883   4.598   3.086   0.527 -0.6338 -2.4885  2.9351
  462TMC3    H2 6884   4.556   2.734   0.327 -1.1006  0.5535  1.9792
  462TMC3    C7 6885   4.426   2.885   0.456  0.0698  0.0831  0.1081
  462TMC3    C8 6886   0.077   2.732   0.209  0.8321  0.4154  0.1948
  462TMC3    O1 6887   4.366   2.804   0.382  0.1041 -0.1604  0.1381
  462TMC3    O2 6888   0.152   2.790   0.132 -0.1671 -0.3471  0.0293
  463MPD2     C 6889   0.821   1.367   1.550 -0.0791  0.2668  0.2403
  463MPD2    C1 6890   0.749   1.484   1.530 -0.0450 -0.1802 -0.3593
  463MPD2    C2 6891   0.806   1.611   1.559  0.0223  0.5489  0.1493
  463MPD2    C3 6892   0.942   1.618   1.572 -0.1057 -0.1663  0.2924
  463MPD2    C4 6893   1.018   1.499   1.597 -0.3301  0.1161  0.3334
  463MPD2    C5 6894   0.949   1.381   1.584  0.6013  0.4580 -0.0666
  463MPD2     H 6895   0.747   1.701   1.545 -2.1645 -0.9822 -0.3740
  463MPD2    H1 6896   1.121   1.484   1.630 -0.4779 -1.0213  0.2902
  463MPD2    H2 6897   0.783   1.266   1.538 -0.0622  0.3581 -0.5847
  463MPD2    H3 6898   1.002   1.286   1.583 -0.1750  0.0193  0.0290
  463MPD2     N 6899   1.005   1.743   1.559 -0.6094 -0.4626  0.1452
  463MPD2    H5 6900   0.953   1.830   1.551 -1.4257 -0.9045  0.6748
  463MPD2    N1 6901   0.617   1.476   1.486 -0.1962  0.2724  0.0998
  463MPD2    H7 6902   0.567   1.563   1.495 -1.7641 -0.8510  2.1235
  464TMC3    C1 6903   0.444   1.418   1.328  0.1181 -0.6563 -0.4751
  464TMC3    C2 6904   0.349   1.503   1.373 -0.5210 -0.3235 -0.0552
  464TMC3    C3 6905   0.281   1.580   1.285 -0.3589  0.2877 -0.5201
  464TMC3    C4 6906   0.464   1.399   1.191  0.0250 -0.2466 -0.1535
  464TMC3    C5 6907   0.384   1.471   1.108 -0.2362 -0.4794 -0.1950
  464TMC3    C6 6908   0.288   1.556   1.150 -1.2484  0.8308  0.1065
  464TMC3     C 6909   0.560   1.372   1.411 -0.0939 -0.2206 -0.7252
  464TMC3     O 6910   0.618   1.269   1.369 -0.5001 -0.0602 -0.1388
  464TMC3     H 6911   0.352   1.530   1.478  2.0817  4.7312 -1.4232
  464TMC3    H1 6912   0.537   1.324   1.163  1.2136  0.9623 -0.3176
  464TMC3    H2 6913   0.235   1.623   1.083  0.0987  1.6926 -0.1042
  464TMC3    C7 6914   0.401   1.460   0.962  0.0413  0.5021 -0.6043
  464TMC3    C8 6915   0.203   1.695   1.327 -0.1684 -0.2353 -0.2678
  464TMC3    O1 6916   0.508   1.416   0.919 -0.1551 -0.1998  0.2965
  464TMC3    O2 6917   0.200   1.791   1.254 -0.0567  0.5053  0.0882
  465MPD2     C 6918   1.761   0.823  16.723  0.7034 -0.6447 -0.0703
  465MPD2    C1 6919   1.647   0.783  16.791  1.0520 -0.0798  0.2257
  465MPD2    C2 6920   1.527   0.819  16.744 -1.2160  1.1018 -0.1754
  465MPD2    C3 6921   1.511   0.881  16.619  0.0434  0.2547 -0.3715
  465MPD2    C4 6922   1.627   0.903  16.545 -0.1380 -0.8796 -0.4278
  465MPD2    C5 6923   1.748   0.880  16.599 -0.2373 -0.1981 -0.7495
  465MPD2     H 6924   1.438   0.809  16.805 -0.1886  0.2150  1.1765
  465MPD2    H1 6925   1.632   0.934  16.441  1.7669  0.5267  0.0930
  465MPD2    H2 6926   1.861   0.813  16.763 -0.0439 -2.5956  1.3498
  465MPD2    H3 6927   1.839   0.901  16.544  1.2021 -3.0418  0.5392
  465MPD2     N 6928   1.382   0.891  16.572 -0.3619 -0.0594 -0.9799
  465MPD2    H5 6929   1.308   0.869  16.639 -0.1817 -2.2087 -1.5007
  465MPD2    N1 6930   1.644   0.733  16.922  0.9367  0.5708  0.4246
  465MPD2    H7 6931   1.559   0.721  16.977 -0.2591  1.9830 -1.1051
  466TMC3    C1 6932   1.022   0.955  16.575 -0.0969 -0.1245 -0.0238
  466TMC3    C2 6933   0.961   1.043  16.486 -0.3268 -0.1568  0.2600
  466TMC3    C3 6934   1.036   1.084  16.375 -0.7956 -0.1593 -0.0370
  466TMC3    C4 6935   1.133   0.885  16.530 -1.1424  0.0163 -0.0914
  466TMC3    C5 6936   1.210   0.929  16.418  0.0726  0.1875  0.2569
  466TMC3    C6 6937   1.167   1.032  16.343 -0.3399  0.2750 -0.2686
  466TMC3     C 6938   1.054   0.995  16.705 -0.3337  0.4310 -0.1104
  466TMC3     O 6939   1.144   0.933  16.761 -0.9344  0.1691  0.6254
  466TMC3     H 6940   0.860   1.080  16.497 -0.7017 -0.7470 -1.1586
  466TMC3    H1 6941   1.160   0.804  16.597  0.3972 -1.1165 -2.0881
  466TMC3    H2 6942   1.226   1.076  16.263 -1.7176 -3.3803 -3.2804
  466TMC3    C7 6943   1.354   0.933  16.446 -0.7046 -0.0293 -0.3405
  466TMC3    C8 6944   1.034   1.238  16.373 -0.0475 -0.2286 -0.0728
  466TMC3    O1 6945   1.427   0.992  16.369 -0.1348 -0.2742 -0.0721
  466TMC3    O2 6946   0.976   1.299  16.458 -0.0314 -0.0317 -0.3264
  467TMC3    C1 6947   3.101   4.209  14.021  0.3911  0.2117  0.4160
  467TMC3    C2 6948   3.051   4.301  13.929 -0.4997 -0.2553  0.2660
  467TMC3    C3 6949   2.910   4.310  13.927 -0.2223 -0.5331 -0.4793
  467TMC3    C4 6950   3.027   4.128  14.102 -0.1548  0.5162  0.2327
  467TMC3    C5 6951   2.896   4.145  14.102  1.3281  0.5147  0.2395
  467TMC3    C6 6952   2.837   4.244  14.016 -0.3732 -0.3298 -0.4171
  467TMC3     C 6953   3.245   4.206  14.018  0.1484  0.0839  0.1195
  467TMC3     O 6954   3.296   4.314  13.997 -0.2361 -0.4518  0.0463
  467TMC3     H 6955   3.123   4.356  13.869  0.5174 -0.5627  1.1980
  467TMC3    H1 6956   3.078   4.065  14.174  2.2245  1.9093 -0.2343
  467TMC3    H2 6957   2.732   4.269  14.026 -0.7015 -1.3986 -1.1884
  467TMC3    C7 6958   2.819   4.076  14.199 -0.3317  0.4788 -0.4663
  467TMC3    C8 6959   2.859   4.414  13.838 -1.2696  0.3917 -0.0656
  467TMC3    O1 6960   2.884   4.018  14.284  0.0615 -0.4789 -0.2811
  467TMC3    O2 6961   2.934   4.500  13.796 -0.0191 -0.5833  0.1296
  468MPD2     C 6962   1.286   2.747  10.149  0.0076  0.8229 -0.2455
  468MPD2    C1 6963   1.295   2.708  10.279 -0.6874  0.3240  0.1345
  468MPD2    C2 6964   1.308   2.577  10.309  0.3682 -0.8012  0.1521
  468MPD2    C3 6965   1.291   2.483  10.211 -0.5542  0.2029  0.2597
  468MPD2    C4 6966   1.288   2.513  10.077  0.0868  0.3978 -0.1671
  468MPD2    C5 6967   1.294   2.649  10.047 -0.6022 -0.4058  0.0444
  468MPD2     H 6968   1.317   2.543  10.412 -1.1124 -0.7720  0.2838
  468MPD2    H1 6969   1.297   2.441   9.996  0.5564  0.9687 -0.6220
  468MPD2    H2 6970   1.258   2.849  10.128  0.0604  0.6948 -0.9427
  468MPD2    H3 6971   1.286   2.677   9.942  0.0558 -0.9147 -0.1409
  468MPD2     N 6972   1.326   2.351  10.243 -0.4220  0.0001  1.1181
  468MPD2    H5 6973   1.364   2.293  10.169 -0.1389 -0.4229  1.5962
  468MPD2    N1 6974   1.315   2.803  10.388 -0.1959 -0.1129 -0.4980
  468MPD2    H7 6975   1.361   2.766  10.471  2.6865 -0.1098 -2.0755
  469TMC3    C1 6976   1.338   3.001  10.503  0.3066  0.9607  0.8240
  469TMC3    C2 6977   1.444   2.947  10.570  0.1679  0.1104  0.0264
  469TMC3    C3 6978   1.471   2.990  10.697 -0.3762 -0.1216 -0.6032
  469TMC3    C4 6979   1.256   3.095  10.570  0.4611 -0.3653  0.3051
  469TMC3    C5 6980   1.279   3.131  10.703 -0.1534 -0.1600 -0.1378
  469TMC3    C6 6981   1.392   3.079  10.769  0.3182 -0.1838 -0.3117
  469TMC3     C 6982   1.296   2.940  10.375 -0.8293  0.3493  0.2871
  469TMC3     O 6983   1.210   2.999  10.312 -0.2557 -0.0555 -0.2791
  469TMC3     H 6984   1.522   2.894  10.516 -0.3540  0.6235 -1.2473
  469TMC3    H1 6985   1.158   3.121  10.532  0.8172 -1.3252 -1.2639
  469TMC3    H2 6986   1.402   3.078  10.877  0.3826 -0.4727 -0.3198
  469TMC3    C7 6987   1.169   3.180  10.784  0.3498 -0.3365  0.3072
  469TMC3    C8 6988   1.589   2.930  10.759 -0.3145 -0.8480 -0.5222
  469TMC3    O1 6989   1.055   3.155  10.740 -0.2115 -0.1237  0.6024
  469TMC3    O2 6990   1.651   2.855  10.686 -0.3514 -0.1888 -0.2051
  470TMC3    C1 6991   3.909   3.593   0.695 -0.4001 -0.3453 -0.5511
  470TMC3    C2 6992   3.881   3.705   0.773 -0.9241 -0.5125  0.5820
  470TMC3    C3 6993   3.967   3.802   0.786 -0.4289  0.7552 -0.1990
  470TMC3    C4 6994   4.033   3.582   0.643 -0.0051 -0.0030 -0.3963
  470TMC3    C5 6995   4.126   3.679   0.684 -0.7744 -1.2419 -0.2997
  470TMC3    C6 6996   4.095   3.789   0.749 -0.9941  0.5406  0.2194
  470TMC3     C 6997   3.830   3.473   0.705 -0.2657  0.2658 -0.2900
  470TMC3     O 6998   3.845   3.387   0.621  0.4144  0.3650 -0.3926
  470TMC3     H 6999   3.781   3.725   0.808 -0.8901 -0.9125  0.9068
  470TMC3    H1 7000   4.059   3.486   0.598  0.6568  1.2031 -2.5570
  470TMC3    H2 7001   4.164   3.872   0.765 -2.5391  1.8321  0.2565
  470TMC3    C7 7002   4.269   3.636   0.700 -0.6014 -0.5078 -0.3875
  470TMC3    C8 7003   3.902   3.927   0.806  0.1628  0.4898  0.1425
  470TMC3    O1 7004   4.305   3.539   0.629 -0.7793  0.0809  0.3329
  470TMC3    O2 7005   3.805   3.941   0.878 -0.0295 -0.1096  0.3489
  471MPD2     C 7006   4.102   4.704  16.914 -0.0108  0.2863 -0.5931
  471MPD2    C1 7007   4.204   4.611  16.882 -0.3525 -0.6601 -0.8263
  471MPD2    C2 7008   4.252   4.521  16.978 -0.2507  0.2276  0.5392
  471MPD2    C3 7009   4.192   4.520  17.102  0.0864  0.2277 -0.0771
  471MPD2    C4 7010   4.087   4.616  17.124 -0.2374 -0.1794  0.3176
  471MPD2    C5 7011   4.037   4.704  17.033 -0.8901  0.1578 -0.1219
  471MPD2     H 7012   4.325   4.447  16.948  0.6408  1.3998 -0.1860
  471MPD2    H1 7013   4.047   4.620  17.224 -1.0869  1.1136 -0.0845
  471MPD2    H2 7014   4.071   0.052  16.840  0.0715  0.7436 -0.1712
  471MPD2    H3 7015   3.951   0.044  17.046  0.5869  2.3424 -1.2185
  471MPD2     N 7016   4.230   4.433  17.211 -0.6153  0.2555 -1.0629
  471MPD2    H5 7017   4.183   4.453  17.299 -1.5476 -3.1885 -0.7865
  471MPD2    N1 7018   4.259   4.595  16.753  0.4904 -0.1389 -0.7277
  471MPD2    H7 7019   4.326   4.519  16.745  1.0440  0.1733  0.9389
  472TMC3    C1 7020   4.239   4.572  16.514  0.1602 -0.1266  0.7917
  472TMC3    C2 7021   4.173   4.602  16.403 -0.0750  0.3734 -0.3359
  472TMC3    C3 7022   4.190   4.526  16.292 -0.8054  0.5523  0.2181
  472TMC3    C4 7023   4.321   4.460  16.526  0.4377  0.1572 -0.4877
  472TMC3    C5 7024   4.325   4.376  16.417  0.7144  0.2729  0.6755
  472TMC3    C6 7025   4.263   4.410  16.300  0.9200  0.1104 -0.3521
  472TMC3     C 7026   4.211   4.649  16.633 -0.4671 -0.2580  0.5785
  472TMC3     O 7027   4.130   0.013  16.623  0.2619  0.3518 -0.1042
  472TMC3     H 7028   4.101   4.682  16.393 -0.5844  0.0027  0.3618
  472TMC3    H1 7029   4.358   4.422  16.621 -0.6700  2.8289  1.0131
  472TMC3    H2 7030   4.272   4.345  16.214 -0.7048  0.5347 -0.8462
  472TMC3    C7 7031   4.314   4.236  16.450 -0.2170  0.7987  0.0751
  472TMC3    C8 7032   4.068   4.507  16.219 -0.0496  0.2010  0.1550
  472TMC3    O1 7033   4.373   4.191  16.548 -0.0766 -0.0784 -0.2464
  472TMC3    O2 7034   4.082   4.495  16.096 -0.1825  0.2142  0.5592
  473MPD2     C 7035   4.242   1.968  13.536 -0.0393 -0.5375  0.1219
  473MPD2    C1 7036   4.156   2.075  13.552  0.7841  0.1576  0.2994
  473MPD2    C2 7037   4.166   2.138  13.676  0.0263 -0.3192  0.3439
  473MPD2    C3 7038   4.248   2.095  13.781  0.4179 -0.3549 -0.0298
  473MPD2    C4 7039   4.315   1.980  13.760 -0.5761 -0.0238  0.0250
  473MPD2    C5 7040   4.309   1.917  13.638 -0.7085  1.1136  0.8299
  473MPD2     H 7041   4.116   2.232  13.694 -0.4283 -0.5387  0.2184
  473MPD2    H1 7042   4.377   1.924  13.828  1.6455  1.9773 -0.3380
  473MPD2    H2 7043   4.247   1.913  13.443  0.5564  0.9325 -0.7305
  473MPD2    H3 7044   4.365   1.824  13.640 -2.4839  0.0585  1.1187
  473MPD2     N 7045   4.274   2.156  13.910  0.0283 -0.1475 -0.4414
  473MPD2    H5 7046   4.351   2.116  13.961  0.4105 -1.3897 -2.0001
  473MPD2    N1 7047   4.083   2.126  13.446  0.6714  0.0272  0.3445
  473MPD2    H7 7048   4.031   2.211  13.467  1.9367  0.3985  2.0387
  474TMC3    C1 7049   4.278   2.326  14.075 -0.4525 -0.1205 -0.1471
  474TMC3    C2 7050   4.188   2.399  14.153  0.2685 -0.0178 -0.1607
  474TMC3    C3 7051   4.239   2.457  14.265 -0.1973  0.6983 -0.0367
  474TMC3    C4 7052   4.407   2.311  14.106  0.3759  0.2550 -0.1298
  474TMC3    C5 7053   4.444   2.362  14.228  0.0917 -0.1554 -0.9537
  474TMC3    C6 7054   4.368   2.446  14.298 -0.1107  0.0106 -0.2465
  474TMC3     C 7055   4.226   2.278  13.948 -0.1538 -0.1448  0.5250
  474TMC3     O 7056   4.127   2.332  13.903 -0.4866  0.2885 -0.0003
  474TMC3     H 7057   4.085   2.420  14.125  0.4731 -0.0073 -0.9074
  474TMC3    H1 7058   4.471   2.258  14.036  1.7589  1.8379 -0.0737
  474TMC3    H2 7059   4.402   2.482  14.395 -0.0583 -2.6788  0.7486
  474TMC3    C7 7060   4.581   2.337  14.277  0.7141 -0.9187  0.4399
  474TMC3    C8 7061   4.178   2.567  14.325  0.2244  0.0765  0.0193
  474TMC3    O1 7062   4.655   2.289  14.195  0.3676  0.1280 -0.2440
  474TMC3    O2 7063   4.063   2.559  14.374 -0.2199  0.8143  0.6686
  475MPD2     C 7064   2.920   0.193  10.666  0.9001  0.1500 -0.3620
  475MPD2    C1 7065   2.933   0.328  10.635  0.4836  0.0078 -0.1087
  475MPD2    C2 7066   2.824   0.410  10.612 -0.2039 -0.2017  0.5101
  475MPD2    C3 7067   2.696   0.355  10.616 -0.6704  0.2059 -0.5556
  475MPD2    C4 7068   2.686   0.222  10.650  0.7653 -0.1532 -0.2145
  475MPD2    C5 7069   2.791   0.145  10.679  0.0204  0.1829  0.1400
  475MPD2     H 7070   2.837   0.517  10.605  0.9155 -0.3245  0.7541
  475MPD2    H1 7071   2.589   0.177  10.671  0.8500 -0.2244  0.0236
  475MPD2    H2 7072   3.007   0.130  10.681 -0.5837 -1.4776  1.4992
  475MPD2    H3 7073   2.770   0.043  10.711 -0.2034  1.0006  2.5766
  475MPD2     N 7074   2.587   0.454  10.619  0.2431 -0.9020  0.6395
  475MPD2    H5 7075   2.614   0.551  10.609  0.2239 -0.8510  1.1015
  475MPD2    N1 7076   3.065   0.384  10.631  0.3454 -0.1440 -0.2452
  475MPD2    H7 7077   3.059   0.484  10.612 -1.8695 -0.5677 -1.7729
  476TMC3    C1 7078   3.287   0.396  10.573 -0.0299 -0.4038  0.8751
  476TMC3    C2 7079   3.266   0.397  10.439  0.0172  0.2345 -0.3301
  476TMC3    C3 7080   3.288   0.510  10.368  0.7170  0.0958 -0.1730
  476TMC3    C4 7081   3.318   0.511  10.636  0.5005  0.4160  0.6283
  476TMC3    C5 7082   3.355   0.621  10.560  0.2829  0.4286  0.0626
  476TMC3    C6 7083   3.348   0.621  10.427 -0.5213  0.1365  0.0560
  476TMC3     C 7084   3.184   0.320  10.639  0.0370  0.0713 -0.0179
  476TMC3     O 7085   3.226   0.227  10.708  0.0315  0.1547  0.5259
  476TMC3     H 7086   3.250   0.305  10.385  0.2543 -0.4105  0.6935
  476TMC3    H1 7087   3.325   0.518  10.744 -0.2150  1.8951  0.5748
  476TMC3    H2 7088   3.352   0.718  10.379  0.5612  0.9650  1.8332
  476TMC3    C7 7089   3.395   0.743  10.618  0.2038 -0.0271  0.2246
  476TMC3    C8 7090   3.182   0.550  10.277  0.5419  0.2779  0.4908
  476TMC3    O1 7091   3.458   0.821  10.552 -0.0269 -0.1743 -0.1911
  476TMC3    O2 7092   3.192   0.658  10.222 -0.5013 -0.4258  0.5361
  477MPD2     C 7093   0.587   2.319  11.860 -0.2920  0.9214  0.1846
  477MPD2    C1 7094   0.517   2.218  11.793 -0.5088 -0.7364 -0.2080
  477MPD2    C2 7095   0.544   2.087  11.835  0.5581  0.0818 -0.2711
  477MPD2    C3 7096   0.623   2.063  11.943 -0.4181 -0.2189 -0.2121
  477MPD2    C4 7097   0.681   2.167  12.011  0.6428  0.2895  0.1680
  477MPD2    C5 7098   0.668   2.295  11.964  0.1285  0.3036  0.0978
  477MPD2     H 7099   0.497   2.002  11.787 -0.1882  1.5295 -2.1258
  477MPD2    H1 7100   0.740   2.145  12.099  1.2947  0.7195 -0.1555
  477MPD2    H2 7101   0.572   2.424  11.839 -2.4853  0.4631 -0.5379
  477MPD2    H3 7102   0.720   2.377  12.012  1.5950 -0.4296 -0.2359
  477MPD2     N 7103   0.644   1.932  11.992  0.0233  0.7331  0.0661
  477MPD2    H5 7104   0.676   1.924  12.088  1.0216 -0.1722 -0.3454
  477MPD2    N1 7105   0.418   2.232  11.689 -0.3035 -0.4031 -0.2785
  477MPD2    H7 7106   0.368   2.150  11.657 -1.5629  0.1367  0.2986
  478TMC3    C1 7107   0.250   2.363  11.568 -0.6150 -0.4857  0.0802
  478TMC3    C2 7108   0.163   2.461  11.615  0.4178  0.1864  0.1736
  478TMC3    C3 7109   0.035   2.448  11.569 -0.2425  0.0732  0.0930
  478TMC3    C4 7110   0.216   2.249  11.504 -0.2858  0.2380 -0.6529
  478TMC3    C5 7111   0.082   2.245  11.462 -0.3303  0.5912  0.4416
  478TMC3    C6 7112   4.714   2.344  11.491 -0.2686  0.1693 -0.2213
  478TMC3     C 7113   0.379   2.357  11.639 -0.0454 -0.5025 -0.4774
  478TMC3     O 7114   0.434   2.465  11.662 -0.2648 -0.2460 -0.3388
  478TMC3     H 7115   0.189   2.552  11.669  1.6861  2.1958 -3.8801
  478TMC3    H1 7116   0.286   2.180  11.458  0.4134  0.4096  0.1495
  478TMC3    H2 7117   4.613   2.344  11.451 -0.0464  2.9788 -0.7505
  478TMC3    C7 7118   0.056   2.143  11.364  0.5602 -0.3430 -0.4848
  478TMC3    C8 7119   4.682   2.572  11.573 -0.3447  0.1357 -0.2475
  478TMC3    O1 7120   0.131   2.048  11.350 -0.4342 -0.1234 -0.1775
  478TMC3    O2 7121   4.591   2.588  11.492 -0.3260 -0.3514  0.1553
  479MPD2     C 7122   4.288   4.116  14.854 -0.2543 -0.0124 -0.4444
  479MPD2    C1 7123   4.219   4.041  14.946 -0.3197 -0.0289  0.3062
  479MPD2    C2 7124   4.269   4.028  15.076 -0.2879  0.3174  0.3475
  479MPD2    C3 7125   4.400   4.063  15.102  0.0708 -0.7566  0.1172
  479MPD2    C4 7126   4.477   4.126  15.007 -0.1968  0.4314 -0.1822
  479MPD2    C5 7127   4.419   4.153  14.889  0.1419 -0.1770  0.2236
  479MPD2     H 7128   4.206   3.990  15.155 -1.7063  3.7935  0.9046
  479MPD2    H1 7129   4.575   4.169  15.026 -1.0404  1.3693  2.0462
  479MPD2    H2 7130   4.243   4.138  14.757 -0.0707  1.5346 -0.1716
  479MPD2    H3 7131   4.483   4.194  14.811  0.6719 -1.1630  0.1292
  479MPD2     N 7132   4.449   4.065  15.235 -1.0239  1.1589 -0.4648
  479MPD2    H5 7133   4.529   4.126  15.249  0.9980 -1.2599 -1.3980
  479MPD2    N1 7134   4.089   3.998  14.907 -0.2065  0.9435  0.1899
  479MPD2    H7 7135   4.054   4.031  14.817  2.1975 -0.6670 -1.3328
  480TMC3    C1 7136   4.313   4.012  15.669  0.0058  0.1798  0.0370
  480TMC3    C2 7137   4.253   4.135  15.659 -0.0407  0.7596  0.7755
  480TMC3    C3 7138   4.276   4.217  15.554  0.3584 -0.6424  0.7346
  480TMC3    C4 7139   4.390   3.967  15.564 -0.0785 -0.3318 -0.6001
  480TMC3    C5 7140   4.423   4.054  15.463  0.0718  0.4774  0.1729
  480TMC3    C6 7141   4.381   4.181  15.474 -0.4434 -0.0696  0.3598
  480TMC3     C 7142   4.261   3.923  15.765  0.0033 -0.3990  0.2087
  480TMC3     O 7143   4.327   3.822  15.794 -0.5270  0.2088 -0.3781
  480TMC3     H 7144   4.192   4.176  15.738  0.5728 -0.9953  2.1514
  480TMC3    H1 7145   4.437   3.869  15.564  0.7172  0.0617 -0.9939
  480TMC3    H2 7146   4.405   4.246  15.389 -0.4223 -0.0778  0.3595
  480TMC3    C7 7147   4.394   3.995  15.341  0.4300  0.0448  0.1453
  480TMC3    C8 7148   4.150   4.233  15.481 -0.1033  0.9381  0.4860
  480TMC3    O1 7149   4.316   3.898  15.341 -0.0236  0.5280 -0.2713
  480TMC3    O2 7150   4.059   4.174  15.535  0.2812  0.2765 -0.5377
  481MPD2     C 7151   1.005   3.360  14.034  0.3599 -0.3541  0.0967
  481MPD2    C1 7152   0.879   3.367  14.087  0.3734 -0.2118 -0.5283
  481MPD2    C2 7153   0.858   3.337  14.219 -0.2175 -0.9600 -0.1787
  481MPD2    C3 7154   0.967   3.341  14.305 -0.0259 -0.6881 -0.1717
  481MPD2    C4 7155   1.095   3.343  14.254  0.2033  0.6077  0.1379
  481MPD2    C5 7156   1.108   3.356  14.114  0.3072 -0.7778 -0.2264
  481MPD2     H 7157   0.760   3.368  14.254 -0.1209 -2.3127  1.3074
  481MPD2    H1 7158   1.189   3.351  14.307  0.4418 -0.4153 -0.1320
  481MPD2    H2 7159   1.021   3.363  13.927 -2.4514  1.2798 -0.2670
  481MPD2    H3 7160   1.209   3.341  14.078  0.9079 -2.0967  1.9651
  481MPD2     N 7161   0.950   3.345  14.444  0.1469  0.3568 -0.0692
  481MPD2    H5 7162   1.033   3.349  14.502 -0.0010 -1.5902  0.2835
  481MPD2    N1 7163   0.773   3.399  13.996 -0.1039  0.6346 -0.1602
  481MPD2    H7 7164   0.796   3.414  13.898 -1.2996  2.5853 -0.1416
  482TMC3    C1 7165   0.557   3.460  13.928 -0.1407  0.5426  0.0627
  482TMC3    C2 7166   0.435   3.416  13.928  0.1207  0.5319 -0.2698
  482TMC3    C3 7167   0.354   3.437  13.818  0.5584 -0.4524  0.5083
  482TMC3    C4 7168   0.613   3.536  13.824  0.0803 -0.2434 -0.4467
  482TMC3    C5 7169   0.531   3.547  13.715  0.6831  0.0683  0.2062
  482TMC3    C6 7170   0.400   3.500  13.703 -0.5501  0.3315 -0.0460
  482TMC3     C 7171   0.642   3.404  14.031 -0.0080  0.3025 -0.1408
  482TMC3     O 7172   0.580   3.370  14.131 -0.1101 -0.2365 -0.1449
  482TMC3     H 7173   0.400   3.361  14.015  1.9778 -0.7341 -0.3085
  482TMC3    H1 7174   0.715   3.573  13.823  0.7326 -2.0549 -2.0357
  482TMC3    H2 7175   0.331   3.524  13.623 -0.4292  0.1488 -0.2049
  482TMC3    C7 7176   0.590   3.615  13.593 -0.5892 -0.6409  0.4280
  482TMC3    C8 7177   0.254   3.341  13.807  0.1504 -0.0554 -0.2103
  482TMC3    O1 7178   0.703   3.671  13.616  0.8675  0.1547  0.0301
  482TMC3    O2 7179   0.261   3.242  13.883  0.0104 -0.1542  0.2884
  483TMC3    C1 7180   2.709   2.432  17.402 -1.1214 -0.1001  0.2922
  483TMC3    C2 7181   2.747   2.553  17.464 -0.4915 -0.0556  0.8697
  483TMC3    C3 7182   2.717   2.573  17.596 -0.3991  0.0348 -0.6577
  483TMC3    C4 7183   2.637   2.340  17.475 -0.0827 -0.3770  0.1199
  483TMC3    C5 7184   2.617   2.358  17.609  0.6081  0.4135  0.0211
  483TMC3    C6 7185   2.652   2.477  17.673 -0.7427 -0.6793  0.4938
  483TMC3     C 7186   2.804   2.379  17.306 -0.5328 -0.7587  0.2042
  483TMC3     O 7187   2.840   2.457  17.221 -0.1950  0.0148 -0.2697
  483TMC3     H 7188   2.803   2.619  17.399  1.0118 -2.1141  0.0840
  483TMC3    H1 7189   2.613   2.238  17.447  0.1239 -0.7168  1.1812
  483TMC3    H2 7190   2.650   2.490   0.079  0.3804 -1.9718  0.6772
  483TMC3    C7 7191   2.695   2.252  17.672  0.2377 -0.0868  1.0278
  483TMC3    C8 7192   2.815   2.659  17.666 -0.4183 -0.5870  0.6883
  483TMC3    O1 7193   2.796   2.229  17.615  0.1587 -0.2940  0.3092
  483TMC3    O2 7194   2.905   2.711  17.604  0.1199 -0.4694  0.3870
  484MPD2     C 7195   1.079   0.886  12.333  0.6958 -0.1886  0.4821
  484MPD2    C1 7196   1.143   0.794  12.414 -0.2873 -0.1134 -0.0001
  484MPD2    C2 7197   1.274   0.756  12.390 -0.1045 -0.3115  0.1668
  484MPD2    C3 7198   1.349   0.813  12.287  0.3356 -0.2425  0.7871
  484MPD2    C4 7199   1.291   0.915  12.215 -0.1057 -0.1693  0.5439
  484MPD2    C5 7200   1.155   0.935  12.228 -0.7978 -0.3317 -0.6741
  484MPD2     H 7201   1.324   0.678  12.447  1.3499 -0.0565 -0.7468
  484MPD2    H1 7202   1.340   0.953  12.126 -0.5502 -2.7584 -0.7977
  484MPD2    H2 7203   0.978   0.918  12.355  1.8141  3.2872  0.5101
  484MPD2    H3 7204   1.108   1.007  12.162  0.1791  0.0336 -0.9682
  484MPD2     N 7205   1.483   0.775  12.256  0.0934  0.0841  0.1954
  484MPD2    H5 7206   1.516   0.802  12.164 -0.4346  0.1931  0.0412
  484MPD2    N1 7207   1.058   0.724  12.513 -0.5798 -0.9008  0.8468
  484MPD2    H7 7208   0.959   0.743  12.504  0.0783  3.0988  2.0928
  485TMC3    C1 7209   1.688   0.674  12.277 -0.7952  0.3307  0.4480
  485TMC3    C2 7210   1.758   0.573  12.334 -0.0995 -0.1962 -0.1653
  485TMC3    C3 7211   1.890   0.561  12.300 -0.1755 -0.5887  0.0811
  485TMC3    C4 7212   1.738   0.754  12.180  0.3838  0.2293  0.1532
  485TMC3    C5 7213   1.876   0.751  12.155 -0.0094  0.8939  0.8557
  485TMC3    C6 7214   1.950   0.651  12.213  0.2064 -1.2349 -0.4082
  485TMC3     C 7215   1.569   0.713  12.340 -0.4343 -0.0559 -0.6978
  485TMC3     O 7216   1.558   0.689  12.459  0.4754 -0.1592 -0.3444
  485TMC3     H 7217   1.703   0.509  12.402 -0.2364 -0.6345 -0.6864
  485TMC3    H1 7218   1.683   0.829  12.124  3.9812  0.9880 -2.3235
  485TMC3    H2 7219   2.058   0.652  12.216  0.1944  0.1572 -0.3755
  485TMC3    C7 7220   1.905   0.749  12.010 -0.8737 -0.2143 -0.0681
  485TMC3    C8 7221   1.913   0.422  12.249  0.8598 -0.4176 -0.0498
  485TMC3    O1 7222   1.861   0.847  11.950  0.2140 -0.3369  0.7728
  485TMC3    O2 7223   1.981   0.417  12.148  0.6889 -0.6364  0.7324
  486MPD2     C 7224   2.972   4.078  13.106 -0.3100 -0.2355  1.0819
  486MPD2    C1 7225   2.896   4.078  12.994  0.2165 -0.2220  0.1548
  486MPD2    C2 7226   2.847   4.198  12.946  0.2575 -0.1870  0.1274
  486MPD2    C3 7227   2.870   4.312  13.017 -0.1505 -0.3713  0.2057
  486MPD2    C4 7228   2.943   4.310  13.140  0.3416 -0.4675  0.3791
  486MPD2    C5 7229   2.997   4.189  13.186 -0.8715  0.4582 -0.4189
  486MPD2     H 7230   2.796   4.203  12.850  1.1310  0.4116 -0.3080
  486MPD2    H1 7231   2.954   4.399  13.200 -0.8824  1.0812 -1.6770
  486MPD2    H2 7232   3.018   3.983  13.130 -1.0406 -0.9703 -0.4215
  486MPD2    H3 7233   3.050   4.178  13.280 -2.0028  2.5351  0.4656
  486MPD2     N 7234   2.817   4.431  12.969  0.3221  0.1132 -0.2295
  486MPD2    H5 7235   2.746   4.430  12.896  0.4042 -0.1971 -0.3051
  486MPD2    N1 7236   2.867   3.956  12.935  0.4652  0.8875 -0.5109
  486MPD2    H7 7237   2.919   3.875  12.966  0.8547  1.6821  0.9099
  487TMC3    C1 7238   2.808   3.801  12.773  0.1025  0.8937  0.6597
  487TMC3    C2 7239   2.693   3.738  12.747 -0.8672 -1.1099  0.5763
  487TMC3    C3 7240   2.680   3.604  12.752 -0.0631  0.4214 -0.0823
  487TMC3    C4 7241   2.916   3.727  12.828  0.3612 -0.8176  0.2562
  487TMC3    C5 7242   2.898   3.590  12.842 -0.1275 -0.3220 -0.1607
  487TMC3    C6 7243   2.792   3.529  12.786 -0.3145  0.0076 -0.5991
  487TMC3     C 7244   2.789   3.930  12.823 -0.7916 -0.7575  0.5142
  487TMC3     O 7245   2.708   4.005  12.773  0.2479 -0.4975 -0.4104
  487TMC3     H 7246   2.597   3.786  12.731  0.0963  0.2551 -1.1291
  487TMC3    H1 7247   3.006   3.770  12.871  0.0232 -0.7304  0.8800
  487TMC3    H2 7248   2.777   3.423  12.801  0.7503 -0.1498 -0.6529
  487TMC3    C7 7249   2.964   3.538  12.955  1.0614  0.9323  0.1175
  487TMC3    C8 7250   2.561   3.563  12.826  0.0898  0.2446 -0.5261
  487TMC3    O1 7251   3.046   3.604  13.014 -0.1267 -0.2960  0.5648
  487TMC3    O2 7252   2.521   3.645  12.909  0.0296 -0.8119 -0.1073
  488MPD2     C 7253   3.442   0.796  16.138  0.2865  0.3956 -0.3763
  488MPD2    C1 7254   3.447   0.919  16.196 -0.4266 -0.2560 -0.1695
  488MPD2    C2 7255   3.457   0.918  16.336 -0.7696 -0.0989 -0.0391
  488MPD2    C3 7256   3.429   0.802  16.412  0.2255 -0.0407 -0.1588
  488MPD2    C4 7257   3.437   0.679  16.345 -0.9305  0.1789  0.0781
  488MPD2    C5 7258   3.436   0.685  16.208 -0.1675 -0.0410 -0.2853
  488MPD2     H 7259   3.459   1.007  16.399  2.0659 -0.4465  0.3478
  488MPD2    H1 7260   3.427   0.582  16.392 -0.5613 -0.2541 -0.7387
  488MPD2    H2 7261   3.450   0.782  16.031 -1.7193 -1.4899 -0.2934
  488MPD2    H3 7262   3.418   0.590  16.160  0.6692 -0.3345 -0.0192
  488MPD2     N 7263   3.408   0.809  16.553  0.0944  0.2367 -0.2056
  488MPD2    H5 7264   3.405   0.904  16.588  1.0593  0.5225 -0.8781
  488MPD2    N1 7265   3.464   1.043  16.132 -0.0672  0.1225  0.3721
  488MPD2    H7 7266   3.482   1.122  16.193 -0.5282  1.0497 -0.7092
  489TMC3    C1 7267   3.356   0.763  16.768  0.3507  0.1096  0.1032
  489TMC3    C2 7268   3.258   0.854  16.753  0.5503 -0.2540  0.0602
  489TMC3    C3 7269   3.207   0.904  16.872  0.2685  0.4797 -1.3295
  489TMC3    C4 7270   3.421   0.722  16.881 -0.5779  0.4052  0.0269
  489TMC3    C5 7271   3.364   0.766  16.999  0.3917  0.2212  0.5253
  489TMC3    C6 7272   3.262   0.862  16.996 -0.6074  0.2784 -0.3548
  489TMC3     C 7273   3.397   0.708  16.643  0.0833 -0.2757  0.1678
  489TMC3     O 7274   3.432   0.591  16.637 -0.4297  0.2305 -0.1057
  489TMC3     H 7275   3.213   0.879  16.657 -0.9218  1.7974  1.3117
  489TMC3    H1 7276   3.505   0.655  16.865 -0.6842 -0.0423  1.3371
  489TMC3    H2 7277   3.226   0.901  17.090  1.6733 -1.8864  1.4306
  489TMC3    C7 7278   3.418   0.746  17.131 -0.4016  0.2515 -0.5193
  489TMC3    C8 7279   3.129   1.028  16.860 -0.2508 -0.0536 -0.4898
  489TMC3    O1 7280   3.374   0.806  17.229 -0.0068  0.0426 -0.0439
  489TMC3    O2 7281   3.084   1.050  16.751  0.3084  0.0947  0.1369
  490MPD2     C 7282   4.417   4.371   0.076  0.3155 -0.0127  0.2692
  490MPD2    C1 7283   4.350   4.443  17.687 -0.4165 -0.4623 -0.5572
  490MPD2    C2 7284   4.423   4.506  17.592  0.3460 -0.3385  0.7208
  490MPD2    C3 7285   4.562   4.508  17.585 -1.1024  0.5268 -0.4076
  490MPD2    C4 7286   4.626   4.428  17.681 -0.0571 -0.0226 -0.4149
  490MPD2    C5 7287   4.556   4.367   0.080 -0.3338 -0.6075 -0.0988
  490MPD2     H 7288   4.363   4.561  17.520 -1.9987 -1.0206  2.1474
  490MPD2    H1 7289   0.008   4.415  17.684 -0.3277 -1.7710  1.3213
  490MPD2    H2 7290   4.356   4.314   0.144 -1.6297  0.5870 -0.9853
  490MPD2    H3 7291   4.605   4.296   0.144 -1.8482 -0.1708  1.5390
  490MPD2     N 7292   4.644   4.561  17.479 -0.3186  0.2033 -0.5323
  490MPD2    H5 7293   0.020   4.555  17.486 -0.5843 -1.9195  1.6931
  490MPD2    N1 7294   4.208   4.457  17.676 -0.0298  0.2356  0.3389
  490MPD2    H7 7295   4.169   4.501  17.593 -1.9640  1.0487  1.6783
  491TMC3    C1 7296   3.976   4.398   0.003 -0.6887  0.3405 -0.1512
  491TMC3    C2 7297   3.873   4.420   0.091 -0.1439 -0.0829  0.2328
  491TMC3    C3 7298   3.748   4.437   0.035 -0.6770  0.4708 -0.1973
  491TMC3    C4 7299   3.965   4.383  17.570  0.3921  0.1991 -0.1859
  491TMC3    C5 7300   3.840   4.395  17.517 -0.2326 -0.1151 -0.4933
  491TMC3    C6 7301   3.733   4.424  17.599  0.0327 -1.0324 -0.1590
  491TMC3     C 7302   4.113   4.408   0.062  0.3076  0.9257  0.4860
  491TMC3     O 7303   4.136   4.346   0.166  0.3366  0.2046 -0.0502
  491TMC3     H 7304   3.891   4.426   0.198  2.0723  1.4790 -0.2387
  491TMC3    H1 7305   4.054   4.366  17.511 -0.4540 -0.1981 -1.3592
  491TMC3    H2 7306   3.633   4.424  17.558  0.5183  1.5018 -1.3458
  491TMC3    C7 7307   3.824   4.428  17.371  0.9693 -0.0197 -0.5253
  491TMC3    C8 7308   3.651   4.519   0.100 -0.4349 -0.3255  0.0726
  491TMC3    O1 7309   3.843   4.338  17.289 -0.5387  0.1896 -0.4130
  491TMC3    O2 7310   3.544   4.514   0.043 -0.0915  0.9396 -0.5584
  492MPD2     C 7311   0.255   0.438  10.749  0.6965  0.0358 -0.6531
  492MPD2    C1 7312   0.172   0.339  10.698 -0.0461  0.1162  0.1874
  492MPD2    C2 7313   0.090   0.266  10.783 -0.1214  0.0789  0.7314
  492MPD2    C3 7314   0.111   0.281  10.921  0.1185 -0.3267 -0.1894
  492MPD2    C4 7315   0.209   0.372  10.974  0.0226  0.2736 -0.1307
  492MPD2    C5 7316   0.277   0.455  10.887 -0.2844 -0.4222 -0.6317
  492MPD2     H 7317   0.028   0.183  10.751 -0.0130 -0.4307  1.8546
  492MPD2    H1 7318   0.228   0.378  11.080  1.1505 -0.7732 -0.2687
  492MPD2    H2 7319   0.317   0.491  10.677  0.3693 -1.3232 -1.9347
  492MPD2    H3 7320   0.339   0.534  10.927  0.9206 -2.3510  1.3350
  492MPD2     N 7321   0.018   0.228  11.017  0.6449  0.2351 -0.7213
  492MPD2    H5 7322   0.029   0.262  11.112 -0.4941 -0.1145 -0.4729
  492MPD2    N1 7323   0.167   0.333  10.552  0.5152  0.3486  0.9327
  492MPD2    H7 7324   0.229   0.393  10.498  0.0645  0.1736  0.2217
  493TMC3    C1 7325   0.090   0.304  10.344 -0.1367 -0.0579  0.0767
  493TMC3    C2 7326   0.206   0.374  10.324 -0.3845 -0.5093  0.2962
  493TMC3    C3 7327   0.196   0.501  10.270  0.4743 -0.0252 -0.2258
  493TMC3    C4 7328   4.697   0.352  10.298  0.4639  0.4852 -0.6700
  493TMC3    C5 7329   4.690   0.471  10.237 -0.4028 -0.4095  0.0538
  493TMC3    C6 7330   0.077   0.555  10.216 -0.0804  0.8132  0.1555
  493TMC3     C 7331   0.082   0.261  10.477 -1.1268 -0.1035 -0.7295
  493TMC3     O 7332   4.699   0.208  10.513  0.3824  0.0808  0.3198
  493TMC3     H 7333   0.301   0.332  10.358  0.2976  0.5853 -0.2713
  493TMC3    H1 7334   4.605   0.299  10.320  0.3214  0.4195 -1.4169
  493TMC3    H2 7335   0.071   0.653  10.170  0.1819  1.2391  1.0376
  493TMC3    C7 7336   4.556   0.518  10.200 -0.4850  0.0755  0.3583
  493TMC3    C8 7337   0.281   0.587  10.349  0.1018 -0.1846  0.3069
  493TMC3    O1 7338   4.453   0.449  10.226 -0.3359 -0.5916 -0.5299
  493TMC3    O2 7339   0.345   0.530  10.440  0.0280 -0.1267 -0.3884
  494TMC3    C1 7340   0.267   2.299   0.504  0.3732  0.2731 -0.8560
  494TMC3    C2 7341   0.325   2.173   0.504  0.0842 -0.8357 -0.2819
  494TMC3    C3 7342   0.414   2.139   0.409  0.4564  0.1707  0.4009
  494TMC3    C4 7343   0.279   2.384   0.403 -0.0789  0.5719  0.4289
  494TMC3    C5 7344   0.368   2.347   0.304 -0.3008 -0.1125  0.1863
  494TMC3    C6 7345   0.436   2.227   0.304  0.6882 -0.3712 -0.1999
  494TMC3     C 7346   0.227   2.350   0.637  0.3518 -0.0736  0.1039
  494TMC3     O 7347   0.202   2.266   0.722  0.3938 -0.3245  0.0881
  494TMC3     H 7348   0.302   2.117   0.594 -1.9964 -2.0511 -1.5850
  494TMC3    H1 7349   0.226   2.479   0.396 -0.3237  0.3947 -0.1343
  494TMC3    H2 7350   0.504   2.201   0.223  0.9331  0.0701 -0.1367
  494TMC3    C7 7351   0.374   2.410   0.164 -0.0660  0.0739 -0.0044
  494TMC3    C8 7352   0.433   1.997   0.387  0.0165  0.8714  0.0371
  494TMC3    O1 7353   0.399   2.332   0.069  0.3546 -0.8504  0.1765
  494TMC3    O2 7354   0.446   1.913   0.476  0.1149  0.1122  0.2758
  495TMC3    C1 7355   4.289   4.453  14.504  0.1620  0.4176  0.7715
  495TMC3    C2 7356   4.184   4.509  14.434 -0.2477  0.1312  0.6057
  495TMC3    C3 7357   4.071   4.537  14.511  0.1598 -1.0912  0.5198
  495TMC3    C4 7358   4.292   4.465  14.645 -0.4020  0.4229  0.8753
  495TMC3    C5 7359   4.184   4.512  14.717 -0.7514 -0.5907  0.1078
  495TMC3    C6 7360   4.071   4.547  14.651 -0.0945 -0.0052 -0.2076
  495TMC3     C 7361   4.299   4.312  14.460 -0.0299  0.5637  0.1804
  495TMC3     O 7362   4.222   4.276  14.371  0.2691 -0.0206  0.4505
  495TMC3     H 7363   4.181   4.503  14.325 -4.2266 -1.0923  0.7497
  495TMC3    H1 7364   4.378   4.434  14.703  0.2768 -0.1277 -0.4249
  495TMC3    H2 7365   3.975   4.564  14.698 -0.0126 -0.6593  0.1947
  495TMC3    C7 7366   4.180   4.457  14.850 -0.0390  0.8565 -0.2824
  495TMC3    C8 7367   3.943   4.484  14.454 -0.1951 -0.6000 -0.1987
  495TMC3    O1 7368   4.287   4.441  14.904  0.4071  0.0421  0.5102
  495TMC3    O2 7369   3.844   4.500  14.528  0.2619  0.0039  0.7514
  496MPD2     C 7370   1.105   3.958  15.164 -0.1982 -0.9269  0.2381
  496MPD2    C1 7371   1.174   3.893  15.263  0.7232  0.8967  0.3962
  496MPD2    C2 7372   1.107   3.847  15.375  0.6341  0.0791  0.1412
  496MPD2    C3 7373   0.976   3.879  15.399  0.1864 -0.3429 -0.1590
  496MPD2    C4 7374   0.913   3.944  15.299  0.6173 -0.3927 -0.0715
  496MPD2    C5 7375   0.971   3.973  15.175  0.1829  0.7490  0.5438
  496MPD2     H 7376   1.157   3.786  15.449 -1.3363 -1.8801 -0.1339
  496MPD2    H1 7377   0.811   3.980  15.310  0.2482 -2.5257  3.3045
  496MPD2    H2 7378   1.160   3.980  15.073 -0.8453 -2.0856 -0.4253
  496MPD2    H3 7379   0.917   4.023  15.095  0.4308  0.3474  0.1253
  496MPD2     N 7380   0.908   3.853  15.514 -0.1349 -0.1047  0.7011
  496MPD2    H5 7381   0.822   3.903  15.531 -0.3710 -0.0629 -0.6104
  496MPD2    N1 7382   1.316   3.883  15.240  0.2083  0.1538 -0.5566
  496MPD2    H7 7383   1.347   3.905  15.146 -0.2977 -3.1356 -1.5237
  497TMC3    C1 7384   0.853   3.814  15.743 -0.6193 -0.6048 -0.2615
  497TMC3    C2 7385   0.723   3.839  15.715 -0.3105  0.4176  0.3838
  497TMC3    C3 7386   0.629   3.866  15.817  0.5539 -0.3348  0.0593
  497TMC3    C4 7387   0.894   3.817  15.874 -0.4921  0.0802  0.0164
  497TMC3    C5 7388   0.795   3.827  15.968 -0.0415  0.5241 -0.1819
  497TMC3    C6 7389   0.662   3.850  15.945 -0.0336 -0.5967 -0.0243
  497TMC3     C 7390   0.956   3.807  15.638  0.3544  0.5124 -0.4810
  497TMC3     O 7391   1.076   3.782  15.661 -0.0118  0.1045  0.4971
  497TMC3     H 7392   0.682   3.831  15.615  0.2672 -1.6689  0.3088
  497TMC3    H1 7393   0.997   3.784  15.882 -0.2127  0.8404 -0.3808
  497TMC3    H2 7394   0.590   3.879  16.021  1.0510  0.7084  0.5009
  497TMC3    C7 7395   0.826   3.783  16.098 -0.2579  0.2574  0.3874
  497TMC3    C8 7396   0.565   3.992  15.790  0.4467  0.6224  0.0087
  497TMC3    O1 7397   0.740   3.729  16.159  0.0949 -0.1760  0.3828
  497TMC3    O2 7398   0.596   4.047  15.684  0.3108  0.8697  0.3932
  498MPD2     C 7399   2.685   0.093   9.440 -0.5059 -0.0550 -0.1405
  498MPD2    C1 7400   2.652   0.192   9.527  0.5051 -0.2417 -0.1385
  498MPD2    C2 7401   2.520   0.203   9.553 -0.0485 -0.0730  0.7111
  498MPD2    C3 7402   2.422   0.115   9.513  0.2655  0.1388  0.4081
  498MPD2    C4 7403   2.461   4.725   9.443 -0.5023 -0.4077 -0.2788
  498MPD2    C5 7404   2.593   4.719   9.407  0.5434 -0.2534 -0.0234
  498MPD2     H 7405   2.491   0.291   9.610 -0.0135 -1.1289  2.3712
  498MPD2    H1 7406   2.398   4.638   9.425  0.2140 -1.1011  0.5501
  498MPD2    H2 7407   2.786   0.068   9.410 -0.5447 -0.8653  0.4042
  498MPD2    H3 7408   2.637   4.634   9.357  1.5905 -0.2737  0.9256
  498MPD2     N 7409   2.286   0.137   9.550  0.1636 -0.3306 -0.0672
  498MPD2    H5 7410   2.267   0.229   9.589  2.9848 -0.0485  0.6923
  498MPD2    N1 7411   2.749   0.276   9.588 -0.3319 -0.1851 -0.4707
  498MPD2    H7 7412   2.704   0.348   9.643  1.9580  0.5267  0.4695
  499TMC3    C1 7413   2.947   0.375   9.657 -0.1761  0.4339  0.2502
  499TMC3    C2 7414   3.083   0.369   9.683 -0.0794 -0.2702 -0.6819
  499TMC3    C3 7415   3.152   0.481   9.722  0.4843 -0.3125  0.2267
  499TMC3    C4 7416   2.880   0.487   9.662 -0.5107 -0.2469  0.0334
  499TMC3    C5 7417   2.947   0.598   9.708 -0.4274 -0.2932  0.4327
  499TMC3    C6 7418   3.081   0.599   9.736  0.8770 -0.0088  0.1592
  499TMC3     C 7419   2.880   0.263   9.593 -0.4795  0.5616  0.3188
  499TMC3     O 7420   2.947   0.164   9.575 -0.2756  0.3457  0.4997
  499TMC3     H 7421   3.121   0.268   9.687 -2.2593 -1.0990 -0.8250
  499TMC3    H1 7422   2.779   0.503   9.628  0.2576  0.2173 -2.0629
  499TMC3    H2 7423   3.136   0.687   9.767 -3.4709  2.2380  1.3505
  499TMC3    C7 7424   2.870   0.725   9.729 -0.0739  0.4090 -0.3742
  499TMC3    C8 7425   3.297   0.485   9.724  0.3782  0.0388 -0.0245
  499TMC3    O1 7426   2.924   0.832   9.704 -0.5700  0.0914  0.0500
  499TMC3    O2 7427   3.352   0.592   9.736 -0.0099  0.2985 -0.2222
  500MPD2     C 7428   3.793   1.147  10.431 -0.9412  0.2533  0.2951
  500MPD2    C1 7429   3.810   1.245  10.334 -0.1252  0.2441 -0.0209
  500MPD2    C2 7430   3.706   1.329  10.296 -0.1168  0.4866  0.6988
  500MPD2    C3 7431   3.584   1.308  10.348  0.3781 -0.2060 -0.2124
  500MPD2    C4 7432   3.555   1.198  10.427 -0.4154  0.5618  0.1301
  500MPD2    C5 7433   3.664   1.117  10.470 -0.4963  0.4470 -0.0365
  500MPD2     H 7434   3.727   1.406  10.223 -2.4312  1.9185  1.5499
  500MPD2    H1 7435   3.453   1.173  10.455  0.2310 -0.8469  1.2579
  500MPD2    H2 7436   3.871   1.078  10.461 -0.0223  0.5855 -1.2831
  500MPD2    H3 7437   3.635   1.028  10.524 -2.9456  0.9732 -0.4565
  500MPD2     N 7438   3.478   1.394  10.314  0.2342 -0.1925  0.5830
  500MPD2    H5 7439   3.391   1.358  10.351  1.5064 -1.2544  2.5510
  500MPD2    N1 7440   3.943   1.278  10.283 -0.2293 -0.5146  0.0537
  500MPD2    H7 7441   3.958   1.346  10.208 -0.1025  0.1261  0.6581
  501TMC3    C1 7442   4.174   1.302  10.295 -0.3679 -0.1795 -0.1758
  501TMC3    C2 7443   4.164   1.437  10.272  0.2461 -0.7551 -0.5225
  501TMC3    C3 7444   4.282   1.512  10.301 -0.3389  0.1777 -0.3287
  501TMC3    C4 7445   4.292   1.246  10.342  0.7259 -0.1154  0.6839
  501TMC3    C5 7446   4.406   1.323  10.362 -1.1701  0.7504  0.2083
  501TMC3    C6 7447   4.398   1.458  10.339 -0.0551 -0.4076  0.2593
  501TMC3     C 7448   4.062   1.223  10.331 -0.1456 -0.2380 -0.4451
  501TMC3     O 7449   4.080   1.124  10.404 -0.2790  0.1455  0.0802
  501TMC3     H 7450   4.077   1.496  10.248  1.4408  0.6669 -1.3632
  501TMC3    H1 7451   4.290   1.145  10.381 -2.1954  0.9464  3.2773
  501TMC3    H2 7452   4.487   1.519  10.352  1.6135 -2.4881 -1.2707
  501TMC3    C7 7453   4.473   1.295  10.485  0.3414  0.1862 -0.2277
  501TMC3    C8 7454   4.264   1.653  10.339  0.7739 -1.1081 -0.5683
  501TMC3    O1 7455   4.490   1.177  10.510  0.3093  0.3703  0.4659
  501TMC3    O2 7456   4.299   1.693  10.450  0.1177 -0.7196  0.3833
  502TMC3    C1 7457   3.355   0.065  14.836  0.0479 -0.8172 -0.6889
  502TMC3    C2 7458   3.343   0.193  14.789  0.1846 -0.3235 -0.0445
  502TMC3    C3 7459   3.220   0.246  14.807  0.1048  0.0112  0.8122
  502TMC3    C4 7460   3.254   4.714  14.884  0.5637  0.2894  0.0395
  502TMC3    C5 7461   3.134   0.055  14.902  0.5187  0.0729  0.1583
  502TMC3    C6 7462   3.117   0.180  14.856 -0.4047 -0.1002 -0.6706
  502TMC3     C 7463   3.457   0.058  14.937  0.0953  0.1198  0.3823
  502TMC3     O 7464   3.578   0.073  14.917  0.3799 -0.6862 -0.6340
  502TMC3     H 7465   3.429   0.259  14.778  0.7939 -0.9311  1.0981
  502TMC3    H1 7466   3.270   4.608  14.897  0.5909  0.3518  0.5266
  502TMC3    H2 7467   3.025   0.238  14.860 -1.0976 -1.2032 -0.7059
  502TMC3    C7 7468   3.034   0.005  14.998 -0.5827 -0.7066  0.1694
  502TMC3    C8 7469   3.202   0.384  14.787 -0.1586  0.7308  0.7750
  502TMC3    O1 7470   3.071   4.637  15.069  0.3163 -0.1748  0.1007
  502TMC3    O2 7471   3.257   0.433  14.690 -0.1652  0.5765 -0.8584
  503MPD2     C 7472   0.665   0.915  16.674  0.5633  0.3320 -0.2512
  503MPD2    C1 7473   0.705   0.946  16.803 -0.1054  0.0043  0.4181
  503MPD2    C2 7474   0.765   0.849  16.878  0.5357 -0.6786  0.4209
  503MPD2    C3 7475   0.780   0.719  16.827 -0.1611 -0.1525  0.2027
  503MPD2    C4 7476   0.722   0.683  16.708  0.8046  0.6537 -0.1151
  503MPD2    C5 7477   0.665   0.785  16.632  0.1294  0.3091  0.5923
  503MPD2     H 7478   0.801   0.886  16.973 -0.4295  1.9273 -0.1998
  503MPD2    H1 7479   0.726   0.583  16.665  0.0242  1.5429 -2.2296
  503MPD2    H2 7480   0.624   0.993  16.611  0.7042  0.7404  0.1607
  503MPD2    H3 7481   0.612   0.767  16.539  1.5213  0.2139 -0.1868
  503MPD2     N 7482   0.839   0.627  16.912 -0.4444 -0.3235 -0.3323
  503MPD2    H5 7483   0.885   0.665  16.994 -0.3992  0.4827 -0.7282
  503MPD2    N1 7484   0.712   1.078  16.858  0.2930 -0.0302 -0.2836
  503MPD2    H7 7485   0.733   1.091  16.956  0.7297 -1.3626 -0.2034
  504TMC3    C1 7486   0.929   0.425  16.990  0.3294 -0.2505  0.0094
  504TMC3    C2 7487   0.902   0.436  17.125 -0.0655 -0.6266  0.4208
  504TMC3    C3 7488   0.979   0.354  17.204  0.1910  0.6163  0.0008
  504TMC3    C4 7489   1.031   0.351  16.942 -0.5559 -0.0667 -0.3404
  504TMC3    C5 7490   1.113   0.281  17.020  0.0037  0.2239 -0.8636
  504TMC3    C6 7491   1.078   0.277  17.156 -0.6790  0.0940 -0.8152
  504TMC3     C 7492   0.862   0.491  16.884  0.5800  0.4887  0.3032
  504TMC3     O 7493   0.830   0.428  16.778 -0.5576  0.1044 -0.0210
  504TMC3     H 7494   0.831   0.504  17.169  0.8097  1.3966 -1.2922
  504TMC3    H1 7495   1.052   0.361  16.836  3.6029 -0.0232  0.5127
  504TMC3    H2 7496   1.135   0.212  17.221 -0.1673 -1.1880 -2.5147
  504TMC3    C7 7497   1.247   0.257  16.978 -0.1671  0.0298  0.3493
  504TMC3    C8 7498   0.919   0.329  17.334  0.2690 -0.3981  0.7096
  504TMC3    O1 7499   1.272   0.286  16.858 -0.6564  0.3928  0.1200
  504TMC3    O2 7500   0.815   0.389  17.350 -0.3052  0.0154 -0.4627
  505MPD2     C 7501   1.061   0.437  10.638  0.5527  0.0962 -0.5824
  505MPD2    C1 7502   1.152   0.384  10.550  0.2839  0.1715  0.2899
  505MPD2    C2 7503   1.281   0.426  10.545  0.2727  0.1499 -0.3525
  505MPD2    C3 7504   1.327   0.526  10.628 -0.2386  0.0328 -0.2469
  505MPD2    C4 7505   1.234   0.582  10.712  0.1395 -0.2490  0.3649
  505MPD2    C5 7506   1.096   0.552  10.708 -0.2210 -0.7054 -0.3413
  505MPD2     H 7507   1.348   0.366  10.484  0.0959 -0.9021  0.4859
  505MPD2    H1 7508   1.261   0.663  10.779 -0.6807  0.3480 -0.0267
  505MPD2    H2 7509   0.959   0.402  10.639 -0.2956  2.5537 -0.0740
  505MPD2    H3 7510   1.025   0.599  10.775  0.8010  0.3354 -0.0008
  505MPD2     N 7511   1.465   0.552  10.643 -0.5224 -0.3268  0.3229
  505MPD2    H5 7512   1.501   0.592  10.729 -1.3966 -1.6231  1.2845
  505MPD2    N1 7513   1.100   0.279  10.471  0.3363 -0.7768 -0.7037
  505MPD2    H7 7514   1.006   0.246  10.489 -0.0615  0.7949  0.0440
  506TMC3    C1 7515   1.106   0.088  10.345 -0.1932 -0.0719 -0.1569
  506TMC3    C2 7516   1.132   0.030  10.224 -0.0893 -0.1497 -0.0552
  506TMC3    C3 7517   1.146   4.619  10.219  0.6593  1.0533  0.0650
  506TMC3    C4 7518   1.078   0.006  10.453 -0.7910  0.8756 -0.8015
  506TMC3    C5 7519   1.067   4.595  10.437  0.5623  0.3016 -0.1053
  506TMC3    C6 7520   1.113   4.537  10.322 -1.0943 -0.0825  0.0939
  506TMC3     C 7521   1.162   0.218  10.364 -0.6384 -0.0195  0.6323
  506TMC3     O 7522   1.254   0.249  10.288 -0.2404 -0.0793 -0.2683
  506TMC3     H 7523   1.151   0.079  10.130 -3.5558 -0.1671 -0.7602
  506TMC3    H1 7524   1.063   0.050  10.551 -3.1375 -1.3585 -0.1731
  506TMC3    H2 7525   1.131   4.430  10.317 -4.9678 -0.6101 -2.9138
  506TMC3    C7 7526   1.120   4.538  10.558 -0.0803 -0.0394 -0.3834
  506TMC3    C8 7527   1.181   4.556  10.089  0.0343 -0.8512 -0.0838
  506TMC3    O1 7528   1.036   4.496  10.635  0.1698  0.3689  0.1903
  506TMC3    O2 7529   1.121   4.457  10.048 -0.2706  0.9333 -0.7981
  507TMC3    C1 7530   1.932   0.414  14.305 -0.3781  1.1506 -0.5843
  507TMC3    C2 7531   1.885   0.392  14.179 -0.5196 -0.0913 -0.1025
  507TMC3    C3 7532   1.948   0.462  14.075  0.4531  0.3428  0.0416
  507TMC3    C4 7533   2.029   0.507  14.333 -0.3011 -0.2628  0.0179
  507TMC3    C5 7534   2.077   0.589  14.235 -0.6280  0.2903  0.0886
  507TMC3    C6 7535   2.032   0.563  14.104  0.1549 -0.2676 -0.2347
  507TMC3     C 7536   1.860   0.364  14.421  0.0409  0.8894  0.0210
  507TMC3     O 7537   1.928   0.338  14.519 -0.0190  0.0347 -0.1553
  507TMC3     H 7538   1.812   0.313  14.166 -0.1577 -0.9093  2.6929
  507TMC3    H1 7539   2.060   0.516  14.437  0.5846  2.7466 -0.4939
  507TMC3    H2 7540   2.079   0.614  14.020 -0.5042  1.4111  0.4143
  507TMC3    C7 7541   2.075   0.738  14.259  0.4894  0.2239 -0.7328
  507TMC3    C8 7542   1.867   0.505  13.963 -0.7990 -0.0657 -0.3250
  507TMC3    O1 7543   2.080   0.811  14.161 -0.1759  0.0935  0.2767
  507TMC3    O2 7544   1.864   0.440  13.860 -0.7276  0.1437  0.0641
  508MPD2     C 7545   2.598   2.869  15.764 -0.3970 -1.3295 -0.3498
  508MPD2    C1 7546   2.733   2.899  15.754  0.7869  0.3802  0.1656
  508MPD2    C2 7547   2.771   2.970  15.638 -1.0994  0.3801  0.1531
  508MPD2    C3 7548   2.681   3.010  15.541 -0.0256 -0.0043 -0.2954
  508MPD2    C4 7549   2.550   2.973  15.559  0.7228 -0.1361  0.1948
  508MPD2    C5 7550   2.510   2.911  15.672  0.0763 -0.0541 -0.5123
  508MPD2     H 7551   2.875   2.998  15.626 -1.4843  2.2164  1.0654
  508MPD2    H1 7552   2.471   3.002  15.490  0.6010 -3.6457 -1.1535
  508MPD2    H2 7553   2.571   2.800  15.843  0.7763 -2.2978 -0.7783
  508MPD2    H3 7554   2.405   2.888  15.685 -0.9730  3.7528 -2.4105
  508MPD2     N 7555   2.724   3.083  15.430  0.0999  0.2256  0.4786
  508MPD2    H5 7556   2.825   3.091  15.419  0.0902  1.6128  1.4675
  508MPD2    N1 7557   2.816   2.857  15.860  0.0741  0.7684  0.1354
  508MPD2    H7 7558   2.778   2.814  15.944  0.1276  0.3671 -0.0461
  509TMC3    C1 7559   2.693   3.383  15.060 -0.6774  0.3401 -0.0454
  509TMC3    C2 7560   2.825   3.424  15.083  0.0333 -0.3885  0.0174
  509TMC3    C3 7561   2.896   3.367  15.184  0.8738  0.0106 -0.4895
  509TMC3    C4 7562   2.641   3.283  15.129 -0.1880  0.1140 -0.8873
  509TMC3    C5 7563   2.717   3.231  15.233 -0.0766  0.6613 -0.4066
  509TMC3    C6 7564   2.845   3.277  15.261 -0.3114 -0.0327  0.1626
  509TMC3     C 7565   2.598   3.457  14.978  0.8023  0.5507 -0.3780
  509TMC3     O 7566   2.489   3.407  14.952 -0.1284  0.1811 -0.1961
  509TMC3     H 7567   2.868   3.497  15.016  0.4328 -0.1309  0.5583
  509TMC3    H1 7568   2.540   3.250  15.108 -0.0472  1.6449 -3.9161
  509TMC3    H2 7569   2.905   3.235  15.341 -0.7762  1.9594  1.5607
  509TMC3    C7 7570   2.645   3.141  15.332  0.2013  0.1354 -0.8343
  509TMC3    C8 7571   3.040   3.397  15.186 -0.3124 -0.2178 -0.6602
  509TMC3    O1 7572   2.530   3.112  15.305 -0.1902  0.3121  0.1556
  509TMC3    O2 7573   3.104   3.305  15.236  0.4458 -0.2309 -0.1628
  510MPD2     C 7574   0.556   4.605  14.442 -0.4828  0.6338 -0.6400
  510MPD2    C1 7575   0.649   4.529  14.519 -0.2083 -0.3575 -0.3448
  510MPD2    C2 7576   0.786   4.561  14.508 -0.1048  0.3370  0.5221
  510MPD2    C3 7577   0.836   4.643  14.407  0.7002  0.3217 -0.5234
  510MPD2    C4 7578   0.739   4.698  14.323  0.5926 -0.1784  0.4337
  510MPD2    C5 7579   0.606   4.673  14.340  0.4593 -0.3555  0.1841
  510MPD2     H 7580   0.857   4.507  14.570  0.2585 -0.4737 -0.6054
  510MPD2    H1 7581   0.766   0.024  14.231 -1.5493 -2.3052 -1.3721
  510MPD2    H2 7582   0.450   4.595  14.461 -0.6134  3.8602  0.4059
  510MPD2    H3 7583   0.533   4.712  14.270  2.9329  2.7895 -0.6583
  510MPD2     N 7584   0.976   4.632  14.376 -0.2049 -0.3008  0.0721
  510MPD2    H5 7585   1.018   4.581  14.453 -1.0242  0.0942  0.7743
  510MPD2    N1 7586   0.593   4.440  14.609  0.1978  0.4034  0.0882
  510MPD2    H7 7587   0.493   4.445  14.624  0.4889 -0.8073  2.3773
  511TMC3    C1 7588   0.582   4.256  14.764 -0.6876 -0.5908 -0.3172
  511TMC3    C2 7589   0.482   4.317  14.837 -0.2449  0.4712 -0.1221
  511TMC3    C3 7590   0.408   4.237  14.922  0.4872 -0.1835 -1.6011
  511TMC3    C4 7591   0.615   4.126  14.782  0.7078  0.1501 -0.3079
  511TMC3    C5 7592   0.546   4.060  14.873 -0.5077 -0.5925  0.2414
  511TMC3    C6 7593   0.434   4.105  14.945 -0.2722 -0.0569 -0.9297
  511TMC3     C 7594   0.664   4.337  14.666  0.0772  0.0839  0.2133
  511TMC3     O 7595   0.777   4.301  14.644  0.0287 -0.5255  0.2455
  511TMC3     H 7596   0.455   4.422  14.831  0.0300  0.5687  0.3438
  511TMC3    H1 7597   0.704   4.083  14.737 -1.1866 -1.6952 -2.3097
  511TMC3    H2 7598   0.387   4.046  15.023 -0.9943  0.2648 -1.1281
  511TMC3    C7 7599   0.617   3.941  14.918 -0.2017 -0.9820  0.1353
  511TMC3    C8 7600   0.298   4.303  15.000  0.4444  0.5802  0.2390
  511TMC3    O1 7601   0.741   3.946  14.915 -0.1990  0.5891 -0.7509
  511TMC3    O2 7602   0.279   4.426  14.997 -0.4926  0.5321 -0.1508
  512TMC3    C1 7603   4.214   3.876  13.097  0.1381  0.9265  0.0454
  512TMC3    C2 7604   4.312   3.871  13.190 -0.1110  0.6992  0.2124
  512TMC3    C3 7605   4.396   3.765  13.183 -0.2247  0.7785 -1.0005
  512TMC3    C4 7606   4.204   3.783  12.995 -0.0040 -0.4056  0.7264
  512TMC3    C5 7607   4.282   3.671  13.002  0.3890  0.1564 -0.3093
  512TMC3    C6 7608   4.389   3.664  13.086 -0.4410 -0.0865 -0.2334
  512TMC3     C 7609   4.116   3.974  13.119  0.6571  0.1973 -0.2150
  512TMC3     O 7610   4.152   4.072  13.184  0.0500  0.3306  0.1845
  512TMC3     H 7611   4.315   3.936  13.277 -0.5365  0.5577  0.3331
  512TMC3    H1 7612   4.139   3.803  12.911  0.0994  0.2071  0.7906
  512TMC3    H2 7613   4.461   3.582  13.080 -1.5799 -0.9743 -1.7096
  512TMC3    C7 7614   4.303   3.598  12.878  0.6505  0.5658 -0.0582
  512TMC3    C8 7615   4.514   3.759  13.259  0.3246  0.5260 -0.1252
  512TMC3    O1 7616   4.282   3.662  12.776 -0.1874 -0.5301 -0.1102
  512TMC3    O2 7617   4.557   3.653  13.290 -0.1725  0.0952 -0.3613
  513MPD2     C 7618   0.737   4.235  12.780 -1.1567 -0.3621  0.2403
  513MPD2    C1 7619   0.780   4.113  12.735  0.2175 -0.2916 -0.0539
  513MPD2    C2 7620   0.844   4.031  12.824 -0.1897  0.4656  1.2047
  513MPD2    C3 7621   0.892   4.072  12.944  0.4988  0.7193  0.4457
  513MPD2    C4 7622   0.862   4.201  12.983  0.4741 -0.3036 -0.5234
  513MPD2    C5 7623   0.783   4.278  12.903  0.4361 -0.2473  0.2758
  513MPD2     H 7624   0.868   3.928  12.801 -0.6639  1.0601 -2.0756
  513MPD2    H1 7625   0.906   4.239  13.075  0.6356 -0.6049 -0.4757
  513MPD2    H2 7626   0.675   4.303  12.722 -1.4609 -1.5370 -0.8343
  513MPD2    H3 7627   0.772   4.382  12.928 -2.1452 -1.1013  2.6702
  513MPD2     N 7628   0.954   3.977  13.033 -0.2342 -0.1404 -0.2831
  513MPD2    H5 7629   0.964   3.882  12.997 -2.0912 -0.5189  0.2480
  513MPD2    N1 7630   0.732   4.068  12.611  0.2756  0.0251 -0.6741
  513MPD2    H7 7631   0.670   4.123  12.552 -0.8826 -0.3930  0.1637
  514TMC3    C1 7632   0.760   3.960  12.405  0.3777  0.3700 -0.8497
  514TMC3    C2 7633   0.806   4.073  12.345 -0.1025 -0.1377 -0.1517
  514TMC3    C3 7634   0.890   4.061  12.236 -0.6674  0.6269 -1.3608
  514TMC3    C4 7635   0.802   3.834  12.358  0.2116 -0.0715  0.0323
  514TMC3    C5 7636   0.887   3.823  12.252  0.1733  0.1998 -0.2675
  514TMC3    C6 7637   0.923   3.936  12.188  0.0083  0.8975 -0.0559
  514TMC3     C 7638   0.772   3.952  12.547  0.4669 -0.3504 -0.6532
  514TMC3     O 7639   0.823   3.853  12.595  0.5375  0.0467 -0.3663
  514TMC3     H 7640   0.772   4.170  12.379  2.5191  1.0751 -1.0430
  514TMC3    H1 7641   0.764   3.743  12.402  2.0110 -0.3112  1.0924
  514TMC3    H2 7642   0.977   3.927  12.094 -1.7890  1.9170 -1.1670
  514TMC3    C7 7643   0.990   3.723  12.276 -0.4407 -0.1519  0.8196
  514TMC3    C8 7644   0.912   4.183  12.168 -0.6261  0.1925 -0.0045
  514TMC3    O1 7645   1.062   3.680  12.187 -0.0835  0.3469  0.6191
  514TMC3    O2 7646   0.837   4.276  12.199  0.0320  0.4180  0.1128
  515MPD2     C 7647   3.968   1.341  14.636  0.1685 -0.0026 -1.0685
  515MPD2    C1 7648   4.044   1.226  14.626  0.5309  0.0498 -0.4696
  515MPD2    C2 7649   4.145   1.195  14.710 -0.5230  0.1472  0.1535
  515MPD2    C3 7650   4.170   1.276  14.815  1.2240  0.2261 -0.5892
  515MPD2    C4 7651   4.106   1.396  14.821 -0.2303  0.6566  0.1391
  515MPD2    C5 7652   4.005   1.432  14.735  0.5272 -0.6153  0.5340
  515MPD2     H 7653   4.199   1.103  14.690 -2.9348 -1.4961  1.0584
  515MPD2    H1 7654   4.142   1.474  14.887  0.7132 -0.5413  1.0395
  515MPD2    H2 7655   3.884   1.354  14.569 -1.6212  0.2818  1.2435
  515MPD2    H3 7656   3.948   1.524  14.744 -1.9720 -2.0944  0.0392
  515MPD2     N 7657   4.276   1.237  14.900 -0.1027 -0.2738  0.0747
  515MPD2    H5 7658   4.319   1.147  14.882  2.5508  0.6639  1.8172
  515MPD2    N1 7659   4.027   1.130  14.528  0.3335 -0.4416  0.2741
  515MPD2    H7 7660   4.095   1.055  14.528  1.4016  0.5337 -1.6964
  516TMC3    C1 7661   3.943   1.005  14.352  0.1354  0.3041 -0.1259
  516TMC3    C2 7662   3.889   1.004  14.231  0.1349 -0.4457 -0.6131
  516TMC3    C3 7663   3.823   0.884  14.196  0.8537 -0.6200 -0.2528
  516TMC3    C4 7664   3.957   0.894  14.432 -0.6597  0.3074  0.1847
  516TMC3    C5 7665   3.907   0.773  14.394  0.0983  0.2467  0.1716
  516TMC3    C6 7666   3.837   0.772  14.273  0.3559 -0.4460 -0.5297
  516TMC3     C 7667   3.940   1.132  14.424 -0.4127  0.3030  0.1661
  516TMC3     O 7668   3.870   1.222  14.379  0.5392  0.0667  0.3326
  516TMC3     H 7669   3.880   1.094  14.171 -2.1119 -0.3041 -0.0820
  516TMC3    H1 7670   3.998   0.898  14.532  0.1885 -1.9669 -0.0744
  516TMC3    H2 7671   3.800   0.673  14.246  0.6652 -0.6402 -0.2400
  516TMC3    C7 7672   3.910   0.652  14.482 -0.1905 -0.0061 -0.6867
  516TMC3    C8 7673   3.839   0.855  14.058  0.1760  0.5108 -0.6366
  516TMC3    O1 7674   4.010   0.647  14.556 -0.1756  0.6223  0.1123
  516TMC3    O2 7675   3.780   0.754  14.024 -0.0994  0.5228  0.3075
  517MPD2     C 7676   3.581   2.432  17.321 -0.4625 -0.0777  0.0540
  517MPD2    C1 7677   3.671   2.398  17.419 -0.1230  0.4140  0.5369
  517MPD2    C2 7678   3.676   2.469  17.538 -0.0922 -0.3282 -0.0816
  517MPD2    C3 7679   3.576   2.566  17.562  0.6367 -0.0006  0.2760
  517MPD2    C4 7680   3.475   2.588  17.468  0.2419 -0.0677  0.1292
  517MPD2    C5 7681   3.485   2.530  17.342 -0.2981 -0.2391  0.5722
  517MPD2     H 7682   3.747   2.442  17.615 -0.2406 -1.6429 -0.4138
  517MPD2    H1 7683   3.392   2.649  17.504 -0.5118  0.3984 -2.4040
  517MPD2    H2 7684   3.578   2.388  17.222 -2.1638  1.3441 -0.5285
  517MPD2    H3 7685   3.407   2.554  17.271  0.1658  0.5381  0.3306
  517MPD2     N 7686   3.558   2.624  17.692  0.3414  0.0621 -0.2379
  517MPD2    H5 7687   3.470   2.672   0.004 -0.4803 -1.5877  0.2400
  517MPD2    N1 7688   3.758   2.291  17.402  0.0682  0.1043 -0.0338
  517MPD2    H7 7689   3.827   2.281  17.476  1.5954  1.1946 -1.3004
  518TMC3    C1 7690   3.855   2.091  17.317 -0.4255  1.1302 -0.1593
  518TMC3    C2 7691   3.833   1.980  17.243  0.6558 -0.7254  0.4605
  518TMC3    C3 7692   3.919   1.875  17.240  0.2963  0.3703 -0.5611
  518TMC3    C4 7693   3.976   2.105  17.379 -0.0597  0.3867 -0.3410
  518TMC3    C5 7694   4.058   2.003  17.368  0.7156  0.7782 -0.6194
  518TMC3    C6 7695   4.033   1.880  17.309  0.7147 -0.7040  0.5867
  518TMC3     C 7696   3.755   2.193  17.302 -0.4333 -0.1962  0.4075
  518TMC3     O 7697   3.679   2.179  17.209 -0.2378 -0.2521 -0.2942
  518TMC3     H 7698   3.739   1.974  17.189  0.9924  0.4784 -0.2511
  518TMC3    H1 7699   4.000   2.200  17.426 -1.9549 -0.3383  2.0916
  518TMC3    H2 7700   4.107   1.801  17.313 -1.5407 -2.9523 -3.1998
  518TMC3    C7 7701   4.197   2.019  17.403  0.1027 -0.8186  0.0086
  518TMC3    C8 7702   3.893   1.753  17.164 -0.0407  0.2902  0.5991
  518TMC3    O1 7703   4.232   2.060  17.512  0.2023  0.4797  0.8868
  518TMC3    O2 7704   3.995   1.690  17.139 -0.5133  1.0004  0.3122
  519MPD2     C 7705   0.912   0.795  14.371 -0.4879  0.3093 -0.5914
  519MPD2    C1 7706   0.879   0.840  14.245 -0.6821 -0.3497 -0.2173
  519MPD2    C2 7707   0.966   0.818  14.136  1.0841 -0.2488 -0.8603
  519MPD2    C3 7708   1.082   0.738  14.159 -0.1131 -0.0970 -0.0920
  519MPD2    C4 7709   1.109   0.701  14.290  0.3927  0.0447 -0.5053
  519MPD2    C5 7710   1.025   0.725  14.396 -0.1269  0.2885 -0.0021
  519MPD2     H 7711   0.943   0.857  14.038 -0.0086  0.4436 -0.3235
  519MPD2    H1 7712   1.201   0.649  14.312 -0.0071 -0.2124  0.5378
  519MPD2    H2 7713   0.837   0.822  14.445 -0.4117  0.0052 -0.4012
  519MPD2    H3 7714   1.062   0.701  14.495  0.3906 -1.3216 -0.5841
  519MPD2     N 7715   1.166   0.697  14.055 -0.3186  0.3015  0.4996
  519MPD2    H5 7716   1.258   0.664  14.083 -0.3737 -0.3872 -0.1082
  519MPD2    N1 7717   0.745   0.888  14.222 -0.8258  0.2437  0.0161
  519MPD2    H7 7718   0.677   0.865  14.293  0.0767 -1.8555  0.2352
  520TMC3    C1 7719   1.235   0.672  13.831 -0.8119  0.0328 -0.6456
  520TMC3    C2 7720   1.231   0.722  13.708 -1.0538 -0.3379 -0.0812
  520TMC3    C3 7721   1.294   0.655  13.607 -0.0705 -0.6132 -0.9964
  520TMC3    C4 7722   1.306   0.562  13.862 -0.1958  0.3577  0.2473
  520TMC3    C5 7723   1.382   0.505  13.760 -0.2508 -0.1050 -0.3973
  520TMC3    C6 7724   1.362   0.541  13.630 -0.5351  0.2643 -0.8194
  520TMC3     C 7725   1.134   0.712  13.922  0.2023 -0.1274 -0.3921
  520TMC3     O 7726   1.029   0.748  13.867  0.2331  0.0606  0.1928
  520TMC3     H 7727   1.182   0.818  13.695  0.1241  0.6795  3.0730
  520TMC3    H1 7728   1.298   0.512  13.958  2.8338  0.9264  0.8138
  520TMC3    H2 7729   1.411   0.493  13.546 -0.8376  2.3113 -2.1649
  520TMC3    C7 7730   1.478   0.402  13.796  0.3252 -0.1194 -0.7035
  520TMC3    C8 7731   1.241   0.666  13.478 -0.0305 -0.0601 -0.3699
  520TMC3    O1 7732   1.499   0.368  13.912  0.7731  0.2977  0.3721
  520TMC3    O2 7733   1.307   0.663  13.374  0.2115 -0.6843 -0.0896
  521MPD2     C 7734   1.990   3.259  17.607 -0.1794 -0.4215  0.2301
  521MPD2    C1 7735   1.926   3.223  17.489 -0.2784  0.1750 -0.2670
  521MPD2    C2 7736   2.008   3.204  17.379 -0.5148  0.0679  0.7399
  521MPD2    C3 7737   2.138   3.231  17.377 -0.0061 -0.7927 -0.1592
  521MPD2    C4 7738   2.203   3.257  17.495 -0.9177  0.6017 -0.3668
  521MPD2    C5 7739   2.131   3.265  17.609  0.2312  0.6543 -0.1536
  521MPD2     H 7740   1.960   3.176  17.286 -0.3863 -2.5234  1.4413
  521MPD2    H1 7741   2.307   3.286  17.502 -0.7592 -0.0066 -0.2029
  521MPD2    H2 7742   1.939   3.275  17.702 -0.5176  3.6801 -0.6570
  521MPD2    H3 7743   2.177   3.283   0.003 -0.8787  2.5114  0.0309
  521MPD2     N 7744   2.196   3.215  17.251  0.1390 -0.6176 -0.2814
  521MPD2    H5 7745   2.137   3.193  17.171 -0.8915  2.4168 -0.3517
  521MPD2    N1 7746   1.786   3.225  17.479 -0.8202 -0.2646 -0.5481
  521MPD2    H7 7747   1.735   3.269  17.555  1.4888  2.9342 -0.8559
  522TMC3    C1 7748   2.348   3.184  17.084  0.6004 -0.9339  0.2128
  522TMC3    C2 7749   2.477   3.140  17.066 -0.4361 -0.1246  0.0561
  522TMC3    C3 7750   2.495   3.050  16.965  0.6212 -0.2463  0.2337
  522TMC3    C4 7751   2.248   3.141  16.999  0.0589  0.4997 -0.7504
  522TMC3    C5 7752   2.271   3.045  16.899 -0.0266  0.0298 -0.6074
  522TMC3    C6 7753   2.404   3.002  16.881 -0.3576  0.6850  0.0138
  522TMC3     C 7754   2.325   3.232  17.220  0.4536  0.2760 -0.1817
  522TMC3     O 7755   2.423   3.230  17.293 -0.3300 -0.3585  0.0103
  522TMC3     H 7756   2.557   3.185  17.123 -0.8959  1.6885 -0.7161
  522TMC3    H1 7757   2.150   3.185  17.006 -0.6798 -1.2656 -0.0538
  522TMC3    H2 7758   2.439   2.934  16.805 -0.6960 -0.2367  0.6877
  522TMC3    C7 7759   2.176   2.990  16.813  0.2805 -0.2897  0.3663
  522TMC3    C8 7760   2.640   3.039  16.940 -0.6087 -0.1068 -0.2642
  522TMC3    O1 7761   2.200   2.883  16.762 -0.1172  0.0662 -0.0651
  522TMC3    O2 7762   2.708   3.043  17.039  0.7680 -0.1589 -0.5234
  523MPD2     C 7763   4.471   2.914  10.278 -0.1516  0.0079 -0.3513
  523MPD2    C1 7764   4.433   2.872  10.153 -0.0893  0.2577  0.7752
  523MPD2    C2 7765   4.383   2.961  10.062 -0.4199  0.2158  0.1611
  523MPD2    C3 7766   4.352   3.091  10.095 -0.5310  0.0864  0.1289
  523MPD2    C4 7767   4.385   3.129  10.222  0.2028  0.4068 -0.0309
  523MPD2    C5 7768   4.448   3.044  10.308 -0.0805 -0.4368 -0.1264
  523MPD2     H 7769   4.364   2.928   9.961  1.0322 -1.4442  0.4276
  523MPD2    H1 7770   4.370   3.231  10.254  0.7216  0.3096  0.5140
  523MPD2    H2 7771   4.520   2.853  10.353 -0.5495  0.9748  0.7049
  523MPD2    H3 7772   4.496   3.084  10.396  2.0048 -1.6949 -0.6969
  523MPD2     N 7773   4.283   3.180  10.010  0.2247  0.7074 -0.2706
  523MPD2    H5 7774   4.277   3.275  10.046 -0.9598  0.6850 -0.4085
  523MPD2    N1 7775   4.463   2.737  10.122  0.9055  0.2956 -0.2527
  523MPD2    H7 7776   4.499   2.679  10.197  0.1205  1.3177  0.9112
  524TMC3    C1 7777   4.150   3.266   9.829 -0.3653 -0.2483 -0.3961
  524TMC3    C2 7778   4.136   3.283   9.697 -0.0688  0.4667 -0.2941
  524TMC3    C3 7779   4.048   3.371   9.650  0.3386 -0.3616 -0.7771
  524TMC3    C4 7780   4.077   3.344   9.919 -0.4300  0.4458  0.3821
  524TMC3    C5 7781   3.984   3.427   9.861  0.0890  0.5608  0.2603
  524TMC3    C6 7782   3.960   3.440   9.729 -0.6628 -0.5662  0.1935
  524TMC3     C 7783   4.225   3.155   9.885 -0.2664  0.1145  0.8983
  524TMC3     O 7784   4.243   3.063   9.805 -0.2338  0.3145 -0.0127
  524TMC3     H 7785   4.206   3.225   9.637  0.7995 -0.5029  1.6419
  524TMC3    H1 7786   4.084   3.333  10.026 -0.5378 -0.3656  0.3075
  524TMC3    H2 7787   3.875   3.500   9.698 -2.0434 -2.5872  0.0461
  524TMC3    C7 7788   3.875   3.461   9.947  0.1069 -0.3195  0.1984
  524TMC3    C8 7789   4.010   3.352   9.515 -0.3072 -0.4277  0.2019
  524TMC3    O1 7790   3.824   3.372  10.015  0.3417 -0.1811  0.0581
  524TMC3    O2 7791   3.937   3.438   9.464 -0.0917  0.3004 -0.2694
  525MPD2     C 7792   2.181   0.133  14.192 -0.8997  0.0687  0.3340
  525MPD2    C1 7793   2.297   0.168  14.260 -0.6078 -0.0752 -0.1576
  525MPD2    C2 7794   2.378   0.254  14.195 -0.1672  0.2405  0.0195
  525MPD2    C3 7795   2.340   0.315  14.075 -0.0411 -0.6734  0.0267
  525MPD2    C4 7796   2.232   0.273  14.009  0.3702 -0.1257 -0.6002
  525MPD2    C5 7797   2.150   0.186  14.071  0.3897 -0.5121 -0.0747
  525MPD2     H 7798   2.474   0.278  14.240 -0.6819 -1.4631  2.0223
  525MPD2    H1 7799   2.191   0.320  13.920 -0.6971  1.9143  0.9359
  525MPD2    H2 7800   2.105   0.069  14.234 -0.6660 -1.1283 -1.0827
  525MPD2    H3 7801   2.058   0.152  14.026 -1.1323  1.7776  1.3766
  525MPD2     N 7802   2.407   0.422  14.019 -0.1093 -0.6461 -0.5731
  525MPD2    H5 7803   2.355   0.478  13.952  0.0314 -0.3633 -0.4454
  525MPD2    N1 7804   2.327   0.129  14.390 -0.2259  0.7681  0.4702
  525MPD2    H7 7805   2.419   0.138  14.433  0.8975  1.2552 -2.0344
  526TMC3    C1 7806   2.316   0.018  14.584 -0.3175  0.5869  1.5509
  526TMC3    C2 7807   2.254   4.668  14.682  0.2895  0.1281  0.4345
  526TMC3    C3 7808   2.329   4.613  14.785 -0.2151 -0.5293  0.3697
  526TMC3    C4 7809   2.457   0.036  14.595  0.0575 -0.3155  0.3323
  526TMC3    C5 7810   2.528   4.704  14.697 -0.3448  0.5451 -0.3454
  526TMC3    C6 7811   2.462   4.633  14.794  0.3059 -0.3887  0.2700
  526TMC3     C 7812   2.242   0.059  14.468 -0.0181  0.3547 -0.3726
  526TMC3     O 7813   2.134   0.011  14.447  0.2827  0.0512 -0.4055
  526TMC3     H 7814   2.146   4.653  14.680 -0.0386  2.5651 -0.3642
  526TMC3    H1 7815   2.514   0.103  14.532 -2.7987  1.0893 -0.7645
  526TMC3    H2 7816   2.511   4.596  14.883  1.3873  0.6191  0.0980
  526TMC3    C7 7817   2.667   4.695  14.702 -0.0579 -0.0447 -0.9563
  526TMC3    C8 7818   2.272   4.553  14.900  0.0935 -0.1255 -0.7646
  526TMC3    O1 7819   2.712   4.599  14.763  0.2520 -0.1816  0.2166
  526TMC3    O2 7820   2.343   4.518  14.989  0.1720 -0.3126  0.3774
  527MPD2     C 7821   0.167   2.792   1.423  0.5453  2.0706 -0.0911
  527MPD2    C1 7822   0.246   2.849   1.322 -1.0700  0.0762  0.3462
  527MPD2    C2 7823   0.325   2.764   1.251 -0.6953  0.0047  0.0181
  527MPD2    C3 7824   0.335   2.624   1.285 -0.1860 -0.7974  0.4521
  527MPD2    C4 7825   0.267   2.572   1.399  0.3464  0.5277 -0.3901
  527MPD2    C5 7826   0.174   2.657   1.457 -0.1166  0.1946  0.2130
  527MPD2     H 7827   0.399   2.797   1.179 -1.5634  0.7525 -0.5237
  527MPD2    H1 7828   0.271   2.467   1.424  0.1258  1.0800  2.0140
  527MPD2    H2 7829   0.091   2.837   1.486 -1.2536  0.1645 -0.8663
  527MPD2    H3 7830   0.104   2.624   1.532  0.5566  1.4885  1.4112
  527MPD2     N 7831   0.424   2.551   1.205 -0.0819  0.1914 -0.1935
  527MPD2    H5 7832   0.473   2.612   1.140 -0.9964 -1.0038 -2.0245
  527MPD2    N1 7833   0.254   2.988   1.286  0.1484 -1.1351  0.2671
  527MPD2    H7 7834   0.321   3.014   1.214  0.7001  1.5248  1.7299
  528TMC3    C1 7835   0.206   3.214   1.307  0.8388 -0.1894  0.1385
  528TMC3    C2 7836   0.341   3.243   1.282  0.0648  0.7775  0.4470
  528TMC3    C3 7837   0.370   3.377   1.272  0.3073  0.5962  0.1029
  528TMC3    C4 7838   0.102   3.310   1.314  0.7469 -0.3383 -0.1706
  528TMC3    C5 7839   0.133   3.438   1.298  0.3995  0.6883 -0.6479
  528TMC3    C6 7840   0.263   3.473   1.272  0.3483  0.3435 -0.6144
  528TMC3     C 7841   0.166   3.079   1.345  0.7651 -0.1797 -0.2248
  528TMC3     O 7842   0.074   3.056   1.423  0.1831  0.1882  0.2670
  528TMC3     H 7843   0.410   3.164   1.254 -0.9589  0.1343 -0.2336
  528TMC3    H1 7844   0.001   3.272   1.327  0.0517  1.0098 -1.6012
  528TMC3    H2 7845   0.291   3.576   1.255  0.2941  0.1126 -2.1224
  528TMC3    C7 7846   0.050   3.528   1.374  0.1851  0.1451  0.3349
  528TMC3    C8 7847   0.507   3.420   1.219 -0.4372 -0.1664  0.0741
  528TMC3    O1 7848   4.659   3.500   1.381 -0.6416 -0.0397 -0.1511
  528TMC3    O2 7849   0.524   3.544   1.219  0.0124  0.0193  0.8117
  529MPD2     C 7850   1.904   1.464   0.496  0.8578 -0.0809  0.0598
  529MPD2    C1 7851   1.988   1.379   0.432 -0.0455 -0.5399  0.5857
  529MPD2    C2 7852   2.053   1.405   0.314 -0.3137 -0.3396 -0.0110
  529MPD2    C3 7853   2.004   1.512   0.236 -0.8640 -0.4873 -0.2434
  529MPD2    C4 7854   1.900   1.591   0.294 -0.1812  0.4031  1.2609
  529MPD2    C5 7855   1.860   1.573   0.423 -0.1843  0.0352  0.0211
  529MPD2     H 7856   2.144   1.351   0.291 -0.1325 -0.8947  1.9935
  529MPD2    H1 7857   1.860   1.676   0.240 -0.8766 -2.2070 -2.2988
  529MPD2    H2 7858   1.864   1.454   0.596  0.3216 -0.6701 -0.2184
  529MPD2    H3 7859   1.785   1.634   0.472 -1.3867 -1.2341 -0.2490
  529MPD2     N 7860   2.045   1.542   0.106 -0.7725 -0.5417 -0.2864
  529MPD2    H5 7861   1.999   1.624   0.066  1.3362  0.8694  0.1979
  529MPD2    N1 7862   2.044   1.268   0.504  0.1186  0.0033 -0.8408
  529MPD2    H7 7863   2.133   1.232   0.472 -0.5272 -2.3495 -0.0277
  530TMC3    C1 7864   2.085   1.110   0.662  0.0559  0.2467 -0.1376
  530TMC3    C2 7865   2.100   1.079   0.794 -0.0653 -0.4786  0.1524
  530TMC3    C3 7866   2.174   0.967   0.821  0.0301 -0.2220  0.6128
  530TMC3    C4 7867   2.122   1.021   0.562 -0.2726  0.4042 -0.1045
  530TMC3    C5 7868   2.198   0.914   0.605 -0.3278  0.1331  0.2814
  530TMC3    C6 7869   2.229   0.881   0.730  0.2012  0.6872  0.5170
  530TMC3     C 7870   2.006   1.223   0.626  0.0046  0.8550 -0.3545
  530TMC3     O 7871   1.920   1.256   0.705  0.0905  0.1367  0.8169
  530TMC3     H 7872   2.061   1.137   0.877 -2.0611 -1.0456 -0.3929
  530TMC3    H1 7873   2.098   1.031   0.457  1.0852  1.7967 -0.2782
  530TMC3    H2 7874   2.273   0.790   0.770  1.6350  1.0831 -0.1750
  530TMC3    C7 7875   2.250   0.830   0.504 -0.5749  0.3410  0.0519
  530TMC3    C8 7876   2.234   0.974   0.954 -0.5938 -0.0937 -0.5004
  530TMC3    O1 7877   2.259   0.877   0.390 -0.3564 -0.4147 -0.1623
  530TMC3    O2 7878   2.174   1.031   1.043 -0.1621  0.0526  0.1594
  531MPD2     C 7879   1.294   3.503  12.633  0.3102 -0.5782 -0.9693
  531MPD2    C1 7880   1.207   3.586  12.700  0.0332  0.2010 -0.0191
  531MPD2    C2 7881   1.116   3.659  12.619  0.0206  0.1832  0.9043
  531MPD2    C3 7882   1.095   3.628  12.487 -0.5591 -0.0041  0.2203
  531MPD2    C4 7883   1.177   3.529  12.423  0.8313 -0.0851  0.4129
  531MPD2    C5 7884   1.276   3.465  12.500  0.1924 -0.4678  0.3516
  531MPD2     H 7885   1.048   3.730  12.666 -0.6307 -1.4686  2.4259
  531MPD2    H1 7886   1.182   3.499  12.319 -2.9722  0.5750  0.0625
  531MPD2    H2 7887   1.366   3.441  12.685 -1.0605 -1.0877  0.3142
  531MPD2    H3 7888   1.329   3.378  12.461  1.0514  0.5568 -0.7420
  531MPD2     N 7889   1.000   3.710  12.414 -0.6884  0.5291  0.5214
  531MPD2    H5 7890   0.945   3.771  12.474  0.2957  1.3327  0.5938
  531MPD2    N1 7891   1.212   3.605  12.838  0.0941  0.3415  0.3325
  531MPD2    H7 7892   1.274   3.544  12.891 -0.3798 -1.6340 -1.3576
  532TMC3    C1 7893   1.148   3.711  13.052 -0.4961 -0.2121  0.2776
  532TMC3    C2 7894   1.048   3.771  13.123  0.1841 -0.2912  0.0569
  532TMC3    C3 7895   1.083   3.883  13.199  0.1789  0.2087  0.3696
  532TMC3    C4 7896   1.279   3.739  13.077  0.6747 -0.2338  0.1832
  532TMC3    C5 7897   1.308   3.839  13.167  0.0801 -1.2415 -0.7942
  532TMC3    C6 7898   1.213   3.917  13.232 -0.0333  0.5083  0.2611
  532TMC3     C 7899   1.116   3.682  12.911  0.0359  0.6511 -0.1797
  532TMC3     O 7900   1.009   3.729  12.876  0.8071  0.5295 -0.8646
  532TMC3     H 7901   0.946   3.735  13.109 -0.9058  2.1745  1.5145
  532TMC3    H1 7902   1.355   3.704  13.007  0.5986  0.9499 -0.4762
  532TMC3    H2 7903   1.238   3.994  13.303  1.1825  0.2035  0.1606
  532TMC3    C7 7904   1.425   3.830  13.243  0.4041 -0.5155  0.4712
  532TMC3    C8 7905   1.009   4.002  13.158 -0.4913  0.4942 -0.3046
  532TMC3    O1 7906   1.455   3.937  13.295  0.3499  0.0507 -0.7529
  532TMC3    O2 7907   1.036   4.107  13.215 -0.5619 -0.3791 -0.0670
  533TMC3    C1 7908   2.539   0.616  14.041 -0.3208 -0.0058  0.0528
  533TMC3    C2 7909   2.667   0.657  14.029 -0.2470  0.1242 -0.0418
  533TMC3    C3 7910   2.701   0.765  14.106  0.3162  0.4256 -0.6506
  533TMC3    C4 7911   2.438   0.686  14.102 -0.0097 -0.0843 -1.1175
  533TMC3    C5 7912   2.476   0.801  14.170  0.7410  0.0700 -0.2361
  533TMC3    C6 7913   2.608   0.843  14.162 -0.2801  0.1539  0.1104
  533TMC3     C 7914   2.529   0.465  14.048  0.3232  0.2985  0.5128
  533TMC3     O 7915   2.626   0.397  14.083 -0.0216 -0.1024  0.5082
  533TMC3     H 7916   2.741   0.585  13.997 -1.1701  0.2685 -2.5227
  533TMC3    H1 7917   2.342   0.645  14.128  0.0339  0.6684  0.2427
  533TMC3    H2 7918   2.648   0.925  14.221  0.2565  0.5841 -0.8449
  533TMC3    C7 7919   2.422   0.790  14.303 -0.6075  0.7801 -0.9661
  533TMC3    C8 7920   2.829   0.772  14.155 -0.3654 -0.1747 -0.3779
  533TMC3    O1 7921   2.398   0.673  14.335  0.4862 -0.7264  0.2461
  533TMC3    O2 7922   2.838   0.825  14.265  0.1451 -0.4807  0.2010
  534MPD2     C 7923   0.369   1.482   0.657 -0.0423 -0.1130  0.4277
  534MPD2    C1 7924   0.259   1.484   0.750  0.6036 -0.3887  0.2024
  534MPD2    C2 7925   0.127   1.495   0.704 -0.2154 -0.6958  0.3550
  534MPD2    C3 7926   0.103   1.486   0.565 -0.4954  0.5537 -0.4989
  534MPD2    C4 7927   0.213   1.471   0.471 -0.1163 -0.8403 -0.1091
  534MPD2    C5 7928   0.340   1.486   0.519 -0.4926 -0.2004  0.4065
  534MPD2     H 7929   0.044   1.506   0.772 -0.8965  1.9075 -0.8818
  534MPD2    H1 7930   0.200   1.455   0.364  0.8547  1.5778 -0.5947
  534MPD2    H2 7931   0.469   1.485   0.698  0.4599 -1.8733 -0.6743
  534MPD2    H3 7932   0.418   1.489   0.444 -0.0775  1.5112  0.9116
  534MPD2     N 7933   4.708   1.503   0.501  0.6500  0.2371  0.1412
  534MPD2    H5 7934   4.707   1.479   0.402  0.4391  1.3809 -0.1377
  534MPD2    N1 7935   0.283   1.487   0.891 -0.4563 -0.3055  0.3327
  534MPD2    H7 7936   0.206   1.522   0.948 -1.9557  1.1986 -2.6214
  535TMC3    C1 7937   4.484   1.572   0.458  0.3838 -0.1030 -0.2996
  535TMC3    C2 7938   4.373   1.637   0.506 -0.4135 -0.5131 -0.7879
  535TMC3    C3 7939   4.260   1.635   0.427 -0.4351 -0.2449 -0.3950
  535TMC3    C4 7940   4.487   1.508   0.335  0.4617 -0.1002 -0.0865
  535TMC3    C5 7941   4.363   1.505   0.273  0.2006  0.1276  0.2384
  535TMC3    C6 7942   4.247   1.572   0.309  0.3794  0.1864 -0.2198
  535TMC3     C 7943   4.600   1.569   0.550  0.2802  0.6385 -0.0019
  535TMC3     O 7944   4.584   1.634   0.655 -0.3215  0.5539  0.2275
  535TMC3     H 7945   4.367   1.659   0.612 -3.8532  0.7357 -1.2405
  535TMC3    H1 7946   4.563   1.437   0.304 -0.7790 -0.8953 -1.2787
  535TMC3    H2 7947   4.151   1.573   0.258  1.7103 -0.8182 -2.7258
  535TMC3    C7 7948   4.348   1.416   0.154 -0.0533 -0.0278  0.0240
  535TMC3    C8 7949   4.132   1.661   0.500 -0.2370  0.1405  0.1249
  535TMC3    O1 7950   4.451   1.389   0.100  0.5595 -0.6093 -0.6240
  535TMC3    O2 7951   4.031   1.626   0.449  0.0625 -0.2419  0.3139
  536MPD2     C 7952   3.746   4.655  16.225 -0.6182 -0.0226  0.1116
  536MPD2    C1 7953   3.630   4.584  16.258  0.2805 -0.0009 -0.1923
  536MPD2    C2 7954   3.519   4.600  16.172 -0.1306  0.2780 -0.4422
  536MPD2    C3 7955   3.528   4.686  16.062  0.5201 -0.2078  0.8087
  536MPD2    C4 7956   3.645   0.032  16.039 -0.4711 -0.3966  0.1123
  536MPD2    C5 7957   3.757   0.007  16.114 -0.1210  0.0392  0.7838
  536MPD2     H 7958   3.422   4.560  16.198  0.5577 -0.1977  1.4114
  536MPD2    H1 7959   3.660   0.103  15.958  0.3131 -0.9776 -0.2453
  536MPD2    H2 7960   3.827   4.659  16.297 -0.1919 -2.7807 -0.2113
  536MPD2    H3 7961   3.840   0.074  16.096  0.1923 -1.0795 -1.8840
  536MPD2     N 7962   3.427   4.716  15.971  0.4579  0.0465  0.3292
  536MPD2    H5 7963   3.458   0.033  15.884 -0.6616 -2.0009 -1.0690
  536MPD2    N1 7964   3.626   4.497  16.374  0.1051 -0.4204  0.3513
  536MPD2    H7 7965   3.710   4.494  16.431 -0.9332  0.9020  1.9596
  537TMC3    C1 7966   3.565   4.319  16.519  0.0491  1.1474  0.7229
  537TMC3    C2 7967   3.601   4.387  16.628 -0.4572 -0.1551  0.2229
  537TMC3    C3 7968   3.580   4.327  16.748  0.3003  0.4857  0.6532
  537TMC3    C4 7969   3.511   4.194  16.530 -0.1705 -0.6426 -0.4304
  537TMC3    C5 7970   3.483   4.139  16.651  0.0074 -0.4673 -0.1306
  537TMC3    C6 7971   3.526   4.204  16.760  0.6561 -0.0897 -0.8988
  537TMC3     C 7972   3.539   4.389  16.395  0.2537 -0.3895  0.1198
  537TMC3     O 7973   3.470   4.338  16.309 -0.1674  0.1716 -0.2231
  537TMC3     H 7974   3.637   4.489  16.624  0.7740 -0.6175 -0.5407
  537TMC3    H1 7975   3.458   4.150  16.446  0.8156 -1.6096 -0.5534
  537TMC3    H2 7976   3.507   4.159  16.857  0.9541  3.4622  0.8203
  537TMC3    C7 7977   3.361   4.056  16.662 -0.2935  0.9050 -0.1604
  537TMC3    C8 7978   3.647   4.374  16.869 -0.6454  1.2697 -0.2970
  537TMC3    O1 7979   3.303   4.039  16.557 -0.4190 -0.2248  0.5303
  537TMC3    O2 7980   3.699   4.294  16.945 -0.0269  0.1419 -0.6780
  538TMC3    C1 7981   0.142   3.308  11.131 -0.2095  0.4688  0.0701
  538TMC3    C2 7982   0.195   3.248  11.020  0.2356 -0.1876  0.6158
  538TMC3    C3 7983   0.117   3.262  10.905 -0.1394 -0.2295 -0.3031
  538TMC3    C4 7984   0.030   3.393  11.123  0.2850  0.6020 -0.0633
  538TMC3    C5 7985   4.708   3.416  10.998 -0.1356  0.0380  0.3907
  538TMC3    C6 7986   0.018   3.355  10.886 -0.2663  0.1158 -0.3798
  538TMC3     C 7987   0.197   3.278  11.261 -0.7950  0.4454 -0.3176
  538TMC3     O 7988   0.125   3.302  11.353  0.1280  0.0474  0.5516
  538TMC3     H 7989   0.270   3.170  11.029  0.2889 -0.0571  1.3254
  538TMC3    H1 7990   4.714   3.432  11.216 -0.5178 -1.7400  0.5676
  538TMC3    H2 7991   4.711   3.381  10.786 -0.3713 -0.7366 -0.5694
  538TMC3    C7 7992   4.589   3.490  10.981 -0.4431 -0.0929  0.1819
  538TMC3    C8 7993   0.189   3.215  10.785  0.4567  0.0747  0.4506
  538TMC3    O1 7994   4.531   3.465  10.875 -0.0731 -0.6787  0.4679
  538TMC3    O2 7995   0.311   3.188  10.797  0.0687 -0.0854  0.6507
  539MPD2     C 7996   4.693   2.857  11.813 -1.3970 -0.1115 -0.0195
  539MPD2    C1 7997   4.681   2.794  11.690 -0.8723  0.1188 -0.1973
  539MPD2    C2 7998   4.646   2.862  11.579  0.1777  0.1950  0.3571
  539MPD2    C3 7999   4.620   2.996  11.584  0.4456  0.8859 -1.2241
  539MPD2    C4 8000   4.625   3.064  11.706 -0.1194 -0.4091 -0.0563
  539MPD2    C5 8001   4.667   2.993  11.817 -0.3088  0.2006 -0.1595
  539MPD2     H 8002   4.633   2.805  11.488  3.2114 -0.6005  0.4402
  539MPD2    H1 8003   4.594   3.166  11.727  0.6294 -0.5201  1.6227
  539MPD2    H2 8004   4.722   2.797  11.898  0.3740  1.1466  0.2640
  539MPD2    H3 8005   4.663   3.043  11.913 -1.8567  0.1902 -0.2138
  539MPD2     N 8006   4.580   3.071  11.473 -0.0511  0.0059  0.2921
  539MPD2    H5 8007   4.542   3.161  11.498 -0.9093 -0.3831  0.4103
  539MPD2    N1 8008   4.715   2.655  11.675  0.0552 -0.0911  0.2352
  539MPD2    H7 8009   0.026   2.601  11.753  0.5516 -2.2007 -1.4462
  540TMC3    C1 8010   4.531   3.143  11.259 -0.0532  0.6442 -0.3315
  540TMC3    C2 8011   4.437   3.100  11.175  0.0188  0.0549 -0.2307
  540TMC3    C3 8012   4.330   3.182  11.154 -0.4066  0.5238 -0.3177
  540TMC3    C4 8013   4.539   3.270  11.311 -0.5322  0.3737  0.6955
  540TMC3    C5 8014   4.425   3.352  11.285  0.8542  0.0450  0.4560
  540TMC3    C6 8015   4.322   3.308  11.205 -0.3758 -0.1398  0.0887
  540TMC3     C 8016   4.585   3.034  11.339  0.4330  0.0160 -0.4283
  540TMC3     O 8017   4.641   2.940  11.285  0.3910 -0.4714 -0.2022
  540TMC3     H 8018   4.431   2.994  11.157 -2.7246  0.3674 -1.0554
  540TMC3    H1 8019   4.628   3.298  11.366  0.0659 -1.1689  0.5072
  540TMC3    H2 8020   4.227   3.359  11.192 -0.4272  0.1983  1.8694
  540TMC3    C7 8021   4.396   3.447  11.389  0.7395 -0.2027  0.1411
  540TMC3    C8 8022   4.201   3.124  11.162  0.3093 -0.0786  0.2127
  540TMC3    O1 8023   4.491   3.485  11.457 -0.2070  0.2774  0.7132
  540TMC3    O2 8024   4.109   3.175  11.231 -0.0772  0.4364  0.2214
  541MPD2     C 8025   2.742   4.002  13.494 -0.0759  0.4732  0.4662
  541MPD2    C1 8026   2.641   3.922  13.438 -0.2828 -0.4044 -0.5848
  541MPD2    C2 8027   2.581   3.959  13.318 -0.9046 -0.0859  0.0290
  541MPD2    C3 8028   2.601   4.086  13.258  0.5948 -0.8570 -0.4340
  541MPD2    C4 8029   2.687   4.170  13.324  0.4456 -0.4680 -0.3078
  541MPD2    C5 8030   2.769   4.128  13.434 -0.1998 -0.1522 -0.6677
  541MPD2     H 8031   2.507   3.887  13.283 -1.0490 -0.6230  1.4650
  541MPD2    H1 8032   2.710   4.270  13.290 -0.0849 -0.1071  0.3730
  541MPD2    H2 8033   2.783   3.983  13.593 -0.9703  5.0083  1.7202
  541MPD2    H3 8034   2.849   4.189  13.474  0.2725 -1.1419 -0.0776
  541MPD2     N 8035   2.533   4.125  13.142 -0.5996 -0.0646 -0.6384
  541MPD2    H5 8036   2.541   4.220  13.109  1.0468  0.5681  1.6026
  541MPD2    N1 8037   2.616   3.794  13.484  0.3961  0.3900 -0.0005
  541MPD2    H7 8038   2.557   3.738  13.423 -0.2538  0.9329  0.1296
  542TMC3    C1 8039   2.396   4.095  12.938  0.3792  0.3082  0.1251
  542TMC3    C2 8040   2.378   4.020  12.829  0.2902 -0.5015  0.0521
  542TMC3    C3 8041   2.322   4.076  12.716 -0.4255 -0.7763 -0.8017
  542TMC3    C4 8042   2.364   4.225  12.943  1.0624 -0.1062  0.3972
  542TMC3    C5 8043   2.310   4.283  12.837  0.7149 -0.1584 -0.8600
  542TMC3    C6 8044   2.293   4.213  12.718 -0.2097  0.6530 -0.4241
  542TMC3     C 8045   2.471   4.037  13.049  0.0759  0.1923 -0.1662
  542TMC3     O 8046   2.490   3.916  13.043  0.2373  0.1689 -0.1414
  542TMC3     H 8047   2.420   3.921  12.832  0.0498 -0.6402 -1.6105
  542TMC3    H1 8048   2.368   4.288  13.031  0.2330 -1.3704  1.3304
  542TMC3    H2 8049   2.257   4.260  12.627  0.3389  0.5542 -0.6894
  542TMC3    C7 8050   2.241   4.412  12.838 -0.3750 -0.4430  0.5953
  542TMC3    C8 8051   2.377   4.022  12.593 -0.1215 -0.5537  0.3453
  542TMC3    O1 8052   2.176   4.438  12.738 -0.3470  0.2819  0.0780
  542TMC3    O2 8053   2.404   4.105  12.509  0.2279 -0.4188  0.0254
  543TMC3    C1 8054   2.306   0.446  16.915  0.4435 -0.0062  0.7154
  543TMC3    C2 8055   2.370   0.326  16.935  0.4872  0.1035  0.1306
  543TMC3    C3 8056   2.374   0.281  17.067  0.4728 -0.5234 -0.5321
  543TMC3    C4 8057   2.257   0.519  17.021  0.8915 -0.9399  0.0551
  543TMC3    C5 8058   2.268   0.473  17.150  0.0924 -0.4631 -0.4334
  543TMC3    C6 8059   2.324   0.351  17.174  0.3759 -0.6227 -0.6387
  543TMC3     C 8060   2.280   0.489  16.781 -0.0722  0.1134 -0.5505
  543TMC3     O 8061   2.306   0.414  16.688 -0.2413 -0.2179  0.1225
  543TMC3     H 8062   2.418   0.275  16.852 -1.7943  0.1248 -1.2135
  543TMC3    H1 8063   2.242   0.626  17.013  2.1918 -0.8134 -0.6540
  543TMC3    H2 8064   2.308   0.291  17.263 -0.7227 -0.8495 -0.9956
  543TMC3    C7 8065   2.185   0.536  17.253 -0.3213 -0.0953  0.3958
  543TMC3    C8 8066   2.428   0.146  17.083  0.2825  0.5146  0.6472
  543TMC3    O1 8067   2.095   0.612  17.212 -0.0594  0.4445 -0.1504
  543TMC3    O2 8068   2.426   0.070  16.984 -0.4140  0.7510  0.4741
  544MPD2     C 8069   2.701   4.537  17.380  0.8565 -0.0357 -0.7119
  544MPD2    C1 8070   2.656   4.523  17.251 -0.1458  0.7748 -0.1080
  544MPD2    C2 8071   2.577   4.630  17.199  0.2057  0.3768  0.3679
  544MPD2    C3 8072   2.564   0.030  17.262  0.0978  0.1196 -0.2189
  544MPD2    C4 8073   2.613   0.042  17.389  0.9865 -0.5229  0.0798
  544MPD2    C5 8074   2.678   4.661  17.441 -0.6169  0.7166 -0.3064
  544MPD2     H 8075   2.550   4.619  17.094  1.8335 -0.9999  0.0995
  544MPD2    H1 8076   2.598   0.137  17.439  2.6624  1.3718 -3.0288
  544MPD2    H2 8077   2.750   4.459  17.438  0.2181 -1.4935 -2.1295
  544MPD2    H3 8078   2.711   4.666  17.544 -1.6946 -0.9450  0.1145
  544MPD2     N 8079   2.487   0.138  17.209  0.3177  0.2724  0.1720
  544MPD2    H5 8080   2.476   0.221  17.266  1.5339 -1.4860  2.9741
  544MPD2    N1 8081   2.674   4.415  17.161 -0.1107 -0.0574 -0.7304
  544MPD2    H7 8082   2.631   4.433  17.071 -0.2444  0.8764 -0.4761
  545TMC3    C1 8083   2.760   4.197  17.098  0.5581 -0.7176 -0.1719
  545TMC3    C2 8084   2.778   4.232  16.968 -0.2820  0.1262  0.1025
  545TMC3    C3 8085   2.787   4.131  16.879 -0.0430 -0.3254  0.3272
  545TMC3    C4 8086   2.761   4.066  17.144  0.2017 -0.2861  0.3642
  545TMC3    C5 8087   2.794   3.971  17.055  0.0824 -0.3649  0.3532
  545TMC3    C6 8088   2.796   4.006  16.922 -0.0579  0.4673 -0.5285
  545TMC3     C 8089   2.736   4.295  17.201 -1.0210  0.0545 -0.4307
  545TMC3     O 8090   2.750   4.257  17.317 -0.1454  0.1557  0.3188
  545TMC3     H 8091   2.750   4.330  16.933 -2.3024 -0.1293  0.9774
  545TMC3    H1 8092   2.782   4.046  17.249 -2.3039 -0.1817  0.8934
  545TMC3    H2 8093   2.810   3.927  16.849  2.4168  0.3054  0.1345
  545TMC3    C7 8094   2.790   3.830  17.097  1.2496  0.0460  0.3153
  545TMC3    C8 8095   2.817   4.158  16.739 -0.5692  0.4722 -0.0935
  545TMC3    O1 8096   2.737   3.749  17.020 -0.0596  0.5609  0.2390
  545TMC3    O2 8097   2.866   4.065  16.682  0.5883  0.2901 -0.0768
  546MPD2     C 8098   3.793   0.282  16.849 -0.4902 -0.3332 -0.1416
  546MPD2    C1 8099   3.739   0.348  16.741  0.0551  0.3873  0.4267
  546MPD2    C2 8100   3.770   0.482  16.731  0.2612 -0.7619 -0.9055
  546MPD2    C3 8101   3.860   0.547  16.823  0.2781 -0.1419 -0.9072
  546MPD2    C4 8102   3.923   0.477  16.921 -0.2604  1.5342  0.0140
  546MPD2    C5 8103   3.889   0.345  16.931 -0.0339 -0.2503 -1.0762
  546MPD2     H 8104   3.716   0.546  16.662 -2.7799 -0.7570  1.4958
  546MPD2    H1 8105   3.989   0.509  17.001 -0.0896 -0.2989  0.6062
  546MPD2    H2 8106   3.777   0.177  16.874  1.5202 -0.8433 -0.9947
  546MPD2    H3 8107   3.927   0.292  17.018 -2.3380 -0.1088 -0.0061
  546MPD2     N 8108   3.887   0.685  16.824 -0.6635 -0.4546  0.1677
  546MPD2    H5 8109   3.962   0.711  16.887  0.4223 -0.3058 -1.1742
  546MPD2    N1 8110   3.657   0.278  16.653 -0.3924 -0.3666 -0.0639
  546MPD2    H7 8111   3.643   0.180  16.678  2.5976 -0.0247  2.9882
  547TMC3    C1 8112   3.524   0.224  16.465 -0.5178 -0.0012 -0.5005
  547TMC3    C2 8113   3.418   0.269  16.383  0.0136  0.0465  0.5029
  547TMC3    C3 8114   3.315   0.187  16.355 -0.2825 -0.6425 -0.4262
  547TMC3    C4 8115   3.526   0.095  16.511  0.2657 -0.0304  0.6460
  547TMC3    C5 8116   3.408   0.026  16.494 -0.1497 -0.5848 -0.2121
  547TMC3    C6 8117   3.295   0.067  16.424 -1.0348 -0.0326 -0.1946
  547TMC3     C 8118   3.608   0.322  16.535  0.1806  0.2853 -0.4852
  547TMC3     O 8119   3.614   0.437  16.496  0.5501  0.5769  1.1038
  547TMC3     H 8120   3.430   0.374  16.359 -0.6110 -0.4374 -1.9067
  547TMC3    H1 8121   3.615   0.046  16.548 -0.5847 -0.8252  1.6197
  547TMC3    H2 8122   3.204   0.008  16.432 -0.6375 -0.5281  0.6813
  547TMC3    C7 8123   3.388   4.652  16.601  0.0080 -0.0253  0.1203
  547TMC3    C8 8124   3.206   0.255  16.283  1.0581  1.1649 -0.2249
  547TMC3    O1 8125   3.473   4.658  16.690  0.8184  0.5572  0.0781
  547TMC3    O2 8126   3.209   0.371  16.244  0.8023  0.1908  0.4716
  548MPD2     C 8127   3.454   0.934  12.073  0.0176  0.6487  0.7822
  548MPD2    C1 8128   3.380   0.845  12.146  1.0371  0.2645  0.5715
  548MPD2    C2 8129   3.441   0.730  12.188  0.2136  0.8939 -0.0126
  548MPD2    C3 8130   3.569   0.694  12.141  0.3805  1.1126  0.4693
  548MPD2    C4 8131   3.629   0.769  12.042 -0.3862 -0.7704 -0.1802
  548MPD2    C5 8132   3.571   0.886  12.016 -0.5202  0.0342  0.0274
  548MPD2     H 8133   3.392   0.665  12.260 -0.4606  1.9268  0.4663
  548MPD2    H1 8134   3.713   0.738  11.982 -0.3753 -0.9602 -0.0679
  548MPD2    H2 8135   3.423   1.037  12.056 -0.1728  0.6803  1.3351
  548MPD2    H3 8136   3.608   0.955  11.941 -0.4143  1.0639  1.0272
  548MPD2     N 8137   3.637   0.575  12.171  0.0969  0.0367  0.0782
  548MPD2    H5 8138   3.721   0.547  12.120 -0.5384 -2.1541  0.2255
  548MPD2    N1 8139   3.256   0.885  12.204 -0.1466  0.3282  0.2151
  548MPD2    H7 8140   3.241   0.985  12.208  1.3457  0.6085 -1.1760
  549TMC3    C1 8141   3.083   0.882  12.354  0.8277 -0.1585 -0.0164
  549TMC3    C2 8142   3.041   1.006  12.321 -0.3313  0.0515 -0.2724
  549TMC3    C3 8143   2.993   1.086  12.425 -0.4823 -0.9737 -0.2348
  549TMC3    C4 8144   3.074   0.840  12.484  0.2582  0.0670  0.0377
  549TMC3    C5 8145   3.036   0.917  12.586 -0.4058  0.4566 -1.0467
  549TMC3    C6 8146   2.986   1.041  12.552 -0.1268 -0.2683 -0.4787
  549TMC3     C 8147   3.169   0.802  12.268 -0.1343  0.4465 -0.2592
  549TMC3     O 8148   3.159   0.684  12.274  0.1391 -0.1084 -0.1426
  549TMC3     H 8149   3.044   1.066  12.231  1.7945  0.4403  0.0496
  549TMC3    H1 8150   3.107   0.741  12.511  0.2237 -0.2054 -0.9202
  549TMC3    H2 8151   2.936   1.108  12.621  0.1794 -1.3425  0.7664
  549TMC3    C7 8152   3.028   0.870  12.726  0.5865  0.2228 -0.3393
  549TMC3    C8 8153   2.966   1.223  12.396  0.4578 -0.4302  0.6155
  549TMC3    O1 8154   3.040   0.959  12.811  0.3810 -0.5604 -0.0403
  549TMC3    O2 8155   2.881   1.243  12.309  0.2825  0.0704 -0.3022
  550TMC3    C1 8156   2.087   3.886  12.394  0.7953 -0.5298  0.2563
  550TMC3    C2 8157   1.991   3.886  12.486  0.2927 -0.0609 -0.0921
  550TMC3    C3 8158   1.938   4.006  12.515  0.2773 -0.3772  0.0619
  550TMC3    C4 8159   2.129   3.998  12.333  0.1624  0.1327 -0.0355
  550TMC3    C5 8160   2.063   4.114  12.348  0.4007  0.6837 -0.8919
  550TMC3    C6 8161   1.962   4.114  12.444 -0.2092  0.5850  0.2553
  550TMC3     C 8162   2.121   3.755  12.346  0.5882 -0.0929 -0.2070
  550TMC3     O 8163   2.103   3.658  12.416  0.4475 -0.0485  0.3928
  550TMC3     H 8164   1.959   3.799  12.542  0.6563 -0.4252 -0.4581
  550TMC3    H1 8165   2.197   3.984  12.249  1.4403  2.1188  0.6411
  550TMC3    H2 8166   1.892   4.197  12.452 -3.3115 -2.0905  0.6953
  550TMC3    C7 8167   2.011   4.184  12.230 -0.6507  0.9018 -0.5026
  550TMC3    C8 8168   1.805   4.006  12.571 -0.3697 -0.2645 -0.2996
  550TMC3    O1 8169   1.890   4.195  12.214 -0.2072  0.8398 -0.1404
  550TMC3    O2 8170   1.783   4.111  12.628  0.2920 -0.2201 -0.3478
  551TMC3    C1 8171   4.519   1.341  13.264 -0.3467 -0.2637 -0.2152
  551TMC3    C2 8172   4.613   1.355  13.169  0.0458  0.4034  0.0158
  551TMC3    C3 8173   4.711   1.446  13.184  0.0651  0.1293 -0.4909
  551TMC3    C4 8174   4.532   1.403  13.379  0.0306 -0.4748  0.7102
  551TMC3    C5 8175   4.634   1.491  13.399  0.2524 -0.1199 -0.3850
  551TMC3    C6 8176   4.717   1.525  13.295  0.0084 -0.0439  0.4030
  551TMC3     C 8177   4.410   1.253  13.235  0.3625 -0.2725  0.6896
  551TMC3     O 8178   4.423   1.173  13.144  0.4907 -0.1738 -0.1617
  551TMC3     H 8179   4.597   1.301  13.077  0.4023 -0.0057  0.1955
  551TMC3    H1 8180   4.484   1.359  13.466  0.0062 -0.1965  0.8394
  551TMC3    H2 8181   0.080   1.587  13.310 -0.8339  1.6635 -1.6675
  551TMC3    C7 8182   4.660   1.548  13.529 -0.3256  0.3365 -0.4684
  551TMC3    C8 8183   0.082   1.465  13.083 -0.1246 -0.7759 -0.1525
  551TMC3    O1 8184   0.045   1.590  13.551  0.1926 -0.0381 -0.7546
  551TMC3    O2 8185   0.106   1.365  13.019 -0.0092  0.1680 -0.8090
  552MPD2     C 8186   1.950   3.592  13.942  0.3401 -0.1294 -0.0282
  552MPD2    C1 8187   1.964   3.458  13.975  0.1711 -0.1459  0.0905
  552MPD2    C2 8188   2.065   3.412  14.063 -0.3438 -0.3817 -0.8161
  552MPD2    C3 8189   2.147   3.506  14.119 -0.3919 -0.2105  0.4688
  552MPD2    C4 8190   2.129   3.640  14.080  0.4565 -0.2553  0.5329
  552MPD2    C5 8191   2.035   3.683  13.993  0.2308  0.2806  0.3574
  552MPD2     H 8192   2.057   3.306  14.083 -0.4334 -0.1615  0.2823
  552MPD2    H1 8193   2.195   3.718  14.116  1.3181 -0.7444  0.0151
  552MPD2    H2 8194   1.874   3.630  13.874  0.2574 -2.6263 -1.3358
  552MPD2    H3 8195   2.035   3.788  13.966  1.4473  0.2382  0.1853
  552MPD2     N 8196   2.239   3.470  14.219  0.1379 -0.1521 -0.2610
  552MPD2    H5 8197   2.293   3.550  14.249  0.0366  0.7131 -2.3920
  552MPD2    N1 8198   1.878   3.362  13.924  0.1427 -0.0361 -0.4360
  552MPD2    H7 8199   1.891   3.267  13.957 -0.3897 -0.3449 -1.1144
  553TMC3    C1 8200   1.692   3.254  13.842  0.1982  0.2057  0.5268
  553TMC3    C2 8201   1.624   3.224  13.726  0.2307  0.0247  0.0513
  553TMC3    C3 8202   1.558   3.103  13.723 -0.1353  0.0693  0.4514
  553TMC3    C4 8203   1.706   3.164  13.945 -0.5529  0.5159  0.2809
  553TMC3    C5 8204   1.642   3.045  13.935 -0.0401  0.3181 -0.3031
  553TMC3    C6 8205   1.557   3.012  13.830  0.2661 -0.3800  0.3889
  553TMC3     C 8206   1.765   3.380  13.854 -0.4823 -0.7750 -0.0356
  553TMC3     O 8207   1.721   3.478  13.790 -0.3201 -0.2246 -0.3342
  553TMC3     H 8208   1.614   3.296  13.645  2.2943 -0.9836 -1.1013
  553TMC3    H1 8209   1.737   3.198  14.043 -0.2592  1.0191  0.0151
  553TMC3    H2 8210   1.516   2.912  13.818  0.3236 -0.2604 -0.7396
  553TMC3    C7 8211   1.646   2.960  14.054 -0.2657  0.3605  0.4348
  553TMC3    C8 8212   1.509   3.059  13.589 -0.6148  0.4401 -0.5493
  553TMC3    O1 8213   1.543   2.893  14.072 -0.3194 -0.5602  0.0452
  553TMC3    O2 8214   1.541   3.134  13.496 -0.7040  0.1693  0.4274
  554TMC3    C1 8215   3.507   2.446  11.799  0.5285 -0.0103  0.2794
  554TMC3    C2 8216   3.412   2.435  11.701  0.1739  0.0531  0.2661
  554TMC3    C3 8217   3.379   2.551  11.634  0.8211  0.1311  0.8585
  554TMC3    C4 8218   3.568   2.558  11.825  0.5165  0.1997  0.1213
  554TMC3    C5 8219   3.540   2.671  11.750 -0.4562 -0.3807 -0.6917
  554TMC3    C6 8220   3.449   2.665  11.650 -0.4166 -0.1862  0.6960
  554TMC3     C 8221   3.509   2.335  11.893 -0.0863 -0.3234 -0.3468
  554TMC3     O 8222   3.404   2.273  11.906  0.4658 -0.1371 -0.4792
  554TMC3     H 8223   3.370   2.336  11.685  0.8133 -0.3056  0.8486
  554TMC3    H1 8224   3.655   2.557  11.890  1.5052 -1.2535 -1.2003
  554TMC3    H2 8225   3.424   2.749  11.586 -2.5259 -0.3802  1.2514
  554TMC3    C7 8226   3.628   2.789  11.765 -0.3241  0.8082 -0.2895
  554TMC3    C8 8227   3.316   2.532  11.504 -0.7131 -0.0996  0.9646
  554TMC3    O1 8228   3.680   2.806  11.873  0.0561 -0.2092  0.2162
  554TMC3    O2 8229   3.342   2.615  11.420 -0.3804 -0.8277 -0.5929
  555TMC3    C1 8230   2.328   2.308  14.929  0.3611 -0.3215  0.1715
  555TMC3    C2 8231   2.370   2.382  15.034  0.4943  0.8175 -0.9074
  555TMC3    C3 8232   2.417   2.311  15.139  0.7050  0.4708 -0.3408
  555TMC3    C4 8233   2.314   2.167  14.925  0.7139 -0.3075 -0.1716
  555TMC3    C5 8234   2.355   2.104  15.041  0.6160  0.0558  0.3009
  555TMC3    C6 8235   2.402   2.174  15.146  0.0904 -0.0354  0.2532
  555TMC3     C 8236   2.290   2.381  14.805 -0.5178 -0.4865 -0.2261
  555TMC3     O 8237   2.358   2.477  14.764 -0.4969 -0.4229 -0.7910
  555TMC3     H 8238   2.370   2.490  15.025 -0.8104  0.8486 -0.6451
  555TMC3    H1 8239   2.294   2.113  14.833  1.5241  2.3913 -1.9290
  555TMC3    H2 8240   2.451   2.118  15.224 -0.0432 -1.3381 -0.5932
  555TMC3    C7 8241   2.388   1.969  15.052  0.0859 -0.1446 -0.0481
  555TMC3    C8 8242   2.485   2.377  15.246 -0.4766  0.1742  0.1778
  555TMC3    O1 8243   2.339   1.905  15.143  0.4232  0.3965  0.1188
  555TMC3    O2 8244   2.522   2.490  15.220 -0.0388  0.0148  0.7830
  556MPD2     C 8245   1.170   3.586  10.665 -0.7733  0.1040  0.2975
  556MPD2    C1 8246   1.045   3.555  10.708 -0.6052 -0.1845  0.0154
  556MPD2    C2 8247   0.971   3.478  10.632  0.4564  0.3220  0.4959
  556MPD2    C3 8248   1.016   3.427  10.512 -0.8789 -0.6329  0.0967
  556MPD2    C4 8249   1.141   3.460  10.471  0.2394  0.4449  0.0035
  556MPD2    C5 8250   1.221   3.547  10.546  0.4933  0.1871 -0.3533
  556MPD2     H 8251   0.878   3.435  10.668  0.3301  0.7760  0.7032
  556MPD2    H1 8252   1.188   3.406  10.390 -0.2544 -0.3841  0.2574
  556MPD2    H2 8253   1.231   3.657  10.720  0.0975 -0.6127  0.2523
  556MPD2    H3 8254   1.322   3.569  10.515 -0.1352  1.2622 -1.6397
  556MPD2     N 8255   0.932   3.336  10.437  0.0021 -0.2267  0.1658
  556MPD2    H5 8256   0.840   3.319  10.478 -0.0515  2.6610  1.2661
  556MPD2    N1 8257   0.982   3.600  10.828  0.0783  0.0526 -0.6247
  556MPD2    H7 8258   0.883   3.578  10.838 -0.1540  1.5081  0.2896
  557TMC3    C1 8259   0.849   3.217  10.253  0.4455  0.1992 -0.0403
  557TMC3    C2 8260   0.826   3.246  10.124 -0.3744  0.3596  0.8454
  557TMC3    C3 8261   0.701   3.225  10.070  0.4708 -1.1721 -0.1018
  557TMC3    C4 8262   0.748   3.178  10.335 -0.3221 -0.1789 -0.1953
  557TMC3    C5 8263   0.634   3.135  10.277 -0.2977 -0.0824  0.6688
  557TMC3    C6 8264   0.607   3.151  10.141 -0.5901  0.9442 -0.5131
  557TMC3     C 8265   0.964   3.292  10.307  0.1864  0.0340 -0.5331
  557TMC3     O 8266   1.067   3.307  10.235 -0.8930 -0.2064 -0.2543
  557TMC3     H 8267   0.891   3.314  10.069 -0.0645  0.6042  1.5144
  557TMC3    H1 8268   0.782   3.153  10.435 -1.3545 -1.8942 -0.2729
  557TMC3    H2 8269   0.513   3.136  10.090 -1.2033  0.8042  0.6572
  557TMC3    C7 8270   0.526   3.142  10.365 -0.3958 -0.0440  0.9792
  557TMC3    C8 8271   0.658   3.318   9.966 -0.0231 -0.1798 -0.0610
  557TMC3    O1 8272   0.539   3.200  10.471 -0.4755  0.4534 -0.3751
  557TMC3    O2 8273   0.697   3.436   9.976  0.2773 -0.0183  0.5549
  558TMC3    C1 8274   3.355   1.569  10.226 -0.4860  0.6345 -0.6118
  558TMC3    C2 8275   3.239   1.532  10.301 -0.1984 -0.6189 -0.1706
  558TMC3    C3 8276   3.120   1.589  10.269  0.4795  0.6975 -0.3838
  558TMC3    C4 8277   3.339   1.654  10.125  1.0764 -0.2531  0.1312
  558TMC3    C5 8278   3.208   1.684  10.083 -0.0074 -0.1543 -0.1396
  558TMC3    C6 8279   3.099   1.661  10.159 -0.7247  0.2399  0.3985
  558TMC3     C 8280   3.483   1.512  10.244 -0.1543  0.6880  0.3687
  558TMC3     O 8281   3.578   1.569  10.192  0.4964 -0.0699 -0.5177
  558TMC3     H 8282   3.249   1.464  10.384  0.1147 -0.6401 -0.2234
  558TMC3    H1 8283   3.423   1.663  10.058  0.7666  3.2052  0.2433
  558TMC3    H2 8284   2.998   1.688  10.129 -0.4288  0.7245 -0.1593
  558TMC3    C7 8285   3.186   1.722   9.943  0.2474 -0.5211 -0.5721
  558TMC3    C8 8286   3.002   1.553  10.351  0.0965  0.0926  0.1533
  558TMC3    O1 8287   3.288   1.744   9.881 -0.0158 -0.2992  0.1085
  558TMC3    O2 8288   2.902   1.528  10.289  0.3436  0.4430  0.0683
  559MPD2     C 8289   3.008   2.146  10.617  0.2083 -0.4480  0.6075
  559MPD2    C1 8290   2.966   2.129  10.744 -0.4969  0.3918 -0.0966
  559MPD2    C2 8291   3.068   2.128  10.846  0.1472  1.3689 -0.3707
  559MPD2    C3 8292   3.199   2.154  10.817 -0.3581  0.0776  0.1004
  559MPD2    C4 8293   3.232   2.170  10.688 -0.1576  0.1249  0.0171
  559MPD2    C5 8294   3.137   2.172  10.588  0.2486  0.2516 -0.7736
  559MPD2     H 8295   3.035   2.121  10.949 -0.8870  3.9331 -0.5281
  559MPD2    H1 8296   3.338   2.181  10.665  0.0908  0.2656  1.2356
  559MPD2    H2 8297   2.947   2.144  10.528  0.1466 -0.4930  0.6512
  559MPD2    H3 8298   3.154   2.183  10.482 -1.1772  1.3274 -0.8919
  559MPD2     N 8299   3.298   2.148  10.919  0.0614 -0.5447 -0.1915
  559MPD2    H5 8300   3.266   2.105  11.005 -2.0526 -0.1729 -0.7965
  559MPD2    N1 8301   2.829   2.096  10.760 -0.5896  0.7703 -0.6603
  559MPD2    H7 8302   2.776   2.116  10.676  0.0449  5.0475 -0.0357
  560TMC3    C1 8303   3.515   2.145  11.002  0.7942 -0.4883  0.0674
  560TMC3    C2 8304   3.500   2.009  11.041 -0.7661 -0.0769  0.1717
  560TMC3    C3 8305   3.587   1.958  11.132  0.2709 -0.3188  0.1347
  560TMC3    C4 8306   3.625   2.220  11.031  0.0277  0.5313  0.9031
  560TMC3    C5 8307   3.710   2.163  11.124  0.4658 -0.1262 -0.2868
  560TMC3    C6 8308   3.696   2.036  11.168 -0.1116 -0.1743 -0.3194
  560TMC3     C 8309   3.421   2.204  10.915 -0.3210 -0.0488  0.1974
  560TMC3     O 8310   3.464   2.295  10.846 -0.2204 -0.0243 -0.5962
  560TMC3     H 8311   3.414   1.952  11.010 -0.7192  0.5337 -1.0899
  560TMC3    H1 8312   3.635   2.325  11.004  1.0566 -0.2174 -1.6429
  560TMC3    H2 8313   3.781   1.993  11.219 -0.1424  1.9020  1.4891
  560TMC3    C7 8314   3.829   2.239  11.159 -0.0399 -0.2602 -0.8678
  560TMC3    C8 8315   3.540   1.848  11.208 -0.5494  0.1290  1.2214
  560TMC3    O1 8316   3.941   2.193  11.153  0.4990  0.4183 -0.1214
  560TMC3    O2 8317   3.439   1.798  11.157  0.8096 -0.4513 -0.1699
  561TMC3    C1 8318   1.435   1.289  11.307 -0.0892  0.9442  0.5289
  561TMC3    C2 8319   1.336   1.207  11.360  0.0298  0.2416  0.5972
  561TMC3    C3 8320   1.206   1.237  11.329  0.2384 -0.4068  0.2578
  561TMC3    C4 8321   1.408   1.399  11.230  0.2555  0.2463  0.0218
  561TMC3    C5 8322   1.276   1.419  11.198  0.3293 -0.2409  0.1720
  561TMC3    C6 8323   1.174   1.351  11.262 -0.2346 -0.1772 -0.1513
  561TMC3     C 8324   1.567   1.266  11.361  0.2907  0.2349 -0.5996
  561TMC3     O 8325   1.556   1.221  11.476 -0.2661 -0.0090  0.5916
  561TMC3     H 8326   1.355   1.120  11.422 -0.8257  0.4924  1.2157
  561TMC3    H1 8327   1.481   1.455  11.173 -1.6887  1.9644 -0.7789
  561TMC3    H2 8328   1.073   1.381  11.237 -1.5375 -2.2458  2.5465
  561TMC3    C7 8329   1.241   1.564  11.175 -0.7081  0.6178  0.3418
  561TMC3    C8 8330   1.098   1.158  11.378  0.7079 -0.1220 -0.6015
  561TMC3    O1 8331   1.129   1.595  11.214 -0.4957  0.7189  0.2012
  561TMC3    O2 8332   1.137   1.044  11.399 -0.2629  0.2759  0.3464
  562TMC3    C1 8333   2.582   2.483  16.378  0.4239  0.2362 -0.2753
  562TMC3    C2 8334   2.542   2.608  16.345 -0.1839 -0.5808  0.0093
  562TMC3    C3 8335   2.451   2.618  16.245  0.2491  0.2889  0.2669
  562TMC3    C4 8336   2.549   2.368  16.318 -0.1289  0.6499  0.2371
  562TMC3    C5 8337   2.450   2.380  16.227 -0.1829 -0.9049  0.4948
  562TMC3    C6 8338   2.401   2.504  16.187  0.8974  0.5441 -0.4916
  562TMC3     C 8339   2.694   2.481  16.472 -0.0782 -0.4184 -0.0543
  562TMC3     O 8340   2.782   2.397  16.447 -0.0922 -0.9541  0.3585
  562TMC3     H 8341   2.589   2.694  16.391  0.6949 -0.4523 -1.1312
  562TMC3    H1 8342   2.584   2.275  16.361 -0.7053  0.5235  0.4417
  562TMC3    H2 8343   2.308   2.511  16.132 -0.0804  1.2950  1.2807
  562TMC3    C7 8344   2.385   2.268  16.158 -0.4515 -0.2048  0.2308
  562TMC3    C8 8345   2.404   2.747  16.201  0.2646 -0.4637 -0.6477
  562TMC3    O1 8346   2.303   2.304  16.075  0.2178  0.4550  0.7625
  562TMC3    O2 8347   2.430   2.831  16.285 -0.2880  0.4189 -0.3114
  563MPD2     C 8348   4.658   3.706  15.684 -0.8892  0.2379  0.4124
  563MPD2    C1 8349   4.696   3.739  15.813  0.3206  0.6819 -0.2909
  563MPD2    C2 8350   0.092   3.695  15.869 -0.6959  0.5565  0.3975
  563MPD2    C3 8351   0.175   3.625  15.787  0.1652  0.5050  0.1887
  563MPD2    C4 8352   0.147   3.600  15.652 -0.4031  0.1090  0.0820
  563MPD2    C5 8353   0.023   3.632  15.607  0.2215  0.2561  0.0650
  563MPD2     H 8354   0.110   3.704  15.975  0.3879 -1.5003  0.3780
  563MPD2    H1 8355   0.208   3.538  15.588  2.3736 -0.8183  3.6752
  563MPD2    H2 8356   4.565   3.733  15.635  0.1417 -1.5801 -2.5427
  563MPD2    H3 8357   4.725   3.602  15.506 -2.0459  1.0189  0.3437
  563MPD2     N 8358   0.294   3.576  15.851  0.1760  0.0963  0.1768
  563MPD2    H5 8359   0.304   3.596  15.950  0.6252 -2.6576  0.7004
  563MPD2    N1 8360   4.594   3.802  15.897 -0.1286  0.4292  0.1319
  563MPD2    H7 8361   4.498   3.795  15.867 -1.2373 -0.1127  3.7661
  564TMC3    C1 8362   4.535   3.847  16.127  0.5127  0.4517 -0.0533
  564TMC3    C2 8363   4.419   3.780  16.094 -0.3227  0.4217 -0.0497
  564TMC3    C3 8364   4.376   3.672  16.160  0.2835  0.0867  0.3384
  564TMC3    C4 8365   4.598   3.816  16.240  0.4752  0.3078  0.7720
  564TMC3    C5 8366   4.571   3.690  16.291 -0.3045  0.3127  0.0020
  564TMC3    C6 8367   4.451   3.623  16.269  0.1744  0.4923 -0.0477
  564TMC3     C 8368   4.630   3.861  16.018  0.0473  0.2289 -0.3478
  564TMC3     O 8369   0.011   3.918  16.041  0.0110  0.2003 -0.3870
  564TMC3     H 8370   4.358   3.827  16.018 -1.5396 -0.5490  0.3136
  564TMC3    H1 8371   4.695   3.858  16.261  1.0394 -0.0699 -1.0889
  564TMC3    H2 8372   4.434   3.522  16.305  2.7487 -0.8040 -2.4942
  564TMC3    C7 8373   4.685   3.605  16.264 -0.1387  0.0844  0.5006
  564TMC3    C8 8374   4.309   3.566  16.086 -0.8256 -0.3074  0.6843
  564TMC3    O1 8375   0.071   3.632  16.301 -0.3947  0.1443 -0.4190
  564TMC3    O2 8376   4.281   3.469  16.155 -0.0008  0.5638  0.0406
  565TMC3    C1 8377   0.622   0.247   9.852 -0.0492  0.0152  0.6626
  565TMC3    C2 8378   0.563   0.237   9.980 -0.2063  0.5328  0.3221
  565TMC3    C3 8379   0.513   0.121  10.017 -1.1803  0.2245  0.2625
  565TMC3    C4 8380   0.630   0.139   9.768 -0.7268 -0.0607  0.1362
  565TMC3    C5 8381   0.576   0.027   9.814 -0.1245  0.3004 -0.3785
  565TMC3    C6 8382   0.514   0.015   9.934 -0.1045  0.1656  0.4626
  565TMC3     C 8383   0.663   0.381   9.796 -0.5345 -1.1972 -0.0655
  565TMC3     O 8384   0.685   0.389   9.673 -0.1634 -0.0201  0.2640
  565TMC3     H 8385   0.571   0.318  10.052  0.6960  0.0595  0.7406
  565TMC3    H1 8386   0.667   0.152   9.667 -0.5552  1.0847  0.3451
  565TMC3    H2 8387   0.504   4.643   9.982 -0.7381  0.5505  1.1061
  565TMC3    C7 8388   0.568   4.641   9.718 -0.5027 -0.0255 -0.7821
  565TMC3    C8 8389   0.464   0.114  10.154 -0.2635 -0.0967  0.3882
  565TMC3    O1 8390   0.600   4.661   9.602 -0.2595 -0.1941 -0.2029
  565TMC3    O2 8391   0.480   0.217  10.217  0.1393 -0.2671  0.1987
  566MPD2     C 8392   1.663   2.091  14.224  0.1126  0.2162 -0.2035
  566MPD2    C1 8393   1.712   2.169  14.125 -0.1018 -0.3289 -0.3073
  566MPD2    C2 8394   1.637   2.179  14.011  0.7280 -0.3141  0.2668
  566MPD2    C3 8395   1.524   2.104  13.985 -0.7174  0.7168  0.6261
  566MPD2    C4 8396   1.486   2.014  14.080 -1.1507  0.0798  0.0587
  566MPD2    C5 8397   1.561   2.007  14.196 -0.4432  0.0257  0.0430
  566MPD2     H 8398   1.669   2.256  13.942  0.7997 -0.3292  0.2822
  566MPD2    H1 8399   1.405   1.945  14.059 -0.3262 -1.2558  1.2172
  566MPD2    H2 8400   1.711   2.100  14.321 -0.1023  2.1927 -0.2837
  566MPD2    H3 8401   1.516   1.936  14.264  0.0725 -0.2104  0.1412
  566MPD2     N 8402   1.456   2.097  13.857 -0.3204  0.1765  0.1880
  566MPD2    H5 8403   1.373   2.041  13.842 -0.6475  0.7534 -0.1582
  566MPD2    N1 8404   1.832   2.244  14.146 -0.1415 -0.3593  0.1666
  566MPD2    H7 8405   1.874   2.246  14.238  2.3881 -3.0274 -0.9031
  567TMC3    C1 8406   2.030   2.366  14.094  0.0598 -0.4655 -0.4383
  567TMC3    C2 8407   2.083   2.475  14.028  0.4376  0.0979  0.3705
  567TMC3    C3 8408   2.216   2.489  14.050 -0.1022 -0.2516  0.3640
  567TMC3    C4 8409   2.093   2.305  14.200  0.6674 -0.0497 -0.3324
  567TMC3    C5 8410   2.226   2.325  14.212  0.2285 -0.5518 -0.3145
  567TMC3    C6 8411   2.292   2.418  14.143 -0.7027 -1.1341 -0.0707
  567TMC3     C 8412   1.899   2.315  14.050 -0.2013 -0.0123  0.8883
  567TMC3     O 8413   1.883   2.322  13.928  0.1856  0.2655 -0.2125
  567TMC3     H 8414   2.025   2.516  13.946 -0.7752 -2.1249  0.1153
  567TMC3    H1 8415   2.052   2.212  14.239  4.4295 -0.6289  2.2033
  567TMC3    H2 8416   2.399   2.411  14.135 -0.4760  0.0510  1.9516
  567TMC3    C7 8417   2.312   2.237  14.296  1.1505 -0.5546  0.0905
  567TMC3    C8 8418   2.291   2.555  13.952  0.3134 -0.8207 -0.1139
  567TMC3    O1 8419   2.434   2.252  14.287  0.0198  0.2792 -0.0535
  567TMC3    O2 8420   2.269   2.520  13.839 -0.1974  0.2138  0.3871
  568MPD2     C 8421   4.357   2.136  16.131 -0.8175  0.4593 -0.4621
  568MPD2    C1 8422   4.390   2.217  16.239  0.1978 -0.1556  0.5945
  568MPD2    C2 8423   4.395   2.354  16.227 -0.5417  0.2646  0.2551
  568MPD2    C3 8424   4.389   2.408  16.099 -0.4212 -0.3156 -0.4177
  568MPD2    C4 8425   4.354   2.333  15.993 -0.2573  0.3210  0.1171
  568MPD2    C5 8426   4.333   2.198  16.012 -0.5224 -0.1392  0.6511
  568MPD2     H 8427   4.410   2.414  16.316 -2.1546  0.4012  0.4341
  568MPD2    H1 8428   4.328   2.372  15.895  3.6635 -0.9391 -1.4354
  568MPD2    H2 8429   4.358   2.029  16.146  1.6797  0.4993 -0.3906
  568MPD2    H3 8430   4.295   2.141  15.928 -0.9504  0.1261  0.6658
  568MPD2     N 8431   4.419   2.548  16.077 -0.2061 -0.1713 -0.1003
  568MPD2    H5 8432   4.455   2.606  16.152  1.1530 -1.4904  0.2597
  568MPD2    N1 8433   4.433   2.149  16.352  0.1759 -0.0930  0.1530
  568MPD2    H7 8434   4.431   2.047  16.344 -0.0150 -0.0241 -0.7656
  569TMC3    C1 8435   4.437   2.756  15.979 -0.3717 -0.3138 -0.5765
  569TMC3    C2 8436   4.459   2.803  16.107  0.6697 -0.3675 -0.5141
  569TMC3    C3 8437   4.545   2.899  16.134  0.1979  0.0756  1.0100
  569TMC3    C4 8438   4.509   2.817  15.877  0.4463 -0.3589 -0.0126
  569TMC3    C5 8439   4.595   2.922  15.905  0.0379  0.4488  0.1374
  569TMC3    C6 8440   4.614   2.966  16.032 -0.3550 -0.2441 -0.2839
  569TMC3     C 8441   4.416   2.617  15.959  0.6058 -0.5321 -0.1581
  569TMC3     O 8442   4.416   2.570  15.843  0.5671  0.6541 -0.1003
  569TMC3     H 8443   4.402   2.766  16.192 -1.1611  2.8349 -0.3319
  569TMC3    H1 8444   4.500   2.788  15.773  2.0050  0.1897 -0.3124
  569TMC3    H2 8445   4.679   3.051  16.044  0.6473 -1.0858  0.2253
  569TMC3    C7 8446   4.575   3.029  15.810 -0.2468 -0.8522 -0.1378
  569TMC3    C8 8447   4.488   2.994  16.228 -0.6196 -0.6327  0.8438
  569TMC3    O1 8448   4.569   2.999  15.688  0.8749  0.3110 -0.5875
  569TMC3    O2 8449   4.372   2.983  16.244 -0.4370  0.6270  0.0591
  570TMC3    C1 8450   3.512   1.197  15.967 -0.6355 -0.7390  0.1189
  570TMC3    C2 8451   3.620   1.211  15.882 -0.7285 -0.3592  0.0297
  570TMC3    C3 8452   3.701   1.323  15.884 -0.4874 -0.1762  0.4711
  570TMC3    C4 8453   3.484   1.297  16.065 -0.5169 -0.0824  0.0345
  570TMC3    C5 8454   3.554   1.416  16.051 -0.8159  0.1552 -0.2531
  570TMC3    C6 8455   3.660   1.430  15.960  0.6307 -0.1556  0.1421
  570TMC3     C 8456   3.495   1.057  16.001  0.6694  0.2292  0.3320
  570TMC3     O 8457   3.508   0.972  15.914  0.3723  0.2399  0.3465
  570TMC3     H 8458   3.644   1.133  15.811 -3.3307  1.1287 -2.4879
  570TMC3    H1 8459   3.404   1.282  16.137  0.1297  0.6688  0.9125
  570TMC3    H2 8460   3.725   1.515  15.977 -0.7734  0.5368  1.9833
  570TMC3    C7 8461   3.526   1.528  16.139 -0.6430 -0.0520  0.6923
  570TMC3    C8 8462   3.835   1.326  15.831 -0.6188 -0.9619 -0.5763
  570TMC3    O1 8463   3.448   1.508  16.235 -0.1262 -0.0273  0.0776
  570TMC3    O2 8464   3.899   1.424  15.854  0.0226  0.0918 -0.4121
  571MPD2     C 8465   1.958   2.718  17.499  0.4167  0.2051  0.1780
  571MPD2    C1 8466   1.851   2.791  17.558 -0.5650 -0.2750  0.4263
  571MPD2    C2 8467   1.881   2.872  17.662 -0.0379  0.7548 -0.4227
  571MPD2    C3 8468   2.013   2.888  17.700  0.3248  0.4307 -0.5592
  571MPD2    C4 8469   2.118   2.831  17.631 -0.4354 -0.8501  0.7985
  571MPD2    C5 8470   2.086   2.744  17.533  1.2606 -0.7041  0.2559
  571MPD2     H 8471   1.808   2.940   0.005  1.0196  0.5647  1.5967
  571MPD2    H1 8472   2.220   2.844  17.664 -0.5210  0.7211  0.4325
  571MPD2    H2 8473   1.949   2.638  17.427 -2.2801  0.7386 -0.0968
  571MPD2    H3 8474   2.170   2.699  17.484  2.9988  2.4880  0.2775
  571MPD2     N 8475   2.050   2.969   0.121 -0.6202 -0.3654 -0.0076
  571MPD2    H5 8476   2.149   2.984   0.139 -0.5606  0.8266 -1.3641
  571MPD2    N1 8477   1.718   2.772  17.513  0.2282  0.4912 -0.1515
  571MPD2    H7 8478   1.705   2.691  17.453  0.9121  1.1722 -1.2206
  572TMC3    C1 8479   2.023   3.064   0.336  0.0894 -0.2271 -0.0205
  572TMC3    C2 8480   1.951   3.069   0.458 -0.2126  0.0917  0.0312
  572TMC3    C3 8481   1.996   3.163   0.544 -0.0654  0.1150  0.2292
  572TMC3    C4 8482   2.138   3.138   0.313  0.1230 -0.8574 -0.3048
  572TMC3    C5 8483   2.164   3.235   0.404 -0.0743  0.0052 -0.0210
  572TMC3    C6 8484   2.098   3.253   0.520  0.5538 -0.2670  0.3121
  572TMC3     C 8485   1.958   3.001   0.223  0.4368 -0.0939  0.1601
  572TMC3     O 8486   1.842   2.981   0.234  0.3207 -0.4595  0.4360
  572TMC3     H 8487   1.864   3.006   0.472 -0.8573  0.9254 -0.2547
  572TMC3    H1 8488   2.208   3.111   0.234 -0.7471 -2.3966 -0.5600
  572TMC3    H2 8489   2.147   3.322   0.588 -1.0273  1.6934 -0.5331
  572TMC3    C7 8490   2.217   3.351   0.349  0.6966  0.4141 -0.4009
  572TMC3    C8 8491   1.940   3.173   0.675 -0.3403 -0.4759  0.1907
  572TMC3    O1 8492   2.165   3.459   0.380 -0.6332 -0.3779  0.0584
  572TMC3    O2 8493   1.964   3.278   0.733 -0.6448 -0.3514 -0.1264
  573MPD2     C 8494   2.886   3.497   0.878 -0.5792 -0.0219  0.1890
  573MPD2    C1 8495   2.985   3.588   0.860 -0.1033 -1.5653  0.3626
  573MPD2    C2 8496   3.031   3.619   0.728 -0.1750 -0.3191 -0.2798
  573MPD2    C3 8497   2.988   3.542   0.619  0.9614 -0.2181 -0.0456
  573MPD2    C4 8498   2.895   3.449   0.648  0.1624 -0.1148  0.0879
  573MPD2    C5 8499   2.842   3.427   0.774  0.6720 -0.4642 -0.5535
  573MPD2     H 8500   3.115   3.687   0.719  0.3165 -1.2131 -2.6422
  573MPD2    H1 8501   2.856   3.400   0.560  1.2961 -0.6357 -0.1244
  573MPD2    H2 8502   2.851   3.471   0.977  1.6393 -1.1204  0.6731
  573MPD2    H3 8503   2.758   3.358   0.778 -1.0160  1.5288 -1.3291
  573MPD2     N 8504   3.052   3.558   0.488 -0.2547 -0.2697  0.0418
  573MPD2    H5 8505   3.030   3.486   0.420 -0.4866 -0.1883  0.0303
  573MPD2    N1 8506   3.030   3.667   0.969 -0.1772 -0.2131  0.3735
  573MPD2    H7 8507   2.971   3.675   1.051  0.7746  1.9512  0.8598
  574TMC3    C1 8508   3.200   3.634   0.324 -0.7709 -0.1676  0.3442
  574TMC3    C2 8509   3.127   3.568   0.231 -1.1571  0.5811 -0.6512
  574TMC3    C3 8510   3.156   3.599   0.100  0.3738  0.0413  0.2076
  574TMC3    C4 8511   3.298   3.725   0.296 -0.4347 -0.0617  0.0486
  574TMC3    C5 8512   3.313   3.755   0.162  0.3417 -0.8837 -0.7371
  574TMC3    C6 8513   3.251   3.686   0.065  0.8791 -0.2900  0.2855
  574TMC3     C 8514   3.146   3.654   0.460  0.0175  0.6147 -0.1763
  574TMC3     O 8515   3.180   3.755   0.517 -0.2633 -0.3903  0.0003
  574TMC3     H 8516   3.042   3.502   0.246 -0.7256  0.1580 -0.0555
  574TMC3    H1 8517   3.348   3.776   0.377 -1.4678 -0.2173  0.7911
  574TMC3    H2 8518   3.281   3.693  17.663  0.7098  3.1245  0.4639
  574TMC3    C7 8519   3.400   3.854   0.125  0.2320 -0.1362 -0.1241
  574TMC3    C8 8520   3.064   3.534   0.007  0.1122 -0.5689 -0.3783
  574TMC3    O1 8521   3.477   3.898   0.206  0.4586  0.0559  0.0778
  574TMC3    O2 8522   3.017   3.424   0.030 -0.0813 -0.0397 -0.9024
  575TMC3    C1 8523   0.629   0.315  10.946 -0.4956 -0.5364  0.0038
  575TMC3    C2 8524   0.580   0.261  11.064 -0.0216  0.0609 -0.3252
  575TMC3    C3 8525   0.487   0.165  11.048  0.3352 -0.0189  0.6652
  575TMC3    C4 8526   0.600   0.275  10.822 -0.1476 -1.1956 -0.0042
  575TMC3    C5 8527   0.512   0.179  10.808 -0.1227  0.2765 -0.2044
  575TMC3    C6 8528   0.443   0.132  10.918 -0.4647  0.3997  0.2312
  575TMC3     C 8529   0.741   0.405  10.966 -0.4043  0.9857  0.9097
  575TMC3     O 8530   0.828   0.408  10.880 -0.0876 -0.0265 -0.1910
  575TMC3     H 8531   0.609   0.275  11.167 -0.8196  2.2652 -0.3829
  575TMC3    H1 8532   0.654   0.319  10.739 -0.9826  1.1593  0.6897
  575TMC3    H2 8533   0.363   0.060  10.902 -0.0675 -0.0988  0.4728
  575TMC3    C7 8534   0.475   0.154  10.669  0.0006  0.3506  0.8466
  575TMC3    C8 8535   0.427   0.106  11.170 -0.2834 -1.0326 -0.6198
  575TMC3    O1 8536   0.508   0.229  10.580  0.1968 -0.8518 -0.2042
  575TMC3    O2 8537   0.412   0.182  11.261  0.3197  0.3701 -0.2363
  576MPD2     C 8538   0.221   1.640  12.468 -0.5100  0.2527  0.8630
  576MPD2    C1 8539   0.251   1.731  12.374 -0.1914 -0.2934 -0.1945
  576MPD2    C2 8540   0.172   1.840  12.353 -0.4954 -0.1678 -1.2028
  576MPD2    C3 8541   0.061   1.871  12.429  0.3810 -0.3647  0.6253
  576MPD2    C4 8542   0.026   1.782  12.527 -0.3335 -0.1268  0.5387
  576MPD2    C5 8543   0.109   1.669  12.550 -0.3556  0.0441  0.0054
  576MPD2     H 8544   0.189   1.906  12.269  0.6093  0.7087 -0.2886
  576MPD2    H1 8545   4.663   1.794  12.589  0.0417 -0.6820  1.1708
  576MPD2    H2 8546   0.276   1.549  12.486  0.6992  1.0510  1.2137
  576MPD2    H3 8547   0.073   1.607  12.631  0.1771  0.2783  0.4226
  576MPD2     N 8548   4.712   1.989  12.406 -0.3644 -0.5232 -0.2300
  576MPD2    H5 8549   0.023   2.046  12.330 -1.8704 -2.4829 -2.4158
  576MPD2    N1 8550   0.356   1.709  12.276  0.3979 -0.1804 -0.2788
  576MPD2    H7 8551   0.372   1.784  12.209  0.5042  0.2350  0.2106
  577TMC3    C1 8552   0.520   1.583  12.157  0.5610 -0.1505 -0.4613
  577TMC3    C2 8553   0.545   1.460  12.095  0.3005 -0.0456  0.0614
  577TMC3    C3 8554   0.616   1.463  11.979 -0.4372 -0.2611  0.8694
  577TMC3    C4 8555   0.561   1.702  12.113 -0.0400 -0.5354 -0.0568
  577TMC3    C5 8556   0.640   1.700  12.006  0.1073 -0.6999  0.9670
  577TMC3    C6 8557   0.662   1.586  11.934 -0.6019  1.2203  0.4424
  577TMC3     C 8558   0.416   1.584  12.259 -0.3292 -0.2085  1.0584
  577TMC3     O 8559   0.416   1.483  12.328  0.4051 -0.0436  0.1250
  577TMC3     H 8560   0.500   1.371  12.138 -0.3773  0.3180  0.1116
  577TMC3    H1 8561   0.528   1.794  12.160 -0.8196 -0.7876 -0.1172
  577TMC3    H2 8562   0.713   1.599  11.839  1.6880  2.5490  1.8728
  577TMC3    C7 8563   0.611   1.818  11.921  0.1949 -0.5398 -0.0748
  577TMC3    C8 8564   0.648   1.342  11.902  0.1718  0.0740 -0.1034
  577TMC3    O1 8565   0.629   1.801  11.800 -0.2448  0.2038 -0.2885
  577TMC3    O2 8566   0.597   1.239  11.950  0.2231 -0.2171 -0.3383
  578MPD2     C 8567   2.929   1.752   0.199  0.2961  0.5971  0.0900
  578MPD2    C1 8568   3.046   1.690   0.169  0.6665  0.4206 -1.1596
  578MPD2    C2 8569   3.133   1.662   0.274 -0.2495 -0.2485  0.1640
  578MPD2    C3 8570   3.104   1.695   0.408  0.5312 -0.5119 -0.1905
  578MPD2    C4 8571   2.978   1.745   0.432  0.4693  0.0100  0.3750
  578MPD2    C5 8572   2.896   1.782   0.330 -0.3503 -0.3555  0.0145
  578MPD2     H 8573   3.227   1.615   0.249  0.8263  0.5760  2.6430
  578MPD2    H1 8574   2.940   1.753   0.533 -0.0590  0.2325  0.1573
  578MPD2    H2 8575   2.861   1.769   0.117 -0.3621  0.1315  0.5337
  578MPD2    H3 8576   2.793   1.807   0.354  0.3149  2.1835  0.2099
  578MPD2     N 8577   3.195   1.663   0.509 -0.5265 -0.3130 -0.0191
  578MPD2    H5 8578   3.275   1.615   0.469  0.4163 -0.1895  1.7245
  578MPD2    N1 8579   3.068   1.658   0.032  0.5408 -0.4679  0.2634
  578MPD2    H7 8580   3.014   1.713  17.669 -0.6133 -0.9720  0.7951
  579TMC3    C1 8581   3.271   1.637   0.723 -0.1253 -0.3978  0.1578
  579TMC3    C2 8582   3.353   1.704   0.810  0.2847 -0.6284 -0.3402
  579TMC3    C3 8583   3.477   1.652   0.833 -0.6203 -0.5430 -0.0316
  579TMC3    C4 8584   3.295   1.510   0.679  0.3603  0.3012 -1.5008
  579TMC3    C5 8585   3.411   1.449   0.721 -0.1088  0.3932  0.4626
  579TMC3    C6 8586   3.496   1.523   0.794 -0.4469  0.4394  0.4515
  579TMC3     C 8587   3.187   1.712   0.633  0.0107  0.3669  0.9858
  579TMC3     O 8588   3.124   1.815   0.673 -0.1468  0.2423  0.1722
  579TMC3     H 8589   3.324   1.805   0.837  0.4334 -0.1309 -2.0255
  579TMC3    H1 8590   3.223   1.453   0.621  0.0680  0.4416 -1.2788
  579TMC3    H2 8591   3.592   1.478   0.819 -0.8471  0.8459  2.7150
  579TMC3    C7 8592   3.452   1.311   0.677 -0.2040  0.2110 -0.2483
  579TMC3    C8 8593   3.592   1.736   0.855 -0.3041 -0.0482 -0.3661
  579TMC3    O1 8594   3.573   1.293   0.668 -0.1221  0.3025 -0.5713
  579TMC3    O2 8595   3.574   1.838   0.916  0.3671 -0.0661  0.0914
  580TMC3    C1 8596   2.306   0.578  11.987  0.0000  0.3947  0.5102
  580TMC3    C2 8597   2.354   0.516  11.873  0.2533 -0.2680  0.4473
  580TMC3    C3 8598   2.379   0.385  11.882 -0.9292 -0.3718 -0.6323
  580TMC3    C4 8599   2.286   0.508  12.104  0.3764  0.2449  0.0386
  580TMC3    C5 8600   2.285   0.366  12.102  0.1068 -0.1942  0.0966
  580TMC3    C6 8601   2.335   0.304  11.988  0.8590 -0.4438  0.9354
  580TMC3     C 8602   2.316   0.722  12.001  1.0527  0.2140  0.6817
  580TMC3     O 8603   2.324   0.766  12.110  0.5085  0.7577  0.4814
  580TMC3     H 8604   2.383   0.570  11.783 -2.4869  1.3761  0.5569
  580TMC3    H1 8605   2.249   0.556  12.194  2.3553  1.2085  0.3281
  580TMC3    H2 8606   2.368   0.201  11.984  0.3573 -0.5153 -1.7412
  580TMC3    C7 8607   2.288   0.289  12.230  0.3082 -0.2200  0.1155
  580TMC3    C8 8608   2.457   0.315  11.778  0.2758  0.2916 -0.2066
  580TMC3    O1 8609   2.330   0.347  12.329 -0.2094 -0.0114  0.3062
  580TMC3    O2 8610   2.441   0.195  11.760  0.3312  0.3789 -0.6046
  581MPD2     C 8611   1.236   4.666  14.694 -0.6363 -0.0461 -0.0113
  581MPD2    C1 8612   1.105   4.679  14.730  0.2468 -0.0049 -0.0489
  581MPD2    C2 8613   1.029   0.051  14.671  0.4514 -0.3465  0.8816
  581MPD2    C3 8614   1.090   0.142  14.590 -0.2470 -0.6642 -0.6043
  581MPD2    C4 8615   1.226   0.130  14.560 -0.1313 -0.2615  0.3576
  581MPD2    C5 8616   1.294   0.029  14.617  0.0073 -0.2217 -0.0843
  581MPD2     H 8617   0.921   0.053  14.675  0.3809 -1.3073 -0.4377
  581MPD2    H1 8618   1.280   0.191  14.488  0.8054 -0.1557  1.1491
  581MPD2    H2 8619   1.300   4.586  14.729 -0.1212  1.0584  1.5734
  581MPD2    H3 8620   1.403   0.033  14.611 -0.0537 -0.1583 -1.2548
  581MPD2     N 8621   1.001   0.236  14.524 -0.1818 -0.2075 -0.3185
  581MPD2    H5 8622   0.904   0.228  14.553 -0.3722  1.1982 -0.5805
  581MPD2    N1 8623   1.053   4.581  14.827 -0.1877  0.0573  1.0057
  581MPD2    H7 8624   1.117   4.508  14.855 -0.8751 -1.5595 -1.6584
  582TMC3    C1 8625   0.921   4.466  14.970  0.2446 -0.8596 -0.0355
  582TMC3    C2 8626   1.027   4.423  15.050 -0.1086 -0.5530  0.0785
  582TMC3    C3 8627   0.998   4.348  15.161 -0.5420 -0.4150 -0.6106
  582TMC3    C4 8628   0.793   4.422  15.001 -0.0197 -0.1055  0.1788
  582TMC3    C5 8629   0.769   4.330  15.104  0.5916 -0.1403  0.0415
  582TMC3    C6 8630   0.877   4.296  15.184  0.0957  0.4744 -0.2239
  582TMC3     C 8631   0.928   4.575  14.880  0.3204 -0.0304 -0.1076
  582TMC3     O 8632   0.837   4.656  14.869 -0.7093 -0.3367 -0.1917
  582TMC3     H 8633   1.124   4.468  15.027 -0.3211 -0.1351 -0.0065
  582TMC3    H1 8634   0.714   4.450  14.933  0.6592 -0.5284 -0.7842
  582TMC3    H2 8635   0.886   4.226  15.267  0.8962 -0.9811 -1.5596
  582TMC3    C7 8636   0.629   4.310  15.153  0.3314  0.3236 -0.4259
  582TMC3    C8 8637   1.100   4.350  15.263 -0.1809  0.1825 -0.2193
  582TMC3    O1 8638   0.609   4.207  15.213  0.5850 -0.3750 -0.0387
  582TMC3    O2 8639   1.214   4.332  15.225 -0.0865 -0.1689  0.1284
  583MPD2     C 8640   0.779   2.029  16.602  0.7882  0.0222  0.1161
  583MPD2    C1 8641   0.774   2.151  16.547 -1.1773 -0.2065 -0.6044
  583MPD2    C2 8642   0.732   2.257  16.624  0.0673  0.0553 -0.2674
  583MPD2    C3 8643   0.714   2.238  16.760  0.0083 -0.2127  0.0679
  583MPD2    C4 8644   0.717   2.110  16.812 -0.0647 -0.5572 -0.3277
  583MPD2    C5 8645   0.750   2.006  16.731  0.2657 -0.2959 -0.7019
  583MPD2     H 8646   0.723   2.357  16.582  1.2871  0.5051  0.5679
  583MPD2    H1 8647   0.699   2.091  16.917  1.7264  0.3112  0.1268
  583MPD2    H2 8648   0.805   1.946  16.537 -1.4469 -1.1677  0.7625
  583MPD2    H3 8649   0.761   1.907  16.772 -0.2742  0.2594  0.8057
  583MPD2     N 8650   0.680   2.356  16.846 -0.3456 -0.0702 -0.0630
  583MPD2    H5 8651   0.658   2.445  16.802 -0.0957  0.1164  0.1900
  583MPD2    N1 8652   0.820   2.175  16.417 -0.0901 -0.1856 -1.0487
  583MPD2    H7 8653   0.828   2.272  16.389  1.1630 -0.0759 -0.2783
  584TMC3    C1 8654   0.633   2.471  17.051  0.7678  0.2907  0.2087
  584TMC3    C2 8655   0.633   2.586  16.978 -0.6123 -0.4841  0.3453
  584TMC3    C3 8656   0.628   2.706  17.046 -0.3842  0.0717  0.1728
  584TMC3    C4 8657   0.609   2.469  17.182 -0.4347 -0.2431  0.1582
  584TMC3    C5 8658   0.602   2.591  17.238 -0.4795 -0.8657  0.3347
  584TMC3    C6 8659   0.615   2.718  17.177 -0.1857  0.0140  0.2507
  584TMC3     C 8660   0.658   2.351  16.981  0.6905  0.1864 -0.4515
  584TMC3     O 8661   0.668   2.253  17.051 -0.5745  0.6482  0.4934
  584TMC3     H 8662   0.642   2.592  16.871  0.0624  0.4396  0.4502
  584TMC3    H1 8663   0.585   2.377  17.233  2.3602 -1.4237 -0.6860
  584TMC3    H2 8664   0.609   2.813  17.229  3.3586 -0.0518  0.7617
  584TMC3    C7 8665   0.563   2.578  17.379  0.5212 -0.0697 -0.0071
  584TMC3    C8 8666   0.715   2.802  16.985 -0.3184 -0.2605 -0.4371
  584TMC3    O1 8667   0.539   2.465  17.419  0.1000 -0.3193 -0.8919
  584TMC3    O2 8668   0.712   2.798  16.862 -0.3337  0.8253  0.1814
  585MPD2     C 8669   4.289   0.488  16.890 -0.2153  0.7395 -0.1222
  585MPD2    C1 8670   4.374   0.516  16.995 -0.5793 -0.0347 -0.0395
  585MPD2    C2 8671   4.465   0.415  17.026 -1.1249 -0.4237  0.3955
  585MPD2    C3 8672   4.470   0.292  16.967 -0.5300 -0.4546 -0.2987
  585MPD2    C4 8673   4.387   0.267  16.863 -0.0662 -0.2195 -0.1933
  585MPD2    C5 8674   4.294   0.363  16.827  0.2118  0.8596  0.1603
  585MPD2     H 8675   4.524   0.426  17.116  1.4335 -0.4295 -1.2634
  585MPD2    H1 8676   4.397   0.178  16.803  0.2895 -0.7614  0.6777
  585MPD2    H2 8677   4.227   0.565  16.845  0.0487  0.5999 -0.7340
  585MPD2    H3 8678   4.234   0.350  16.737  0.4965  0.4840  0.0230
  585MPD2     N 8679   4.566   0.196  17.001 -0.6167 -0.0457 -0.4949
  585MPD2    H5 8680   4.552   0.107  16.954  2.1826 -1.1951  0.8141
  585MPD2    N1 8681   4.380   0.650  17.045  0.4894  0.4978 -0.2865
  585MPD2    H7 8682   4.314   0.721  17.016 -0.4685  0.6622  2.3191
  586TMC3    C1 8683   0.009   0.093  17.123  0.4148 -0.0901 -0.4077
  586TMC3    C2 8684   0.139   0.100  17.162  0.1322 -0.2154  0.4817
  586TMC3    C3 8685   0.184   4.724  17.239 -0.4322 -0.6194 -0.4650
  586TMC3    C4 8686   4.649   0.004  17.180 -0.0298  0.3257 -0.3452
  586TMC3    C5 8687   4.694   4.640  17.272 -0.4538  0.4382 -0.4940
  586TMC3    C6 8688   0.097   4.630  17.303 -0.0937 -0.1410 -0.1020
  586TMC3     C 8689   4.681   0.221  17.074  0.0384  0.2345 -0.5199
  586TMC3     O 8690   0.008   0.324  17.101  0.0197  0.3829 -0.2983
  586TMC3     H 8691   0.207   0.169  17.112  0.7244  0.3316  2.0324
  586TMC3    H1 8692   4.545   0.005  17.148 -0.3163 -0.6684  0.5563
  586TMC3    H2 8693   0.127   4.536  17.348 -2.6063 -0.9105 -0.0412
  586TMC3    C7 8694   4.594   4.597  17.364 -0.4497  0.0140  0.2826
  586TMC3    C8 8695   0.328   4.700  17.251 -0.5742 -0.3555  0.1426
  586TMC3    O1 8696   4.478   4.598  17.328  0.1934  0.5153 -0.1397
  586TMC3    O2 8697   0.366   4.612  17.328 -0.6706  0.1661  0.7387
  587TMC3    C1 8698   2.536   4.310  15.979 -0.1163 -0.3612 -0.0587
  587TMC3    C2 8699   2.486   4.436  16.005  0.1440  0.1502 -0.3869
  587TMC3    C3 8700   2.566   4.548  15.977 -0.2649  0.4535 -0.3300
  587TMC3    C4 8701   2.653   4.302  15.904 -0.5226 -0.3978  0.6315
  587TMC3    C5 8702   2.726   4.416  15.881  0.1086  0.5116  0.3008
  587TMC3    C6 8703   2.693   4.541  15.921 -0.9548 -0.5774 -0.4251
  587TMC3     C 8704   2.435   4.203  15.965  0.4525  0.2613  0.2648
  587TMC3     O 8705   2.463   4.116  15.884 -0.0175  0.4638  0.4064
  587TMC3     H 8706   2.384   4.447  16.041  0.2356 -1.2263  0.2972
  587TMC3    H1 8707   2.671   4.205  15.860 -0.0062 -0.5752  1.2369
  587TMC3    H2 8708   2.762   4.622  15.902 -0.9259 -1.1090 -2.6169
  587TMC3    C7 8709   2.867   4.403  15.847  0.1624  0.5621 -0.2298
  587TMC3    C8 8710   2.504   4.680  15.954 -0.4001 -0.5928 -0.1744
  587TMC3    O1 8711   2.935   4.502  15.831  0.3914 -0.4204  0.1891
  587TMC3    O2 8712   2.561   0.034  15.882  0.6713  0.2926  0.2446
  588TMC3    C1 8713   4.644   2.302   9.428  0.4722 -0.5787 -0.3771
  588TMC3    C2 8714   4.676   2.174   9.407 -0.0827 -0.4761  0.0238
  588TMC3    C3 8715   0.034   2.112   9.494 -0.6964  0.0012  0.4826
  588TMC3    C4 8716   4.673   2.372   9.542 -0.4444  0.0351  0.8126
  588TMC3    C5 8717   0.028   2.308   9.629  0.0790 -0.4214  0.3419
  588TMC3    C6 8718   0.067   2.175   9.613  0.1913 -0.0673 -0.3136
  588TMC3     C 8719   4.572   2.371   9.327 -0.6046  0.1195  0.0993
  588TMC3     O 8720   4.481   2.309   9.273 -0.4511 -0.4793 -0.6702
  588TMC3     H 8721   4.634   2.117   9.325 -1.3659  1.2299 -0.5167
  588TMC3    H1 8722   4.646   2.476   9.557 -3.2614 -0.7182  0.9987
  588TMC3    H2 8723   0.131   2.121   9.682  2.0047  1.4284 -0.8182
  588TMC3    C7 8724   0.075   2.369   9.755 -0.0620 -0.7294  0.4192
  588TMC3    C8 8725   0.047   1.968   9.492  0.1262 -0.5107  0.4511
  588TMC3    O1 8726   0.102   2.297   9.848  0.9330 -0.0140  0.1206
  588TMC3    O2 8727   0.014   1.920   9.382 -0.0052  0.2939  0.6316
  589TMC3    C1 8728   3.352   4.672   0.863  0.9101  0.3132  0.4529
  589TMC3    C2 8729   3.412   0.064   0.914 -0.6487 -0.6292 -0.3313
  589TMC3    C3 8730   3.539   0.057   0.956  0.2380 -0.8558  0.9394
  589TMC3    C4 8731   3.425   4.555   0.840 -1.0349  0.2660  0.2106
  589TMC3    C5 8732   3.555   4.556   0.879 -0.4078 -0.3612  0.0056
  589TMC3    C6 8733   3.611   4.666   0.942  0.3758 -0.6100 -0.1648
  589TMC3     C 8734   3.220   4.645   0.929  0.6226 -0.3985  0.7006
  589TMC3     O 8735   3.209   4.529   0.966  0.1401  0.1339 -0.4470
  589TMC3     H 8736   3.361   0.158   0.935 -0.1991 -0.8242  1.6231
  589TMC3    H1 8737   3.376   4.464   0.808 -0.7688 -0.7630  2.6804
  589TMC3    H2 8738   3.697   4.644   1.003  0.2442 -1.3716 -0.2500
  589TMC3    C7 8739   3.628   4.446   0.839  0.6387  0.5331  0.2287
  589TMC3    C8 8740   3.587   0.169   1.035  0.3764  0.3354 -0.1071
  589TMC3    O1 8741   3.564   4.353   0.791 -0.1288 -0.2299 -0.3113
  589TMC3    O2 8742   3.505   0.250   1.078 -0.0208  0.4582 -0.0079
  590MPD2     C 8743   3.584   2.665  16.371 -0.2642 -0.0162  0.6516
  590MPD2    C1 8744   3.525   2.775  16.302  0.2268 -0.6558 -0.2050
  590MPD2    C2 8745   3.605   2.877  16.266 -0.0832  0.4826 -0.7377
  590MPD2    C3 8746   3.743   2.871  16.285 -0.0754  0.2210  0.1536
  590MPD2    C4 8747   3.800   2.755  16.345  0.0373  0.0786 -0.5976
  590MPD2    C5 8748   3.720   2.658  16.392  0.2290  0.3175 -0.1768
  590MPD2     H 8749   3.563   2.971  16.235 -2.5606  0.6653  3.1467
  590MPD2    H1 8750   3.908   2.745  16.352  0.0343 -0.4631 -1.3416
  590MPD2    H2 8751   3.518   2.587  16.404  1.7667 -1.1155  2.1251
  590MPD2    H3 8752   3.767   2.569  16.434  2.2005  1.9232  1.0409
  590MPD2     N 8753   3.824   2.964  16.215 -0.6800 -0.3387  0.4498
  590MPD2    H5 8754   3.779   3.038  16.162  0.7845  0.2530  0.0310
  590MPD2    N1 8755   3.390   2.772  16.255 -0.4629  0.3371  0.5150
  590MPD2    H7 8756   3.335   2.697  16.295 -0.6107  0.1712 -0.0072
  591TMC3    C1 8757   3.999   3.054  16.087 -0.2953 -0.2656 -0.1408
  591TMC3    C2 8758   4.090   3.022  15.997 -0.6335  0.4669  0.1038
  591TMC3    C3 8759   4.120   3.118  15.898  0.6280  0.2395 -0.8574
  591TMC3    C4 8760   3.924   3.169  16.078 -0.1647  0.4807  0.4468
  591TMC3    C5 8761   3.968   3.263  15.987 -0.1228  0.7919  0.4938
  591TMC3    C6 8762   4.063   3.245  15.897 -0.2733 -0.2517  0.5961
  591TMC3     C 8763   3.959   2.958  16.183  0.0799  0.1124  0.2488
  591TMC3     O 8764   4.042   2.879  16.215 -0.1440  0.0148 -0.6277
  591TMC3     H 8765   4.143   2.927  16.001 -2.2884 -0.5363 -1.7502
  591TMC3    H1 8766   3.856   3.190  16.160 -1.1517 -2.2669  0.3415
  591TMC3    H2 8767   4.079   3.318  15.819  0.9955 -1.3771 -0.1990
  591TMC3    C7 8768   3.915   3.403  16.003 -0.3282 -0.2941 -0.3367
  591TMC3    C8 8769   4.178   3.060  15.783  0.2969  0.1702  0.7057
  591TMC3    O1 8770   3.819   3.414  16.075 -0.0597  0.5589  0.1411
  591TMC3    O2 8771   4.216   2.948  15.799 -0.1166 -0.0045 -1.2718
  592MPD2     C 8772   3.561   0.035  11.345  0.2536 -0.1138  0.2364
  592MPD2    C1 8773   3.583   0.047  11.480  0.0735 -0.1722 -0.3991
  592MPD2    C2 8774   3.513   4.680  11.563 -0.2460  0.2719 -0.0406
  592MPD2    C3 8775   3.436   4.574  11.514  0.2881  0.2285 -0.5132
  592MPD2    C4 8776   3.413   4.577  11.378 -0.3328 -0.3698 -0.1831
  592MPD2    C5 8777   3.467   4.679  11.297 -0.1459 -0.2168 -0.3951
  592MPD2     H 8778   3.522   4.670  11.671 -2.2615 -0.0077  0.1169
  592MPD2    H1 8779   3.360   4.492  11.337 -1.5857  1.7810 -3.0044
  592MPD2    H2 8780   3.613   0.097  11.273 -0.0371  0.2185  0.3102
  592MPD2    H3 8781   3.453   4.673  11.189  0.0949 -0.3226 -0.4183
  592MPD2     N 8782   3.387   4.471  11.597 -0.4187 -0.6217 -0.2235
  592MPD2    H5 8783   3.404   4.490  11.696 -1.0878 -1.4503  0.0541
  592MPD2    N1 8784   3.667   0.147  11.529 -0.4976  0.4390 -0.3114
  592MPD2    H7 8785   3.713   0.205  11.459 -0.0702  0.2573 -0.1819
  593TMC3    C1 8786   3.780   0.301  11.674 -0.2941 -0.1388  0.2525
  593TMC3    C2 8787   3.809   0.338  11.805 -1.1143 -0.1666 -0.5908
  593TMC3    C3 8788   3.915   0.429  11.814 -0.4733 -0.5240 -0.5316
  593TMC3    C4 8789   3.859   0.331  11.567 -0.3565  0.2156 -0.2109
  593TMC3    C5 8790   3.977   0.398  11.584 -0.2017 -0.6469 -1.2334
  593TMC3    C6 8791   3.998   0.458  11.708  0.6978  0.0661 -0.3577
  593TMC3     C 8792   3.688   0.182  11.662  0.2646  0.1107 -0.2630
  593TMC3     O 8793   3.631   0.156  11.766 -0.0002 -0.0904 -0.5026
  593TMC3     H 8794   3.741   0.317  11.887 -0.2817 -0.5270  0.0061
  593TMC3    H1 8795   3.841   0.282  11.471  1.0982 -0.1863 -0.2804
  593TMC3    H2 8796   4.062   0.545  11.718  0.6361 -0.1114  1.5673
  593TMC3    C7 8797   4.058   0.446  11.468  0.9683 -0.7846  0.5580
  593TMC3    C8 8798   3.937   0.488  11.942 -0.3951 -0.8370  0.0905
  593TMC3    O1 8799   4.132   0.533  11.503  0.3690  0.4540  1.0731
  593TMC3    O2 8800   3.844   0.493  12.023  0.0474 -0.5096  0.5959
  594MPD2     C 8801   2.895   3.545  14.736  0.1775 -0.1862  0.1739
  594MPD2    C1 8802   2.821   3.608  14.643 -0.0728  0.4479 -0.5212
  594MPD2    C2 8803   2.865   3.732  14.592 -0.1164  0.1238  0.1390
  594MPD2    C3 8804   2.980   3.793  14.645  0.2789 -0.0670 -0.1196
  594MPD2    C4 8805   3.045   3.726  14.746 -0.2006  0.1226  0.5836
  594MPD2    C5 8806   2.995   3.612  14.796  0.3783  0.1361 -0.0869
  594MPD2     H 8807   2.815   3.783  14.512 -1.1127 -0.0202  0.6733
  594MPD2    H1 8808   3.136   3.761  14.793 -0.7544  1.0756  0.9653
  594MPD2    H2 8809   2.853   3.464  14.794  0.1195 -0.2402  0.0562
  594MPD2    H3 8810   3.049   3.559  14.874  1.1037  0.9649 -0.0263
  594MPD2     N 8811   3.024   3.918  14.584 -0.1910  0.0083 -0.2501
  594MPD2    H5 8812   2.980   3.962  14.504  0.5912 -1.9989 -1.7903
  594MPD2    N1 8813   2.708   3.544  14.605 -0.5334 -0.2972  0.0634
  594MPD2    H7 8814   2.707   3.456  14.656  1.5033 -0.5967 -0.4398
  595TMC3    C1 8815   3.324   4.206  14.393  0.7836 -0.1489 -0.3222
  595TMC3    C2 8816   3.306   4.100  14.481 -0.7444 -0.0208  0.3580
  595TMC3    C3 8817   3.176   4.086  14.516 -0.0212  0.7010  0.3379
  595TMC3    C4 8818   3.230   4.299  14.365 -0.2661 -0.5850  0.2610
  595TMC3    C5 8819   3.109   4.283  14.423  0.3559  0.6733 -0.0650
  595TMC3    C6 8820   3.080   4.169  14.484  0.2564 -0.0763 -0.1059
  595TMC3     C 8821   3.463   4.238  14.366 -0.1029 -0.0786  0.9071
  595TMC3     O 8822   3.486   4.359  14.341 -0.5413  0.9558 -0.2084
  595TMC3     H 8823   3.383   4.027  14.505 -2.4010 -2.1035 -0.5953
  595TMC3    H1 8824   3.250   4.378  14.294 -0.4838 -1.0080 -0.2689
  595TMC3    H2 8825   2.980   4.142  14.518  0.3475  0.5961  0.7027
  595TMC3    C7 8826   3.018   4.391  14.459  0.0839  0.3814  0.6615
  595TMC3    C8 8827   3.154   3.964  14.601  0.5767 -0.1380  0.6005
  595TMC3    O1 8828   2.914   4.357  14.511  0.2196 -0.0561  0.3122
  595TMC3    O2 8829   3.245   3.924  14.672 -0.0157  0.0184 -0.2077
  596MPD2     C 8830   1.552   1.713  16.537  0.0013 -0.4017 -0.7046
  596MPD2    C1 8831   1.582   1.834  16.471  0.5601  0.4503  0.2567
  596MPD2    C2 8832   1.627   1.830  16.343 -1.0058  0.7586  0.0238
  596MPD2    C3 8833   1.624   1.712  16.266 -0.5655 -0.4775 -0.2113
  596MPD2    C4 8834   1.607   1.590  16.330  0.7006 -1.0096 -0.5036
  596MPD2    C5 8835   1.565   1.595  16.463 -0.7664  0.3406 -0.4060
  596MPD2     H 8836   1.661   1.925  16.302  1.0183 -0.3100 -0.7599
  596MPD2    H1 8837   1.607   1.507  16.260 -2.5593 -1.6683  0.2791
  596MPD2    H2 8838   1.527   1.703  16.642 -2.8003 -0.6747 -1.3984
  596MPD2    H3 8839   1.537   1.501  16.509 -0.2035 -0.8340 -2.4937
  596MPD2     N 8840   1.637   1.705  16.127 -0.0182  0.3865  0.0753
  596MPD2    H5 8841   1.630   1.610  16.091 -0.0458  0.0486  0.9616
  596MPD2    N1 8842   1.574   1.960  16.538  0.5922 -0.7599 -0.0069
  596MPD2    H7 8843   1.595   2.035  16.473 -0.9558  1.1317  1.6861
  597TMC3    C1 8844   1.536   2.124  16.701  0.0357  0.2306  0.5334
  597TMC3    C2 8845   1.584   2.215  16.610  0.0193 -0.0251  0.4253
  597TMC3    C3 8846   1.562   2.347  16.637  0.5809  0.3894 -0.2558
  597TMC3    C4 8847   1.449   2.157  16.803 -0.7604 -0.1108 -0.2282
  597TMC3    C5 8848   1.439   2.294  16.829  0.2318 -0.4826  0.5555
  597TMC3    C6 8849   1.492   2.394  16.743  0.1179 -0.2454  0.1175
  597TMC3     C 8850   1.532   1.984  16.668 -0.1354  0.4479  0.1975
  597TMC3     O 8851   1.481   1.908  16.753  0.0623  0.0462  0.1238
  597TMC3     H 8852   1.671   2.175  16.558 -0.4016 -0.8100  0.3289
  597TMC3    H1 8853   1.396   2.096  16.875 -1.5582 -0.6828 -1.3047
  597TMC3    H2 8854   1.463   2.499  16.744 -0.4179 -0.4034  2.4521
  597TMC3    C7 8855   1.354   2.335  16.937  0.5995 -0.1854  0.6809
  597TMC3    C8 8856   1.639   2.454  16.575  0.6232  0.6838 -0.0458
  597TMC3    O1 8857   1.312   2.246  17.012  0.5533  0.5219 -0.2343
  597TMC3    O2 8858   1.638   2.561  16.640  0.0135 -0.5444 -0.5805
  598TMC3    C1 8859   0.198   3.150  15.505 -0.1657 -0.0954 -0.3097
  598TMC3    C2 8860   0.120   3.121  15.400  0.1024  0.1650  0.5035
  598TMC3    C3 8861   0.143   3.182  15.276 -0.1247  0.0195 -0.0170
  598TMC3    C4 8862   0.308   3.223  15.488 -0.1210 -0.2372  0.7998
  598TMC3    C5 8863   0.320   3.288  15.370  0.4944  0.2755  0.7035
  598TMC3    C6 8864   0.241   3.273  15.259 -0.5429 -0.0956 -0.3413
  598TMC3     C 8865   0.199   3.074  15.626 -0.5925  0.0192 -0.1436
  598TMC3     O 8866   0.262   3.127  15.715  0.0193 -0.2117  0.4286
  598TMC3     H 8867   0.050   3.039  15.403  0.3371 -0.0462  0.1947
  598TMC3    H1 8868   0.381   3.244  15.565 -1.5941  0.8839  1.8636
  598TMC3    H2 8869   0.267   3.313  15.162  1.1418  1.3818  0.7363
  598TMC3    C7 8870   0.442   3.361  15.346 -0.1803 -0.1794 -0.3382
  598TMC3    C8 8871   0.061   3.158  15.155 -0.5076 -0.3807  0.1040
  598TMC3    O1 8872   0.539   3.355  15.421  0.6982  0.2873 -0.7333
  598TMC3    O2 8873   0.081   3.233  15.060  0.3904 -0.1268 -0.6695
  599MPD2     C 8874   0.125   0.962  16.083  0.6936  0.2112 -0.2152
  599MPD2    C1 8875   0.066   0.835  16.069  0.0646 -0.8614 -0.2498
  599MPD2    C2 8876   4.654   0.821  16.064 -0.5459  0.5513  0.8730
  599MPD2    C3 8877   4.570   0.937  16.074 -0.7266  0.0748  0.5321
  599MPD2    C4 8878   4.634   1.054  16.082  0.1541  0.1535 -0.4026
  599MPD2    C5 8879   0.042   1.070  16.087 -0.5070  0.3332 -0.3684
  599MPD2     H 8880   4.618   0.719  16.055  1.8411 -0.1094 -1.1280
  599MPD2    H1 8881   4.572   1.143  16.086  1.2966  0.9315 -0.0372
  599MPD2    H2 8882   0.233   0.975  16.082  0.4849  1.9157 -1.0960
  599MPD2    H3 8883   0.096   1.164  16.101  1.7793 -0.9781 -0.3458
  599MPD2     N 8884   4.425   0.940  16.080  1.1260  0.2166 -0.4353
  599MPD2    H5 8885   4.385   1.030  16.104  0.6746 -0.1934  0.3351
  599MPD2    N1 8886   0.151   0.732  16.047  0.0172 -0.0152 -0.2327
  599MPD2    H7 8887   0.250   0.755  16.051  0.0507 -0.4015  1.3737
  600TMC3    C1 8888   4.205   0.855  16.071  0.0267  0.3036 -0.2493
  600TMC3    C2 8889   4.124   0.744  16.060  0.3444 -0.0752 -0.2150
  600TMC3    C3 8890   3.992   0.762  16.055  0.5478 -0.7146 -0.0051
  600TMC3    C4 8891   4.149   0.984  16.076 -0.4486 -0.1901 -0.2259
  600TMC3    C5 8892   4.016   0.993  16.093 -0.6912  0.1198  0.5196
  600TMC3    C6 8893   3.931   0.888  16.069 -0.0540  0.9564 -0.2444
  600TMC3     C 8894   4.348   0.827  16.077 -0.0933 -0.0809 -0.9166
  600TMC3     O 8895   4.380   0.711  16.055 -0.0141 -0.3288 -0.8663
  600TMC3     H 8896   4.158   0.642  16.051  0.8265  0.1578 -1.0017
  600TMC3    H1 8897   4.223   1.063  16.077  0.2756 -0.8683  0.5341
  600TMC3    H2 8898   3.824   0.904  16.081 -0.4139 -1.3597 -0.4335
  600TMC3    C7 8899   3.949   1.121  16.133 -0.2297  0.4744 -0.5663
  600TMC3    C8 8900   3.911   0.640  16.067 -1.0421  0.4996 -0.0367
  600TMC3    O1 8901   3.833   1.110  16.149  0.7221 -0.0232 -0.0183
  600TMC3    O2 8902   3.952   0.557  16.153  0.7340 -0.3587 -0.6880
  601MPD2     C 8903   2.484   3.607  17.696  0.0590 -0.1678 -1.0109
  601MPD2    C1 8904   2.363   3.634   0.048  0.4244  0.4802  0.2221
  601MPD2    C2 8905   2.307   3.549   0.140  0.0250 -0.0901 -0.1988
  601MPD2    C3 8906   2.377   3.434   0.177 -0.7229 -0.0099  0.0922
  601MPD2    C4 8907   2.496   3.402   0.122 -0.7727 -0.4027 -0.3084
  601MPD2    C5 8908   2.543   3.490   0.031  1.2852  0.0692 -0.4757
  601MPD2     H 8909   2.204   3.556   0.172  0.5877  1.6245  1.2351
  601MPD2    H1 8910   2.553   3.316   0.155 -2.8701 -1.7102 -0.0631
  601MPD2    H2 8911   2.525   3.658  17.610  0.7305  1.5644  0.3272
  601MPD2    H3 8912   2.637   3.462  17.688  0.1630 -2.4119 -1.3180
  601MPD2     N 8913   2.322   3.330   0.258 -0.7353  0.4879  0.1427
  601MPD2    H5 8914   2.375   3.243   0.264 -0.3101  0.6140 -1.7383
  601MPD2    N1 8915   2.282   3.737  17.694 -0.7964 -0.7538  0.1011
  601MPD2    H7 8916   2.183   3.723   0.005 -1.1738  1.4863 -0.5856
  602TMC3    C1 8917   2.233   3.935  17.579  0.2011  0.2577 -0.2449
  602TMC3    C2 8918   2.274   4.035  17.493 -0.5409 -0.0104 -0.3340
  602TMC3    C3 8919   2.197   4.097  17.407 -0.3611 -0.1157 -0.2394
  602TMC3    C4 8920   2.099   3.896  17.577  0.5312  0.1400 -0.0139
  602TMC3    C5 8921   2.015   3.960  17.487  0.3120 -0.5694 -0.9343
  602TMC3    C6 8922   2.063   4.068  17.408 -0.2373  0.0147 -0.4519
  602TMC3     C 8923   2.331   3.846  17.630  0.1507 -0.1554 -0.1815
  602TMC3     O 8924   2.445   3.889  17.636  0.0699 -0.3991  0.1733
  602TMC3     H 8925   2.380   4.058  17.491 -0.1286 -1.9631 -1.6533
  602TMC3    H1 8926   2.054   3.823  17.643  0.2518  0.8576  0.5916
  602TMC3    H2 8927   2.006   4.116  17.330 -1.2121 -1.2150 -0.5040
  602TMC3    C7 8928   1.879   3.910  17.470 -0.1685 -0.3226  0.3558
  602TMC3    C8 8929   2.245   4.195  17.307  0.3246 -0.7615 -0.3210
  602TMC3    O1 8930   1.848   3.791  17.501 -0.1855 -0.2248 -0.1183
  602TMC3    O2 8931   2.344   4.151  17.241 -0.5340  0.7766 -0.1040
  603TMC3    C1 8932   4.654   3.989  10.620  0.2503  0.5675 -0.0500
  603TMC3    C2 8933   4.668   4.029  10.746  1.0012  1.0773 -0.0680
  603TMC3    C3 8934   4.669   4.169  10.773  0.0205 -0.6007  0.3408
  603TMC3    C4 8935   4.643   4.079  10.515 -0.2916  0.2241 -0.0070
  603TMC3    C5 8936   4.637   4.210  10.553 -1.0905  0.7772  0.8710
  603TMC3    C6 8937   4.636   4.259  10.680  0.0889  0.0473  0.1291
  603TMC3     C 8938   4.678   3.849  10.598  0.5370 -0.2557 -0.5409
  603TMC3     O 8939   4.637   3.777  10.686 -0.2962  0.4022  0.5095
  603TMC3     H 8940   4.699   3.959  10.822  0.7923 -0.5405 -1.4528
  603TMC3    H1 8941   4.627   4.035  10.417  1.8311  2.2531 -1.2833
  603TMC3    H2 8942   4.658   4.365  10.680 -3.5285  0.7985 -0.1484
  603TMC3    C7 8943   4.637   4.296  10.437  0.0397 -0.1430  0.2824
  603TMC3    C8 8944   4.714   4.215  10.901  0.0102 -0.1327 -0.3478
  603TMC3    O1 8945   4.681   4.246  10.334 -0.0101 -0.0143 -0.2721
  603TMC3    O2 8946   0.051   4.130  10.962 -0.0567 -0.3184 -0.1561
  604MPD2     C 8947   0.901   3.098  16.151 -0.0424  1.2917  0.2395
  604MPD2    C1 8948   0.817   2.992  16.137  0.0730  0.3407 -0.4062
  604MPD2    C2 8949   0.803   2.929  16.016  0.9962  0.5662  0.1119
  604MPD2    C3 8950   0.884   2.968  15.909 -0.1013 -0.5808 -0.6254
  604MPD2    C4 8951   0.968   3.082  15.924  0.0512  0.5156  0.2434
  604MPD2    C5 8952   0.976   3.141  16.044 -0.3766  0.0597 -0.8823
  604MPD2     H 8953   0.735   2.845  16.006  1.7864 -0.3964  2.7903
  604MPD2    H1 8954   1.022   3.130  15.843 -0.9881 -0.8988 -1.2998
  604MPD2    H2 8955   0.919   3.146  16.247  0.1022  0.6610  0.5284
  604MPD2    H3 8956   1.043   3.225  16.059 -0.5635  0.0016  0.2364
  604MPD2     N 8957   0.857   2.911  15.785 -0.1308 -0.7931 -0.0582
  604MPD2    H5 8958   0.779   2.846  15.782 -1.4482  0.7619  0.2749
  604MPD2    N1 8959   0.738   2.960  16.251 -0.3922  0.0295 -0.2286
  604MPD2    H7 8960   0.750   3.009  16.338 -0.3656  0.3235 -0.3990
  605TMC3    C1 8961   0.553   2.920  16.374  0.1864  0.1023 -0.8636
  605TMC3    C2 8962   0.623   2.956  16.481 -0.1986  0.1424 -0.4913
  605TMC3    C3 8963   0.598   3.071  16.557 -0.1068 -0.4961 -0.3174
  605TMC3    C4 8964   0.445   2.993  16.335 -0.5663  0.2494  0.3302
  605TMC3    C5 8965   0.425   3.114  16.405  0.4312 -0.6370  0.1497
  605TMC3    C6 8966   0.493   3.148  16.521  0.4995  1.1751  0.3816
  605TMC3     C 8967   0.625   2.881  16.259 -0.1465  0.1909  0.1189
  605TMC3     O 8968   0.570   2.815  16.170  0.0226  0.1965 -0.1793
  605TMC3     H 8969   0.717   2.906  16.504  0.5400  1.4532 -0.6505
  605TMC3    H1 8970   0.394   2.964  16.245  1.5149 -1.3783 -0.3234
  605TMC3    H2 8971   0.490   3.253  16.546  1.2172  1.0669  0.9204
  605TMC3    C7 8972   0.316   3.194  16.367 -0.1499 -0.3694  0.4002
  605TMC3    C8 8973   0.721   3.132  16.590 -0.4024 -0.1756 -0.1766
  605TMC3    O1 8974   0.277   3.269  16.458 -0.2545  0.5723 -0.4750
  605TMC3    O2 8975   0.812   3.115  16.517 -0.2947  0.9821  0.4336
  606TMC3    C1 8976   1.887   2.581  16.989  0.0149 -0.4159 -0.2958
  606TMC3    C2 8977   1.833   2.572  17.117  0.0187  0.4306  0.0495
  606TMC3    C3 8978   1.774   2.455  17.144  0.6404 -0.1554  0.5380
  606TMC3    C4 8979   1.864   2.480  16.900  0.4744  0.1753 -0.1477
  606TMC3    C5 8980   1.806   2.366  16.937  0.0020  0.7609 -0.1296
  606TMC3    C6 8981   1.767   2.344  17.069 -0.3276 -0.3180  0.7437
  606TMC3     C 8982   2.013   2.640  16.967  0.2267  0.3642  0.2833
  606TMC3     O 8983   2.077   2.603  16.871  0.7349 -0.1041 -0.2059
  606TMC3     H 8984   1.863   2.643  17.193  0.8349 -1.3280  1.3602
  606TMC3    H1 8985   1.895   2.501  16.798  0.1392  4.0015  0.5179
  606TMC3    H2 8986   1.718   2.254  17.104 -1.4643 -1.0866 -2.7979
  606TMC3    C7 8987   1.831   2.248  16.855 -0.4716  0.0727  0.2587
  606TMC3    C8 8988   1.780   2.435  17.291  0.6921  0.3177 -0.1896
  606TMC3    O1 8989   1.877   2.265  16.744 -0.0484 -0.3068 -0.0361
  606TMC3    O2 8990   1.736   2.514  17.369 -0.2643 -0.1190  0.0101
  607MPD2     C 8991   3.944   4.583  11.240 -0.6024  0.5940  0.1495
  607MPD2    C1 8992   4.035   4.642  11.322 -0.1453  1.0033 -0.1906
  607MPD2    C2 8993   4.014   4.651  11.463 -0.3185  0.4469  0.0628
  607MPD2    C3 8994   3.897   4.597  11.520 -0.7024 -0.2942 -0.0602
  607MPD2    C4 8995   3.808   4.537  11.435 -0.0924 -0.4872 -0.1893
  607MPD2    C5 8996   3.830   4.536  11.298  1.1581  0.9358 -0.0039
  607MPD2     H 8997   4.081   4.690  11.539 -0.4532 -0.2198  0.5248
  607MPD2    H1 8998   3.710   4.503  11.467 -0.9566  1.2397 -0.9519
  607MPD2    H2 8999   3.951   4.573  11.133  0.9776  1.9272  0.1333
  607MPD2    H3 9000   3.751   4.490  11.240  2.2757 -1.8004  0.6529
  607MPD2     N 9001   3.876   4.607  11.661  0.2792 -0.1987 -0.2580
  607MPD2    H5 9002   3.915   4.684  11.716  0.6052  0.0358 -0.8234
  607MPD2    N1 9003   4.164   4.686  11.288  0.3701  0.1471  0.4628
  607MPD2    H7 9004   4.218   4.716  11.369  0.4012 -0.0345  0.5097
  608TMC3    C1 9005   4.333   0.085  11.179 -0.2259 -0.4765 -0.2092
  608TMC3    C2 9006   4.342   0.167  11.287  0.0270 -0.5968 -0.4496
  608TMC3    C3 9007   4.455   0.241  11.300 -0.4142 -0.2602  0.2242
  608TMC3    C4 9008   4.432   0.066  11.081 -0.1127 -0.7253 -0.3136
  608TMC3    C5 9009   4.545   0.137  11.108 -0.3439 -0.5315 -0.0219
  608TMC3    C6 9010   4.563   0.219  11.221  0.5386  0.3676 -0.7358
  608TMC3     C 9011   4.215   4.719  11.165 -0.5749  0.0924  0.4446
  608TMC3     O 9012   4.148   4.721  11.061  0.2480  0.0493  0.0889
  608TMC3     H 9013   4.249   0.205  11.328  0.9239  0.5072  0.5691
  608TMC3    H1 9014   4.415   4.720  11.001 -3.2072 -0.2538 -0.0701
  608TMC3    H2 9015   4.652   0.280  11.232  1.9643 -2.1334  1.4222
  608TMC3    C7 9016   4.629   0.151  10.990 -0.0443  0.1812 -0.2169
  608TMC3    C8 9017   4.470   0.323  11.426 -0.2307 -0.3837 -0.0133
  608TMC3    O1 9018   4.589   0.092  10.893  0.0217 -0.1905  0.3570
  608TMC3    O2 9019   4.567   0.394  11.439 -0.2396 -0.3373  0.7361
  609TMC3    C1 9020   2.820   3.262   9.024 -0.1126  0.1291  0.2478
  609TMC3    C2 9021   2.790   3.183   8.912  1.0092  0.0155 -0.1004
  609TMC3    C3 9022   2.895   3.119   8.852 -0.7375  0.3927 -0.1917
  609TMC3    C4 9023   2.934   3.253   9.087 -0.2103  0.6937  0.1297
  609TMC3    C5 9024   3.030   3.182   9.026  0.2488  0.0035  0.2197
  609TMC3    C6 9025   3.021   3.128   8.905  0.5499  0.6662 -0.1096
  609TMC3     C 9026   2.714   3.348   9.089  0.3439  0.3599  0.1996
  609TMC3     O 9027   2.599   3.332   9.061  0.3268 -0.2653 -0.8642
  609TMC3     H 9028   2.689   3.186   8.872 -0.1671 -3.1113  2.5783
  609TMC3    H1 9029   2.959   3.314   9.174  0.6648 -1.3814  1.3311
  609TMC3    H2 9030   3.098   3.079   8.847  0.3505  0.0865  0.1148
  609TMC3    C7 9031   3.154   3.156   9.109  0.6046 -0.3212  0.9696
  609TMC3    C8 9032   2.875   3.077   8.716  0.1040 -0.0664  0.2205
  609TMC3    O1 9033   3.149   3.210   9.221  1.0849 -0.2428 -0.4756
  609TMC3    O2 9034   2.761   3.041   8.683 -0.1412  0.0070  0.4333
  610TMC3    C1 9035   4.288   4.312  12.442 -0.5296 -0.2845 -0.2348
  610TMC3    C2 9036   4.312   4.422  12.363 -0.2990 -0.0920  0.6018
  610TMC3    C3 9037   4.431   4.437  12.304 -0.1024  0.3495 -0.1282
  610TMC3    C4 9038   4.378   4.211  12.439 -0.2610 -0.1624  0.5471
  610TMC3    C5 9039   4.495   4.227  12.375 -0.1636 -0.3416 -0.6011
  610TMC3    C6 9040   4.521   4.337  12.297 -0.6537 -0.6636  0.5346
  610TMC3     C 9041   4.172   4.294  12.532 -0.2510  0.4216 -0.1877
  610TMC3     O 9042   4.142   4.182  12.579 -0.2564  0.1626 -0.1791
  610TMC3     H 9043   4.237   4.500  12.349 -1.0255 -1.0133 -0.5712
  610TMC3    H1 9044   4.366   4.131  12.511 -0.7531  1.0488  1.8113
  610TMC3    H2 9045   4.620   4.337  12.254 -0.9497 -1.4471 -0.1374
  610TMC3    C7 9046   4.615   4.141  12.418 -0.3626  0.3818  0.5818
  610TMC3    C8 9047   4.445   4.565  12.231 -0.3654  0.0316  0.5459
  610TMC3    O1 9048   4.593   4.023  12.437  0.3646  0.4385  0.0077
  610TMC3    O2 9049   4.410   4.665  12.291  0.5210  0.4660 -0.1784
  611MPD2     C 9050   3.537   4.303  10.446  0.0088 -0.5561  0.7486
  611MPD2    C1 9051   3.471   4.408  10.393 -0.0005 -0.2606 -0.1516
  611MPD2    C2 9052   3.538   4.522  10.349  0.6953  0.3646  0.4590
  611MPD2    C3 9053   3.681   4.525  10.364  0.4339 -0.4807  0.3083
  611MPD2    C4 9054   3.741   4.413  10.411 -0.1378  0.5739 -0.4158
  611MPD2    C5 9055   3.674   4.299  10.443  0.2725  0.3311 -0.1470
  611MPD2     H 9056   3.490   4.611  10.309  1.1814 -0.6731 -2.4171
  611MPD2    H1 9057   3.847   4.402  10.424  0.0657  1.7188 -1.0696
  611MPD2    H2 9058   3.492   4.208  10.471 -1.7489 -0.3482 -1.6156
  611MPD2    H3 9059   3.729   4.220  10.493  0.9742  0.0611 -1.3269
  611MPD2     N 9060   3.762   4.628  10.327  0.2585 -0.1509 -0.3280
  611MPD2    H5 9061   3.853   4.623  10.371  0.3068  1.6124 -0.2180
  611MPD2    N1 9062   3.330   4.388  10.382 -0.0769 -0.6210 -0.0254
  611MPD2    H7 9063   3.307   4.290  10.376  1.1538 -0.8262 -1.2891
  612TMC3    C1 9064   3.839   0.108  10.221  1.1003  0.5646 -0.8203
  612TMC3    C2 9065   3.964   0.063  10.248  0.3065 -0.6940 -0.3574
  612TMC3    C3 9066   4.067   0.142  10.205  0.4320 -0.4387 -0.6778
  612TMC3    C4 9067   3.810   0.233  10.169  0.5402 -0.2185  0.6134
  612TMC3    C5 9068   3.916   0.310  10.142  0.3868  0.1184 -0.7095
  612TMC3    C6 9069   4.039   0.263  10.150 -0.3586  0.6791 -0.2069
  612TMC3     C 9070   3.732   0.007  10.237  0.3769  0.4268 -0.2638
  612TMC3     O 9071   3.628   0.028  10.174 -0.1345  0.6820 -0.4161
  612TMC3     H 9072   3.987   4.691  10.291  0.0713 -0.5507  0.0837
  612TMC3    H1 9073   3.712   0.275  10.149  0.2947 -1.2508 -0.3440
  612TMC3    H2 9074   4.117   0.321  10.102  0.2050  0.6678  0.7019
  612TMC3    C7 9075   3.900   0.448  10.095  0.3064 -0.3302 -0.3403
  612TMC3    C8 9076   4.189   0.083  10.161 -0.3061  0.6811 -0.4508
  612TMC3    O1 9077   3.981   0.480  10.006 -0.0851 -0.1153  0.4520
  612TMC3    O2 9078   4.225   0.127  10.051  0.1982  0.1180 -0.6880
  613MPD2     C 9079   2.963   1.917  16.639 -0.0949  0.5262 -0.4447
  613MPD2    C1 9080   2.878   1.924  16.535 -0.5170 -0.5958  0.1486
  613MPD2    C2 9081   2.798   1.816  16.506  0.4859  0.5964 -0.1883
  613MPD2    C3 9082   2.805   1.699  16.578 -0.2994  0.4284  0.3831
  613MPD2    C4 9083   2.891   1.692  16.681 -0.3182  0.0367  0.0784
  613MPD2    C5 9084   2.957   1.804  16.716  0.2785 -0.1451 -0.1851
  613MPD2     H 9085   2.737   1.820  16.416 -1.7173 -1.8449  1.2043
  613MPD2    H1 9086   2.881   1.609  16.750 -2.0592 -0.1923 -0.4431
  613MPD2    H2 9087   3.027   2.003  16.657 -1.2028  1.0192  1.1102
  613MPD2    H3 9088   3.016   1.801  16.807  1.4596 -0.4432 -0.9622
  613MPD2     N 9089   2.737   1.583  16.543 -0.0646 -0.3707 -0.3991
  613MPD2    H5 9090   2.768   1.491  16.572 -1.9758 -0.6349  0.8715
  613MPD2    N1 9091   2.874   2.046  16.458  0.4020  0.0335 -0.9295
  613MPD2    H7 9092   2.962   2.097  16.458  1.1379 -1.2377 -0.3369
  614TMC3    C1 9093   2.831   2.098  16.223  0.3029 -0.1919  0.0557
  614TMC3    C2 9094   2.869   1.976  16.172 -0.0601  0.0256  0.7968
  614TMC3    C3 9095   2.837   1.934  16.046 -0.4042  0.8803 -0.4718
  614TMC3    C4 9096   2.765   2.178  16.136  0.2584 -0.1248  0.0805
  614TMC3    C5 9097   2.737   2.134  16.013  0.0537  0.5633 -0.4993
  614TMC3    C6 9098   2.781   2.015  15.957  0.6628 -0.5372  0.1584
  614TMC3     C 9099   2.779   2.075  16.361  0.0128  0.9097 -0.0832
  614TMC3     O 9100   2.655   2.064  16.373  0.5445 -0.2124  0.5457
  614TMC3     H 9101   2.913   1.907  16.243 -0.4066  0.2316  1.2120
  614TMC3    H1 9102   2.712   2.267  16.167 -1.6277 -1.0865 -0.3288
  614TMC3    H2 9103   2.758   1.977  15.858 -0.4530  0.4513  0.0419
  614TMC3    C7 9104   2.676   2.233  15.927 -0.5150 -0.5882  0.5228
  614TMC3    C8 9105   2.823   1.791  16.029 -0.0334  0.4769  0.3937
  614TMC3    O1 9106   2.649   2.347  15.968 -0.0650  0.2024  0.4328
  614TMC3    O2 9107   2.831   1.728  16.135  0.5151 -0.5554 -0.3089
  615MPD2     C 9108   3.128   3.201  16.050  0.0342  0.1747 -0.6148
  615MPD2    C1 9109   3.005   3.239  16.103 -0.0650 -0.2876 -0.8961
  615MPD2    C2 9110   2.904   3.264  16.014 -0.2160 -0.6186 -0.1815
  615MPD2    C3 9111   2.918   3.256  15.880 -0.1041  0.2179 -0.3009
  615MPD2    C4 9112   3.039   3.215  15.829 -0.2824 -0.5328  1.0587
  615MPD2    C5 9113   3.141   3.186  15.916 -0.2235 -0.3593 -0.8081
  615MPD2     H 9114   2.815   3.301  16.063  0.2665 -0.0492  0.2651
  615MPD2    H1 9115   3.047   3.207  15.721 -0.2138 -1.2341  1.1200
  615MPD2    H2 9116   3.212   3.180  16.114 -2.2605 -1.8227  1.7612
  615MPD2    H3 9117   3.241   3.170  15.878 -0.2802  0.2985 -1.2407
  615MPD2     N 9118   2.812   3.303  15.799  0.0606 -0.1662  0.0221
  615MPD2    H5 9119   2.719   3.318  15.838 -0.4029 -0.1511 -1.0855
  615MPD2    N1 9120   2.970   3.257  16.241  0.0838  0.7925 -0.1618
  615MPD2    H7 9121   2.883   3.304  16.263 -1.6223 -2.6606  0.4325
  616TMC3    C1 9122   2.977   3.223  16.461  0.5071  0.5790  0.5703
  616TMC3    C2 9123   3.056   3.203  16.573 -0.3146 -0.1312  0.0151
  616TMC3    C3 9124   2.990   3.229  16.690 -0.3230  0.0535  0.4057
  616TMC3    C4 9125   2.843   3.266  16.470 -0.3638 -0.5381  0.0953
  616TMC3    C5 9126   2.794   3.295  16.592 -0.8456  0.3488  1.0026
  616TMC3    C6 9127   2.868   3.277  16.702 -0.6023  0.7893 -0.0097
  616TMC3     C 9128   3.048   3.210  16.343  0.3805 -0.1029  0.2475
  616TMC3     O 9129   3.145   3.139  16.338 -0.0032 -0.2196 -0.4516
  616TMC3     H 9130   3.161   3.176  16.569  0.4929  2.7032  1.8805
  616TMC3    H1 9131   2.772   3.290  16.392  0.8799 -0.2954 -0.9630
  616TMC3    H2 9132   2.829   3.285  16.803  0.6368  1.6836  0.4106
  616TMC3    C7 9133   2.660   3.353  16.600  0.1374  0.0398  0.0444
  616TMC3    C8 9134   3.079   3.260  16.796 -0.2156 -1.0438  0.9664
  616TMC3    O1 9135   2.581   3.325  16.513 -0.3081 -0.0471 -0.1985
  616TMC3    O2 9136   3.032   3.230  16.908  0.2636  0.0676  0.0280
  617MPD2     C 9137   0.324   1.434  13.909 -0.2517  0.2978 -0.6548
  617MPD2    C1 9138   0.361   1.351  14.015 -1.0534  0.5588  0.3538
  617MPD2    C2 9139   0.264   1.274  14.081  0.5993  0.2955  0.0345
  617MPD2    C3 9140   0.136   1.272  14.034 -0.4676 -0.4825 -0.4227
  617MPD2    C4 9141   0.103   1.354  13.929  0.0885 -0.1122 -0.5147
  617MPD2    C5 9142   0.198   1.429  13.863  0.2013  0.2819  0.1030
  617MPD2     H 9143   0.277   1.218  14.173 -1.3439 -0.8984 -0.4154
  617MPD2    H1 9144   4.724   1.362  13.901 -0.3711 -0.3748  1.1415
  617MPD2    H2 9145   0.396   1.483  13.844 -0.2331  2.9801  1.3489
  617MPD2    H3 9146   0.156   1.496  13.788 -2.4433  0.0118  1.3144
  617MPD2     N 9147   0.030   1.195  14.069  0.0660 -0.2562  0.4883
  617MPD2    H5 9148   4.673   1.216  14.014  0.1038  1.8011  1.2224
  617MPD2    N1 9149   0.495   1.359  14.051  0.1172  0.2286 -0.5863
  617MPD2    H7 9150   0.561   1.410  13.993  0.1693  0.2747 -0.4865
  618TMC3    C1 9151   0.701   1.321  14.156  0.8747  0.4377  0.0331
  618TMC3    C2 9152   0.791   1.234  14.206  0.1753 -0.5980  0.3411
  618TMC3    C3 9153   0.926   1.259  14.189  0.5818 -0.2881 -0.6452
  618TMC3    C4 9154   0.738   1.443  14.109  0.4923 -0.5637 -0.3637
  618TMC3    C5 9155   0.875   1.465  14.092 -0.1889  0.0844 -0.5952
  618TMC3    C6 9156   0.964   1.373  14.130 -0.3128  0.3620 -0.1654
  618TMC3     C 9157   0.557   1.292  14.150  0.1590 -0.9435 -0.4912
  618TMC3     O 9158   0.514   1.206  14.225 -0.0791 -0.6783  0.0756
  618TMC3     H 9159   0.764   1.135  14.240  1.0854 -0.9436  0.0394
  618TMC3    H1 9160   0.666   1.522  14.086 -0.3093 -0.6091  1.9539
  618TMC3    H2 9161   1.069   1.393  14.116  0.2444 -2.4999 -0.1496
  618TMC3    C7 9162   0.906   1.541  13.970  0.0337  0.4474 -1.0093
  618TMC3    C8 9163   1.013   1.151  14.186 -0.1955 -0.4651 -0.1432
  618TMC3    O1 9164   0.823   1.611  13.915  0.2195  0.3189  0.8140
  618TMC3    O2 9165   1.061   1.108  14.286 -0.3839  0.2156 -0.4728
  619MPD2     C 9166   1.861   2.734  13.881  0.1274 -0.8671  0.5079
  619MPD2    C1 9167   1.795   2.716  13.760 -0.7116  0.3926  0.3588
  619MPD2    C2 9168   1.678   2.644  13.762 -0.0290  0.8981  0.0658
  619MPD2    C3 9169   1.627   2.593  13.887 -0.9419  0.0794 -0.1674
  619MPD2    C4 9170   1.698   2.610  14.001  0.0942 -0.2265  0.1407
  619MPD2    C5 9171   1.815   2.676  13.999 -0.2793 -0.5812 -0.2608
  619MPD2     H 9172   1.623   2.620  13.671 -1.1544 -1.0377  1.2380
  619MPD2    H1 9173   1.673   2.567  14.096  3.4130 -0.6088  0.8391
  619MPD2    H2 9174   1.953   2.791  13.882 -0.3767 -0.0457 -0.9325
  619MPD2    H3 9175   1.875   2.680  14.089  1.4749 -0.4978 -1.4309
  619MPD2     N 9176   1.507   2.531  13.905  0.1041  0.0743  0.5164
  619MPD2    H5 9177   1.472   2.507  13.997 -0.1877 -0.6997  0.2016
  619MPD2    N1 9178   1.835   2.777  13.636 -0.4119 -0.1817  0.4227
  619MPD2    H7 9179   1.788   2.757  13.548 -0.1166  0.5190  0.1007
  620TMC3    C1 9180   1.928   2.940  13.497  0.1827  0.2811 -0.0144
  620TMC3    C2 9181   1.874   2.876  13.387 -0.0049  0.2924 -1.0953
  620TMC3    C3 9182   1.839   2.956  13.281  0.0906 -0.1153  0.1055
  620TMC3    C4 9183   1.937   3.077  13.502  0.4210 -0.1374  0.0654
  620TMC3    C5 9184   1.896   3.150  13.390  0.7218  0.2518  0.3716
  620TMC3    C6 9185   1.851   3.093  13.278  0.5627 -0.1181  0.4452
  620TMC3     C 9186   1.930   2.875  13.628 -0.1993  1.0921  0.1589
  620TMC3     O 9187   1.985   2.938  13.715 -0.2556 -1.3310  0.6723
  620TMC3     H 9188   1.873   2.768  13.375 -1.0266  0.2421 -0.5814
  620TMC3    H1 9189   1.951   3.130  13.595  1.6291 -0.0728 -0.1487
  620TMC3    H2 9190   1.829   3.162  13.197  1.7871  0.8469  0.9362
  620TMC3    C7 9191   1.891   3.289  13.407 -0.0244 -0.1716  0.3575
  620TMC3    C8 9192   1.789   2.893  13.159  0.4240  0.0214 -0.2062
  620TMC3    O1 9193   1.971   3.336  13.485  0.2121  0.2787  0.0320
  620TMC3    O2 9194   1.836   2.931  13.054 -0.3190  0.3597 -0.0107
  621MPD2     C 9195   2.210   2.445   9.956  0.0045 -0.4394 -0.1472
  621MPD2    C1 9196   2.267   2.524   9.855  0.1394 -0.0749  0.6275
  621MPD2    C2 9197   2.389   2.579   9.877  0.0613  0.5487  0.6195
  621MPD2    C3 9198   2.454   2.559   9.999 -0.4652  0.1450  0.0819
  621MPD2    C4 9199   2.402   2.469  10.089 -0.0014  0.9538 -0.2937
  621MPD2    C5 9200   2.278   2.419  10.075 -0.0173  0.0007 -0.0031
  621MPD2     H 9201   2.423   2.644   9.797 -1.7847  1.1444  0.3189
  621MPD2    H1 9202   2.458   2.460  10.182 -2.3654 -2.5557  0.7734
  621MPD2    H2 9203   2.107   2.413   9.963  0.2218 -0.9201  0.9478
  621MPD2    H3 9204   2.234   2.354  10.150  1.8149 -2.1956 -0.8002
  621MPD2     N 9205   2.568   2.641  10.017  0.6219  0.2258 -0.2627
  621MPD2    H5 9206   2.590   2.700   9.937  1.4277 -1.0476 -0.9835
  621MPD2    N1 9207   2.200   2.563   9.734 -0.5421 -0.6919 -0.5187
  621MPD2    H7 9208   2.245   2.623   9.666  0.0013  0.1335  0.5768
  622TMC3    C1 9209   2.019   2.594   9.584 -0.0773  0.6335 -0.2627
  622TMC3    C2 9210   1.887   2.625   9.577  0.4784 -0.2973 -0.6910
  622TMC3    C3 9211   1.821   2.642   9.460 -0.5032  0.1240  0.3023
  622TMC3    C4 9212   2.096   2.587   9.474  0.9635  0.7756  0.9725
  622TMC3    C5 9213   2.031   2.604   9.354 -0.7043  0.1393  0.8787
  622TMC3    C6 9214   1.892   2.622   9.345 -0.5628  0.1457 -0.8260
  622TMC3     C 9215   2.065   2.547   9.713  0.1819 -0.0652  0.7864
  622TMC3     O 9216   1.974   2.519   9.791  0.4251 -0.2511 -0.5343
  622TMC3     H 9217   1.833   2.654   9.666  0.5168 -1.1757 -0.3775
  622TMC3    H1 9218   2.197   2.548   9.473  1.2592  1.5764 -0.6952
  622TMC3    H2 9219   1.837   2.604   9.253 -0.7802 -0.5741 -0.5480
  622TMC3    C7 9220   2.124   2.627   9.237 -0.4797 -0.1781 -0.0212
  622TMC3    C8 9221   1.680   2.603   9.453 -0.1830  1.3084 -0.4739
  622TMC3    O1 9222   2.246   2.607   9.249 -0.1512  0.1266  0.2483
  622TMC3    O2 9223   1.664   2.487   9.413 -0.0856  0.6267  0.4754
  623MPD2     C 9224   1.146   3.549  15.892 -0.1453  0.2478 -0.2320
  623MPD2    C1 9225   1.073   3.517  16.001 -0.9424  0.0191 -0.2180
  623MPD2    C2 9226   1.133   3.532  16.124 -0.3122 -0.2213 -0.1297
  623MPD2    C3 9227   1.270   3.554  16.135 -0.3001 -0.1587  0.3643
  623MPD2    C4 9228   1.340   3.594  16.022  0.0346 -0.7083  0.2530
  623MPD2    C5 9229   1.274   3.592  15.905  1.3191  0.3901 -0.5903
  623MPD2     H 9230   1.075   3.506  16.211 -1.7628  1.6111 -0.5465
  623MPD2    H1 9231   1.442   3.629  16.015  0.4314 -1.8245  0.4424
  623MPD2    H2 9232   1.105   3.540  15.792 -0.6509  1.5059 -0.1283
  623MPD2    H3 9233   1.331   3.595  15.813  2.2044  1.9824  0.0209
  623MPD2     N 9234   1.324   3.549  16.264 -0.1375  0.3211  0.7617
  623MPD2    H5 9235   1.264   3.511  16.337 -2.0825  1.1950 -0.4133
  623MPD2    N1 9236   0.944   3.472  16.002 -0.1793  0.2772  0.1724
  623MPD2    H7 9237   0.902   3.463  16.094  0.7811  1.5353  0.7183
  624TMC3    C1 9238   1.540   3.370  16.526 -0.5424  1.0834 -1.1165
  624TMC3    C2 9239   1.423   3.331  16.588  0.1683  0.4903 -0.3339
  624TMC3    C3 9240   1.330   3.426  16.581  0.5880 -0.3435 -0.0383
  624TMC3    C4 9241   1.563   3.475  16.449 -0.7918 -0.1577  0.6103
  624TMC3    C5 9242   1.463   3.564  16.441 -0.2873 -0.2559 -0.1348
  624TMC3    C6 9243   1.348   3.547  16.520 -0.5233  0.6220  0.0535
  624TMC3     C 9244   1.657   3.290  16.549 -0.0914  0.0191  0.4397
  624TMC3     O 9245   1.764   3.346  16.544 -0.4593  0.5491  0.5090
  624TMC3     H 9246   1.412   3.246  16.654 -0.1082  2.0341  1.6050
  624TMC3    H1 9247   1.656   3.480  16.395 -2.1545  0.6685 -1.6661
  624TMC3    H2 9248   1.262   3.608  16.495 -1.3456 -1.0783 -1.2140
  624TMC3    C7 9249   1.446   3.604  16.303  0.2862  0.2910  0.4783
  624TMC3    C8 9250   1.196   3.388  16.614 -0.2738 -0.2698  0.5518
  624TMC3    O1 9251   1.542   3.651  16.237 -0.3697 -0.4675 -0.3032
  624TMC3    O2 9252   1.182   3.263  16.615 -0.3236 -0.4729  0.1179
  625MPD2     C 9253   1.379   3.920   0.321  0.1263  0.2807  0.1211
  625MPD2    C1 9254   1.456   4.023   0.370 -0.1189  0.2082 -0.2911
  625MPD2    C2 9255   1.559   4.002   0.451 -0.2225  0.0733  0.2969
  625MPD2    C3 9256   1.597   3.873   0.484  0.2670  0.2140 -0.1710
  625MPD2    C4 9257   1.527   3.766   0.435 -0.0525 -0.4559  0.2868
  625MPD2    C5 9258   1.418   3.788   0.353  0.6056 -0.4268  0.4505
  625MPD2     H 9259   1.614   4.084   0.496 -2.6256  2.0054 -0.2767
  625MPD2    H1 9260   1.561   3.665   0.458 -1.2698 -0.6177  1.3712
  625MPD2    H2 9261   1.292   3.937   0.258  0.2509  1.0832  0.1637
  625MPD2    H3 9262   1.371   3.699   0.311  1.7652  0.2324 -2.2253
  625MPD2     N 9263   1.709   3.866   0.557  0.4816  0.0690 -0.3264
  625MPD2    H5 9264   1.756   3.955   0.571  2.0378 -1.1817  2.4676
  625MPD2    N1 9265   1.420   4.154   0.352 -0.2452 -0.2670  0.2908
  625MPD2    H7 9266   1.476   4.218   0.407 -0.8888  0.5875 -0.0465
  626TMC3    C1 9267   1.315   4.347   0.276  0.3372 -0.9506  0.1527
  626TMC3    C2 9268   1.271   4.420   0.168 -0.9967 -0.2664 -1.0331
  626TMC3    C3 9269   1.240   4.556   0.188 -0.2525  0.1241 -0.3592
  626TMC3    C4 9270   1.369   4.412   0.384  0.1031  0.6779  0.3835
  626TMC3    C5 9271   1.361   4.554   0.386  0.6411 -0.1162  0.1182
  626TMC3    C6 9272   1.294   4.628   0.292  0.5321 -0.6987 -0.4240
  626TMC3     C 9273   1.321   4.204   0.269  0.3636 -0.2200  0.7196
  626TMC3     O 9274   1.275   4.145   0.173 -0.5012 -0.1322 -0.0238
  626TMC3     H 9275   1.244   4.367   0.077 -0.7359 -3.6726  0.8540
  626TMC3    H1 9276   1.386   4.372   0.483  1.4766  0.8081  0.1937
  626TMC3    H2 9277   1.297   0.011   0.293  1.3262 -0.7254  1.1984
  626TMC3    C7 9278   1.440   4.613   0.485 -0.2984 -0.2756  0.9198
  626TMC3    C8 9279   1.188   4.640   0.081  0.2494  0.2861  0.0329
  626TMC3    O1 9280   1.549   4.558   0.495  0.7315 -0.2256  0.1400
  626TMC3    O2 9281   1.197   4.589  17.672 -0.3304  0.5924  0.5922
  627MPD2     C 9282   0.567   0.182  13.889  0.0207  0.4596  0.2237
  627MPD2    C1 9283   0.520   0.209  14.015  0.4180 -0.4289 -0.9116
  627MPD2    C2 9284   0.397   0.154  14.049 -0.4318 -0.2979 -0.1902
  627MPD2    C3 9285   0.329   0.066  13.969  0.3029 -0.0452 -0.3555
  627MPD2    C4 9286   0.373   0.046  13.841  0.5549  0.4308  0.1294
  627MPD2    C5 9287   0.490   0.103  13.799  0.2107 -0.8185 -0.3144
  627MPD2     H 9288   0.355   0.183  14.144 -0.8313 -0.6932 -0.2479
  627MPD2    H1 9289   0.319   4.709  13.771  0.7243 -0.7986  1.0833
  627MPD2    H2 9290   0.666   0.210  13.856  0.4630 -1.9521 -0.5635
  627MPD2    H3 9291   0.533   0.080  13.702  0.5596 -0.2795 -0.2806
  627MPD2     N 9292   0.205   0.019  14.014  0.2132  0.5852 -0.9032
  627MPD2    H5 9293   0.165   0.045  14.104 -1.0247  0.2852 -1.3738
  627MPD2    N1 9294   0.591   0.279  14.114  0.2524 -0.2693 -0.2583
  627MPD2    H7 9295   0.543   0.276  14.204 -0.1776  0.9029 -0.4491
  628TMC3    C1 9296   0.756   0.405  14.231  0.5148  1.1521 -0.2008
  628TMC3    C2 9297   0.894   0.393  14.260  0.5634 -0.1580 -0.3808
  628TMC3    C3 9298   0.925   0.411  14.394 -0.1068  0.5957 -0.0251
  628TMC3    C4 9299   0.655   0.431  14.321  0.2218 -0.7881 -0.5473
  628TMC3    C5 9300   0.700   0.445  14.451  0.1452 -0.0235 -0.1741
  628TMC3    C6 9301   0.832   0.432  14.494  0.5311  0.8247 -0.3137
  628TMC3     C 9302   0.710   0.340  14.105  0.5696  0.5757 -0.2532
  628TMC3     O 9303   0.782   0.346  14.008 -0.3451 -0.1663 -0.2807
  628TMC3     H 9304   0.963   0.368  14.180  1.4329 -0.2373  0.3885
  628TMC3    H1 9305   0.561   0.459  14.275  1.1591 -0.4118 -2.2183
  628TMC3    H2 9306   0.864   0.471  14.590 -1.2448 -1.1144  1.0777
  628TMC3    C7 9307   0.604   0.505  14.545 -0.3998 -0.1301  0.5484
  628TMC3    C8 9308   1.039   0.331  14.436 -0.1604 -0.4658  0.2646
  628TMC3    O1 9309   0.644   0.539  14.656  0.0452 -0.2716 -0.2105
  628TMC3    O2 9310   1.143   0.338  14.367 -0.0884 -0.3391  0.0260
  629MPD2     C 9311   3.503   3.478  16.970 -0.4950 -0.7485  0.2262
  629MPD2    C1 9312   3.492   3.503  16.835  0.3638 -0.4195  0.8479
  629MPD2    C2 9313   3.387   3.453  16.768  0.3988 -0.6459  0.1652
  629MPD2    C3 9314   3.289   3.380  16.835  1.1164 -0.2721  0.2157
  629MPD2    C4 9315   3.300   3.362  16.966  0.3389  0.4680 -0.1118
  629MPD2    C5 9316   3.415   3.398  17.036  0.3038  0.1767 -0.6438
  629MPD2     H 9317   3.379   3.470  16.661  0.8135 -2.5169 -0.1776
  629MPD2    H1 9318   3.230   3.302  17.024  0.4778  0.7790  0.3738
  629MPD2    H2 9319   3.586   3.521  17.024  0.3942 -0.2556 -1.5335
  629MPD2    H3 9320   3.428   3.372  17.140  0.2499  1.1298 -0.3954
  629MPD2     N 9321   3.182   3.343  16.758 -0.1034 -0.5114 -0.4585
  629MPD2    H5 9322   3.181   3.368  16.660 -2.2814  1.2460  0.0053
  629MPD2    N1 9323   3.597   3.570  16.773 -0.0550  0.2786  0.2567
  629MPD2    H7 9324   3.683   3.590  16.822  0.0366 -0.0326  0.2195
  630TMC3    C1 9325   3.734   3.662  16.615  0.4059  0.9638  0.1233
  630TMC3    C2 9326   3.731   3.791  16.573 -0.0052  0.8275  0.1377
  630TMC3    C3 9327   3.807   3.882  16.626 -0.8893  0.0769  0.1414
  630TMC3    C4 9328   3.831   3.615  16.698  0.2879 -0.3520 -0.4256
  630TMC3    C5 9329   3.906   3.715  16.762  1.0089 -0.0320 -0.2174
  630TMC3    C6 9330   3.889   3.845  16.722  0.9996 -0.0219  0.1765
  630TMC3     C 9331   3.601   3.614  16.646  0.1642 -0.0657  0.8711
  630TMC3     O 9332   3.519   3.596  16.554  0.3515 -0.1150 -0.3244
  630TMC3     H 9333   3.646   3.823  16.515  0.9748  1.0596 -1.1637
  630TMC3    H1 9334   3.842   3.512  16.729  1.1894  0.1646  0.9894
  630TMC3    H2 9335   3.951   3.919  16.771 -2.9507  2.0580  2.0082
  630TMC3    C7 9336   3.895   3.685  16.903  1.1783  0.3862  0.2094
  630TMC3    C8 9337   3.830   4.008  16.556 -1.3533  0.2280  0.8513
  630TMC3    O1 9338   3.810   3.603  16.930 -0.3913  0.1609 -0.0673
  630TMC3    O2 9339   3.909   4.082  16.608 -0.1228 -0.4035  0.5153
  631MPD2     C 9340   1.826   3.433  15.622 -0.2854 -0.3527 -0.3016
  631MPD2    C1 9341   1.880   3.472  15.500 -0.0447  0.0126  0.1709
  631MPD2    C2 9342   2.008   3.431  15.467  0.7638  0.7784 -0.4606
  631MPD2    C3 9343   2.090   3.373  15.558 -0.1574 -0.2979 -0.4353
  631MPD2    C4 9344   2.045   3.339  15.686 -0.3618 -0.3445 -0.0878
  631MPD2    C5 9345   1.909   3.366  15.717  0.3948 -0.1344  0.1571
  631MPD2     H 9346   2.047   3.452  15.369 -1.7938  0.8029 -1.4746
  631MPD2    H1 9347   2.092   3.280  15.763  1.2403 -0.3540 -1.0646
  631MPD2    H2 9348   1.726   3.460  15.652  0.4745 -2.0244  3.8345
  631MPD2    H3 9349   1.879   3.345  15.819  0.0533 -0.0994  0.0637
  631MPD2     N 9350   2.223   3.344  15.514  0.0983 -0.3318  0.5432
  631MPD2    H5 9351   2.236   3.356  15.415 -0.1908 -0.9192  0.4353
  631MPD2    N1 9352   1.798   3.547  15.414 -0.4820  0.1025 -0.0516
  631MPD2    H7 9353   1.705   3.574  15.444 -0.9982 -1.2092 -0.4280
  632TMC3    C1 9354   1.734   3.700  15.249 -0.7071  0.0572 -0.3473
  632TMC3    C2 9355   1.622   3.737  15.319 -0.0301  0.3033  0.3238
  632TMC3    C3 9356   1.536   3.824  15.266 -0.9737  1.1400  0.6234
  632TMC3    C4 9357   1.774   3.776  15.142 -0.4505 -0.5735 -0.1494
  632TMC3    C5 9358   1.689   3.879  15.104  0.5454 -0.2186 -0.2632
  632TMC3    C6 9359   1.565   3.902  15.155 -0.6774 -0.6422  0.2020
  632TMC3     C 9360   1.824   3.594  15.289 -0.1740  0.5044  0.6692
  632TMC3     O 9361   1.913   3.561  15.211 -0.1213  0.4002  0.7108
  632TMC3     H 9362   1.579   3.682  15.402 -1.2090  1.5327  0.5402
  632TMC3    H1 9363   1.874   3.771  15.103 -1.1071  0.2778 -1.9224
  632TMC3    H2 9364   1.509   3.979  15.103  0.5317  0.1822  0.1182
  632TMC3    C7 9365   1.711   3.942  14.974 -0.6669  0.1220  0.1137
  632TMC3    C8 9366   1.407   3.828  15.324  0.3309 -0.8816  0.2055
  632TMC3    O1 9367   1.758   3.876  14.883  0.4986 -0.2499 -0.2559
  632TMC3    O2 9368   1.394   3.782  15.433  0.4800 -0.1232  0.4892
  633MPD2     C 9369   1.086   1.802  17.242 -0.5755  0.3969  0.0851
  633MPD2    C1 9370   1.187   1.780  17.148 -0.2759 -0.5185  0.1054
  633MPD2    C2 9371   1.297   1.709  17.187 -0.0454 -0.3208 -0.0617
  633MPD2    C3 9372   1.302   1.648  17.308  0.3632  0.6536 -0.0153
  633MPD2    C4 9373   1.198   1.656  17.396 -0.3188 -0.5381 -0.2538
  633MPD2    C5 9374   1.095   1.737  17.360  0.6877  0.3429  0.0680
  633MPD2     H 9375   1.373   1.685  17.113 -0.6800  1.3655 -1.2695
  633MPD2    H1 9376   1.180   1.596  17.484 -0.4765 -0.7270 -0.4147
  633MPD2    H2 9377   0.991   1.851  17.225 -1.0768  0.0939  2.0938
  633MPD2    H3 9378   1.010   1.740  17.427 -0.0140 -0.3791 -0.8032
  633MPD2     N 9379   1.405   1.555  17.333 -0.4681 -0.1479  0.2157
  633MPD2    H5 9380   1.390   1.487  17.406 -1.9640 -0.3894 -0.3276
  633MPD2    N1 9381   1.185   1.832  17.021  0.5281 -0.1151  0.6141
  633MPD2    H7 9382   1.246   1.799  16.946 -0.5195  1.8574 -1.1058
  634TMC3    C1 9383   1.123   1.954  16.834  0.3949 -0.3026  0.3691
  634TMC3    C2 9384   1.111   1.848  16.748 -0.1338  0.9679 -0.2356
  634TMC3    C3 9385   1.107   1.882  16.616 -0.5603  0.0465 -0.7138
  634TMC3    C4 9386   1.119   2.079  16.798  0.3718  0.1596 -0.0379
  634TMC3    C5 9387   1.135   2.104  16.658 -0.6767 -0.5673 -0.0368
  634TMC3    C6 9388   1.132   2.001  16.568 -0.8925 -0.1270 -0.0209
  634TMC3     C 9389   1.099   1.929  16.978  0.0323 -0.3473 -0.0932
  634TMC3     O 9390   1.019   1.997  17.037 -0.0060 -0.3206  0.4445
  634TMC3     H 9391   1.119   1.743  16.776 -0.6846  0.5183 -1.7740
  634TMC3    H1 9392   1.136   2.153  16.875  1.0218  0.2437 -0.2652
  634TMC3    H2 9393   1.140   2.019  16.461 -2.2825  1.1870  0.0919
  634TMC3    C7 9394   1.142   2.241  16.613  0.1733 -0.1955 -0.1294
  634TMC3    C8 9395   1.110   1.761  16.528  0.3027 -0.1381  0.3404
  634TMC3    O1 9396   1.189   2.250  16.501  0.3632  0.4364 -0.2162
  634TMC3    O2 9397   1.048   1.666  16.577  0.2646 -0.3150  0.1599
  635TMC3    C1 9398   1.494   2.798  17.489  0.5204 -0.0002 -0.4742
  635TMC3    C2 9399   1.470   2.669  17.521 -0.8088  0.5824 -0.6209
  635TMC3    C3 9400   1.342   2.626  17.549  0.0607  0.6193  0.5014
  635TMC3    C4 9401   1.390   2.887  17.492 -0.7069  0.3938 -0.5026
  635TMC3    C5 9402   1.265   2.842  17.522 -0.5224 -0.1220  0.1648
  635TMC3    C6 9403   1.233   2.710  17.556  0.3270 -0.4710  0.2275
  635TMC3     C 9404   1.609   2.847  17.551 -0.1760  1.1619 -0.7043
  635TMC3     O 9405   1.602   2.947  17.619 -0.2022 -0.0604 -0.2913
  635TMC3     H 9406   1.558   2.606  17.528 -0.0957  1.5841 -0.5772
  635TMC3    H1 9407   1.403   2.994  17.484  2.1283  0.2672  2.6484
  635TMC3    H2 9408   1.129   2.679  17.554  0.1023  0.2506  0.5123
  635TMC3    C7 9409   1.153   2.933  17.528 -0.1767 -0.2825 -0.5722
  635TMC3    C8 9410   1.330   2.483  17.539 -0.6562  0.2445 -0.2263
  635TMC3    O1 9411   1.132   2.999  17.420  0.0880  0.6387 -0.0275
  635TMC3    O2 9412   1.426   2.424  17.493  0.0845 -0.2018 -0.8497
  636MPD2     C 9413   2.320   2.035  16.006 -0.0352  0.3900  0.1129
  636MPD2    C1 9414   2.380   2.032  16.129  0.0720  0.5037 -0.8991
  636MPD2    C2 9415   2.431   1.912  16.173 -0.0535 -0.3882  0.3249
  636MPD2    C3 9416   2.400   1.791  16.105  0.7903  0.0479  0.0450
  636MPD2    C4 9417   2.329   1.795  15.984 -0.2460  0.3989  0.2285
  636MPD2    C5 9418   2.297   1.918  15.931  0.0505 -0.5317  0.5424
  636MPD2     H 9419   2.504   1.906  16.253 -0.8462  1.4912  1.1888
  636MPD2    H1 9420   2.296   1.707  15.931 -0.5476  0.8744 -0.3791
  636MPD2    H2 9421   2.286   2.124  15.956  1.7985  0.3872 -1.1729
  636MPD2    H3 9422   2.243   1.931  15.838 -0.2034  2.8231  1.1474
  636MPD2     N 9423   2.444   1.675  16.162  0.0516  0.4723 -0.2658
  636MPD2    H5 9424   2.489   1.679  16.253 -0.9024  2.8359  0.1124
  636MPD2    N1 9425   2.421   2.144  16.200  0.0806  0.0940  0.3450
  636MPD2    H7 9426   2.494   2.131  16.271  0.4692  0.5547  0.0302
  637TMC3    C1 9427   2.490   1.449  16.177 -0.0649  0.1295  0.0482
  637TMC3    C2 9428   2.486   1.480  16.314 -0.7248 -0.2485  0.5835
  637TMC3    C3 9429   2.602   1.465  16.394  0.0278  0.1021  0.2651
  637TMC3    C4 9430   2.598   1.383  16.128  0.6860  0.6286  0.5677
  637TMC3    C5 9431   2.706   1.361  16.207  0.0030 -0.7560 -0.0354
  637TMC3    C6 9432   2.709   1.401  16.339  0.0329 -0.0598  0.0703
  637TMC3     C 9433   2.428   1.554  16.091 -0.7052  0.1504 -0.7136
  637TMC3     O 9434   2.426   1.534  15.972 -0.0792 -0.3412 -0.5327
  637TMC3     H 9435   2.396   1.521  16.359  0.1225  1.2988  0.8894
  637TMC3    H1 9436   2.602   1.342  16.028  0.2677 -0.7678  1.1206
  637TMC3    H2 9437   2.784   1.355  16.402 -0.7915  0.3613  1.3705
  637TMC3    C7 9438   2.794   1.252  16.166  0.0444 -0.2135  0.2933
  637TMC3    C8 9439   2.619   1.585  16.476 -0.0712 -0.3378 -0.1556
  637TMC3    O1 9440   2.828   1.168  16.252 -0.0788  0.8602  0.1161
  637TMC3    O2 9441   2.542   1.677  16.454 -0.2356  0.2565  0.4378
  638MPD2     C 9442   2.436   1.038  14.592  0.1111  0.3836 -0.5847
  638MPD2    C1 9443   2.413   0.919  14.522  0.2907  0.3313  0.2947
  638MPD2    C2 9444   2.361   0.809  14.590  0.0474  0.2039 -0.6420
  638MPD2    C3 9445   2.321   0.815  14.722  0.5807 -0.1095 -0.1491
  638MPD2    C4 9446   2.329   0.935  14.789 -0.0405  0.1643  0.0572
  638MPD2    C5 9447   2.397   1.034  14.722  0.0608  0.6253  0.4503
  638MPD2     H 9448   2.345   0.711  14.545 -3.1932  0.8116 -0.8113
  638MPD2    H1 9449   2.289   0.945  14.890 -0.6911  0.9278 -0.2763
  638MPD2    H2 9450   2.475   1.131  14.553  0.2364 -0.2183 -1.8967
  638MPD2    H3 9451   2.401   1.132  14.770 -2.4801 -0.3471  2.6585
  638MPD2     N 9452   2.277   0.688  14.769 -0.2521  0.0891 -0.4805
  638MPD2    H5 9453   2.318   0.605  14.727 -2.1135 -1.0224 -0.0524
  638MPD2    N1 9454   2.434   0.910  14.380 -0.2710  0.2717 -0.3563
  638MPD2    H7 9455   2.469   0.997  14.342  0.5532 -1.1067 -2.7100
  639TMC3    C1 9456   2.206   0.546  14.941  0.1341  0.1409  0.7290
  639TMC3    C2 9457   2.083   0.488  14.970  0.0685  0.2051  0.0986
  639TMC3    C3 9458   2.090   0.358  15.017 -0.2816 -0.2429 -0.4453
  639TMC3    C4 9459   2.321   0.476  14.934  0.1788 -0.4339 -0.0985
  639TMC3    C5 9460   2.315   0.348  14.973 -0.6573 -0.1572 -0.2115
  639TMC3    C6 9461   2.202   0.280  15.005  0.0613  0.1988 -0.4383
  639TMC3     C 9462   2.218   0.685  14.893 -0.8020 -0.5942 -0.0611
  639TMC3     O 9463   2.157   0.772  14.955  0.0343 -0.6592  0.5248
  639TMC3     H 9464   1.985   0.531  14.958 -0.3802 -1.2151 -1.3168
  639TMC3    H1 9465   2.417   0.525  14.922  1.0206 -1.9865  0.2846
  639TMC3    H2 9466   2.196   0.173  15.020  0.9329  0.0320 -1.2997
  639TMC3    C7 9467   2.442   0.275  14.969  0.4601  0.0771 -0.4247
  639TMC3    C8 9468   1.962   0.289  14.996 -0.1408  0.4074 -0.4664
  639TMC3    O1 9469   2.528   0.331  14.901 -0.2493  0.1295 -0.4216
  639TMC3    O2 9470   1.861   0.316  15.064  0.0810 -0.5925 -0.1864
  640MPD2     C 9471   2.605   4.105  10.072  0.3963 -0.3189 -0.9808
  640MPD2    C1 9472   2.681   4.213  10.045 -0.8649 -0.5618  0.4525
  640MPD2    C2 9473   2.634   4.336  10.082  0.1724  0.5365  0.7120
  640MPD2    C3 9474   2.517   4.345  10.155  0.3478  0.2574 -0.2852
  640MPD2    C4 9475   2.442   4.235  10.181 -0.6037 -0.4697 -0.4058
  640MPD2    C5 9476   2.482   4.111  10.138 -0.0559  0.8002 -0.6727
  640MPD2     H 9477   2.686   4.428  10.059  1.8738 -0.4983  0.3829
  640MPD2    H1 9478   2.352   4.249  10.240 -0.7958 -3.5615  0.0564
  640MPD2    H2 9479   2.642   4.006  10.048 -0.9442 -1.1742  0.4188
  640MPD2    H3 9480   2.429   4.021  10.166 -2.1672  2.1654 -0.3153
  640MPD2     N 9481   2.471   4.465  10.215 -0.0595  0.0107 -0.2926
  640MPD2    H5 9482   2.379   4.456  10.257 -1.1866  1.0160 -2.5666
  640MPD2    N1 9483   2.803   4.198   9.974 -0.2931  0.6032 -0.1710
  640MPD2    H7 9484   2.815   4.108   9.929 -2.4175  1.0535 -1.6617
  641TMC3    C1 9485   3.007   4.250   9.871 -0.1295  0.4034 -0.3052
  641TMC3    C2 9486   3.051   4.123   9.883  0.0888  0.2500  0.1071
  641TMC3    C3 9487   3.169   4.087   9.831 -0.4940 -0.4415 -0.6375
  641TMC3    C4 9488   3.072   4.342   9.794  0.3376 -0.2112  0.1293
  641TMC3    C5 9489   3.195   4.301   9.745  0.3942  0.0136  0.1320
  641TMC3    C6 9490   3.239   4.177   9.755  0.6015  0.5205  0.9789
  641TMC3     C 9491   2.898   4.301   9.948 -0.9304  0.4579 -0.4611
  641TMC3     O 9492   2.884   4.418   9.977  0.3444  0.1250  0.1784
  641TMC3     H 9493   3.010   4.055   9.956 -0.1234  0.3558  0.0858
  641TMC3    H1 9494   3.037   4.445   9.790  0.5213 -0.1107  1.2983
  641TMC3    H2 9495   3.326   4.142   9.700  1.9706  0.6566  3.0345
  641TMC3    C7 9496   3.271   4.406   9.683 -0.4592 -0.6007 -0.1183
  641TMC3    C8 9497   3.219   3.951   9.832  0.3622  0.0592 -0.0555
  641TMC3    O1 9498   3.217   4.514   9.658 -0.3398  0.7116 -0.6644
  641TMC3    O2 9499   3.309   3.921   9.753 -0.4346 -0.0924  0.5045
  642TMC3    C1 9500   3.704   0.394  12.291 -0.0955 -0.1913 -0.7436
  642TMC3    C2 9501   3.786   0.404  12.399 -0.5541  0.2769 -0.7039
  642TMC3    C3 9502   3.856   0.287  12.429  0.2690  0.3330 -0.0043
  642TMC3    C4 9503   3.694   0.277  12.214  0.0751  0.4522  0.3449
  642TMC3    C5 9504   3.762   0.166  12.250  0.7857  0.5738  0.1386
  642TMC3    C6 9505   3.850   0.170  12.356 -0.1687 -0.3921 -1.4426
  642TMC3     C 9506   3.610   0.502  12.282 -0.3623 -0.0846 -0.1715
  642TMC3     O 9507   3.541   0.535  12.381 -0.2505 -0.7256  0.4098
  642TMC3     H 9508   3.788   0.492  12.463 -0.1355  0.0782 -0.4426
  642TMC3    H1 9509   3.622   0.268  12.134 -0.0633 -1.1850  0.6585
  642TMC3    H2 9510   3.908   0.085  12.389 -0.8944 -0.5598 -0.6188
  642TMC3    C7 9511   3.716   0.044  12.192 -0.2206  0.0873  0.1519
  642TMC3    C8 9512   3.950   0.283  12.542 -0.3438  0.4106  0.1921
  642TMC3    O1 9513   3.662   0.044  12.078 -0.7053 -0.0616  0.2652
  642TMC3    O2 9514   4.028   0.189  12.547 -0.0554  0.2280 -0.1627
  643TMC3    C1 9515   3.015   0.053  17.286  0.6382 -0.4640  0.5248
  643TMC3    C2 9516   2.915   0.082  17.196  0.1416  0.6435 -0.4508
  643TMC3    C3 9517   2.901   4.718  17.090 -0.6186 -0.3166  0.6942
  643TMC3    C4 9518   3.113   4.684  17.262  0.6231  1.0091 -0.9337
  643TMC3    C5 9519   3.091   4.591  17.163 -0.8179 -0.1834  0.3478
  643TMC3    C6 9520   2.976   4.604  17.086 -0.3256 -0.1794  0.5969
  643TMC3     C 9521   3.007   0.148  17.401 -0.2185 -0.5908 -0.6437
  643TMC3     O 9522   2.942   0.248  17.383  0.0408  0.2093  0.0854
  643TMC3     H 9523   2.847   0.166  17.202 -1.2710 -0.6109  1.0516
  643TMC3    H1 9524   3.199   4.673  17.327  0.5967  3.2360 -0.5257
  643TMC3    H2 9525   2.960   4.537  17.002  1.5371 -0.7213  0.6621
  643TMC3    C7 9526   3.204   4.548  17.089  0.0731  0.4686  0.6725
  643TMC3    C8 9527   2.839   0.031  16.963  0.1737 -0.3643 -0.3588
  643TMC3    O1 9528   3.291   4.629  17.068  0.0774 -0.4703 -0.1977
  643TMC3    O2 9529   2.852   4.676  16.872 -0.2285  0.3726 -0.1020
  644MPD2     C 9530   3.296   0.159  10.040 -0.1107 -0.0620  0.1801
  644MPD2    C1 9531   3.267   0.026  10.026  0.1680 -0.4012 -0.1419
  644MPD2    C2 9532   3.140   4.719   9.991  0.2771  0.3362  0.0958
  644MPD2    C3 9533   3.045   0.088   9.974  0.0510 -0.4030 -1.1112
  644MPD2    C4 9534   3.077   0.223   9.984 -0.1383 -0.4095  0.7870
  644MPD2    C5 9535   3.202   0.258  10.035  0.0229  0.6211  0.5859
  644MPD2     H 9536   3.100   4.620   9.977 -2.6569  1.2960  1.4275
  644MPD2    H1 9537   3.001   0.297   9.962  0.2159 -0.1392  0.4766
  644MPD2    H2 9538   3.393   0.192  10.075 -0.2190  0.0243  0.3955
  644MPD2    H3 9539   3.234   0.361  10.051 -0.6585  1.0680 -0.9444
  644MPD2     N 9540   2.923   0.039   9.936  0.1067 -0.0487 -0.0818
  644MPD2    H5 9541   2.910   4.664   9.940 -0.1555 -0.0338 -0.5706
  644MPD2    N1 9542   3.371   4.656  10.041  0.7116 -0.2858 -0.0280
  644MPD2    H7 9543   3.456   4.693  10.083 -1.0514  1.5516  1.9247
  645TMC3    C1 9544   2.702   0.019   9.870 -0.1048  0.4781  0.2104
  645TMC3    C2 9545   2.724   4.624   9.812  0.3779 -0.0506  0.1665
  645TMC3    C3 9546   2.618   4.550   9.769  0.0213  0.5054  0.0659
  645TMC3    C4 9547   2.575   0.066   9.889 -0.6546  0.1362  0.7684
  645TMC3    C5 9548   2.468   4.710   9.843 -0.2963 -1.1287 -0.1699
  645TMC3    C6 9549   2.488   4.597   9.777 -0.3957 -0.1277  0.5971
  645TMC3     C 9550   2.809   0.105   9.903 -0.0825 -0.6466  0.2415
  645TMC3     O 9551   2.788   0.219   9.926  0.2724 -0.2341  0.2168
  645TMC3     H 9552   2.820   4.590   9.774 -0.8689 -2.2826 -0.9474
  645TMC3    H1 9553   2.552   0.162   9.934  1.4374  0.5473  0.9606
  645TMC3    H2 9554   2.409   4.555   9.715  0.9509 -0.2122 -1.0668
  645TMC3    C7 9555   2.328   0.014   9.887 -0.2986  0.1349 -0.2729
  645TMC3    C8 9556   2.639   4.419   9.718 -0.5020 -0.6440  0.0918
  645TMC3    O1 9557   2.321   0.113   9.953 -0.2896  0.3321  0.0459
  645TMC3    O2 9558   2.547   4.337   9.731  0.0812 -0.1618 -0.4066
  646MPD2     C 9559   2.639   4.389  14.365 -0.2781  0.2699  0.1447
  646MPD2    C1 9560   2.553   4.378  14.471 -0.0162  0.2779 -0.3899
  646MPD2    C2 9561   2.416   4.391  14.455  1.1899  0.1974  0.6095
  646MPD2    C3 9562   2.364   4.414  14.329 -0.0553 -0.0243 -0.0728
  646MPD2    C4 9563   2.448   4.419  14.219  0.2717 -0.4180  0.2639
  646MPD2    C5 9564   2.580   4.411  14.240  0.0599 -0.1611  0.4878
  646MPD2     H 9565   2.353   4.363  14.538 -2.1634  0.7295 -1.7885
  646MPD2    H1 9566   2.418   4.438  14.117 -4.4854  0.1867  1.7480
  646MPD2    H2 9567   2.746   4.374  14.368 -0.4152 -0.5998  0.4988
  646MPD2    H3 9568   2.646   4.423  14.154 -2.0403 -2.9327 -1.4884
  646MPD2     N 9569   2.224   4.428  14.312 -0.5589 -0.7028  0.2595
  646MPD2    H5 9570   2.174   4.446  14.399 -1.1877  0.3447 -0.3203
  646MPD2    N1 9571   2.616   4.360  14.603 -0.0172  0.0971 -0.0049
  646MPD2    H7 9572   2.717   4.357  14.606 -0.0890 -0.8335  1.6030
  647TMC3    C1 9573   2.651   4.308  14.827 -0.6502  0.2285 -0.1784
  647TMC3    C2 9574   2.600   4.288  14.948 -0.3748  0.3200 -0.2206
  647TMC3    C3 9575   2.671   4.232  15.047 -0.9061  0.1362 -0.1448
  647TMC3    C4 9576   2.784   4.295  14.808  0.1095 -0.3862  1.1164
  647TMC3    C5 9577   2.859   4.251  14.912  0.1830 -0.4752  0.6135
  647TMC3    C6 9578   2.807   4.211  15.032 -0.7921 -0.3320  0.2129
  647TMC3     C 9579   2.555   4.329  14.720 -0.4374 -0.2579 -0.2870
  647TMC3     O 9580   2.440   4.306  14.748 -0.0342 -0.0159  0.0202
  647TMC3     H 9581   2.493   4.300  14.956 -0.4889 -0.2485 -0.9336
  647TMC3    H1 9582   2.831   4.303  14.711  0.6130 -0.2083  1.3701
  647TMC3    H2 9583   2.872   4.199  15.118 -0.9732  2.1990  0.6781
  647TMC3    C7 9584   3.003   4.223  14.890  0.6561  0.6134 -0.4519
  647TMC3    C8 9585   2.627   4.097  15.076  0.2111  0.0493 -0.3664
  647TMC3    O1 9586   3.061   4.155  14.972  0.4206 -0.0914 -0.1338
  647TMC3    O2 9587   2.693   4.022  15.146 -0.5819  0.3566 -0.4738
  648TMC3    C1 9588   1.578   1.778  15.906  0.1369 -0.2067 -0.2193
  648TMC3    C2 9589   1.642   1.677  15.844 -0.2285  0.0134  0.4286
  648TMC3    C3 9590   1.648   1.694  15.710 -0.2955 -0.8033 -0.2742
  648TMC3    C4 9591   1.514   1.879  15.842 -0.5064 -0.0533  0.1115
  648TMC3    C5 9592   1.507   1.882  15.708  0.1178 -0.3645 -0.1646
  648TMC3    C6 9593   1.584   1.794  15.635  0.5198 -0.4394 -0.2367
  648TMC3     C 9594   1.617   1.816  16.045  0.3311 -0.2029  0.0188
  648TMC3     O 9595   1.598   1.935  16.075  0.5418 -0.6697 -0.3493
  648TMC3     H 9596   1.698   1.607  15.906  1.4574  1.6609  0.7997
  648TMC3    H1 9597   1.457   1.950  15.901 -2.3252 -2.7038  1.5672
  648TMC3    H2 9598   1.590   1.800  15.527 -3.3594 -1.5372 -0.4979
  648TMC3    C7 9599   1.429   1.988  15.633 -0.2936  0.3612 -0.3585
  648TMC3    C8 9600   1.727   1.599  15.625  1.2328 -0.5914  0.0724
  648TMC3    O1 9601   1.407   1.965  15.520 -0.6598 -0.1505 -0.4122
  648TMC3    O2 9602   1.779   1.628  15.520  0.0450 -0.0388  0.4831
  649TMC3    C1 9603   0.336   2.459  12.983  0.2774  0.4011 -0.0701
  649TMC3    C2 9604   0.469   2.438  13.006 -0.1163  0.4364 -0.1355
  649TMC3    C3 9605   0.507   2.370  13.116 -0.6277 -0.2366 -0.2403
  649TMC3    C4 9606   0.245   2.433  13.088  0.5776  0.0946 -0.4386
  649TMC3    C5 9607   0.296   2.377  13.201 -0.3973 -0.3614 -0.7529
  649TMC3    C6 9608   0.426   2.344  13.221 -0.2013 -0.4422  0.4401
  649TMC3     C 9609   0.295   2.558  12.882 -0.1101  0.2451  0.0234
  649TMC3     O 9610   0.176   2.582  12.883  0.5690 -0.3004  0.3920
  649TMC3     H 9611   0.544   2.449  12.929  3.0747 -0.8391  2.8135
  649TMC3    H1 9612   0.144   2.471  13.095  0.8391  0.7907 -0.3982
  649TMC3    H2 9613   0.447   2.312  13.323 -1.4793 -1.3988  0.4021
  649TMC3    C7 9614   0.213   2.364  13.317 -0.2249 -0.4050  0.9094
  649TMC3    C8 9615   0.641   2.316  13.139  0.2170  0.3649  0.6884
  649TMC3    O1 9616   0.266   2.371  13.430  0.2769  0.0699 -0.4538
  649TMC3    O2 9617   0.641   2.226  13.224 -0.3691 -0.1522 -0.1324
  650TMC3    C1 9618   2.747   4.652  12.986  0.0167  0.5071 -0.0462
  650TMC3    C2 9619   2.794   0.056  12.981  0.0860 -0.3283 -0.0417
  650TMC3    C3 9620   2.727   0.147  12.908 -0.4229  0.2726  0.0349
  650TMC3    C4 9621   2.634   4.609  12.918 -0.5250  0.0564  0.2859
  650TMC3    C5 9622   2.573   4.703  12.840  0.3421  0.2696 -1.1572
  650TMC3    C6 9623   2.617   0.113  12.832  0.2671 -0.3175 -0.4309
  650TMC3     C 9624   2.836   4.557  13.028  0.4848 -0.4809 -0.5271
  650TMC3     O 9625   2.926   4.594  13.105 -0.0818 -0.1370 -1.1424
  650TMC3     H 9626   2.888   0.079  13.030 -0.2954  0.5067  0.3080
  650TMC3    H1 9627   2.597   4.509  12.933  1.1630 -0.3628  1.6827
  650TMC3    H2 9628   2.589   0.180  12.752  0.2575  0.8994  0.6049
  650TMC3    C7 9629   2.490   4.644  12.735  0.0323 -0.5299  0.3879
  650TMC3    C8 9630   2.793   0.270  12.852  0.4733  0.8634 -0.6351
  650TMC3    O1 9631   2.503   4.528  12.727 -0.7268 -0.3142 -0.4774
  650TMC3    O2 9632   2.760   0.301  12.739 -0.7131 -0.3390  0.0932
  651MPD2     C 9633   2.000   2.100  10.269  0.8953 -0.1698 -0.1436
  651MPD2    C1 9634   1.938   2.086  10.390  0.5304  0.2288 -0.7610
  651MPD2    C2 9635   2.014   2.072  10.510 -0.6581  0.0096 -0.1454
  651MPD2    C3 9636   2.152   2.095  10.505  0.4078  0.0518  1.1098
  651MPD2    C4 9637   2.208   2.104  10.372  0.6313 -0.4153  0.3799
  651MPD2    C5 9638   2.131   2.115  10.262 -0.1905 -0.0271 -0.2761
  651MPD2     H 9639   1.963   2.053  10.604  0.2508 -3.9206 -0.4574
  651MPD2    H1 9640   2.314   2.101  10.352 -0.3432  0.4914 -4.8048
  651MPD2    H2 9641   1.948   2.096  10.174 -0.1839 -1.1831  0.4895
  651MPD2    H3 9642   2.175   2.140  10.167  2.3433  0.9882  1.1536
  651MPD2     N 9643   2.228   2.096  10.625 -0.3165  0.2791 -0.3699
  651MPD2    H5 9644   2.179   2.095  10.714  1.3499 -1.6470  0.5378
  651MPD2    N1 9645   1.799   2.062  10.399 -0.7205  0.2845  0.1840
  651MPD2    H7 9646   1.765   2.049  10.493  2.3064  0.1071  1.2511
  652TMC3    C1 9647   2.623   2.079  10.868 -0.4652 -0.4400  0.2669
  652TMC3    C2 9648   2.552   2.061  10.757  0.3236 -0.1412 -0.7725
  652TMC3    C3 9649   2.421   2.096  10.760  0.3305 -0.3104 -0.1548
  652TMC3    C4 9650   2.565   2.142  10.976  0.0158  0.3792 -0.7977
  652TMC3    C5 9651   2.440   2.188  10.973  0.1423  0.0995 -1.1323
  652TMC3    C6 9652   2.366   2.170  10.864  0.0858  0.2370 -1.3328
  652TMC3     C 9653   2.771   2.056  10.868 -0.1653 -1.0233  0.8499
  652TMC3     O 9654   2.829   2.034  10.974 -0.5035  0.2872 -0.1080
  652TMC3     H 9655   2.588   2.004  10.672  3.0906 -0.1600  0.4391
  652TMC3    H1 9656   2.624   2.163  11.064 -1.4820  2.2055 -0.2295
  652TMC3    H2 9657   2.272   2.225  10.859 -0.0845  0.0633  0.1313
  652TMC3    C7 9658   2.415   2.313  11.050  0.6354  0.2368  0.0683
  652TMC3    C8 9659   2.367   2.110  10.626  0.0591  0.3994  0.4736
  652TMC3    O1 9660   2.318   2.327  11.123  0.2874 -0.2342  0.0894
  652TMC3    O2 9661   2.447   2.105  10.532 -0.0606  0.4537 -0.0157
  653MPD2     C 9662   0.816   1.727  17.618  0.6640 -0.2354  0.2656
  653MPD2    C1 9663   0.765   1.808  17.519 -0.3334 -0.0823  0.0968
  653MPD2    C2 9664   0.726   1.755  17.394  0.7270 -0.2661  0.6748
  653MPD2    C3 9665   0.741   1.622  17.371 -0.7186 -0.4486 -0.5903
  653MPD2    C4 9666   0.770   1.539  17.477 -0.2058  1.0765 -0.2520
  653MPD2    C5 9667   0.820   1.595  17.590 -0.3000 -0.6201  0.5623
  653MPD2     H 9668   0.688   1.817  17.313 -0.2403 -2.1765 -0.3292
  653MPD2    H1 9669   0.769   1.431  17.471 -0.2949  1.0049  1.0190
  653MPD2    H2 9670   0.858   1.761   0.010 -0.7729 -1.8725  1.5067
  653MPD2    H3 9671   0.855   1.529  17.668 -0.1237 -0.7586  0.3684
  653MPD2     N 9672   0.714   1.576  17.240  0.0480 -0.1548  0.2325
  653MPD2    H5 9673   0.658   1.625  17.171  1.2323 -0.4557 -0.9417
  653MPD2    N1 9674   0.762   1.945  17.559 -0.0795 -0.0412 -0.1520
  653MPD2    H7 9675   0.789   1.972  17.653  0.6796  0.6781 -0.5704
  654TMC3    C1 9676   0.707   1.439  17.051 -0.3252  0.4175  0.1912
  654TMC3    C2 9677   0.685   1.556  16.983  0.0435 -0.4181 -0.1544
  654TMC3    C3 9678   0.673   1.545  16.844 -0.0535 -0.3961  0.3579
  654TMC3    C4 9679   0.713   1.311  16.997  0.6184  0.3668 -0.7387
  654TMC3    C5 9680   0.676   1.311  16.858  0.8201  0.3648  0.1897
  654TMC3    C6 9681   0.662   1.420  16.777 -0.2278  0.1871  0.5004
  654TMC3     C 9682   0.738   1.449  17.196  0.2974  0.4475  0.5170
  654TMC3     O 9683   0.819   1.374  17.245 -0.0144  0.4650 -0.3943
  654TMC3     H 9684   0.683   1.657  17.022 -0.3839 -1.0083  1.3764
  654TMC3    H1 9685   0.728   1.231  17.068 -0.3831  0.7237 -0.1238
  654TMC3    H2 9686   0.663   1.411  16.670 -2.2257 -1.2640  0.6182
  654TMC3    C7 9687   0.695   1.190  16.783 -0.7611 -0.3589 -0.7648
  654TMC3    C8 9688   0.619   1.659  16.770 -0.4925  0.0991 -0.0816
  654TMC3    O1 9689   0.695   1.192  16.660  0.3495  0.0586 -0.8363
  654TMC3    O2 9690   0.565   1.745  16.840 -0.1495  0.2150  0.2050
  655MPD2     C 9691   2.208   2.257  15.730 -0.2725 -0.7716 -0.1631
  655MPD2    C1 9692   2.102   2.297  15.643  0.3152 -0.3985  0.4736
  655MPD2    C2 9693   2.077   2.223  15.523 -0.1598 -0.6051 -0.2970
  655MPD2    C3 9694   2.139   2.102  15.494 -0.2171 -0.2203 -0.4450
  655MPD2    C4 9695   2.241   2.065  15.586  0.1386  0.2285  0.3483
  655MPD2    C5 9696   2.279   2.147  15.694 -0.4250 -0.2951  0.0264
  655MPD2     H 9697   2.007   2.266  15.452  0.8099  0.7391 -0.4434
  655MPD2    H1 9698   2.312   1.986  15.562  1.6211  0.7004  3.2976
  655MPD2    H2 9699   2.244   2.310  15.817 -0.0025 -1.1971 -0.0179
  655MPD2    H3 9700   2.360   2.120  15.761 -0.0310 -0.4239 -0.5015
  655MPD2     N 9701   2.116   2.015  15.382  0.4096 -0.4453  0.5799
  655MPD2    H5 9702   2.156   1.922  15.375 -0.3442 -0.7066 -0.2412
  655MPD2    N1 9703   2.022   2.410  15.663  0.5814 -0.2881  0.9946
  655MPD2    H7 9704   1.951   2.430  15.594 -1.3745 -3.6993  1.9908
  656TMC3    C1 9705   1.924   2.593  15.769 -0.1328  0.5327 -0.4690
  656TMC3    C2 9706   1.855   2.625  15.886 -0.0941  0.2449 -0.2167
  656TMC3    C3 9707   1.724   2.669  15.876  0.7762  0.9827 -0.4204
  656TMC3    C4 9708   1.874   2.639  15.651  1.0450  0.5390  0.4389
  656TMC3    C5 9709   1.745   2.692  15.643 -0.5022  1.1673 -0.3967
  656TMC3    C6 9710   1.664   2.703  15.754  0.0531 -0.9086  0.5905
  656TMC3     C 9711   2.027   2.493  15.770  0.0578  0.5288  0.1168
  656TMC3     O 9712   2.083   2.466  15.875  0.0888 -0.3142 -0.8873
  656TMC3     H 9713   1.888   2.577  15.978 -0.5456 -1.9813 -1.2072
  656TMC3    H1 9714   1.930   2.620  15.561 -0.8810 -0.8295 -0.4816
  656TMC3    H2 9715   1.555   2.705  15.755  0.0227 -1.5784 -1.4741
  656TMC3    C7 9716   1.682   2.669  15.516 -0.0287  0.5366 -0.5555
  656TMC3    C8 9717   1.628   2.610  15.969 -0.4259 -0.4393  0.1912
  656TMC3    O1 9718   1.746   2.614  15.433 -0.5652  0.2806 -0.3883
  656TMC3    O2 9719   1.577   2.504  15.933  0.0075 -0.5343 -0.0696
  657TMC3    C1 9720   1.073   0.813  15.202 -0.1057 -0.4820  0.5175
  657TMC3    C2 9721   0.989   0.699  15.216 -0.9215  1.0550 -0.5848
  657TMC3    C3 9722   0.855   0.718  15.204 -0.1767 -0.8941  0.3789
  657TMC3    C4 9723   1.030   0.936  15.191 -0.1864 -0.1817 -0.4323
  657TMC3    C5 9724   0.898   0.946  15.169  0.2902 -0.5843 -0.2006
  657TMC3    C6 9725   0.805   0.844  15.177  0.3943 -0.0255  0.3647
  657TMC3     C 9726   1.215   0.794  15.182  0.1521 -0.8072 -0.1798
  657TMC3     O 9727   1.269   0.891  15.128  0.0873  0.6135  0.1868
  657TMC3     H 9728   1.038   0.609  15.181 -0.7614  0.8498  0.1746
  657TMC3    H1 9729   1.093   1.023  15.189 -0.8863  0.3725  1.6348
  657TMC3    H2 9730   0.705   0.847  15.133  0.3713  0.1912  0.4341
  657TMC3    C7 9731   0.849   1.066  15.105  0.7293  0.5758  0.4228
  657TMC3    C8 9732   0.778   0.595  15.177 -0.3671 -0.1700 -0.5344
  657TMC3    O1 9733   0.730   1.075  15.080 -0.0910 -0.0300  1.4881
  657TMC3    O2 9734   0.680   0.600  15.107 -0.5191  0.2451 -0.2804
  658MPD2     C 9735   2.364   1.848  14.622 -0.0798 -0.0427  0.4360
  658MPD2    C1 9736   2.245   1.913  14.646 -0.2369 -0.0903  0.5638
  658MPD2    C2 9737   2.212   2.017  14.563 -0.5746 -0.1616 -0.6070
  658MPD2    C3 9738   2.295   2.066  14.468  0.4334 -0.2909  0.1612
  658MPD2    C4 9739   2.420   2.013  14.453  0.1622 -0.5019  0.2257
  658MPD2    C5 9740   2.451   1.905  14.533 -0.3641  0.3078  0.0024
  658MPD2     H 9741   2.112   2.058  14.573 -0.4990 -0.6086  2.0037
  658MPD2    H1 9742   2.486   2.059  14.380  0.5681 -2.2675 -0.5125
  658MPD2    H2 9743   2.397   1.774  14.694 -0.1285  1.5899  2.1234
  658MPD2    H3 9744   2.555   1.876  14.526  0.7972  4.2144  0.6945
  658MPD2     N 9745   2.240   2.165  14.388  0.2299  0.2361  0.7332
  658MPD2    H5 9746   2.142   2.183  14.404  0.5682  0.1485  2.8192
  658MPD2    N1 9747   2.173   1.876  14.760  0.7159  0.0884  0.5379
  658MPD2    H7 9748   2.198   1.787  14.802 -1.3165  0.4179  2.4061
  659TMC3    C1 9749   2.026   1.900  14.945 -0.1029  0.7231  0.1976
  659TMC3    C2 9750   2.023   1.990  15.044 -0.3612  0.3231 -0.3510
  659TMC3    C3 9751   2.027   1.952  15.173 -0.1485  0.2803 -0.2287
  659TMC3    C4 9752   2.031   1.768  14.970 -0.1984 -0.0930 -0.1620
  659TMC3    C5 9753   2.032   1.735  15.102 -0.7828 -0.5017  0.8035
  659TMC3    C6 9754   2.025   1.820  15.206 -0.4030  0.4446 -0.4542
  659TMC3     C 9755   2.070   1.954  14.818 -0.7935  0.4974  0.2853
  659TMC3     O 9756   2.030   2.068  14.797 -0.7519 -0.2564 -0.1620
  659TMC3     H 9757   2.024   2.098  15.030  4.0321 -0.1564 -3.6444
  659TMC3    H1 9758   2.023   1.696  14.889 -0.6152 -0.3991  0.1495
  659TMC3    H2 9759   1.994   1.788  15.304 -3.1158 -1.8129 -2.0448
  659TMC3    C7 9760   1.990   1.605  15.127  0.1223 -0.6349  0.7040
  659TMC3    C8 9761   2.044   2.054  15.275  0.7083 -0.1370  0.4359
  659TMC3    O1 9762   1.935   1.578  15.234  0.1371 -0.0697  0.6198
  659TMC3    O2 9763   2.016   2.168  15.239 -0.2033 -0.3152  0.4414
  660MPD2     C 9764   0.378   1.038  12.570 -0.6325 -0.5700 -0.7368
  660MPD2    C1 9765   0.265   0.961  12.539  0.0493 -0.0422 -0.4177
  660MPD2    C2 9766   0.258   0.835  12.592  0.8257 -0.3947 -0.3627
  660MPD2    C3 9767   0.353   0.778  12.671  0.1124  0.5811  0.1009
  660MPD2    C4 9768   0.462   0.850  12.698 -0.1807  0.2606  0.2814
  660MPD2    C5 9769   0.473   0.982  12.652  0.2404  0.2873 -0.0905
  660MPD2     H 9770   0.184   0.771  12.544  1.1648 -0.6644 -0.5315
  660MPD2    H1 9771   0.544   0.820  12.763  0.9011  0.7403 -0.8807
  660MPD2    H2 9772   0.384   1.139  12.532  2.5865 -0.4124  0.2511
  660MPD2    H3 9773   0.561   1.038  12.682  0.3038  1.5053 -2.5308
  660MPD2     N 9774   0.332   0.649  12.731 -0.0565  0.2982  0.3661
  660MPD2    H5 9775   0.408   0.602  12.779  0.5366 -0.0564 -0.9140
  660MPD2    N1 9776   0.168   1.008  12.453  0.5094 -0.4907 -0.3387
  660MPD2    H7 9777   0.193   1.091  12.400  1.5250 -0.9046 -0.5257
  661TMC3    C1 9778   0.003   0.990  12.291 -0.3296  0.6268 -1.2284
  661TMC3    C2 9779   0.089   1.043  12.195 -0.3553  0.4177  0.4332
  661TMC3    C3 9780   0.057   1.032  12.064 -0.4625  0.3236  0.1046
  661TMC3    C4 9781   4.621   0.913  12.254  0.0865 -0.6372  0.1143
  661TMC3    C5 9782   4.599   0.900  12.121 -0.1883  0.1612  0.0088
  661TMC3    C6 9783   4.680   0.954  12.022  0.6840  0.1755 -0.4044
  661TMC3     C 9784   0.052   0.953  12.425  0.3928 -0.2978 -0.4783
  661TMC3     O 9785   4.716   0.861  12.486 -0.5173  0.3786  0.1768
  661TMC3     H 9786   0.175   1.106  12.213  1.3049 -1.6958 -0.0831
  661TMC3    H1 9787   4.558   0.873  12.333 -0.3280 -1.1074 -0.4523
  661TMC3    H2 9788   4.645   0.943  11.920 -0.7609 -0.6653  0.1709
  661TMC3    C7 9789   4.488   0.815  12.088 -0.3685  0.1836 -0.1185
  661TMC3    C8 9790   0.110   1.122  11.962 -0.1599 -0.1123 -0.0304
  661TMC3    O1 9791   4.494   0.754  11.980  0.2208  0.5843 -0.1925
  661TMC3    O2 9792   0.097   1.078  11.846 -0.3113 -0.6546  0.4923
  662MPD2     C 9793   0.813   0.030  17.144 -0.9450 -0.4577 -0.2341
  662MPD2    C1 9794   0.748   4.716  17.252 -0.1694  0.2009 -0.1155
  662MPD2    C2 9795   0.612   0.006  17.261 -0.3011  0.1006  1.1194
  662MPD2    C3 9796   0.539   0.053  17.156 -0.4939  0.2744 -0.1722
  662MPD2    C4 9797   0.607   0.106  17.052  0.2032  0.9451  0.6977
  662MPD2    C5 9798   0.743   0.098  17.051 -0.5602 -0.7404 -0.3025
  662MPD2     H 9799   0.566   4.695  17.352 -1.0162  0.3159  0.8420
  662MPD2    H1 9800   0.552   0.160  16.976 -0.5606 -1.0891 -0.2124
  662MPD2    H2 9801   0.920   0.017  17.134 -0.6869 -0.0547  1.9230
  662MPD2    H3 9802   0.797   0.118  16.960 -2.1780 -1.6057 -1.4488
  662MPD2     N 9803   0.401   0.042  17.154 -0.0987 -0.7712 -0.6000
  662MPD2    H5 9804   0.353   0.082  17.073  1.9284  0.0639 -1.3703
  662MPD2    N1 9805   0.810   4.646  17.349 -0.0092  0.4763  0.2194
  662MPD2    H7 9806   0.759   4.636  17.436 -1.7500  0.7090 -0.7719
  663TMC3    C1 9807   0.968   4.504  17.461 -0.1433  0.5898 -0.3352
  663TMC3    C2 9808   0.886   4.527  17.569 -0.1100 -0.1301 -0.1851
  663TMC3    C3 9809   0.874   4.426  17.657  0.0421 -0.1409 -0.4301
  663TMC3    C4 9810   1.019   4.381  17.432 -0.6921 -0.0919 -0.0740
  663TMC3    C5 9811   1.001   4.282  17.522 -0.1755  0.1699 -0.4197
  663TMC3    C6 9812   0.931   4.299  17.641  0.1345  0.0901 -0.7231
  663TMC3     C 9813   0.928   4.575  17.341 -0.0633 -0.3932 -0.2456
  663TMC3     O 9814   0.993   4.563  17.243  0.0955 -0.0591 -0.3319
  663TMC3     H 9815   0.885   4.626  17.613  1.9291  0.0131 -0.4678
  663TMC3    H1 9816   1.092   4.370  17.353  1.1018  0.3848  1.4938
  663TMC3    H2 9817   0.894   4.215  17.699  0.0128 -0.3110 -1.3918
  663TMC3    C7 9818   0.988   4.148  17.451 -0.3638 -0.5256 -0.6655
  663TMC3    C8 9819   0.856   4.459   0.092 -0.5219  0.2978 -0.5100
  663TMC3    O1 9820   1.050   4.128  17.349  0.9650 -0.0889  0.6212
  663TMC3    O2 9821   0.911   4.384   0.173 -0.5484  0.0365 -0.4086
  664MPD2     C 9822   3.151   3.140  17.650  0.0790  0.0565 -0.3910
  664MPD2    C1 9823   3.247   3.238  17.672  0.2248 -0.4343 -0.0457
  664MPD2    C2 9824   3.284   3.270   0.102  0.3459 -0.5426 -0.3335
  664MPD2    C3 9825   3.229   3.196   0.206 -0.4622  0.8704 -0.0050
  664MPD2    C4 9826   3.140   3.096   0.190  0.3623 -0.7319  0.6606
  664MPD2    C5 9827   3.102   3.074   0.056  0.3331  0.2089  0.4304
  664MPD2     H 9828   3.359   3.348   0.110  0.3866 -0.4131 -1.9047
  664MPD2    H1 9829   3.087   3.051   0.273  0.4820 -1.6850  0.2196
  664MPD2    H2 9830   3.109   3.109  17.555  0.6042 -1.4301 -0.1399
  664MPD2    H3 9831   3.023   3.001   0.041  1.0165 -0.3864 -0.2633
  664MPD2     N 9832   3.266   3.228   0.340 -0.3639 -0.0103 -0.1569
  664MPD2    H5 9833   3.350   3.282   0.356 -1.7227  1.7686  0.9374
  664MPD2    N1 9834   3.310   3.312  17.567 -0.4592  0.2096  0.2164
  664MPD2    H7 9835   3.386   3.377  17.584 -0.3667 -0.1646  1.1950
  665TMC3    C1 9836   3.280   3.265   0.570  1.0903  0.2580  0.8051
  665TMC3    C2 9837   3.224   3.253   0.696 -0.0222 -0.0018  0.2435
  665TMC3    C3 9838   3.262   3.339   0.796  0.7058  0.5437 -0.0552
  665TMC3    C4 9839   3.376   3.357   0.545 -0.5421 -0.4141  0.7222
  665TMC3    C5 9840   3.399   3.445   0.648 -0.0502 -0.1858  0.4453
  665TMC3    C6 9841   3.357   3.439   0.772 -0.4767 -0.5860 -0.0192
  665TMC3     C 9842   3.208   3.193   0.463 -0.2714 -0.0485  0.0437
  665TMC3     O 9843   3.097   3.147   0.483  0.1179  0.0952 -0.4970
  665TMC3     H 9844   3.134   3.194   0.715 -0.2801  0.6823  1.1008
  665TMC3    H1 9845   3.425   3.369   0.450  0.2832  1.5877  1.4020
  665TMC3    H2 9846   3.381   3.521   0.838 -1.5886 -1.0072  0.9147
  665TMC3    C7 9847   3.480   3.558   0.600 -0.0856 -0.2428  0.1089
  665TMC3    C8 9848   3.200   3.312   0.925 -0.4046  0.0855 -0.0671
  665TMC3    O1 9849   3.568   3.542   0.518 -0.5198 -0.1941 -0.1050
  665TMC3    O2 9850   3.115   3.225   0.929  0.1403 -0.3931 -0.0894
  666TMC3    C1 9851   2.748   2.752  10.113  0.2350  0.3420 -0.0578
  666TMC3    C2 9852   2.849   2.767  10.206  0.5775  0.2851  0.0986
  666TMC3    C3 9853   2.944   2.864  10.197  0.7193 -0.1549  0.1435
  666TMC3    C4 9854   2.737   2.838  10.012  0.5950  0.4511 -0.1668
  666TMC3    C5 9855   2.828   2.939  10.007 -0.6881  0.3336  0.1355
  666TMC3    C6 9856   2.936   2.954  10.098  0.2615  0.2605 -0.5897
  666TMC3     C 9857   2.642   2.654  10.131 -0.7514  0.1392  0.1819
  666TMC3     O 9858   2.635   2.590  10.232 -0.5431  0.2657 -0.5459
  666TMC3     H 9859   2.843   2.704  10.294 -0.3047  0.5267  0.2231
  666TMC3    H1 9860   2.664   2.843   9.932  0.3821 -1.4504 -0.0746
  666TMC3    H2 9861   3.017   3.025  10.090  0.5869  0.2175  2.1567
  666TMC3    C7 9862   2.784   3.066   9.953  0.1202  0.0426  0.4853
  666TMC3    C8 9863   3.005   2.894  10.328  0.3550  0.0212 -1.0143
  666TMC3    O1 9864   2.661   3.081   9.947  0.3422  0.5080 -0.2812
  666TMC3    O2 9865   2.948   2.857  10.427 -0.0410 -0.3700 -0.1839
  667MPD2     C 9866   4.024   3.339  14.379  0.2301 -0.0638 -0.1717
  667MPD2    C1 9867   3.921   3.332  14.468  0.0713  0.3527 -0.0740
  667MPD2    C2 9868   3.805   3.273  14.425 -0.2559 -0.0859  0.3206
  667MPD2    C3 9869   3.792   3.245  14.284 -0.4695 -0.4484 -0.3839
  667MPD2    C4 9870   3.893   3.248  14.201 -0.4106  0.6105  0.5325
  667MPD2    C5 9871   4.016   3.290  14.251  0.3846  0.3045 -1.0506
  667MPD2     H 9872   3.721   3.257  14.491 -0.0505 -1.8736  0.1529
  667MPD2    H1 9873   3.882   3.224  14.096  0.6421  0.9196  0.3578
  667MPD2    H2 9874   4.121   3.378  14.407 -1.0166  1.3121  2.1660
  667MPD2    H3 9875   4.104   3.287  14.188 -0.3882 -0.1867 -2.1160
  667MPD2     N 9876   3.666   3.239  14.215 -0.0660  0.3308  0.3531
  667MPD2    H5 9877   3.675   3.251  14.114  0.2783 -2.4808  0.0540
  667MPD2    N1 9878   3.938   3.376  14.602 -0.5055 -0.3236  0.2632
  667MPD2    H7 9879   3.863   3.351  14.665 -0.0789 -1.4149  0.3457
  668TMC3    C1 9880   4.026   3.501  14.789  0.5440 -0.8760 -0.5019
  668TMC3    C2 9881   4.127   3.582  14.838  0.0568  0.5970 -0.0425
  668TMC3    C3 9882   4.145   3.590  14.968  0.2582  1.0119  0.1047
  668TMC3    C4 9883   3.947   3.417  14.869 -0.2597  0.2979  0.3340
  668TMC3    C5 9884   3.968   3.436  15.002 -0.5364 -0.4739  0.1941
  668TMC3    C6 9885   4.069   3.514  15.053  0.7379  0.3589  0.0576
  668TMC3     C 9886   4.033   3.466  14.647 -0.0182  0.3496 -0.5210
  668TMC3     O 9887   4.120   3.524  14.581 -0.0935 -0.3006 -0.0334
  668TMC3     H 9888   4.180   3.650  14.771 -1.9348  0.1424 -2.0904
  668TMC3    H1 9889   3.871   3.349  14.831  1.6784 -0.6714 -1.8649
  668TMC3    H2 9890   4.096   3.523  15.157  2.6470  0.0026 -0.3874
  668TMC3    C7 9891   3.886   3.366  15.099 -0.1656 -0.3499  0.2631
  668TMC3    C8 9892   4.269   3.642  15.028  0.5636 -0.1230  0.0743
  668TMC3    O1 9893   3.915   3.386  15.217  0.7654 -0.4569 -0.2092
  668TMC3    O2 9894   4.267   3.665  15.152  0.3182  0.7382  0.3057
  669TMC3    C1 9895   2.389   3.294  14.607 -0.6051 -0.3653 -0.3195
  669TMC3    C2 9896   2.320   3.271  14.494 -0.0026  0.2633 -0.6510
  669TMC3    C3 9897   2.349   3.349  14.379  0.2075  0.0598 -0.0115
  669TMC3    C4 9898   2.494   3.384  14.609 -0.0477  0.1932  0.6558
  669TMC3    C5 9899   2.522   3.459  14.496 -0.0463  0.8381  0.5391
  669TMC3    C6 9900   2.454   3.443  14.377  0.4237  0.1597  0.5469
  669TMC3     C 9901   2.361   3.204  14.711  0.7654 -0.7066  0.3012
  669TMC3     O 9902   2.244   3.162  14.725 -0.1628 -0.8921  0.3664
  669TMC3     H 9903   2.243   3.195  14.490  0.2556 -0.0997  1.5061
  669TMC3    H1 9904   2.545   3.406  14.702  1.0390  0.8036 -0.0939
  669TMC3    H2 9905   2.493   3.502  14.294 -1.1063 -0.8137 -0.8503
  669TMC3    C7 9906   2.618   3.570  14.503 -0.6726 -0.1244  0.0947
  669TMC3    C8 9907   2.260   3.347  14.270 -0.2042 -0.5090 -0.2225
  669TMC3    O1 9908   2.620   3.654  14.415 -0.3064 -0.2113 -0.4084
  669TMC3    O2 9909   2.212   3.235  14.247  0.4221  0.1092 -0.1270
  670MPD2     C 9910   0.195   1.249  13.447  0.5181 -0.6852  0.2634
  670MPD2    C1 9911   0.323   1.264  13.493 -0.4234  0.2684  0.3821
  670MPD2    C2 9912   0.361   1.209  13.612  0.3465 -0.4542  0.0993
  670MPD2    C3 9913   0.269   1.131  13.686  0.4848 -0.1395  0.3416
  670MPD2    C4 9914   0.142   1.110  13.640 -0.3817 -0.6569 -0.1481
  670MPD2    C5 9915   0.108   1.169  13.524  0.0481 -0.6721  0.4415
  670MPD2     H 9916   0.463   1.217  13.647  0.7040  0.6760 -1.2073
  670MPD2    H1 9917   0.070   1.041  13.683  1.2832 -2.5641 -0.4108
  670MPD2    H2 9918   0.167   1.287  13.349  2.1818 -0.7369 -0.2375
  670MPD2    H3 9919   0.012   1.140  13.483 -0.3458  0.3318  0.6435
  670MPD2     N 9920   0.319   1.069  13.800 -0.2104  0.3848  0.1877
  670MPD2    H5 9921   0.408   1.103  13.836  0.7341 -0.5476 -1.3022
  670MPD2    N1 9922   0.417   1.327  13.410  0.0976 -0.1501  0.4844
  670MPD2    H7 9923   0.503   1.335  13.464  1.6941  0.1880 -2.1336
  671TMC3    C1 9924   0.332   0.919  13.987 -0.2317 -0.0191 -0.5621
  671TMC3    C2 9925   0.466   0.957  14.007 -0.1788 -0.0535 -0.0236
  671TMC3    C3 9926   0.548   0.892  14.094  0.4276 -0.4302  0.4062
  671TMC3    C4 9927   0.290   0.803  14.047 -0.1838  0.1108  0.3697
  671TMC3    C5 9928   0.378   0.730  14.117  0.1002 -0.5977 -0.4508
  671TMC3    C6 9929   0.506   0.770  14.147  0.0682  0.5447  0.1562
  671TMC3     C 9930   0.255   0.961  13.866 -0.4688 -0.1435  0.5664
  671TMC3     O 9931   0.156   0.893  13.830 -0.1624  0.2063 -0.4190
  671TMC3     H 9932   0.505   1.048  13.963 -0.2939 -0.5260 -1.1192
  671TMC3    H1 9933   0.188   0.767  14.034  0.5952 -1.5503 -1.1396
  671TMC3    H2 9934   0.572   0.702  14.200 -0.4896  0.9464  1.3629
  671TMC3    C7 9935   0.386   0.594  14.072  0.2118  0.0520  0.2335
  671TMC3    C8 9936   0.691   0.932  14.104 -0.4711 -0.9668 -0.7186
  671TMC3    O1 9937   0.476   0.567  13.991 -0.2118  0.7273  0.0652
  671TMC3    O2 9938   0.745   0.968  14.001  0.1379 -0.2269  0.2489
  672MPD2     C 9939   0.480   1.029   0.834  0.4306  1.1230 -0.2172
  672MPD2    C1 9940   0.608   1.065   0.797 -0.1148 -0.4201 -0.3086
  672MPD2    C2 9941   0.689   1.097   0.903  0.1292  0.2161  0.0055
  672MPD2    C3 9942   0.648   1.114   1.037 -0.7485 -0.3338 -0.1959
  672MPD2    C4 9943   0.519   1.069   1.072  0.2556 -0.1728 -0.1197
  672MPD2    C5 9944   0.437   1.037   0.967  0.3666 -0.7058 -0.2673
  672MPD2     H 9945   0.774   1.153   0.866  2.7003 -1.8885  2.7731
  672MPD2    H1 9946   0.476   1.079   1.171  0.1697  0.0756 -0.1809
  672MPD2    H2 9947   0.405   0.994   0.765 -0.0717  3.0901 -0.6800
  672MPD2    H3 9948   0.331   1.019   0.982  0.7724 -2.2094  0.8134
  672MPD2     N 9949   0.732   1.173   1.130  0.2229  0.0927  0.3057
  672MPD2    H5 9950   0.706   1.185   1.227 -0.1631  1.3059  0.0465
  672MPD2    N1 9951   0.655   1.084   0.666 -0.4894 -0.1568  0.7336
  672MPD2    H7 9952   0.749   1.123   0.659 -0.1967 -1.1991 -1.1495
  673TMC3    C1 9953   0.637   1.148   0.431  0.1251 -0.0429 -0.2587
  673TMC3    C2 9954   0.746   1.079   0.388  0.3866  0.8994  0.7955
  673TMC3    C3 9955   0.800   1.101   0.261 -0.2737  0.7574 -0.0728
  673TMC3    C4 9956   0.583   1.251   0.362  0.1300 -0.5097  0.0681
  673TMC3    C5 9957   0.649   1.281   0.249 -0.3544 -0.5797  0.0163
  673TMC3    C6 9958   0.749   1.208   0.195 -0.5077 -0.0232  0.4807
  673TMC3     C 9959   0.572   1.097   0.551 -0.0839 -0.1059 -0.0860
  673TMC3     O 9960   0.446   1.084   0.548 -0.4827  0.2631  0.0927
  673TMC3     H 9961   0.780   0.991   0.441  0.7948  0.2453 -0.5464
  673TMC3    H1 9962   0.490   1.300   0.386  2.1539  2.9304  0.9904
  673TMC3    H2 9963   0.777   1.212   0.090  1.6901  0.7380  1.0871
  673TMC3    C7 9964   0.604   1.383   0.159  0.2828 -0.3272  0.3874
  673TMC3    C8 9965   0.904   1.018   0.200  0.3593 -0.7923 -0.6627
  673TMC3    O1 9966   0.594   1.347   0.039  0.3513 -0.3003  0.4438
  673TMC3    O2 9967   0.914   1.019   0.077  0.0642 -0.3935  0.4070
  674MPD2     C 9968   0.499   1.144  17.309  0.3037  0.7560  0.8202
  674MPD2    C1 9969   0.459   1.021  17.360 -0.4017  0.1362  0.0816
  674MPD2    C2 9970   0.323   0.991  17.340  0.0217 -0.3626 -0.4025
  674MPD2    C3 9971   0.228   1.073  17.284  0.1900 -0.2586 -0.1065
  674MPD2    C4 9972   0.277   1.195  17.240  0.4532  0.2159  0.4027
  674MPD2    C5 9973   0.410   1.227  17.249 -0.2646  0.2489  0.2538
  674MPD2     H 9974   0.287   0.899  17.385  0.7005 -0.2160  0.4460
  674MPD2    H1 9975   0.217   1.276  17.198 -2.0823 -0.8525  2.0258
  674MPD2    H2 9976   0.591   1.195  17.334  0.2834  1.6450 -0.9157
  674MPD2    H3 9977   0.441   1.326  17.219 -1.2170  0.7989  1.1062
  674MPD2     N 9978   0.089   1.028  17.285 -0.5577 -0.2935  0.1769
  674MPD2    H5 9979   0.063   0.940  17.330 -0.4168  0.0489  0.9171
  674MPD2    N1 9980   0.534   0.935  17.437  0.3444 -0.3863  0.2085
  674MPD2    H7 9981   0.487   0.851  17.468  0.5439 -0.1341  1.2049
  675TMC3    C1 9982   0.716   0.840  17.535 -0.2475 -0.3506  0.2157
  675TMC3    C2 9983   0.633   0.782  17.634  0.6536 -0.7244 -0.0828
  675TMC3    C3 9984   0.685   0.680   0.011 -0.6184 -0.2703  0.3330
  675TMC3    C4 9985   0.840   0.796  17.509  0.3501  0.8359  0.3340
  675TMC3    C5 9986   0.879   0.697  17.593 -0.0864 -0.0946 -1.0995
  675TMC3    C6 9987   0.814   0.646  17.700  0.0020 -0.5885  0.4005
  675TMC3     C 9988   0.668   0.946  17.455  0.5878  0.3585  0.1285
  675TMC3     O 9989   0.747   1.023  17.401 -0.7208  0.5972 -0.8114
  675TMC3     H 9990   0.534   0.827  17.646 -0.0592 -1.7988 -1.8162
  675TMC3    H1 9991   0.912   0.856  17.456  1.2391 -1.8333 -1.5099
  675TMC3    H2 9992   0.860   0.577   0.067 -0.1914 -1.2838 -0.1636
  675TMC3    C7 9993   1.011   0.639  17.564  0.1379  0.1280  0.1799
  675TMC3    C8 9994   0.630   0.676   0.150  1.0012 -0.1198  0.1119
  675TMC3    O1 9995   1.069   0.571  17.647  0.1187  0.1442  0.4481
  675TMC3    O2 9996   0.511   0.704   0.159 -0.4975 -0.2079 -0.0438
  676MPD2     C 9997   3.008   4.450  11.406  0.9086 -0.3198 -0.3842
  676MPD2    C1 9998   2.904   4.396  11.476  0.6424 -0.1943 -0.1750
  676MPD2    C2 9999   2.827   4.309  11.401 -0.0997 -0.1625 -0.0591
  676MPD2    C310000   2.844   4.276  11.266  0.3835 -0.1679 -0.7260
  676MPD2    C410001   2.948   4.335  11.203 -0.4451 -0.3982 -0.2100
  676MPD2    C510002   3.032   4.415  11.276  0.7929 -0.3862 -0.3765
  676MPD2     H10003   2.744   4.260  11.451  0.4396 -1.5578 -0.5064
  676MPD2    H110004   2.978   4.313  11.102 -0.1006  3.1926 -0.9138
  676MPD2    H210005   3.086   4.514  11.444  0.6515  1.7220 -3.2993
  676MPD2    H310006   3.123   4.453  11.232 -0.2779 -0.8525 -3.0529
  676MPD2     N10007   2.788   4.170  11.189  0.1396  0.4110  0.4120
  676MPD2    H510008   2.824   4.155  11.095 -1.2174  0.8937 -0.1878
  676MPD2    N110009   2.875   4.422  11.611 -0.3032 -0.4239 -0.4098
  676MPD2    H710010   2.795   4.371  11.648 -0.5236  0.3017  0.1162
  677TMC3    C110011   2.914   4.501  11.822 -0.1081  0.4153  0.1982
  677TMC3    C210012   2.788   4.458  11.848 -0.6036  0.7682  0.2934
  677TMC3    C310013   2.762   4.433  11.981 -0.2800  0.0805 -0.6047
  677TMC3    C410014   2.996   4.548  11.920 -0.2656 -0.0931  0.3043
  677TMC3    C510015   2.967   4.520  12.051  0.2623  0.3423 -0.0778
  677TMC3    C610016   2.849   4.462  12.086  0.2426 -0.2973 -0.4512
  677TMC3     C10017   2.944   4.521  11.681  0.6623  0.1456  0.1149
  677TMC3     O10018   3.037   4.599  11.655 -0.3120 -0.7155 -0.1603
  677TMC3     H10019   2.712   4.437  11.774  1.9252 -1.0097 -1.8038
  677TMC3    H110020   3.093   4.588  11.893 -0.1580  0.9693  2.2296
  677TMC3    H210021   2.826   4.445  12.190 -0.0850  1.1034 -0.2900
  677TMC3    C710022   3.014   4.608  12.149  0.0977 -0.1512  0.0472
  677TMC3    C810023   2.636   4.366  12.012 -0.1183 -0.2373 -1.4823
  677TMC3    O110024   2.994   4.571  12.268  0.4735 -0.3205 -0.4485
  677TMC3    O210025   2.544   4.421  11.951 -0.2206 -1.3552 -0.5098
  678MPD2     C10026   3.983   0.447   1.222 -0.1330 -0.0737  0.1516
  678MPD2    C110027   4.032   0.334   1.166  0.7477  0.2875 -0.0936
  678MPD2    C210028   3.945   0.246   1.105  0.1927  0.1895 -0.5247
  678MPD2    C310029   3.809   0.264   1.110  0.4145  0.9370  0.1271
  678MPD2    C410030   3.767   0.373   1.178 -0.7596  0.3741  0.4194
  678MPD2    C510031   3.850   0.467   1.229  0.3399 -0.0212  0.4540
  678MPD2     H10032   3.983   0.158   1.055  0.2003 -0.8932  1.3711
  678MPD2    H110033   3.664   0.405   1.174 -0.5715  0.8226 -0.7517
  678MPD2    H210034   4.043   0.530   1.256  0.6265 -0.5633  0.0166
  678MPD2    H310035   3.817   0.565   1.261 -0.6806 -0.2620  0.1118
  678MPD2     N10036   3.723   0.165   1.055 -0.0829  0.0869 -0.0964
  678MPD2    H510037   3.780   0.095   1.009 -0.5345 -1.9417  2.4971
  678MPD2    N110038   4.169   0.301   1.167  1.0077  0.0594 -0.2963
  678MPD2    H710039   4.189   0.209   1.131 -0.7846 -0.6021  0.3950
  679TMC3    C110040   4.539   0.130   1.224 -0.3217 -0.2317  0.1578
  679TMC3    C210041   4.414   0.179   1.248  0.3861 -0.9651  0.1664
  679TMC3    C310042   4.399   0.317   1.218 -0.2944 -0.4633 -0.1685
  679TMC3    C410043   4.648   0.211   1.192 -0.2089 -0.4838 -0.6145
  679TMC3    C510044   4.620   0.340   1.168  0.8679  0.0550 -0.4300
  679TMC3    C610045   4.495   0.400   1.168  0.3284  0.2892 -0.1418
  679TMC3     C10046   4.569   4.718   1.209 -0.1724  0.3916 -0.3152
  679TMC3     O10047   4.660   4.688   1.137 -0.2423 -0.5059  0.1085
  679TMC3     H10048   4.343   0.118   1.302 -0.3503  1.2270  1.6559
  679TMC3    H110049   0.025   0.177   1.187 -0.3232 -0.9128 -0.0970
  679TMC3    H210050   4.469   0.500   1.136 -0.2735 -0.8481 -3.2839
  679TMC3    C710051   4.709   0.400   1.078 -0.1477 -0.5814 -0.1185
  679TMC3    C810052   4.271   0.379   1.228 -0.1987  0.2986  0.1655
  679TMC3    O110053   0.055   0.330   1.007  0.3461  0.4744  0.5087
  679TMC3    O210054   4.270   0.498   1.253  0.6775  0.6095  0.4450
  680MPD2     C10055   4.508   3.185  13.699 -0.7401 -0.5220  0.6026
  680MPD2    C110056   4.614   3.123  13.763  0.2529 -0.1903 -0.1279
  680MPD2    C210057   0.001   3.194  13.774 -0.4348  0.4515 -0.0211
  680MPD2    C310058   0.021   3.318  13.716 -1.0722  0.0627 -0.1785
  680MPD2    C410059   4.644   3.382  13.654  0.1120 -0.3437 -0.2054
  680MPD2    C510060   4.526   3.311  13.653  0.5967  0.1832  0.2836
  680MPD2     H10061   0.084   3.140  13.818 -0.1388  1.7864  1.0693
  680MPD2    H110062   4.658   3.481  13.611 -1.6353  0.4118  0.9936
  680MPD2    H210063   4.409   3.142  13.685 -0.4593 -0.5489 -1.2112
  680MPD2    H310064   4.448   3.371  13.607  0.6949 -1.2903 -1.8260
  680MPD2     N10065   0.150   3.380  13.725 -0.3220 -0.0110 -0.6846
  680MPD2    H510066   0.171   3.465  13.674  2.3000  0.2765  0.8670
  680MPD2    N110067   4.602   2.999  13.823  0.0697  0.8062 -0.2746
  680MPD2    H710068   4.684   2.956  13.864  0.0717  0.3750 -0.7351
  681TMC3    C110069   4.535   2.780  13.881  0.6895  0.3286 -0.2244
  681TMC3    C210070   4.632   2.777  13.972 -0.3985 -0.7937 -0.1457
  681TMC3    C310071   4.673   2.658  14.017  0.0281  0.5533  0.6958
  681TMC3    C410072   4.474   2.666  13.837  0.3498 -0.0360  0.1820
  681TMC3    C510073   4.525   2.550  13.873 -0.0870 -0.1242 -0.3693
  681TMC3    C610074   4.618   2.543  13.972 -0.2434  0.8333  0.0240
  681TMC3     C10075   4.501   2.907  13.822  1.1506  0.6444  0.1499
  681TMC3     O10076   4.390   2.912  13.770  0.2792 -0.1700 -0.5301
  681TMC3     H10077   4.654   2.872  14.019 -0.1765 -0.6989 -0.4415
  681TMC3    H110078   4.388   2.666  13.771 -0.2599  0.0618  0.9875
  681TMC3    H210079   4.659   2.445  13.992  1.9260  1.3832 -1.7731
  681TMC3    C710080   4.499   2.438  13.785 -0.2014 -0.4313  0.0191
  681TMC3    C810081   4.657   2.672  14.156 -0.3172  0.4218 -0.6389
  681TMC3    O110082   4.383   2.429  13.755  0.3512 -0.2075 -0.4807
  681TMC3    O210083   4.541   2.656  14.192 -0.4000  0.5611  0.1033
  682MPD2     C10084   2.151   4.234  10.076 -0.3147  0.1783 -0.8405
  682MPD2    C110085   2.133   4.107  10.132  0.7395  0.6012  0.4768
  682MPD2    C210086   2.073   4.103  10.252 -0.3233 -0.2754  0.5284
  682MPD2    C310087   2.043   4.223  10.321  0.2242 -0.0601  1.1502
  682MPD2    C410088   2.074   4.341  10.267 -0.6005 -0.1141  0.2068
  682MPD2    C510089   2.128   4.350  10.145  0.1770  0.0471 -0.6109
  682MPD2     H10090   2.031   4.010  10.288  1.3176  0.3612  4.1525
  682MPD2    H110091   2.045   4.437  10.308  4.1246  0.9348  1.1370
  682MPD2    H210092   2.186   4.247   9.975 -3.1114 -0.7234 -1.9206
  682MPD2    H310093   2.148   4.450  10.107  1.0679  1.0321  2.4507
  682MPD2     N10094   1.962   4.240  10.439  1.0235 -0.3684  0.1834
  682MPD2    H510095   1.927   4.333  10.461  0.5224 -1.3084  3.3710
  682MPD2    N110096   2.162   3.986  10.063 -0.1330  0.3233 -0.0022
  682MPD2    H710097   2.155   3.903  10.121 -2.6480  3.4689  4.2963
  683TMC3    C110098   1.759   4.278  10.822  0.3213 -0.5710  0.9792
  683TMC3    C210099   1.668   4.190  10.862 -0.5709  0.0799 -0.2175
  683TMC3    C310100   1.646   4.089  10.764 -0.0156 -0.8646  0.8620
  683TMC3    C410101   1.833   4.276  10.706  0.3811 -0.3695  0.3277
  683TMC3    C510102   1.814   4.171  10.619 -0.1242 -0.0801 -0.5846
  683TMC3    C610103   1.725   4.071  10.655  0.6685 -0.1166 -0.0296
  683TMC3     C10104   1.785   4.381  10.924 -0.5137 -0.3555  0.6325
  683TMC3     O10105   1.906   4.414  10.937 -0.0485 -0.2808  0.0718
  683TMC3     H10106   1.618   4.196  10.958  2.6554  1.0159  1.3748
  683TMC3    H110107   1.898   4.360  10.683 -2.6651  2.0088  0.2715
  683TMC3    H210108   1.702   3.987  10.590 -0.2870  0.5790 -0.6049
  683TMC3    C710109   1.916   4.133  10.518 -0.0787 -0.0391 -0.1495
  683TMC3    C810110   1.581   3.967  10.807 -0.3113  0.4496  0.2319
  683TMC3    O110111   1.940   4.015  10.500 -0.5082 -0.0350  0.3543
  683TMC3    O210112   1.531   3.893  10.724 -0.0111  0.0842  0.3454
  684MPD2     C10113   0.512   3.583  16.508  0.1068  0.6819  0.5233
  684MPD2    C110114   0.505   3.627  16.380  1.5358  0.0763  0.5956
  684MPD2    C210115   0.516   3.762  16.350  0.2614  0.3214 -0.2393
  684MPD2    C310116   0.541   3.853  16.450 -0.1795 -0.0114 -0.0855
  684MPD2    C410117   0.555   3.811  16.578  0.0216 -0.9565  0.3886
  684MPD2    C510118   0.536   3.678  16.607 -0.4712  0.9354  0.5959
  684MPD2     H10119   0.491   3.797  16.251  0.1591  1.6626  0.2570
  684MPD2    H110120   0.573   3.873  16.665 -0.2206 -1.9417  1.1441
  684MPD2    H210121   0.509   3.482  16.548  1.5156  0.9681  1.3161
  684MPD2    H310122   0.532   3.652  16.712 -1.0311  2.3794  0.9297
  684MPD2     N10123   0.550   3.986  16.425  0.3845  0.1599  0.4943
  684MPD2    H510124   0.579   4.045  16.502 -4.0049  0.9772  1.5202
  684MPD2    N110125   0.491   3.555  16.267 -0.5594  0.5401  0.0857
  684MPD2    H710126   0.487   3.605  16.179  0.7412  0.2962 -0.1129
  685TMC3    C110127   0.568   3.414  16.106 -0.2803  0.3569 -0.2597
  685TMC3    C210128   0.474   3.467  16.025  0.0713  0.3530  1.1419
  685TMC3    C310129   0.502   3.480  15.891 -0.2676 -0.3679 -0.4579
  685TMC3    C410130   0.699   3.402  16.068  0.4331 -0.5587 -0.0370
  685TMC3    C510131   0.728   3.427  15.932 -0.1309  0.3966 -0.4308
  685TMC3    C610132   0.629   3.470  15.838 -0.0896  0.3137 -0.2914
  685TMC3     C10133   0.553   3.435  16.253 -0.4981 -0.7214  0.1162
  685TMC3     O10134   0.613   3.370  16.336  0.3542 -0.1891  0.1118
  685TMC3     H10135   0.368   3.451  16.044  0.1197  0.7529  1.7435
  685TMC3    H110136   0.757   3.339  16.134  0.6963 -1.1289 -0.8129
  685TMC3    H210137   0.646   3.506  15.737  0.1900  0.6749 -0.1116
  685TMC3    C710138   0.867   3.435  15.888 -0.2886 -0.5145  0.4470
  685TMC3    C810139   0.395   3.509  15.794 -0.1666 -0.7352 -0.4882
  685TMC3    O110140   0.889   3.455  15.770  0.3349  0.3185  0.6071
  685TMC3    O210141   0.417   3.505  15.673  0.6474 -0.1508  0.0330
  686MPD2     C10142   2.264   4.031  15.507 -0.3418  0.3510 -0.2706
  686MPD2    C110143   2.213   3.919  15.564 -0.2382 -0.3311  0.4445
  686MPD2    C210144   2.280   3.801  15.541  0.3199  0.7488  0.4060
  686MPD2    C310145   2.398   3.795  15.471  0.2288 -0.1758 -0.1937
  686MPD2    C410146   2.462   3.908  15.416  0.5000 -0.9765 -0.3000
  686MPD2    C510147   2.394   4.026  15.444  0.4159  0.1567  0.2483
  686MPD2     H10148   2.247   3.708  15.587 -2.3635  1.9402  0.8716
  686MPD2    H110149   2.551   3.913  15.354  0.5882 -0.5488 -0.1369
  686MPD2    H210150   2.221   4.126  15.537  0.5647  0.3725  0.9450
  686MPD2    H310151   2.431   4.121  15.407  0.4795 -0.2692 -0.7790
  686MPD2     N10152   2.451   3.667  15.466 -0.5585 -0.1847  0.8281
  686MPD2    H510153   2.390   3.596  15.504  0.5090 -0.1866  2.5514
  686MPD2    N110154   2.104   3.918  15.652 -0.4794 -0.1094  0.3726
  686MPD2    H710155   2.054   4.004  15.669 -1.7972 -0.8966  0.4809
  687TMC3    C110156   2.588   3.479  15.421 -0.4755  0.2387  0.2603
  687TMC3    C210157   2.468   3.422  15.443 -0.0446  0.1570 -0.0058
  687TMC3    C310158   2.459   3.326  15.540  1.0081  0.3205 -0.2015
  687TMC3    C410159   2.701   3.443  15.490 -0.0567 -0.0187 -0.1623
  687TMC3    C510160   2.688   3.357  15.597 -0.6327 -0.7763  0.4194
  687TMC3    C610161   2.569   3.294  15.619 -0.0108 -0.2326 -0.0693
  687TMC3     C10162   2.571   3.624  15.407  0.5405  0.6808 -0.4219
  687TMC3     O10163   2.663   3.686  15.360 -0.4065 -0.3494 -0.3259
  687TMC3     H10164   2.384   3.459  15.385 -0.4805 -1.1722 -0.2252
  687TMC3    H110165   2.795   3.497  15.481 -1.0463  1.8047  0.2443
  687TMC3    H210166   2.556   3.216  15.694  1.4573  1.4386  1.9458
  687TMC3    C710167   2.814   3.315  15.662  0.3645  0.6648 -0.2733
  687TMC3    C810168   2.325   3.312  15.602  0.1588 -0.4502  0.1202
  687TMC3    O110169   2.908   3.322  15.584  0.2377  0.0941  0.2073
  687TMC3    O210170   2.321   3.302  15.723 -0.1133 -0.6565  0.0326
  688MPD2     C10171   1.099   2.675  17.237  0.0189  0.7583 -0.0182
  688MPD2    C110172   1.100   2.537  17.232 -0.1413 -0.2702 -1.0096
  688MPD2    C210173   1.184   2.466  17.152 -0.2035  1.0905 -0.3833
  688MPD2    C310174   1.262   2.529  17.057  0.6620  0.3844 -0.5317
  688MPD2    C410175   1.265   2.666  17.064 -0.6519  0.0252  0.4735
  688MPD2    C510176   1.184   2.738  17.151  0.0448  0.2962 -0.1710
  688MPD2     H10177   1.175   2.358  17.154  1.5150  1.0333  3.0000
  688MPD2    H110178   1.334   2.727  17.007 -2.7510  2.0219  0.0638
  688MPD2    H210179   1.043   2.741  17.302  2.9333  2.9668  0.2049
  688MPD2    H310180   1.199   2.845  17.158 -1.2125  0.4608  0.0566
  688MPD2     N10181   1.341   2.470  16.959  0.2066 -0.0747 -0.2769
  688MPD2    H510182   1.391   2.536  16.900  2.2601 -0.9562  0.4823
  688MPD2    N110183   1.016   2.454  17.317  0.1256  0.2534  0.0073
  688MPD2    H710184   1.026   2.354  17.302  0.0019  0.2884 -0.3127
  689TMC3    C110185   0.859   2.394  17.486 -0.0423 -0.2126  0.0095
  689TMC3    C210186   0.829   2.422  17.616  0.8135  0.4864  0.6086
  689TMC3    C310187   0.769   2.330  17.698 -0.1199 -1.4916  0.5779
  689TMC3    C410188   0.823   2.276  17.431 -0.3879  0.2935 -0.3512
  689TMC3    C510189   0.778   2.178  17.521  0.4664  0.0973 -0.0331
  689TMC3    C610190   0.750   2.203  17.657  0.0972  0.2031  0.0413
  689TMC3     C10191   0.926   2.503  17.407  0.4996 -0.5914 -0.1010
  689TMC3     O10192   0.902   2.616  17.440 -0.1536 -0.2921  0.6731
  689TMC3     H10193   0.864   2.518  17.654  1.0484  1.6632 -2.5699
  689TMC3    H110194   0.853   2.247  17.330  1.3716 -0.1772  0.3069
  689TMC3    H210195   0.691   2.136   0.018 -0.2030 -0.8089 -1.3165
  689TMC3    C710196   0.744   2.046  17.464  0.4184 -0.0055 -0.7881
  689TMC3    C810197   0.742   2.353   0.137  0.4068  0.6278 -0.3035
  689TMC3    O110198   0.740   2.042  17.345 -0.2240 -0.2388  0.3497
  689TMC3    O210199   0.728   2.251   0.205 -0.2771 -0.2341  0.0672
  690MPD2     C10200   3.791   4.481  15.455 -0.0114  0.6557  0.4857
  690MPD2    C110201   3.741   4.489  15.324 -0.2372 -0.0065 -0.1587
  690MPD2    C210202   3.821   4.558  15.231 -0.7981 -0.0167  0.0667
  690MPD2    C310203   3.947   4.608  15.261 -0.2763  0.6552  0.9513
  690MPD2    C410204   3.991   4.597  15.387 -0.2165 -0.8088 -0.0141
  690MPD2    C510205   3.919   4.528  15.481  0.4501  0.5895  0.3185
  690MPD2     H10206   3.778   4.556  15.131 -0.8402 -0.4103  0.0951
  690MPD2    H110207   4.085   4.643  15.417 -0.7749  1.2585 -1.4511
  690MPD2    H210208   3.737   4.440  15.539  1.7237  0.4071  1.4671
  690MPD2    H310209   3.951   4.518  15.584  0.6683  1.5657  0.3500
  690MPD2     N10210   4.024   4.672  15.157 -0.8209 -0.2765 -0.1156
  690MPD2    H510211   3.973   4.668  15.070 -1.4508 -1.0271  0.2886
  690MPD2    N110212   3.623   4.426  15.289  0.3116  0.1156 -0.0512
  690MPD2    H710213   3.602   4.427  15.190 -0.0232 -0.3390  0.0174
  691TMC3    C110214   3.423   4.329  15.301 -0.3757 -0.2317  0.2478
  691TMC3    C210215   3.300   4.344  15.355 -0.3735  0.0673 -0.2031
  691TMC3    C310216   3.201   4.267  15.302  1.0249  0.7377 -0.2021
  691TMC3    C410217   3.455   4.244  15.198  0.2926  0.0655  0.1914
  691TMC3    C510218   3.359   4.159  15.161 -0.5640 -0.1106 -0.0155
  691TMC3    C610219   3.226   4.172  15.208 -0.2126  0.1072  0.3337
  691TMC3     C10220   3.523   4.389  15.375  0.2162 -0.4689 -0.0913
  691TMC3     O10221   3.511   4.392  15.498 -0.1873  0.5054 -0.2761
  691TMC3     H10222   3.299   4.400  15.448  0.7590 -1.3864  0.6760
  691TMC3    H110223   3.560   4.224  15.178  0.3554  0.3324  0.2568
  691TMC3    H210224   3.139   4.112  15.181  1.0712 -1.6680  0.1584
  691TMC3    C710225   3.403   4.020  15.130  0.0439  0.1928 -0.2429
  691TMC3    C810226   3.082   4.247  15.382 -0.5374  0.7017 -0.3228
  691TMC3    O110227   3.523   3.999  15.134 -0.0850  0.0537 -0.2716
  691TMC3    O210228   3.037   4.135  15.384  0.1525  0.1740 -0.8947
  692TMC3    C110229   0.248   0.532  15.983  0.2292 -0.1930 -0.0539
  692TMC3    C210230   0.356   0.571  16.053  0.3675 -0.2184  0.7459
  692TMC3    C310231   0.469   0.484  16.049  0.1100  0.5020 -0.1182
  692TMC3    C410232   0.243   0.431  15.886 -0.0535  0.2043 -0.7066
  692TMC3    C510233   0.358   0.366  15.870  0.7194  0.1251 -0.2280
  692TMC3    C610234   0.466   0.389  15.949 -0.1449 -0.3792  0.8999
  692TMC3     C10235   0.123   0.611  16.001  0.5032 -0.6168  0.7254
  692TMC3     O10236   0.013   0.564  15.974  0.2327  0.6801  0.0477
  692TMC3     H10237   0.345   0.627  16.145  2.1120  1.7947 -0.2826
  692TMC3    H110238   0.153   0.413  15.828 -0.7128  1.0193  0.0787
  692TMC3    H210239   0.559   0.349  15.912  0.3216  1.7225 -0.2251
  692TMC3    C710240   0.370   0.246  15.791 -0.2584 -0.5500 -0.2445
  692TMC3    C810241   0.481   0.393  16.162 -0.2271  0.2011  0.1236
  692TMC3    O110242   0.314   0.242  15.687  0.3468  0.0947  0.0819
  692TMC3    O210243   0.505   0.275  16.140 -0.5200  0.2252 -0.1328
  693MPD2     C10244   4.196   3.767  11.156  0.1043 -0.2708  0.6030
  693MPD2    C110245   4.197   3.645  11.092 -0.0344  0.7854 -0.1543
  693MPD2    C210246   4.316   3.591  11.046 -0.0433 -0.5175 -0.2156
  693MPD2    C310247   4.438   3.646  11.097 -0.3529  0.7059  0.5607
  693MPD2    C410248   4.434   3.756  11.183  0.8079 -0.6754  0.0578
  693MPD2    C510249   4.316   3.822  11.203 -0.1604  0.3708 -0.0925
  693MPD2     H10250   4.311   3.505  10.981 -0.9764 -0.8070  0.2376
  693MPD2    H110251   4.523   3.816  11.193  0.7702 -0.3419 -1.5603
  693MPD2    H210252   4.097   3.806  11.180  0.1240  1.4222 -2.1335
  693MPD2    H310253   4.319   3.912  11.263 -1.1047  0.1238  0.3255
  693MPD2     N10254   4.566   3.589  11.074  0.3281 -0.1108  0.5267
  693MPD2    H510255   4.644   3.626  11.128  1.0232 -1.7667  0.6612
  693MPD2    N110256   4.068   3.582  11.067 -0.0128  0.3822  0.2030
  693MPD2    H710257   3.982   3.625  11.101 -0.9731 -2.4429  1.3551
  694TMC3    C110258   3.898   3.425  11.009  0.4266  0.0983 -0.6829
  694TMC3    C210259   3.853   3.333  10.918 -0.1132  0.4647 -0.5214
  694TMC3    C310260   3.748   3.251  10.958  0.1914 -0.2349  0.0235
  694TMC3    C410261   3.828   3.449  11.122  0.3756 -0.0711 -0.5122
  694TMC3    C510262   3.715   3.376  11.157  0.2477  0.3745  0.1806
  694TMC3    C610263   3.681   3.269  11.075 -0.6883  1.0161 -0.7116
  694TMC3     C10264   4.037   3.462  11.002  0.1621 -0.2227  0.6018
  694TMC3     O10265   4.109   3.383  10.949  0.4273  0.5982  0.0516
  694TMC3     H10266   3.891   3.331  10.816  1.4022 -1.5197  0.0955
  694TMC3    H110267   3.872   3.521  11.190  0.2187 -0.9808  0.5477
  694TMC3    H210268   3.601   3.206  11.113  0.5999 -0.7409 -0.9123
  694TMC3    C710269   3.705   3.359  11.301  0.2138  0.2282 -0.2208
  694TMC3    C810270   3.702   3.134  10.884  0.3764  0.3290  0.7807
  694TMC3    O110271   3.749   3.448  11.372  0.5363 -0.0882 -0.0014
  694TMC3    O210272   3.589   3.093  10.915  0.1968  0.2845  0.3770
  695MPD2     C10273   1.043   0.747  13.283  0.0522  0.1434  0.5202
  695MPD2    C110274   1.007   0.682  13.402  0.2648 -0.4677  0.0526
  695MPD2    C210275   0.880   0.640  13.424 -0.2412 -0.1429 -0.0053
  695MPD2    C310276   0.783   0.671  13.325 -0.0035 -0.5802  0.0496
  695MPD2    C410277   0.818   0.742  13.214  0.1229  0.5798 -0.6825
  695MPD2    C510278   0.946   0.765  13.186 -0.0929  0.1326  0.2133
  695MPD2     H10279   0.848   0.583  13.510  1.2542 -0.5896  0.2514
  695MPD2    H110280   0.736   0.789  13.161 -0.8002  0.1930  0.3992
  695MPD2    H210281   1.144   0.778  13.258 -0.2595  0.9152  0.1995
  695MPD2    H310282   0.978   0.811  13.093 -1.7265 -0.0940 -0.4581
  695MPD2     N10283   0.651   0.625  13.343 -0.1304  0.2108  1.0833
  695MPD2    H510284   0.640   0.581  13.434 -2.2937  0.4922  0.9495
  695MPD2    N110285   1.108   0.648  13.498 -0.0968  0.5554  0.3116
  695MPD2    H710286   1.080   0.611  13.589  2.9677 -1.3126  0.5005
  696TMC3    C110287   0.426   0.564  13.304 -0.1602 -0.4575  0.2398
  696TMC3    C210288   0.434   0.463  13.395  0.3622  0.3133 -0.3652
  696TMC3    C310289   0.319   0.418  13.451  0.4198  0.5277 -0.6808
  696TMC3    C410290   0.310   0.618  13.270 -0.1188 -0.3342 -0.5968
  696TMC3    C510291   0.196   0.574  13.323 -0.1943  0.1921 -0.2495
  696TMC3    C610292   0.200   0.481  13.424  0.2968 -0.1045  0.4726
  696TMC3     C10293   0.546   0.627  13.256 -0.3040 -0.6435 -0.2317
  696TMC3     O10294   0.532   0.684  13.145 -0.9868 -0.4899  0.0878
  696TMC3     H10295   0.528   0.411  13.407  0.0214 -0.3693 -0.6014
  696TMC3    H110296   0.307   0.706  13.206  1.1301 -1.7485 -2.5891
  696TMC3    H210297   0.106   0.447  13.464 -0.7188  2.0449 -0.1064
  696TMC3    C710298   0.091   0.673  13.324 -0.0292 -0.3427  0.0938
  696TMC3    C810299   0.329   0.374  13.586  0.2804  0.1249  0.3497
  696TMC3    O110300   0.053   0.724  13.220 -0.1629  0.3572 -0.2585
  696TMC3    O210301   0.438   0.389  13.636 -0.4839 -0.1834  0.1478
  697MPD2     C10302   4.520   2.193  15.673  0.0763 -0.1521  0.1320
  697MPD2    C110303   4.535   2.125  15.552  0.5010 -0.9287  1.9259
  697MPD2    C210304   4.553   2.196  15.429  0.2822 -0.2065  0.4749
  697MPD2    C310305   4.561   2.337  15.431 -0.6247  0.3983 -0.4643
  697MPD2    C410306   4.560   2.401  15.552 -0.2685  0.5127  0.0484
  697MPD2    C510307   4.533   2.332  15.665  0.0718 -0.1161  0.4552
  697MPD2     H10308   4.558   2.147  15.332  2.4030 -0.4329  0.6907
  697MPD2    H110309   4.576   2.508  15.562  1.6343  0.2777 -0.4340
  697MPD2    H210310   4.521   2.141  15.768  1.2941  1.3630  0.9725
  697MPD2    H310311   4.531   2.388  15.758 -2.6356  0.9507 -0.2318
  697MPD2     N10312   4.572   2.416  15.315 -0.6475  0.1824  0.0365
  697MPD2    H510313   4.610   2.365  15.236  0.9701 -0.9339  1.5270
  697MPD2    N110314   4.519   1.978  15.539  0.4524 -0.1966 -0.1566
  697MPD2    H710315   4.520   1.953  15.441  1.8459 -1.7095  0.2408
  698TMC3    C110316   4.614   2.612  15.197 -0.2536 -0.3925  0.4406
  698TMC3    C210317   4.696   2.712  15.229 -0.7400  0.1286  0.1726
  698TMC3    C310318   0.076   2.737  15.147  0.2686  0.2646  0.8341
  698TMC3    C410319   4.633   2.544  15.088 -0.0115 -0.0825 -0.4360
  698TMC3    C510320   0.009   2.575  14.998 -0.1473  0.7709 -0.0726
  698TMC3    C610321   0.101   2.669  15.030  0.7015 -0.0254 -0.5891
  698TMC3     C10322   4.559   2.551  15.309 -0.1045  0.5437 -0.0723
  698TMC3     O10323   4.506   2.632  15.388  0.0849 -0.5809  0.1196
  698TMC3     H10324   4.687   2.753  15.329  3.8972  2.2578 -0.2660
  698TMC3    H110325   4.563   2.462  15.079  1.4634 -1.4372  0.5350
  698TMC3    H210326   0.183   2.688  14.962  1.0497  3.3436  0.7437
  698TMC3    C710327   4.716   2.524  14.865 -0.2993 -0.0630  1.0069
  698TMC3    C810328   0.187   2.807  15.213  0.5472  0.1037  0.9513
  698TMC3    O110329   4.611   2.467  14.846 -0.1161  0.8212 -0.5067
  698TMC3    O210330   0.170   2.836  15.331  0.0813  0.2769  0.0774
  699TMC3    C110331   0.229   0.433  12.740 -0.0373 -0.1680  0.0398
  699TMC3    C210332   0.350   0.369  12.751  0.0069  0.0626 -1.2820
  699TMC3    C310333   0.342   0.233  12.766 -0.2457 -0.5397  0.0668
  699TMC3    C410334   0.110   0.371  12.726  0.5066 -0.4042 -0.8698
  699TMC3    C510335   0.110   0.233  12.752  0.0375 -0.5482 -0.7093
  699TMC3    C610336   0.223   0.165  12.768 -0.7762 -0.0099  0.7578
  699TMC3     C10337   0.217   0.570  12.712  0.1635 -0.4096 -0.0317
  699TMC3     O10338   0.105   0.609  12.680 -0.1741  0.6978 -0.5010
  699TMC3     H10339   0.444   0.423  12.744 -0.6500  1.5227  1.1737
  699TMC3    H110340   0.017   0.425  12.714 -0.2237 -1.5149 -0.1940
  699TMC3    H210341   0.231   0.058  12.784  2.3162  0.0810 -0.2030
  699TMC3    C710342   4.723   0.198  12.832 -0.4341  0.1204  0.3899
  699TMC3    C810343   0.434   0.174  12.860 -0.2612  0.3632 -0.1791
  699TMC3    O110344   4.655   0.297  12.866 -0.1142 -0.6025 -0.0636
  699TMC3    O210345   0.448   0.052  12.863 -0.0430 -0.5981 -0.3263
  700TMC3    C110346   3.835   2.567  17.140 -1.1063  0.3703  0.0859
  700TMC3    C210347   3.928   2.461  17.137 -0.2110 -0.8093 -0.6734
  700TMC3    C310348   4.019   2.456  17.239 -0.1884 -0.1796 -0.1391
  700TMC3    C410349   3.830   2.652  17.243 -0.5741  0.2221  0.6070
  700TMC3    C510350   3.912   2.633  17.352  0.2639  0.1651 -0.0143
  700TMC3    C610351   4.006   2.533  17.355 -0.1074 -0.0219  0.9687
  700TMC3     C10352   3.796   2.614  17.009 -0.8578 -0.1135  0.6148
  700TMC3     O10353   3.743   2.537  16.930  0.2958  0.1183  0.9058
  700TMC3     H10354   3.943   2.413  17.041 -2.0525  1.2731 -1.9784
  700TMC3    H110355   3.752   2.727  17.242  2.4129  3.2974 -0.1717
  700TMC3    H210356   4.060   2.494  17.441 -1.0042  0.3453  1.6949
  700TMC3    C710357   3.909   2.733  17.455 -0.2544 -0.1997  0.5069
  700TMC3    C810358   4.130   2.373  17.209 -0.8011 -0.5470  0.4489
  700TMC3    O110359   4.012   2.741  17.521  0.5278  0.0368  0.1418
  700TMC3    O210360   4.118   2.305  17.107 -0.6131 -0.5103  0.1430
  701TMC3    C110361   3.853   1.399  15.473 -0.2529 -0.9515  0.3976
  701TMC3    C210362   3.877   1.336  15.352  0.3513  0.1492 -0.0847
  701TMC3    C310363   3.998   1.360  15.309  0.0932 -0.1465 -0.4108
  701TMC3    C410364   3.942   1.486  15.532  0.4167  0.2415  0.6079
  701TMC3    C510365   4.068   1.491  15.485  0.6978  0.3278 -0.5832
  701TMC3    C610366   4.100   1.434  15.372 -0.2536  0.6899  0.1763
  701TMC3     C10367   3.718   1.414  15.530  0.1086 -0.4438 -0.0505
  701TMC3     O10368   3.690   1.513  15.594 -0.5795 -0.1323 -0.3057
  701TMC3     H10369   3.807   1.266  15.308  0.7438  0.3787 -1.0618
  701TMC3    H110370   3.914   1.545  15.619 -3.7860  0.4560 -0.8537
  701TMC3    H210371   4.194   1.443  15.319 -1.2789 -0.6081 -1.8399
  701TMC3    C710372   4.140   1.617  15.494 -0.6941 -0.9494 -0.1455
  701TMC3    C810373   4.037   1.273  15.203  0.5657  0.0683  0.0491
  701TMC3    O110374   4.185   1.663  15.389 -0.3895  0.1945  0.3107
  701TMC3    O210375   4.129   1.196  15.210  0.8524 -0.3640  0.2845
  702MPD2     C10376   2.927   3.718  10.623  0.0476 -0.3771  0.1527
  702MPD2    C110377   2.900   3.839  10.685  0.1508 -0.2371  0.6493
  702MPD2    C210378   2.918   3.955  10.613  0.5707 -0.5595 -0.1305
  702MPD2    C310379   2.963   3.946  10.489 -0.2745  0.3941 -0.4730
  702MPD2    C410380   2.981   3.831  10.422 -0.9696  1.2539  0.3831
  702MPD2    C510381   2.963   3.711  10.489  0.2627 -0.8010 -0.2849
  702MPD2     H10382   2.912   4.053  10.660 -1.7994 -0.6508 -0.2666
  702MPD2    H110383   3.001   3.829  10.315  1.0184  1.2069  0.7485
  702MPD2    H210384   2.903   3.623  10.669 -0.8387  0.0634  0.6007
  702MPD2    H310385   2.966   3.617  10.436 -0.1840 -0.9118 -0.1143
  702MPD2     N10386   2.960   4.064  10.415 -0.4731 -0.2936  0.9132
  702MPD2    H510387   2.925   4.142  10.471  0.3793  1.6503 -1.2657
  702MPD2    N110388   2.854   3.857  10.817 -0.2569  0.1573  0.0019
  702MPD2    H710389   2.808   3.946  10.835  2.3432  1.3697  0.5875
  703TMC3    C110390   2.976   4.231  10.262 -0.7609 -0.2500 -0.2656
  703TMC3    C210391   2.870   4.272  10.330  0.6652  0.0301  0.3987
  703TMC3    C310392   2.879   4.394  10.395 -1.0345  0.5043 -0.3399
  703TMC3    C410393   3.097   4.298  10.271  0.3358 -0.1627  0.4373
  703TMC3    C510394   3.101   4.415  10.341  0.1015  0.1647  0.6085
  703TMC3    C610395   2.990   4.469  10.399  0.0728 -0.7308  1.2612
  703TMC3     C10396   2.997   4.090  10.284 -0.8274  0.2205 -0.3833
  703TMC3     O10397   3.066   4.029  10.200 -0.1347 -0.4252  0.3310
  703TMC3     H10398   2.780   4.212  10.327  1.5033 -1.1772 -0.7890
  703TMC3    H110399   3.182   4.273  10.209  0.3173  1.9840 -0.4637
  703TMC3    H210400   2.990   4.572  10.434  2.6597 -0.1392 -0.4698
  703TMC3    C710401   3.233   4.480  10.350  0.6133 -0.3494  0.3474
  703TMC3    C810402   2.764   4.442  10.476 -0.0891  0.3420 -0.5018
  703TMC3    O110403   3.242   4.602  10.365 -0.2131  0.1880  0.3489
  703TMC3    O210404   2.772   4.559  10.521  0.8770  0.4173  0.1329
  704TMC3    C110405   1.213   2.057  12.279  0.1296  0.6084 -0.3722
  704TMC3    C210406   1.341   2.027  12.250 -0.1925  0.1948  0.1411
  704TMC3    C310407   1.425   2.009  12.360  0.1231  0.3727  0.3972
  704TMC3    C410408   1.160   2.064  12.406  0.3188  0.5555  0.3559
  704TMC3    C510409   1.248   2.041  12.514  0.2337  0.5420  0.5282
  704TMC3    C610410   1.386   2.027  12.491 -0.3456  0.1496 -0.7943
  704TMC3     C10411   1.128   2.084  12.169  0.4529  0.8314  0.0890
  704TMC3     O10412   1.011   2.053  12.176 -0.4949  0.8411 -0.0044
  704TMC3     H10413   1.376   2.003  12.150  0.7335  2.8935 -0.1811
  704TMC3    H110414   1.053   2.069  12.423  0.1718  2.9894 -1.2794
  704TMC3    H210415   1.459   2.027  12.571 -1.1344 -0.3986 -0.0791
  704TMC3    C710416   1.208   2.014  12.652 -0.0891 -0.2739 -0.0745
  704TMC3    C810417   1.566   2.034  12.332  0.2454 -0.4199 -0.4118
  704TMC3    O110418   1.294   2.032  12.736 -0.2871  0.1926  0.3078
  704TMC3    O210419   1.575   2.108  12.235  0.3233  0.2554 -0.2308
  705MPD2     C10420   0.676   4.606  16.638 -0.2253  0.2288 -1.1406
  705MPD2    C110421   0.599   4.608  16.532 -0.1563 -0.2306 -0.1377
  705MPD2    C210422   0.466   4.636  16.544  0.1923 -0.4666  0.2379
  705MPD2    C310423   0.411   4.665  16.661  0.2131 -0.6539 -0.0600
  705MPD2    C410424   0.488   4.658  16.773 -0.5234 -0.2183 -0.4527
  705MPD2    C510425   0.621   4.623  16.761 -0.8606 -0.2953 -0.1163
  705MPD2     H10426   0.398   4.623  16.461  0.0632 -0.9742  0.4239
  705MPD2    H110427   0.451   4.692  16.869 -1.0890 -0.3522 -0.6231
  705MPD2    H210428   0.783   4.589  16.644 -0.3043 -0.4300 -1.6398
  705MPD2    H310429   0.681   4.627  16.852  0.9307  0.7906 -1.3533
  705MPD2     N10430   0.287   4.724  16.660  0.1978  0.0245 -0.5127
  705MPD2    H510431   0.246   0.014  16.568 -0.8968  0.0181 -0.0314
  705MPD2    N110432   0.654   4.609  16.398 -0.0794  0.1582  0.0903
  705MPD2    H710433   0.590   4.620  16.320  1.8981  4.2753 -0.9298
  706TMC3    C110434   0.962   4.595  16.038 -0.0772  0.3241  0.4304
  706TMC3    C210435   0.906   4.709  15.971  0.1452  0.3654 -0.4573
  706TMC3    C310436   0.818   0.051  16.042 -0.1405  0.1869  0.3516
  706TMC3    C410437   0.913   4.549  16.161 -0.0841  0.3742 -0.3558
  706TMC3    C510438   0.811   4.613  16.220  0.6038  0.0806 -0.3664
  706TMC3    C610439   0.768   0.005  16.164 -0.3756 -0.1620 -0.3621
  706TMC3     C10440   1.051   4.513  15.964  0.4092  0.3541 -0.2567
  706TMC3     O10441   1.117   4.431  16.030 -0.2656 -0.2050 -0.6408
  706TMC3     H10442   0.951   0.030  15.884 -0.6879 -1.4923 -1.8868
  706TMC3    H110443   0.942   4.456  16.208 -1.0669  0.1025 -0.2801
  706TMC3    H210444   0.689   0.063  16.211  0.4210  0.5368  0.1227
  706TMC3    C710445   0.785   4.586  16.361 -0.1313 -0.3741  0.0300
  706TMC3    C810446   0.822   0.194  16.026 -0.5391  0.5563 -0.4084
  706TMC3    O110447   0.879   4.536  16.424 -0.1982 -0.3283 -0.5667
  706TMC3    O210448   0.821   0.242  15.913  0.1475 -0.3784  0.1866
  707TMC3    C110449   2.680   4.197   1.951  0.7867 -0.8587  0.3072
  707TMC3    C210450   2.797   4.202   2.023  0.6782  0.1706 -0.0490
  707TMC3    C310451   2.838   4.326   2.074  0.3767 -0.1323  0.9497
  707TMC3    C410452   2.606   4.308   1.931  0.0336  0.3881  0.7706
  707TMC3    C510453   2.647   4.427   1.990  0.1061 -0.9549  0.0422
  707TMC3    C610454   2.764   4.438   2.051  0.2343 -0.1513 -0.1800
  707TMC3     C10455   2.701   4.103   1.835  0.5069  0.1844 -0.1335
  707TMC3     O10456   2.807   4.035   1.836  0.0421 -0.3187 -0.4482
  707TMC3     H10457   2.848   4.109   2.044 -0.0320 -0.1633  0.1897
  707TMC3    H110458   2.506   4.310   1.890  1.0685  1.6847 -1.6639
  707TMC3    H210459   2.807   4.534   2.079  2.3536 -1.4919  1.1677
  707TMC3    C710460   2.582   4.556   1.954 -0.1393 -0.7643 -1.0127
  707TMC3    C810461   2.982   4.345   2.076 -0.1795  0.2935  0.1778
  707TMC3    O110462   2.649   4.656   1.934 -0.3548 -0.5223 -0.1640
  707TMC3    O210463   3.016   4.442   2.144 -0.3161  0.5326 -0.2807
  708MPD2     C10464   3.875   3.623  13.690 -0.2404 -0.3774  0.7758
  708MPD2    C110465   3.768   3.588  13.766 -0.2564 -0.4657  0.9167
  708MPD2    C210466   3.790   3.577  13.897  0.5301 -0.7217  0.2726
  708MPD2    C310467   3.906   3.613  13.963 -0.0019  0.2561  0.4727
  708MPD2    C410468   4.008   3.654  13.887 -0.0593  0.1238  0.3177
  708MPD2    C510469   3.991   3.660  13.749 -0.3154  0.0140 -0.6450
  708MPD2     H10470   3.707   3.537  13.954 -3.0990  2.4408 -2.7777
  708MPD2    H110471   4.100   3.691  13.930  0.3528 -0.1884 -0.2922
  708MPD2    H210472   3.854   3.618  13.584  1.7812 -0.9365  0.3913
  708MPD2    H310473   4.077   3.687  13.689 -1.5905  3.0867 -1.0626
  708MPD2     N10474   3.927   3.605  14.106  0.9054  0.0469 -0.1479
  708MPD2    H510475   4.019   3.613  14.147  0.7747 -0.6158  0.2609
  708MPD2    N110476   3.636   3.571  13.712  0.4688 -0.6377 -0.2640
  708MPD2    H710477   3.564   3.548  13.780  0.7598  1.5688  0.8032
  709TMC3    C110478   3.447   3.573  13.578 -0.2043 -0.2062  0.2320
  709TMC3    C210479   3.385   3.465  13.519  0.6745  0.2827 -0.3292
  709TMC3    C310480   3.299   3.396  13.596  0.8212  0.1965  0.1279
  709TMC3    C410481   3.394   3.633  13.692  0.0321  0.0818  0.3156
  709TMC3    C510482   3.300   3.564  13.767  0.1336 -0.4497 -0.6693
  709TMC3    C610483   3.252   3.438  13.720  0.0540 -0.4682  0.8449
  709TMC3     C10484   3.594   3.575  13.583 -0.3371  0.5297  0.0714
  709TMC3     O10485   3.652   3.554  13.476 -0.0244  0.0213 -0.2218
  709TMC3     H10486   3.428   3.427  13.428  0.5609 -0.0819 -0.2298
  709TMC3    H110487   3.444   3.719  13.734 -0.1757 -0.2315  1.1945
  709TMC3    H210488   3.187   3.378  13.782  0.8767 -0.2396  1.9150
  709TMC3    C710489   3.334   3.564  13.905  0.9626  0.5066 -0.0017
  709TMC3    C810490   3.209   3.297  13.530  0.1575  0.1591 -0.2239
  709TMC3    O110491   3.456   3.561  13.919  0.2491  0.3160 -0.1401
  709TMC3    O210492   3.164   3.203  13.593  0.0272  0.2328  0.1405
  710TMC3    C110493   0.215   0.508   0.264 -1.0759 -0.2154  0.1597
  710TMC3    C210494   0.320   0.430   0.213  0.1903  0.0279  0.2097
  710TMC3    C310495   0.406   0.377   0.303  0.2534  0.1898  0.1970
  710TMC3    C410496   0.194   0.553   0.397  0.1808  0.1994  0.0839
  710TMC3    C510497   0.286   0.494   0.479 -0.1316  0.1264 -0.8585
  710TMC3    C610498   0.384   0.405   0.433  0.7229  0.3939  0.4543
  710TMC3     C10499   0.147   0.578   0.160 -0.8187  0.0995 -0.1322
  710TMC3     O10500   0.139   0.522   0.052 -0.2163  0.3662 -0.1342
  710TMC3     H10501   0.332   0.420   0.106 -0.0972 -2.2610  0.3875
  710TMC3    H110502   0.100   0.595   0.429  0.8606  1.1676  0.7999
  710TMC3    H210503   0.449   0.366   0.511  0.1485 -4.1829 -1.3692
  710TMC3    C710504   0.269   0.518   0.618  0.3016 -0.7908 -0.4670
  710TMC3    C810505   0.493   0.264   0.257  0.3552  0.2036  0.0050
  710TMC3    O110506   0.301   0.430   0.688  0.0535  0.1771 -0.2191
  710TMC3    O210507   0.465   0.229   0.146  0.5943 -0.1973 -0.9446
  711TMC3    C110508   4.444   1.240  15.063 -0.0888 -0.3852 -0.5543
  711TMC3    C210509   4.468   1.266  15.194  0.2449  0.1573  0.0130
  711TMC3    C310510   4.581   1.207  15.242  0.1701  0.2821  0.5609
  711TMC3    C410511   4.531   1.189  14.976  0.4082 -0.6246  0.3836
  711TMC3    C510512   4.645   1.141  15.035 -0.0232 -0.0021  0.0058
  711TMC3    C610513   4.677   1.157  15.166 -0.1809  0.1125  1.0807
  711TMC3     C10514   4.330   1.312  15.004  0.7080  1.0743 -0.1008
  711TMC3     O10515   4.282   1.403  15.067 -0.5533 -0.6367 -0.3211
  711TMC3     H10516   4.394   1.315  15.257 -0.5982 -0.5288 -0.4372
  711TMC3    H110517   4.514   1.203  14.870  0.3909  1.3806  0.6426
  711TMC3    H210518   0.032   1.091  15.196 -0.0996 -0.8732 -1.3212
  711TMC3    C710519   4.709   1.033  14.974 -0.0274  1.0588 -0.3205
  711TMC3    C810520   4.566   1.155  15.378 -0.5874 -0.2491  0.3292
  711TMC3    O110521   0.100   1.015  15.007 -0.6862 -0.5639  0.5076
  711TMC3    O210522   4.453   1.125  15.422  0.1057  0.0824 -0.1121
  712MPD2     C10523   1.037   1.863  13.426  0.6521 -0.1933 -0.0741
  712MPD2    C110524   0.941   1.966  13.417  0.0068  0.1872 -0.1042
  712MPD2    C210525   0.946   2.074  13.505  0.5807 -0.7924 -1.0334
  712MPD2    C310526   1.050   2.087  13.592  0.3007  0.7489 -0.4138
  712MPD2    C410527   1.155   1.995  13.581 -0.0229  0.0223  0.3039
  712MPD2    C510528   1.141   1.882  13.505 -0.3801  0.5380  0.3454
  712MPD2     H10529   0.866   2.147  13.496  0.4839 -0.6198  1.3887
  712MPD2    H110530   1.239   2.008  13.649  0.8268  0.4693 -0.8471
  712MPD2    H210531   1.020   1.768  13.376 -0.6581 -0.4950  0.9592
  712MPD2    H310532   1.220   1.810  13.486  0.3985  0.9759  1.9298
  712MPD2     N10533   1.076   2.197  13.674 -0.5132  0.3354  0.1403
  712MPD2    H510534   1.163   2.205  13.725 -0.8623 -1.5901  1.0413
  712MPD2    N110535   0.830   1.948  13.332 -0.1084  0.1650 -0.3853
  712MPD2    H710536   0.754   2.015  13.341 -0.8865 -1.0176  1.9497
  713TMC3    C110537   1.077   2.402  13.768 -0.3294  0.0281 -0.3447
  713TMC3    C210538   1.214   2.400  13.762 -0.2801 -0.0681  0.4950
  713TMC3    C310539   1.286   2.479  13.849 -0.3910 -0.1638 -0.0166
  713TMC3    C410540   1.018   2.501  13.833  0.2851  0.1609 -0.2123
  713TMC3    C510541   1.093   2.587  13.911 -0.7824  0.0363 -0.5675
  713TMC3    C610542   1.228   2.581  13.916  0.0764 -0.4192  0.4274
  713TMC3     C10543   0.992   2.307  13.694 -0.2346 -0.5050  0.3302
  713TMC3     O10544   0.874   2.323  13.653  0.6151  0.0033 -0.1705
  713TMC3     H10545   1.275   2.344  13.692 -1.2796 -2.6434  1.6801
  713TMC3    H110546   0.911   2.507  13.846  0.3717  2.1943 -0.4794
  713TMC3    H210547   1.291   2.656  13.963 -0.2746  0.7872 -1.0240
  713TMC3    C710548   1.046   2.717  13.963  0.2710 -0.2884  0.6222
  713TMC3    C810549   1.419   2.509  13.801  0.0497  0.2869 -0.1718
  713TMC3    O110550   1.110   2.766  14.056 -0.2675  0.2964 -0.0899
  713TMC3    O210551   1.435   2.499  13.677 -0.1666  0.6449  0.0434
  714MPD2     C10552   2.663   0.979   1.253 -0.2627 -0.1703  0.0984
  714MPD2    C110553   2.693   0.917   1.136 -0.4674  0.3799  0.4075
  714MPD2    C210554   2.588   0.897   1.040 -0.5911 -0.1011  0.0395
  714MPD2    C310555   2.456   0.947   1.068 -0.1351 -0.4940  0.4570
  714MPD2    C410556   2.427   0.986   1.194 -0.4965 -0.4602  0.4199
  714MPD2    C510557   2.530   0.998   1.287  0.4112  0.1706 -0.0197
  714MPD2     H10558   2.605   0.868   0.937 -1.8404 -3.3673  0.7617
  714MPD2    H110559   2.327   1.007   1.231 -0.6000  0.6753 -0.5286
  714MPD2    H210560   2.741   0.984   1.328  0.3380  0.6930 -0.5695
  714MPD2    H310561   2.520   1.024   1.392  2.5631  0.5924  0.0782
  714MPD2     N10562   2.364   0.934   0.961 -0.7208  0.1642 -0.1087
  714MPD2    H510563   2.401   0.905   0.871 -2.8290  1.1195 -1.2800
  714MPD2    N110564   2.829   0.887   1.119  0.1039  0.6923  0.1008
  714MPD2    H710565   2.898   0.924   1.183 -1.0908 -0.7903  2.2487
  715TMC3    C110566   3.011   0.823   1.010 -0.5150  0.1792 -0.1583
  715TMC3    C210567   3.088   0.722   0.952 -0.3218  0.4499 -0.5001
  715TMC3    C310568   3.219   0.741   0.932 -0.1629 -1.4084  0.2378
  715TMC3    C410569   3.062   0.949   1.016  0.1847 -0.1526 -0.3580
  715TMC3    C510570   3.195   0.971   0.978  0.0504  0.2122 -0.0893
  715TMC3    C610571   3.271   0.866   0.938  0.5979 -0.4657 -0.7402
  715TMC3     C10572   2.874   0.792   1.026 -0.5390  0.0860 -0.5172
  715TMC3     O10573   2.817   0.691   0.983 -0.2784  0.5011 -0.0302
  715TMC3     H10574   3.053   0.620   0.955 -0.5991  0.5523 -0.1556
  715TMC3    H110575   3.011   1.035   1.058  2.6504  0.5131  1.3056
  715TMC3    H210576   3.374   0.887   0.911  1.7369 -3.6459  1.0564
  715TMC3    C710577   3.254   1.102   0.974  0.2136  0.3710 -1.0987
  715TMC3    C810578   3.296   0.627   0.868  0.1113  0.4540  1.3772
  715TMC3    O110579   3.377   1.107   0.970  0.4628 -0.2640  1.0829
  715TMC3    O210580   3.236   0.548   0.797 -0.0328 -0.3349 -0.0187
  716MPD2     C10581   3.091   3.681  10.048 -0.9050 -1.2658  0.1975
  716MPD2    C110582   3.174   3.739   9.950  0.2556  0.1852 -0.7127
  716MPD2    C210583   3.267   3.659   9.882  0.9824  0.2251  0.0630
  716MPD2    C310584   3.281   3.522   9.920  0.0898 -0.9232 -0.0733
  716MPD2    C410585   3.205   3.475  10.026  0.2008 -0.1173  0.1437
  716MPD2    C510586   3.110   3.550  10.085 -0.5912  0.3348 -0.0786
  716MPD2     H10587   3.333   3.693   9.804 -0.2582  1.6754 -0.3433
  716MPD2    H110588   3.211   3.372  10.060  2.8499  0.4665  1.4171
  716MPD2    H210589   3.012   3.737  10.097  0.0982  0.1246  0.2159
  716MPD2    H310590   3.053   3.497  10.161  0.4166  1.7343  1.6640
  716MPD2     N10591   3.375   3.445   9.852 -0.2260  0.3872  0.1744
  716MPD2    H510592   3.432   3.494   9.784  1.2325 -2.7922 -0.8544
  716MPD2    N110593   3.147   3.872   9.917 -0.7952 -0.9555  0.1970
  716MPD2    H710594   3.076   3.925   9.966 -0.7776 -0.7155 -0.0335
  717TMC3    C110595   3.522   3.278   9.815 -0.5371  0.2666  0.1656
  717TMC3    C210596   3.509   3.281   9.679 -0.7395  0.2720  0.6647
  717TMC3    C310597   3.593   3.212   9.603  0.4334 -0.2313 -0.2440
  717TMC3    C410598   3.614   3.194   9.871 -0.1149 -0.0885  0.0183
  717TMC3    C510599   3.703   3.124   9.787  0.0546 -0.1958  0.0765
  717TMC3    C610600   3.683   3.126   9.653  0.3601  0.2027  0.0991
  717TMC3     C10601   3.418   3.327   9.900  0.1582 -0.3408  0.3427
  717TMC3     O10602   3.410   3.269  10.008 -0.5391  0.5943  0.1901
  717TMC3     H10603   3.437   3.345   9.630  1.0915 -0.9896 -3.6354
  717TMC3    H110604   3.616   3.191   9.979 -2.7197  2.9151  0.1256
  717TMC3    H210605   3.749   3.064   9.592 -0.7285  0.8640 -1.7468
  717TMC3    C710606   3.817   3.052   9.843 -0.7663 -0.0654  0.1397
  717TMC3    C810607   3.553   3.208   9.469  0.1446 -0.9404  0.5971
  717TMC3    O110608   3.875   2.976   9.762  0.1545 -0.2232 -0.2982
  717TMC3    O210609   3.482   3.294   9.422 -0.1364 -0.0835 -0.3524
  718MPD2     C10610   3.036   2.738  12.994 -0.3201  0.5072 -0.4831
  718MPD2    C110611   2.986   2.756  12.867 -0.5523 -0.2716  0.2856
  718MPD2    C210612   2.865   2.700  12.833  0.2957  0.1716  0.3217
  718MPD2    C310613   2.792   2.620  12.924 -0.3737  0.5891 -0.1438
  718MPD2    C410614   2.839   2.599  13.050 -0.0887 -0.3120 -0.0053
  718MPD2    C510615   2.963   2.651  13.079  0.3304  0.9900  0.1018
  718MPD2     H10616   2.830   2.714  12.731 -1.1879  1.5020  1.0227
  718MPD2    H110617   2.792   2.528  13.117  0.1709  1.2085  1.7505
  718MPD2    H210618   3.130   2.782  13.026 -2.0349  2.5332  1.6884
  718MPD2    H310619   3.001   2.635  13.180 -1.7627 -1.3281  0.5326
  718MPD2     N10620   2.673   2.562  12.875 -0.9178  0.6415 -0.2554
  718MPD2    H510621   2.652   2.563  12.776 -0.4552  1.7433 -0.3382
  718MPD2    N110622   3.066   2.811  12.756 -0.0486  0.3139  0.3523
  718MPD2    H710623   3.028   2.788  12.664 -1.6353 -0.4743  1.2179
  719TMC3    C110624   3.267   2.853  12.638 -0.3087 -0.1584 -0.2649
  719TMC3    C210625   3.210   2.756  12.560  0.0275 -0.5246 -0.4509
  719TMC3    C310626   3.162   2.790  12.434 -0.0477 -0.6632  0.4231
  719TMC3    C410627   3.287   2.980  12.583 -0.4327 -0.7425 -0.6334
  719TMC3    C510628   3.246   3.003  12.454  0.5152  0.3325 -0.6623
  719TMC3    C610629   3.179   2.914  12.385  0.9706  0.2204 -0.4471
  719TMC3     C10630   3.203   2.845  12.766  0.2620  0.0018 -0.6381
  719TMC3     O10631   3.263   2.894  12.866  0.0937 -1.0252 -0.2203
  719TMC3     H10632   3.192   2.665  12.616 -1.7209  0.4073  0.5315
  719TMC3    H110633   3.339   3.056  12.639  0.4769 -1.7566 -0.0893
  719TMC3    H210634   3.148   2.936  12.283 -0.7244 -0.4614 -0.0901
  719TMC3    C710635   3.295   3.114  12.370  0.5827 -0.3933 -0.9585
  719TMC3    C810636   3.032   2.728  12.412  0.7001 -0.4108 -0.3905
  719TMC3    O110637   3.296   3.096  12.248 -0.5282  0.1010 -0.1180
  719TMC3    O210638   2.992   2.681  12.517  0.1198  0.5091  0.2879
  720MPD2     C10639   1.366   4.010  13.606  0.0072  0.5590 -0.7929
  720MPD2    C110640   1.345   4.128  13.679 -0.0181  0.2814 -0.6925
  720MPD2    C210641   1.437   4.164  13.780 -0.8116  0.1069 -0.0424
  720MPD2    C310642   1.550   4.092  13.805 -1.3254  0.2636  0.0820
  720MPD2    C410643   1.564   3.968  13.739  0.5506  0.5777 -0.1388
  720MPD2    C510644   1.473   3.927  13.640  0.1412  0.5263  0.1785
  720MPD2     H10645   1.421   4.248  13.847  0.5546 -0.8013  1.4436
  720MPD2    H110646   1.649   3.904  13.760  1.1433  1.0771 -0.9808
  720MPD2    H210647   1.301   3.985  13.524 -0.7416 -0.8089  0.2128
  720MPD2    H310648   1.488   3.833  13.587 -0.6617  0.2232  0.4899
  720MPD2     N10649   1.644   4.145  13.897  0.3514 -0.4306  0.6585
  720MPD2    H510650   1.624   4.238  13.933 -0.2258  0.2892 -1.5033
  720MPD2    N110651   1.239   4.224  13.655 -0.2753 -0.4823 -0.7367
  720MPD2    H710652   1.252   4.321  13.683 -1.4991 -0.0960 -1.5126
  721TMC3    C110653   1.838   4.131  14.042  0.1459 -0.4693 -0.3391
  721TMC3    C210654   1.773   4.194  14.145  0.0802  0.4262 -0.2171
  721TMC3    C310655   1.836   4.183  14.269  0.8583  0.2072  0.1159
  721TMC3    C410656   1.967   4.074  14.054  0.7119 -0.1133  0.4806
  721TMC3    C510657   2.028   4.077  14.180 -1.2396  0.3244  0.6616
  721TMC3    C610658   1.961   4.128  14.286  0.1212  0.0218 -0.2776
  721TMC3     C10659   1.763   4.082  13.924 -0.3890  0.2152 -0.1065
  721TMC3     O10660   1.825   3.993  13.865 -0.3303  0.2979 -0.4542
  721TMC3     H10661   1.671   4.231  14.137  0.7271  2.4158  0.8994
  721TMC3    H110662   2.016   4.030  13.968  1.6037  0.2903  0.7811
  721TMC3    H210663   2.012   4.149  14.379  0.4247  2.3414 -0.9747
  721TMC3    C710664   2.169   4.039  14.184  0.3426  0.1450  0.4426
  721TMC3    C810665   1.764   4.240  14.387 -0.0356 -0.5498  0.0336
  721TMC3    O110666   2.227   4.028  14.073 -0.3199  0.2730  0.8112
  721TMC3    O210667   1.681   4.330  14.358  0.2967  0.6719  0.1291
  722MPD2     C10668   4.629   2.715  13.525 -0.0186 -0.1937  0.0806
  722MPD2    C110669   4.683   2.790  13.434 -0.8813 -0.4015  0.7777
  722MPD2    C210670   4.637   2.786  13.304  0.5488 -0.3127 -0.4030
  722MPD2    C310671   4.543   2.691  13.274 -0.1500 -0.0041  0.2498
  722MPD2    C410672   4.487   2.614  13.368  0.1053 -0.0774 -0.6869
  722MPD2    C510673   4.523   2.639  13.494  0.0002  0.3124  0.3417
  722MPD2     H10674   4.685   2.848  13.229  2.9870  1.1419  2.3709
  722MPD2    H110675   4.410   2.540  13.352 -0.6528  1.1792 -2.7486
  722MPD2    H210676   4.655   2.722  13.629 -0.7288 -1.2349  0.3330
  722MPD2    H310677   4.468   2.585  13.569 -0.9795 -0.3630 -0.8531
  722MPD2     N10678   4.506   2.684  13.135  0.1099 -0.9115 -0.6985
  722MPD2    H510679   4.547   2.752  13.072 -1.3720  1.4400  0.8748
  722MPD2    N110680   0.064   2.878  13.462 -0.1438  0.1028  0.0399
  722MPD2    H710681   0.112   2.928  13.388  0.6625  1.6271  1.5579
  723TMC3    C110682   4.360   2.611  12.949  0.0650 -0.7379  1.3127
  723TMC3    C210683   4.272   2.515  12.906 -0.4822  0.2891  0.7714
  723TMC3    C310684   4.187   2.544  12.795  0.3945  0.1654 -0.1112
  723TMC3    C410685   4.359   2.740  12.894  0.3385  0.4803 -0.7010
  723TMC3    C510686   4.274   2.764  12.793 -0.0308  0.2394  0.3299
  723TMC3    C610687   4.183   2.667  12.739  0.4383 -0.0468  0.0245
  723TMC3     C10688   4.415   2.596  13.083 -0.6842  0.5799 -1.1712
  723TMC3     O10689   4.380   2.495  13.140 -0.0032  0.1312 -0.1310
  723TMC3     H10690   4.255   2.424  12.963  2.4279 -0.0546  1.0712
  723TMC3    H110691   4.419   2.823  12.931 -0.8172  0.5868  0.9181
  723TMC3    H210692   4.116   2.688  12.656  0.5837 -0.9432 -0.3219
  723TMC3    C710693   4.287   2.886  12.715  0.4685  0.4569  0.1418
  723TMC3    C810694   4.085   2.452  12.743 -0.4094 -0.3767  0.1826
  723TMC3    O110695   4.251   2.891  12.598  0.6753  0.5952  0.5456
  723TMC3    O210696   3.988   2.505  12.683  0.1423  0.1788 -0.7637
  724TMC3    C110697   0.427   0.772   9.832  0.1797  0.6023 -0.0250
  724TMC3    C210698   0.398   0.792   9.698  0.0969 -0.0500  0.0417
  724TMC3    C310699   0.447   0.906   9.647 -0.5840 -0.2039 -0.8732
  724TMC3    C410700   0.502   0.843   9.910 -0.8422 -0.5835  0.0766
  724TMC3    C510701   0.549   0.962   9.858 -0.7706 -0.1407  0.6545
  724TMC3    C610702   0.532   0.991   9.724  0.4730  0.0033 -0.3262
  724TMC3     C10703   0.372   0.647   9.881 -0.2368  0.2797  0.3679
  724TMC3     O10704   0.378   0.632  10.001 -0.2846 -0.4319  0.9144
  724TMC3     H10705   0.306   0.751   9.657 -0.4239  3.4005 -2.2820
  724TMC3    H110706   0.522   0.822  10.015  1.2358 -0.4202 -0.2856
  724TMC3    H210707   0.573   1.083   9.684 -1.6347  1.6652  1.3645
  724TMC3    C710708   0.643   1.044   9.930 -0.1725 -0.4480  0.7488
  724TMC3    C810709   0.378   0.972   9.535 -0.0711  0.0087 -0.3148
  724TMC3    O110710   0.654   1.149   9.871  0.1336  0.1929 -0.3904
  724TMC3    O210711   0.307   0.896   9.471  0.7028 -0.2510 -0.4109
  725TMC3    C110712   1.327   4.625  12.448  0.6238 -0.0410  0.2231
  725TMC3    C210713   1.241   4.668  12.349 -0.4157  0.0073 -0.1776
  725TMC3    C310714   1.139   4.592  12.312  0.7326 -0.6100  0.1419
  725TMC3    C410715   1.324   4.489  12.474 -0.4363  0.2261 -0.1242
  725TMC3    C510716   1.229   4.410  12.420  0.2557 -0.2625 -0.8096
  725TMC3    C610717   1.119   4.462  12.357 -0.2652  0.2612  0.7561
  725TMC3     C10718   1.418   4.709  12.515 -0.1867  0.1003  0.3233
  725TMC3     O10719   1.452   0.089  12.457  0.3176  0.2144  0.4141
  725TMC3     H10720   1.254   0.047  12.321 -0.2450 -0.1412 -0.6520
  725TMC3    H110721   1.419   4.447  12.508 -2.0371 -1.2560  2.5043
  725TMC3    H210722   1.027   4.407  12.342  0.5501 -0.3478 -2.0273
  725TMC3    C710723   1.240   4.260  12.416  0.7481 -0.0315 -0.2862
  725TMC3    C810724   1.032   4.653  12.238  0.0359  0.5905  0.4286
  725TMC3    O110725   1.138   4.203  12.375 -0.0054  0.8504  0.1870
  725TMC3    O210726   0.919   4.634  12.275  0.4013 -0.4798  0.0135
  726MPD2     C10727   4.386   0.677  10.591  0.0797  0.6904 -0.1353
  726MPD2    C110728   4.424   0.801  10.643 -0.1766 -1.1265  0.2909
  726MPD2    C210729   4.353   0.857  10.749 -0.1861 -0.4295  0.2025
  726MPD2    C310730   4.254   0.787  10.819 -0.6777  0.4013  0.2066
  726MPD2    C410731   4.215   0.669  10.758  0.1460 -0.8488  0.6733
  726MPD2    C510732   4.278   0.614  10.653  0.1253 -0.2694 -0.3197
  726MPD2     H10733   4.381   0.957  10.778  2.2290 -0.0700 -3.3975
  726MPD2    H110734   4.127   0.617  10.793  0.2984 -0.6674  1.3340
  726MPD2    H210735   4.433   0.634  10.504 -1.3210  1.6787 -1.3907
  726MPD2    H310736   4.255   0.511  10.629 -3.6722  0.2820  1.0416
  726MPD2     N10737   4.188   0.825  10.937 -0.4105 -0.7916  0.7365
  726MPD2    H510738   4.104   0.778  10.967 -0.9859  0.2811  0.8137
  726MPD2    N110739   4.534   0.876  10.590 -0.2635 -0.5598  0.5304
  726MPD2    H710740   4.535   0.972  10.622  2.3593 -0.4675  0.1115
  727TMC3    C110741   0.001   0.933  10.483  0.0397 -0.3641  0.9902
  727TMC3    C210742   0.052   0.994  10.588 -0.0413  0.4826 -0.0559
  727TMC3    C310743   0.112   1.114  10.565  0.8916 -0.1924 -0.6865
  727TMC3    C410744   4.710   0.995  10.358  0.5252 -0.2000  0.0256
  727TMC3    C510745   0.019   1.125  10.342  0.0893 -0.1527 -0.2623
  727TMC3    C610746   0.093   1.182  10.443 -0.2522 -0.6884 -0.9443
  727TMC3     C10747   4.633   0.824  10.508  0.8461  0.0208  0.1781
  727TMC3     O10748   4.655   0.711  10.464 -0.1674 -0.0468 -0.0574
  727TMC3     H10749   0.082   0.940  10.677  3.2359 -0.7609 -1.8752
  727TMC3    H110750   4.661   0.940  10.278 -1.3378  0.0222  1.0294
  727TMC3    H210751   0.152   1.272  10.428 -0.2790 -0.2561  1.4349
  727TMC3    C710752   4.694   1.202  10.228 -0.1015 -0.2350  0.0454
  727TMC3    C810753   0.171   1.193  10.680 -0.0742  0.5747  0.0650
  727TMC3    O110754   4.645   1.127  10.142 -0.0007  0.3412 -0.0463
  727TMC3    O210755   0.185   1.314  10.657 -0.1077 -0.3562 -0.0390
  728TMC3    C110756   4.200   0.059  15.052 -0.6230 -0.0933 -0.5138
  728TMC3    C210757   4.332   0.051  15.028  0.4194 -0.0944  0.1988
  728TMC3    C310758   4.376   0.104  14.910  0.3820 -0.0156  0.3054
  728TMC3    C410759   4.113   0.125  14.963 -0.3219  0.4573  0.3473
  728TMC3    C510760   4.169   0.185  14.852  0.3025  0.3639 -0.3886
  728TMC3    C610761   4.300   0.170  14.827 -0.2420 -0.4029 -0.0557
  728TMC3     C10762   4.148   0.004  15.172 -0.3347 -0.1224 -0.6709
  728TMC3     O10763   4.228   4.712  15.262 -0.3315 -0.0506  0.3882
  728TMC3     H10764   4.396   4.716  15.092  1.3101  1.6103  0.9005
  728TMC3    H110765   4.011   0.145  14.996 -0.4129  0.7963 -0.1372
  728TMC3    H210766   4.336   0.213  14.734  3.3176 -0.1625  1.3986
  728TMC3    C710767   4.088   0.264  14.765 -0.0843 -0.0806 -0.5500
  728TMC3    C810768   4.519   0.109  14.898 -0.0201  0.1952  0.6201
  728TMC3    O110769   4.141   0.362  14.715  0.1094 -0.2735 -0.2949
  728TMC3    O210770   4.581   0.091  15.005  0.4007  0.0089 -0.2221
  729MPD2     C10771   1.034   1.355  16.780  0.4264 -0.1622  0.0151
  729MPD2    C110772   1.089   1.231  16.792  0.4589 -0.3552  0.0586
  729MPD2    C210773   1.206   1.210  16.865 -0.1505  0.1445 -0.4179
  729MPD2    C310774   1.253   1.312  16.941  0.2017 -0.2395 -0.6667
  729MPD2    C410775   1.196   1.437  16.937 -0.1257 -0.5977 -0.4350
  729MPD2    C510776   1.090   1.453  16.857 -1.2155 -0.3606 -0.0427
  729MPD2     H10777   1.245   1.109  16.867 -2.3789 -0.7512 -1.2962
  729MPD2    H110778   1.231   1.520  16.998  0.6548 -0.5237 -0.9797
  729MPD2    H210779   0.943   1.373  16.725 -0.0632  0.8029  1.1339
  729MPD2    H310780   1.043   1.551  16.862  0.7713  0.4662  2.3775
  729MPD2     N10781   1.361   1.310  17.023 -0.4422  0.4455 -0.0762
  729MPD2    H510782   1.386   1.388  17.084 -1.7639  0.0682  0.9495
  729MPD2    N110783   1.026   1.132  16.712  0.0181  0.2947 -0.0525
  729MPD2    H710784   0.952   1.159  16.647 -2.1552  1.4201  2.8695
  730TMC3    C110785   1.581   1.286  17.085 -0.1410 -0.0370  0.4416
  730TMC3    C210786   1.691   1.326  17.018  0.8395 -0.5158  0.0203
  730TMC3    C310787   1.753   1.436  17.063 -0.5778  0.0798 -0.0609
  730TMC3    C410788   1.546   1.344  17.203 -0.1903  0.2590  0.1476
  730TMC3    C510789   1.614   1.454  17.255 -0.4551 -0.6525  0.3328
  730TMC3    C610790   1.724   1.492  17.188  0.1771  0.3203 -0.7325
  730TMC3     C10791   1.469   1.231  17.003 -0.0182  0.0343  0.3130
  730TMC3     O10792   1.496   1.154  16.911  0.0329  0.1233  0.0340
  730TMC3     H10793   1.708   1.284  16.920 -0.3605  1.4464 -1.0452
  730TMC3    H110794   1.449   1.325  17.248  0.7161 -1.6109  1.3089
  730TMC3    H210795   1.792   1.569  17.224 -1.9189  2.0274 -0.4602
  730TMC3    C710796   1.532   1.574  17.282 -0.4527 -0.2316  0.0711
  730TMC3    C810797   1.806   1.521  16.954 -0.3203  0.6157  0.2898
  730TMC3    O110798   1.576   1.679  17.233 -0.3022  0.0467  0.0627
  730TMC3    O210799   1.791   1.473  16.845 -0.2626 -0.0107  0.6700
  731MPD2     C10800   1.137   4.488  11.827 -0.2039 -0.6014  0.0191
  731MPD2    C110801   1.218   4.377  11.847  0.4186  0.1827 -0.1516
  731MPD2    C210802   1.182   4.271  11.927 -0.0896  0.0610  0.6256
  731MPD2    C310803   1.063   4.282  12.003  0.1989 -0.3380 -0.2145
  731MPD2    C410804   0.991   4.398  11.997 -0.2916  1.1542 -0.2417
  731MPD2    C510805   1.019   4.497  11.910  0.5276  0.1917 -0.2965
  731MPD2     H10806   1.249   4.187  11.938  0.3104  0.1930 -0.7988
  731MPD2    H110807   0.894   4.418  12.041  1.1010 -0.6418  3.5873
  731MPD2    H210808   1.157   4.570  11.758 -1.2452 -1.3866 -1.2212
  731MPD2    H310809   0.961   4.587  11.892 -0.1855  0.0190  1.1471
  731MPD2     N10810   1.023   4.170  12.082 -0.4671 -0.0445 -0.1542
  731MPD2    H510811   1.071   4.080  12.081  0.0537  0.2410 -2.4963
  731MPD2    N110812   1.337   4.359  11.767  0.1601  0.6349 -0.2610
  731MPD2    H710813   1.368   4.262  11.762 -1.0984  0.1175  2.0326
  732TMC3    C110814   1.491   4.389  11.593  0.6604 -0.1638  0.0571
  732TMC3    C210815   1.451   4.269  11.547  0.0389  0.3207  0.0187
  732TMC3    C310816   1.539   4.173  11.509 -0.2267  0.7063  0.0697
  732TMC3    C410817   1.622   4.411  11.619  0.2901 -0.3005 -0.7030
  732TMC3    C510818   1.708   4.317  11.575  0.7221 -0.3492 -0.3559
  732TMC3    C610819   1.670   4.202  11.511 -0.3574  0.2770  0.1674
  732TMC3     C10820   1.398   4.450  11.689  0.4746 -0.0433 -0.0772
  732TMC3     O10821   1.390   4.573  11.688 -0.1199  0.7117  0.2358
  732TMC3     H10822   1.353   4.263  11.501 -0.8345 -0.7764  2.0167
  732TMC3    H110823   1.655   4.499  11.674  3.4472 -1.4844 -0.7109
  732TMC3    H210824   1.749   4.129  11.499 -1.0757 -1.0945  3.6231
  732TMC3    C710825   1.844   4.330  11.614  0.9360 -0.4073  0.4810
  732TMC3    C810826   1.491   4.057  11.441  0.4823 -0.0144 -0.5941
  732TMC3    O110827   1.923   4.338  11.519  0.5341 -0.4349 -0.5853
  732TMC3    O210828   1.558   3.999  11.355  0.3889 -0.1656  0.3296
  733TMC3    C110829   2.258   2.453  12.778  0.0149  0.0536 -0.1185
  733TMC3    C210830   2.353   2.453  12.882  0.6109 -0.2697 -0.0459
  733TMC3    C310831   2.485   2.436  12.842  0.6455  0.6304  0.6182
  733TMC3    C410832   2.289   2.445  12.649  0.7854  0.0612  0.5697
  733TMC3    C510833   2.417   2.457  12.616  0.3013 -0.1144  1.2143
  733TMC3    C610834   2.516   2.457  12.711  0.0120  0.6655 -0.4344
  733TMC3     C10835   2.116   2.436  12.801 -0.0926  1.2553  0.0229
  733TMC3     O10836   2.039   2.479  12.716 -0.0137  0.1573  0.1395
  733TMC3     H10837   2.329   2.464  12.987  3.1046  1.1022  0.3662
  733TMC3    H110838   2.214   2.445  12.570  1.7407  1.1938 -0.3302
  733TMC3    H210839   2.621   2.444  12.687  0.2457  1.9112 -0.1026
  733TMC3    C710840   2.443   2.536  12.498 -0.2811  0.5988  0.0955
  733TMC3    C810841   2.581   2.479  12.935 -0.5220 -0.8186 -0.5004
  733TMC3    O110842   2.340   2.582  12.436  0.2072 -0.5428  0.2123
  733TMC3    O210843   2.570   2.452  13.055  0.4199  0.2645 -0.5233
  734MPD2     C10844   4.320   0.347  11.928 -0.2807 -0.1487  0.1601
  734MPD2    C110845   4.246   0.251  11.856 -0.0262  0.3609  0.1963
  734MPD2    C210846   4.272   0.232  11.723 -1.0566 -0.5834 -0.1653
  734MPD2    C310847   4.374   0.305  11.663  0.2559 -0.2191  0.1830
  734MPD2    C410848   4.440   0.409  11.729 -0.3655  0.5378  0.8337
  734MPD2    C510849   4.411   0.430  11.859  0.8224 -0.1041  1.3815
  734MPD2     H10850   4.226   0.151  11.668 -0.0724  0.1676 -2.0639
  734MPD2    H110851   4.516   0.475  11.689 -0.0377 -0.7477 -0.6399
  734MPD2    H210852   4.293   0.372  12.030 -0.4026  2.1179 -0.4404
  734MPD2    H310853   4.474   0.500  11.911  0.0581  0.4913  1.5091
  734MPD2     N10854   4.378   0.278  11.521 -0.0794  0.3120  0.2358
  734MPD2    H510855   4.315   0.206  11.488 -1.7161  1.9652 -0.2654
  734MPD2    N110856   4.151   0.176  11.931 -0.4354  0.1866  0.6499
  734MPD2    H710857   4.157   0.175  12.032 -0.8861  0.5651  0.6749
  735TMC3    C110858   3.972   0.011  11.957  0.2050  0.1477  0.5950
  735TMC3    C210859   3.869   4.687  11.883 -0.2442 -0.2324  0.7346
  735TMC3    C310860   3.849   4.553  11.870 -0.2388  0.2357  0.1519
  735TMC3    C410861   4.045   4.651  12.031 -0.1116 -0.1175 -0.1881
  735TMC3    C510862   4.020   4.512  12.023 -0.1564  0.2192  0.3467
  735TMC3    C610863   3.915   4.460  11.946  0.0490  0.2661 -0.1670
  735TMC3     C10864   4.054   0.099  11.872  0.1502 -0.2658  0.0284
  735TMC3     O10865   4.013   0.115  11.756 -0.1863 -0.0478 -0.4209
  735TMC3     H10866   3.801   0.032  11.837  0.4389 -0.9512 -1.4142
  735TMC3    H110867   4.128   4.684  12.092  1.2142 -0.6273 -1.7063
  735TMC3    H210868   3.897   4.354  11.938 -0.9113  0.3952  0.4241
  735TMC3    C710869   4.135   4.435  12.056 -0.5021  0.2386  0.1525
  735TMC3    C810870   3.805   4.514  11.741  0.4681  0.7939 -0.1080
  735TMC3    O110871   4.224   4.477  11.986  0.6452  0.0100  0.2787
  735TMC3    O210872   3.775   4.398  11.715  0.0462  0.2659 -0.0119
  736MPD2     C10873   4.167   4.097  12.185  0.2125 -0.2687  0.5767
  736MPD2    C110874   4.202   4.203  12.109  0.2083  0.0576 -0.6342
  736MPD2    C210875   4.325   4.204  12.052  0.1036  0.2050  0.4573
  736MPD2    C310876   4.413   4.098  12.070  0.1698 -0.4346  0.7921
  736MPD2    C410877   4.373   3.992  12.150 -0.0107 -0.9173  0.1738
  736MPD2    C510878   4.247   3.992  12.204 -0.2780  0.9085  0.9765
  736MPD2     H10879   4.364   4.287  11.993  1.1538 -0.8176 -0.2740
  736MPD2    H110880   4.443   3.909  12.158 -0.1766 -1.1086 -0.3047
  736MPD2    H210881   4.069   4.082  12.229  0.1903 -0.9392  0.2965
  736MPD2    H310882   4.205   3.907  12.258 -1.5099  0.6504 -0.3855
  736MPD2     N10883   4.531   4.082  11.996  0.4965  0.2272 -0.3437
  736MPD2    H510884   4.577   3.992  11.988 -1.8344 -0.8570 -1.5031
  736MPD2    N110885   4.108   4.310  12.102  0.0200 -0.0192 -0.0732
  736MPD2    H710886   4.014   4.279  12.124 -0.6585  0.2638 -2.5695
  737TMC3    C110887   4.677   4.165  11.829  0.8424  0.4494  0.2373
  737TMC3    C210888   4.672   4.269  11.741 -0.8863 -0.0230  0.0389
  737TMC3    C310889   0.043   4.276  11.644  0.5179 -0.7825 -0.1769
  737TMC3    C410890   0.027   4.060  11.806  0.4692 -0.2848 -0.8288
  737TMC3    C510891   0.116   4.067  11.700 -0.2830  0.3411  0.5941
  737TMC3    C610892   0.126   4.170  11.610 -0.5492  0.6653  0.6059
  737TMC3     C10893   4.602   4.191  11.954  0.0992  0.0971 -0.6741
  737TMC3     O10894   4.596   4.306  12.001  0.0719 -0.0906 -0.7015
  737TMC3     H10895   4.604   4.350  11.764 -0.3952  0.6420 -0.8978
  737TMC3    H110896   0.018   3.968  11.863 -2.3765 -0.6845 -1.9407
  737TMC3    H210897   0.210   4.184  11.542 -2.2030  0.9449 -1.3956
  737TMC3    C710898   0.192   3.942  11.680  0.8758  0.9898 -0.5033
  737TMC3    C810899   0.024   4.382  11.547  0.3371  0.5219 -0.3503
  737TMC3    O110900   0.193   3.865  11.776  0.1112  0.1920  0.4671
  737TMC3    O210901   0.001   4.493  11.582  0.0427 -0.6667  0.3582
  738MPD2     C10902   0.430   2.941  15.307 -0.7076 -0.5848 -0.8415
  738MPD2    C110903   0.380   2.955  15.178 -0.2859 -0.1923  0.4858
  738MPD2    C210904   0.452   3.034  15.089  0.4338  0.2091  0.3423
  738MPD2    C310905   0.576   3.091  15.125 -0.0686  0.0222  0.5015
  738MPD2    C410906   0.624   3.078  15.255  0.5198  0.0520 -0.2277
  738MPD2    C510907   0.544   3.015  15.348 -0.1640 -0.8018  0.5148
  738MPD2     H10908   0.420   3.040  14.986  0.8985  0.2748  0.2047
  738MPD2    H110909   0.717   3.122  15.290 -0.9222  2.2792  0.8303
  738MPD2    H210910   0.385   2.875  15.380 -0.7688 -0.7112 -0.9940
  738MPD2    H310911   0.570   2.997  15.451  0.5677 -0.7707  0.3388
  738MPD2     N10912   0.657   3.176  15.038  0.1995  0.2621  0.3695
  738MPD2    H510913   0.754   3.185  15.069  0.0525 -2.2517  1.5258
  738MPD2    N110914   0.264   2.883  15.127  0.6226 -1.1282 -0.4735
  738MPD2    H710915   0.241   2.883  15.028  0.3760  0.0765 -0.4169
  739TMC3    C110916   0.729   3.308  14.859  0.4416  0.4249 -0.1897
  739TMC3    C210917   0.717   3.328  14.725 -0.0112 -0.8080  0.5529
  739TMC3    C310918   0.827   3.359  14.651 -0.7058  0.3107 -0.5666
  739TMC3    C410919   0.845   3.334  14.929  0.5214 -0.1825 -0.2162
  739TMC3    C510920   0.947   3.393  14.848 -0.7701 -0.3447  0.4886
  739TMC3    C610921   0.947   3.399  14.711 -0.2743  0.5772 -0.2621
  739TMC3     C10922   0.615   3.241  14.925  0.1160 -0.4013  0.3904
  739TMC3     O10923   0.505   3.229  14.869  0.1510  0.2080  0.1998
  739TMC3     H10924   0.625   3.309  14.670  0.4420  1.8631 -1.1125
  739TMC3    H110925   0.845   3.340  15.037  0.2450  1.3163 -0.2982
  739TMC3    H210926   1.030   3.441  14.655  0.7379 -1.0092  0.0802
  739TMC3    C710927   1.070   3.417  14.920  0.3151 -0.1096 -0.4284
  739TMC3    C810928   0.824   3.339  14.503 -0.2286  0.0840  0.1289
  739TMC3    O110929   1.084   3.388  15.040  0.6852 -0.5893 -0.1169
  739TMC3    O210930   0.720   3.285  14.468 -0.2200  0.2334  0.4699
  740TMC3    C110931   1.163   4.594  14.243  0.4521 -0.1690  0.1337
  740TMC3    C210932   1.207   4.517  14.351 -0.3418 -0.2883  0.1122
  740TMC3    C310933   1.321   4.437  14.329  0.0478  0.4121  0.3271
  740TMC3    C410934   1.232   4.590  14.121 -0.1287 -0.6622 -0.4091
  740TMC3    C510935   1.346   4.503  14.107 -0.9003 -0.1310 -0.4685
  740TMC3    C610936   1.393   4.431  14.213  0.6953  0.4274 -0.0214
  740TMC3     C10937   1.035   4.651  14.251  0.8232 -0.2634  0.3933
  740TMC3     O10938   0.976   4.679  14.146 -0.1617  0.4533 -0.2101
  740TMC3     H10939   1.161   4.511  14.449 -0.2770 -1.7138  0.0476
  740TMC3    H110940   1.194   4.647  14.037 -2.5898  1.7170  2.3190
  740TMC3    H210941   1.481   4.369  14.205  0.6351  0.5864 -2.0480
  740TMC3    C710942   1.420   4.475  13.984  0.0333 -0.0782  0.1183
  740TMC3    C810943   1.345   4.338  14.430  0.1208  0.3178  0.1979
  740TMC3    O110944   1.516   4.400  13.995  0.0980 -0.2044 -0.7298
  740TMC3    O210945   1.312   4.364  14.545  0.0511  0.0197  0.7255
  741TMC3    C110946   0.766   3.839  14.028 -0.4015 -1.0991  0.3319
  741TMC3    C210947   0.657   3.788  14.093  0.3348 -0.1858  0.0367
  741TMC3    C310948   0.670   3.726  14.215  0.2234 -0.8104 -0.0034
  741TMC3    C410949   0.891   3.814  14.077 -0.0410 -0.2897 -0.3963
  741TMC3    C510950   0.906   3.749  14.195  0.1483  0.1620 -0.1632
  741TMC3    C610951   0.795   3.708  14.268  0.2402  0.0977  0.2383
  741TMC3     C10952   0.759   3.955  13.945 -0.7514 -0.1347 -0.1332
  741TMC3     O10953   0.852   3.976  13.867  0.1259 -0.4440  0.1155
  741TMC3     H10954   0.558   3.809  14.055 -0.8558 -1.0958  2.6904
  741TMC3    H110955   0.976   3.859  14.027  0.7002 -0.2012  0.9233
  741TMC3    H210956   0.818   3.653  14.358  1.5186  0.5920  0.2175
  741TMC3    C710957   1.036   3.698  14.223 -0.0897 -0.2833 -0.2169
  741TMC3    C810958   0.547   3.678  14.273 -0.4964 -0.0449  0.6272
  741TMC3    O110959   1.068   3.685  14.340  1.0503 -0.0490 -0.4900
  741TMC3    O210960   0.449   3.665  14.202  0.2867 -0.4592 -0.5950
  742TMC3    C110961   0.811   1.910  15.318 -0.2353 -0.0479 -0.1052
  742TMC3    C210962   0.756   1.947  15.197 -0.4221 -0.3592 -0.2878
  742TMC3    C310963   0.776   1.878  15.078  0.2388 -0.1238 -0.7572
  742TMC3    C410964   0.891   1.799  15.318  0.6402  0.1897  0.3857
  742TMC3    C510965   0.925   1.745  15.196 -0.7793 -0.7139 -0.2350
  742TMC3    C610966   0.863   1.776  15.079  0.5181 -0.1177  0.1766
  742TMC3     C10967   0.764   1.981  15.436 -0.0767  0.4754  0.6104
  742TMC3     O10968   0.650   2.035  15.432 -0.7096 -0.3375 -0.0916
  742TMC3     H10969   0.680   2.023  15.207  0.7891  0.9726 -1.1882
  742TMC3    H110970   0.939   1.767  15.410 -0.9278 -1.3334  0.6799
  742TMC3    H210971   0.879   1.723  14.986 -1.1748 -0.2336 -0.0538
  742TMC3    C710972   0.979   1.610  15.212  0.1985  0.0296 -0.5332
  742TMC3    C810973   0.692   1.903  14.963  0.8438  0.0979 -0.0672
  742TMC3    O110974   1.098   1.593  15.201  0.2914 -0.5394 -0.4113
  742TMC3    O210975   0.680   1.812  14.882 -0.3247 -0.3560 -0.6274
  743MPD2     C10976   4.060   4.006   1.905  0.0271 -0.0791 -0.9331
  743MPD2    C110977   4.030   3.939   1.784  0.6673 -0.1936 -0.7331
  743MPD2    C210978   4.133   3.943   1.685  0.2610  1.0645  0.2652
  743MPD2    C310979   4.260   3.994   1.723 -0.3191  0.7876  0.4478
  743MPD2    C410980   4.279   4.056   1.849 -0.6933  0.1271  0.3093
  743MPD2    C510981   4.182   4.047   1.940 -0.5341  0.5336  0.7637
  743MPD2     H10982   4.116   3.882   1.597 -0.9455  1.4920  0.2009
  743MPD2    H110983   4.373   4.095   1.886 -1.9678  2.4730  1.0938
  743MPD2    H210984   3.992   4.008   1.989  0.4120 -0.4831 -0.6165
  743MPD2    H310985   4.194   4.087   2.040  0.5682 -0.7303  1.1429
  743MPD2     N10986   4.359   3.987   1.618  0.2589  0.8395  0.5278
  743MPD2    H510987   4.328   3.941   1.534 -0.2976  0.1253  1.1259
  743MPD2    N110988   3.905   3.878   1.767 -0.1450 -0.2645  0.1194
  743MPD2    H710989   3.848   3.884   1.851 -0.3076 -1.2116  0.0696
  744TMC3    C110990   3.717   3.777   1.653 -0.2722 -0.2597 -0.3166
  744TMC3    C210991   3.639   3.865   1.725  0.3566  0.0674  0.1123
  744TMC3    C310992   3.508   3.850   1.716 -0.6462 -0.1749  0.6170
  744TMC3    C410993   3.672   3.681   1.566  0.3575  0.1792  1.0969
  744TMC3    C510994   3.540   3.665   1.561  0.4967  0.2609 -0.1832
  744TMC3    C610995   3.455   3.751   1.633 -0.2673  0.2612  0.0714
  744TMC3     C10996   3.858   3.800   1.658  0.2082  0.1251 -0.1604
  744TMC3     O10997   3.917   3.768   1.558  0.2945 -0.3393 -0.0520
  744TMC3     H10998   3.680   3.937   1.795 -1.9182 -1.4520  3.0064
  744TMC3    H110999   3.750   3.631   1.510  0.8061  0.8527  1.1123
  744TMC3    H211000   3.348   3.740   1.621 -0.6423  1.7585  1.8685
  744TMC3    C711001   3.496   3.576   1.458  0.7414 -0.4402  0.4870
  744TMC3    C811002   3.408   3.931   1.789 -0.2202 -0.8175 -0.1330
  744TMC3    O111003   3.568   3.569   1.360 -0.3770  0.5331  0.9084
  744TMC3    O211004   3.296   3.918   1.749 -0.6821 -0.0732  0.5797
  745TMC3    C111005   0.698   1.881  13.150  0.1563 -0.6336  0.1258
  745TMC3    C211006   0.595   1.875  13.236 -0.8620 -0.0686 -0.1275
  745TMC3    C311007   0.479   1.908  13.173  0.5037  0.2605 -0.5496
  745TMC3    C411008   0.699   1.919  13.018  0.2930 -0.2385 -0.2018
  745TMC3    C511009   0.577   1.950  12.960 -0.1805  0.2431 -0.0918
  745TMC3    C611010   0.472   1.950  13.044  0.0208  0.3487 -0.6351
  745TMC3     C11011   0.823   1.872  13.221  0.0702  0.3583  0.4200
  745TMC3     O11012   0.909   1.799  13.176 -0.3846 -0.0386 -0.3473
  745TMC3     H11013   0.606   1.812  13.323  1.0152 -0.6378 -0.7775
  745TMC3    H111014   0.795   1.899  12.971  0.9697 -0.0299  1.0995
  745TMC3    H211015   0.382   1.994  13.003  0.7843  1.1310 -1.4592
  745TMC3    C711016   0.575   2.069  12.880 -0.0097 -0.3833  0.3210
  745TMC3    C811017   0.355   1.913  13.250  0.1512  0.0046  0.4736
  745TMC3    O111018   0.474   2.108  12.829  0.0002 -0.2457 -0.3136
  745TMC3    O211019   0.259   1.924  13.177  0.2941  0.2542 -0.5882
  746TMC3    C111020   2.700   3.958  11.172  0.5126 -0.0310  0.6240
  746TMC3    C211021   2.793   3.920  11.078  0.2561  0.5922 -0.2787
  746TMC3    C311022   2.787   3.793  11.030  0.5519  0.2653 -0.7369
  746TMC3    C411023   2.599   3.874  11.203 -0.3927 -0.5288  0.1032
  746TMC3    C511024   2.586   3.756  11.143  0.6221  0.4113 -0.5898
  746TMC3    C611025   2.682   3.715  11.055 -0.9091  0.0623  0.0505
  746TMC3     C11026   2.700   4.083  11.248 -0.2146 -0.2563 -0.8564
  746TMC3     O11027   2.601   4.103  11.322  0.3980 -0.0444 -0.3714
  746TMC3     H11028   2.876   3.979  11.041  1.3278 -0.5471  0.3109
  746TMC3    H111029   2.520   3.894  11.274 -0.2623  0.9627 -0.1857
  746TMC3    H211030   2.661   3.633  10.987 -1.5552  0.2892 -0.0217
  746TMC3    C711031   2.459   3.695  11.135 -0.3709 -0.0262  0.2082
  746TMC3    C811032   2.851   3.751  10.902 -0.8000 -0.7953 -0.6742
  746TMC3    O111033   2.450   3.574  11.119  0.3120  1.0491 -0.1610
  746TMC3    O211034   2.891   3.636  10.888  0.6026 -0.2757 -0.0844
  747TMC3    C111035   0.945   3.744  11.021 -0.0356  0.0205  1.0299
  747TMC3    C211036   0.836   3.677  11.059 -0.9300 -0.4414 -0.0375
  747TMC3    C311037   0.758   3.727  11.159  0.0794  0.3529 -0.6984
  747TMC3    C411038   0.979   3.866  11.074 -0.2086 -0.7635 -0.2754
  747TMC3    C511039   0.896   3.913  11.175 -0.2302  0.3975 -0.0365
  747TMC3    C611040   0.778   3.849  11.213 -0.4236 -0.7958  0.7001
  747TMC3     C11041   1.036   3.692  10.918  0.3254 -0.7134 -0.2657
  747TMC3     O11042   1.143   3.753  10.916 -0.1020  0.0316  0.0258
  747TMC3     H11043   0.812   3.578  11.022  1.6534 -1.2684  0.4855
  747TMC3    H111044   1.061   3.921  11.030 -0.9653  1.4061  1.0102
  747TMC3    H211045   0.743   3.866  11.314 -1.4304 -1.4587  0.4591
  747TMC3    C711046   0.937   4.030  11.248 -0.0054  0.5066 -0.3037
  747TMC3    C811047   0.639   3.658  11.190 -0.3425  0.0251 -0.1424
  747TMC3    O111048   0.857   4.072  11.331 -0.0834  0.4854  0.0835
  747TMC3    O211049   0.638   3.539  11.175 -0.0814 -0.0544 -0.1683
  748MPD2     C11050   1.689   0.415   1.499  0.0428 -0.1142 -0.2006
  748MPD2    C111051   1.692   0.281   1.468  0.5804 -0.3923 -0.5966
  748MPD2    C211052   1.812   0.206   1.467 -0.1661  0.2481 -0.0133
  748MPD2    C311053   1.929   0.267   1.514  0.0910 -1.5357 -0.0193
  748MPD2    C411054   1.918   0.394   1.570  0.2379  0.0565 -0.6775
  748MPD2    C511055   1.800   0.463   1.560  0.0333  0.2445  0.1399
  748MPD2     H11056   1.815   0.109   1.418 -0.4793  0.3756 -0.2829
  748MPD2    H111057   2.003   0.451   1.606  1.0714 -2.1336  0.8225
  748MPD2    H211058   1.606   0.482   1.483 -0.9997 -1.1467  0.9073
  748MPD2    H311059   1.797   0.562   1.603 -0.5746  0.4821 -0.4552
  748MPD2     N11060   2.059   0.209   1.506 -0.7239  0.0180  0.2656
  748MPD2    H511061   2.130   0.280   1.502 -0.6811 -0.0474 -0.1995
  748MPD2    N111062   1.574   0.232   1.408 -0.3535 -0.4960  0.2137
  748MPD2    H711063   1.505   0.305   1.396 -0.8057 -0.9660 -0.0430
  749TMC3    C111064   2.231   0.051   1.475  0.2279  0.2911  0.0200
  749TMC3    C211065   2.296   4.668   1.528 -0.2627  0.2417 -0.1031
  749TMC3    C311066   2.420   4.631   1.471 -0.4108 -0.4078 -0.0328
  749TMC3    C411067   2.281   0.129   1.376 -0.1359 -0.0910  0.3571
  749TMC3    C511068   2.406   0.096   1.331 -0.1584 -0.1476  0.3132
  749TMC3    C611069   2.476   4.707   1.373 -0.2341  0.2374  0.1188
  749TMC3     C11070   2.089   0.075   1.510 -0.4472  0.4705 -0.3435
  749TMC3     O11071   2.017   4.707   1.538  0.3265 -0.5229 -0.4631
  749TMC3     H11072   2.253   4.613   1.611 -0.9815  0.8261 -0.0857
  749TMC3    H111073   2.229   0.202   1.315  0.4094  0.8389  1.0097
  749TMC3    H211074   2.583   4.705   1.359  0.0939 -2.9242  3.1884
  749TMC3    C711075   2.438   0.136   1.194  0.3105  0.0170  0.3126
  749TMC3    C811076   2.507   4.538   1.541 -0.2440 -0.4030 -0.0465
  749TMC3    O111077   2.422   0.250   1.162  0.0700 -0.3317  0.4142
  749TMC3    O211078   2.476   4.506   1.650  0.0694  0.2864  0.4174
  750MPD2     C11079   3.375   1.265  11.893  0.4240 -0.0504  0.1269
  750MPD2    C111080   3.253   1.205  11.891 -0.0689 -0.4904  0.7511
  750MPD2    C211081   3.235   1.103  11.801  0.1208  0.7115  0.5683
  750MPD2    C311082   3.333   1.064  11.707  0.2216 -0.6041 -0.1914
  750MPD2    C411083   3.453   1.130  11.713 -0.2044 -0.0251 -0.4742
  750MPD2    C511084   3.472   1.221  11.815  0.2007  0.3397  0.3995
  750MPD2     H11085   3.142   1.049  11.806  1.0439 -0.8485  0.7695
  750MPD2    H111086   3.544   1.101  11.662  0.0594 -0.3287  0.1740
  750MPD2    H211087   3.395   1.350  11.957  0.7877  0.4829 -0.6923
  750MPD2    H311088   3.568   1.271  11.828  1.1482 -1.0606 -1.1911
  750MPD2     N11089   3.306   0.965  11.613 -0.5199 -0.1676  0.1867
  750MPD2    H511090   3.393   0.928  11.576 -0.9042 -1.1524  0.2706
  750MPD2    N111091   3.150   1.250  11.974 -0.4056 -0.5161  0.7765
  750MPD2    H711092   3.152   1.343  12.014  0.6207 -0.1157 -0.2086
  751TMC3    C111093   3.178   0.806  11.482  0.2915  0.0341  0.0289
  751TMC3    C211094   3.052   0.760  11.476  0.2093 -0.0126 -0.0347
  751TMC3    C311095   3.022   0.682  11.366  1.1076  0.9817  0.0945
  751TMC3    C411096   3.279   0.769  11.398 -0.4819 -0.5030 -0.3597
  751TMC3    C511097   3.254   0.681  11.300 -0.1852 -0.3546  0.1126
  751TMC3    C611098   3.129   0.626  11.293  1.0686  0.6442  0.2952
  751TMC3     C11099   3.185   0.933  11.561  0.0974  0.8936 -0.0392
  751TMC3     O11100   3.077   0.990  11.576 -0.0154  0.0308  0.5327
  751TMC3     H11101   2.978   0.795  11.547 -0.0819 -2.1837  0.7141
  751TMC3    H111102   3.378   0.813  11.393 -1.0644  1.1434  2.7269
  751TMC3    H211103   3.105   0.570  11.203 -0.0334  0.3560  0.7730
  751TMC3    C711104   3.350   0.677  11.192 -0.1038 -0.3891 -0.0822
  751TMC3    C811105   2.897   0.615  11.352  1.0579  0.8461  0.7760
  751TMC3    O111106   3.437   0.758  11.190 -0.0979 -0.2749 -0.1623
  751TMC3    O211107   2.887   0.537  11.257  0.1072 -0.1424  0.5059
  752TMC3    C111108   1.726   0.645  17.123  0.1726 -0.2061  0.1487
  752TMC3    C211109   1.802   0.544  17.173  0.3368  0.2787  0.3019
  752TMC3    C311110   1.786   0.521  17.310  0.1988  0.2321  1.1615
  752TMC3    C411111   1.647   0.728  17.189  0.1620 -0.4205 -0.5662
  752TMC3    C511112   1.627   0.691  17.326  0.0936  0.6376  0.6262
  752TMC3    C611113   1.688   0.584  17.383  0.2062  0.4720 -0.1128
  752TMC3     C11114   1.757   0.677  16.982  0.2569  0.1552  0.6803
  752TMC3     O11115   1.861   0.641  16.929 -0.2630  0.4864 -0.5148
  752TMC3     H11116   1.870   0.492  17.107  0.2783 -1.8587  1.9262
  752TMC3    H111117   1.594   0.813  17.149 -0.6146 -0.2219  0.8798
  752TMC3    H211118   1.672   0.551  17.485  0.4218 -0.7654 -0.4817
  752TMC3    C711119   1.536   0.773  17.408  0.0530 -0.6183  0.0072
  752TMC3    C811120   1.848   0.399  17.367 -0.0972  0.0034  0.3695
  752TMC3    O111121   1.495   0.722  17.514 -0.3270 -0.3499  0.2841
  752TMC3    O211122   1.819   0.381  17.482  0.5691 -0.2667 -0.4023
  753TMC3    C111123   3.875   2.313  13.124 -0.2089 -0.0350  0.0895
  753TMC3    C211124   3.942   2.255  13.235 -0.1155 -0.5106 -0.1838
  753TMC3    C311125   3.968   2.125  13.237  0.4010 -0.1304  0.4724
  753TMC3    C411126   3.818   2.230  13.028  0.3490 -0.5052 -0.3184
  753TMC3    C511127   3.835   2.096  13.041 -0.0110 -0.1316 -0.4192
  753TMC3    C611128   3.916   2.047  13.139  0.5459  0.0156 -0.0953
  753TMC3     C11129   3.901   2.445  13.081  0.2103  0.7077  0.4168
  753TMC3     O11130   3.835   2.479  12.983  0.0532  0.1523  0.4190
  753TMC3     H11131   3.999   2.316  13.305  1.1414 -0.7806 -0.9576
  753TMC3    H111132   3.771   2.264  12.937  1.0407 -3.6500 -1.8374
  753TMC3    H211133   3.946   1.943  13.141 -0.9294 -0.4005  0.3147
  753TMC3    C711134   3.771   2.003  12.951  0.6885  0.1489 -0.4623
  753TMC3    C811135   4.082   2.072  13.314  0.1418 -0.2816 -0.2917
  753TMC3    O111136   3.823   1.895  12.944  0.5293 -0.3880  0.2124
  753TMC3    O211137   4.141   1.977  13.265 -0.7698  0.1531  0.0623
  754MPD2     C11138   2.624   0.779  12.910  0.0432  0.0819  0.1803
  754MPD2    C111139   2.560   0.670  12.954 -0.2968 -1.1055  0.0963
  754MPD2    C211140   2.436   0.640  12.899 -0.6510 -0.1809 -0.0370
  754MPD2    C311141   2.382   0.720  12.804  0.1455 -0.9465 -0.1019
  754MPD2    C411142   2.459   0.824  12.755 -0.0080 -0.3110 -0.5922
  754MPD2    C511143   2.583   0.844  12.803  0.3634 -0.2668  0.1452
  754MPD2     H11144   2.383   0.565  12.956 -2.3680  1.0215 -0.0374
  754MPD2    H111145   2.429   0.886  12.671  2.4096 -1.0393 -1.9809
  754MPD2    H211146   2.720   0.805  12.953 -0.0155  0.0577  0.3263
  754MPD2    H311147   2.633   0.933  12.764 -1.7041  0.0104 -1.8873
  754MPD2     N11148   2.246   0.700  12.752  0.2557 -0.3212 -0.5403
  754MPD2    H511149   2.201   0.766  12.690 -2.2829  0.1074  1.7536
  754MPD2    N111150   2.606   0.597  13.068 -0.2217 -0.3962  0.5360
  754MPD2    H711151   2.688   0.639  13.111 -0.1937  1.2058 -1.0969
  755MPD2     C11152   1.287   1.029  12.829  0.8573 -0.1212 -0.0531
  755MPD2    C111153   1.405   1.036  12.894 -0.3264 -0.8057  0.4781
  755MPD2    C211154   1.533   0.988  12.843  0.6530 -0.1927  0.5540
  755MPD2    C311155   1.525   0.921  12.721 -0.0190 -0.1113  0.2572
  755MPD2    C411156   1.404   0.915  12.658 -0.3376 -0.3524  0.5765
  755MPD2    C511157   1.290   0.971  12.707  0.3204 -0.3296  0.0311
  755MPD2     H11158   1.620   0.984  12.907 -0.0686 -0.4930  1.5219
  755MPD2    H111159   1.408   0.863  12.563 -2.4911 -0.7176  0.6883
  755MPD2    H211160   1.189   1.057  12.867  1.3534  0.5888  0.6865
  755MPD2    H311161   1.200   0.951  12.649  0.3643  1.3889 -0.6118
  755MPD2     N11162   1.629   0.858  12.657 -0.4760 -0.1184 -0.3541
  755MPD2    H511163   1.600   0.794  12.584 -1.5459 -0.1212  0.0646
  755MPD2    N111164   1.414   1.077  13.022 -0.6340 -0.3950  0.4931
  755MPD2    H711165   1.509   1.102  13.050 -0.1752 -2.9584  1.1507
  756MPD2     C11166   3.107   1.730   9.652 -0.4090  0.3148 -0.7342
  756MPD2    C111167   3.025   1.687   9.754  0.5319 -0.1319 -0.3050
  756MPD2    C211168   2.895   1.643   9.728 -0.3805  0.9588 -0.3262
  756MPD2    C311169   2.848   1.626   9.600  0.2030  0.1829  0.3089
  756MPD2    C411170   2.941   1.667   9.494 -0.0392  0.4063  0.2436
  756MPD2    C511171   3.063   1.712   9.524  0.5736  1.2523  0.2607
  756MPD2     H11172   2.832   1.602   9.806  0.6207 -0.7810 -0.4496
  756MPD2    H111173   2.917   1.655   9.389  0.8731  0.1818  0.0619
  756MPD2    H211174   3.206   1.774   9.658  0.4204 -1.5357 -0.7352
  756MPD2    H311175   3.131   1.738   9.445  1.1992  1.1282  0.7597
  756MPD2     N11176   2.719   1.564   9.576 -0.2216  0.4471 -0.0500
  756MPD2    H511177   2.671   1.532   9.660  0.8822  2.9148  1.5032
  756MPD2    N111178   3.061   1.688   9.895 -0.1686  0.7843  0.6219
  756MPD2    H711179   2.987   1.670   9.962 -1.7619 -0.8819 -1.5742
  757MPD2     C11180   2.524   0.738   9.855  0.5215 -0.2569  0.3098
  757MPD2    C111181   2.637   0.791   9.804  0.3020 -0.5371 -0.6501
  757MPD2    C211182   2.643   0.927   9.759 -0.3012  0.1268  0.2015
  757MPD2    C311183   2.524   1.000   9.763  0.2470 -0.1014  0.1982
  757MPD2    C411184   2.408   0.947   9.826  0.0192  0.0440  0.1963
  757MPD2    C511185   2.412   0.815   9.865 -0.1559  0.2633  0.3045
  757MPD2     H11186   2.729   0.959   9.701 -1.0684 -0.7205 -1.4111
  757MPD2    H111187   2.316   1.003   9.831  1.2835  2.0585  1.0172
  757MPD2    H211188   2.533   0.635   9.889  1.8643 -0.4718 -0.7148
  757MPD2    H311189   2.319   0.770   9.899  0.9810 -0.1038  2.8874
  757MPD2     N11190   2.521   1.123   9.694 -0.8141  0.0796  0.0386
  757MPD2    H511191   2.612   1.154   9.662 -0.4560  1.1547  2.1144
  757MPD2    N111192   2.748   0.699   9.785 -0.2458  0.1842  0.3939
  757MPD2    H711193   2.727   0.602   9.806 -0.6309  0.1596 -0.0833
  758MPD2     C11194   2.834   0.421  15.532 -0.1469  0.1617 -0.3716
  758MPD2    C111195   2.852   0.383  15.664  0.6925 -0.6778 -0.1476
  758MPD2    C211196   2.817   0.478  15.762 -0.2416  0.0800 -0.1073
  758MPD2    C311197   2.775   0.605  15.725  0.7501  0.0793 -0.2189
  758MPD2    C411198   2.751   0.638  15.591 -0.3201 -0.2051  0.2147
  758MPD2    C511199   2.789   0.547  15.497 -0.0613 -0.4023 -0.1458
  758MPD2     H11200   2.831   0.458  15.868 -2.1359 -0.2403  0.0910
  758MPD2    H111201   2.707   0.729  15.552 -1.0681 -0.6702 -0.0329
  758MPD2    H211202   2.850   0.351  15.451  0.2883 -0.9923  0.7150
  758MPD2    H311203   2.785   0.572  15.392 -0.2987  0.0519 -0.0299
  758MPD2     N11204   2.745   0.689  15.832  0.0761 -0.1313  0.7661
  758MPD2    H511205   2.769   0.658  15.926  1.2923 -1.7296 -0.0758
  758MPD2    N111206   2.900   0.251  15.690  0.3095 -0.4980 -0.6328
  758MPD2    H711207   2.916   0.185  15.615  1.5844  2.0123 -2.6117
  759MPD2     C11208   1.387   3.704   9.884  0.0667  0.2893  0.2602
  759MPD2    C111209   1.415   3.582   9.844 -0.5877  0.8854 -0.2113
  759MPD2    C211210   1.543   3.550   9.808 -0.2609 -0.1053  0.0672
  759MPD2    C311211   1.636   3.649   9.787 -0.1505  0.4133 -0.4267
  759MPD2    C411212   1.601   3.782   9.807  0.5157  0.7722 -0.1222
  759MPD2    C511213   1.478   3.808   9.861  0.0483 -0.7855  0.1041
  759MPD2     H11214   1.561   3.451   9.769 -3.8609 -0.0088 -1.8720
  759MPD2    H111215   1.676   3.860   9.803 -0.5060  1.7058 -0.7781
  759MPD2    H211216   1.290   3.724   9.928 -0.2234  2.3583 -1.3256
  759MPD2    H311217   1.446   3.911   9.879  2.7016  0.0900 -0.2083
  759MPD2     N11218   1.763   3.602   9.751  0.0246 -0.3605 -0.2871
  759MPD2    H511219   1.781   3.503   9.769 -0.2900 -0.1994  0.9083
  759MPD2    N111220   1.321   3.473   9.846  0.5743 -0.2527 -0.0242
  759MPD2    H711221   1.357   3.388   9.803 -0.1070  0.4368 -1.9495
  760MPD2     C11222   1.200   1.384  11.750  0.0460  0.4615  0.2484
  760MPD2    C111223   1.327   1.327  11.732 -0.0340  0.3109  0.6671
  760MPD2    C211224   1.349   1.190  11.751  0.8754  0.4117 -0.2594
  760MPD2    C311225   1.234   1.111  11.768 -0.9203 -0.0821 -0.0438
  760MPD2    C411226   1.114   1.169  11.800 -0.0447 -0.3915  0.4596
  760MPD2    C511227   1.099   1.308  11.798 -0.5006  0.3220  0.1429
  760MPD2     H11228   1.450   1.153  11.744  1.3798  1.8323 -0.4894
  760MPD2    H111229   1.024   1.113  11.824  0.8860 -1.5172  1.2776
  760MPD2    H211230   1.183   1.489  11.727 -0.6919 -0.0696 -1.6082
  760MPD2    H311231   1.001   1.349  11.823 -0.5170  0.3259  0.0708
  760MPD2     N11232   1.232   0.968  11.765 -0.2867  0.1892  0.4841
  760MPD2    H511233   1.139   0.929  11.774 -0.0043 -0.2028  1.7348
  760MPD2    N111234   1.441   1.403  11.704 -0.1030 -0.2127 -0.6233
  760MPD2    H711235   1.535   1.364  11.713  0.5642  1.3098 -1.0020
  761MPD2     C11236   2.401   0.547  11.462 -0.4724  0.4532  0.0082
  761MPD2    C111237   2.485   0.478  11.376 -0.4400  0.4991  0.3352
  761MPD2    C211238   2.611   0.519  11.361 -0.1650 -0.1586 -0.6878
  761MPD2    C311239   2.659   0.638  11.418  0.0566 -0.1921 -0.0377
  761MPD2    C411240   2.569   0.716  11.488  0.5513  0.1039 -0.2316
  761MPD2    C511241   2.447   0.667  11.505 -0.7229 -0.4646  0.3612
  761MPD2     H11242   2.682   0.451  11.316  0.0919 -0.6560  0.4836
  761MPD2    H111243   2.596   0.811  11.534 -0.3507 -0.0033  0.5051
  761MPD2    H211244   2.299   0.518  11.485 -1.2014  2.4750 -0.6779
  761MPD2    H311245   2.385   0.728  11.570  0.4159 -0.8964  1.8595
  761MPD2     N11246   2.794   0.683  11.416  0.2951  0.4760  0.6269
  761MPD2    H511247   2.804   0.781  11.442 -0.9782  0.7855 -0.0507
  761MPD2    N111248   2.441   0.351  11.333 -0.5890  0.2991  0.3575
  761MPD2    H711249   2.355   0.311  11.367 -1.5571  0.9587 -1.3021
  762MPD2     C11250   2.308   4.401  10.688  0.4809  0.4071  0.1811
  762MPD2    C111251   2.408   4.481  10.723  0.5163  0.6615  0.1321
  762MPD2    C211252   2.528   4.473  10.654  0.1401 -0.8797 -0.3809
  762MPD2    C311253   2.542   4.374  10.562 -0.6301  0.0209  0.0029
  762MPD2    C411254   2.445   4.275  10.545  0.0096 -0.1954  0.3892
  762MPD2    C511255   2.329   4.290  10.611 -0.1621 -0.3101  0.0342
  762MPD2     H11256   2.606   4.545  10.678 -0.0007 -1.3636  1.5234
  762MPD2    H111257   2.468   4.183  10.493  0.6712 -0.3604  0.9811
  762MPD2    H211258   2.209   4.420  10.728 -0.2999 -0.4575 -1.3264
  762MPD2    H311259   2.252   4.219  10.585 -0.0936 -0.6962  0.9141
  762MPD2     N11260   2.658   4.350  10.489  0.3485 -0.4737  0.5282
  762MPD2    H511261   2.665   4.258  10.447  1.0813 -0.3664  0.4112
  762MPD2    N111262   2.386   4.565  10.837 -0.1546  0.3355 -0.3602
  762MPD2    H711263   2.299   4.544  10.884 -0.7499  2.0005 -0.6974
  763MPD2     C11264   0.215   0.075  16.150 -0.1180 -0.0743 -0.9267
  763MPD2    C111265   0.117   0.160  16.102 -0.5000  0.1108 -0.5010
  763MPD2    C211266   0.089   0.277  16.171  0.8027  0.8750 -0.1961
  763MPD2    C311267   0.154   0.298  16.293  0.1311  0.4112  0.0771
  763MPD2    C411268   0.243   0.201  16.340  1.0160 -0.5378 -0.5275
  763MPD2    C511269   0.273   0.089  16.272 -0.7215  0.3707 -0.4471
  763MPD2     H11270   0.016   0.347  16.133  0.3189  1.3847  1.7305
  763MPD2    H111271   0.296   0.227  16.430 -1.2574 -1.1045  0.9883
  763MPD2    H211272   0.252   4.710  16.102  1.7907  0.3830 -0.2969
  763MPD2    H311273   0.356   0.026  16.302 -0.6637 -0.0656 -1.5025
  763MPD2     N11274   0.158   0.424  16.357  0.0566  0.6552 -0.2514
  763MPD2    H511275   0.240   0.440  16.415  0.4327  4.2748 -1.7795
  763MPD2    N111276   0.054   0.138  15.981 -0.6344 -0.2587 -0.5727
  763MPD2    H711277   4.712   0.208  15.951  1.3121  1.4152 -1.0250
  764MPD2     C11278   2.316   1.478  16.800 -1.0479  0.0214  0.2528
  764MPD2    C111279   2.256   1.593  16.836 -0.1139 -0.5743 -0.6676
  764MPD2    C211280   2.246   1.630  16.971  0.9208 -0.6608 -0.2605
  764MPD2    C311281   2.291   1.556  17.067 -0.1621  0.1980 -0.2980
  764MPD2    C411282   2.366   1.444  17.036 -0.2079 -0.4473  0.3260
  764MPD2    C511283   2.377   1.409  16.904 -0.3795  0.0473  0.0165
  764MPD2     H11284   2.196   1.723  16.998  0.3408 -0.8544 -0.6885
  764MPD2    H111285   2.415   1.367  17.094 -0.4793 -1.2299 -0.5016
  764MPD2    H211286   2.335   1.450  16.697 -1.0601 -2.4787  0.9524
  764MPD2    H311287   2.446   1.332  16.872 -1.0472 -0.3994 -0.3567
  764MPD2     N11288   2.295   1.600  17.205  0.3696  0.3791  0.8353
  764MPD2    H511289   2.234   1.680  17.213 -0.9829 -0.4596 -0.9612
  764MPD2    N111290   2.205   1.679  16.739  0.3386  0.0394  1.1433
  764MPD2    H711291   2.180   1.774  16.764 -1.3886  0.1331 -0.9474
  765MPD2     C11292   2.636   4.367  15.580  0.4604  0.3132 -0.1294
  765MPD2    C111293   2.684   4.490  15.539  0.0905 -0.1527  0.0026
  765MPD2    C211294   2.813   4.486  15.486 -0.0547  0.1059  0.4713
  765MPD2    C311295   2.887   4.370  15.475 -0.3937  0.1283 -0.1014
  765MPD2    C411296   2.833   4.253  15.534  0.0830  0.6885  0.8259
  765MPD2    C511297   2.705   4.249  15.573  0.0927 -0.2596  0.5232
  765MPD2     H11298   2.851   4.569  15.428  1.9076 -1.6987 -0.8389
  765MPD2    H111299   2.874   4.153  15.544 -0.0090  0.5905  0.2266
  765MPD2    H211300   2.539   4.365  15.628 -0.6304  3.0918 -2.2171
  765MPD2    H311301   2.661   4.157  15.612 -1.2496 -0.1071 -0.6482
  765MPD2     N11302   3.020   4.362  15.420 -0.1807 -0.0992 -0.1586
  765MPD2    H511303   3.066   4.451  15.410  0.1228 -0.1547  0.7755
  765MPD2    N111304   2.604   4.601  15.554 -0.2096 -0.4884 -0.2733
  765MPD2    H711305   2.508   4.584  15.584 -0.0931 -0.0838  0.3311
  766MPD2     C11306   1.927   4.554  15.272 -0.7020  0.2229 -0.7332
  766MPD2    C111307   2.049   4.613  15.267  0.3082  0.2874 -0.7412
  766MPD2    C211308   2.119   4.610  15.147  0.3105 -0.1957  0.1697
  766MPD2    C311309   2.055   4.562  15.031  0.3756 -0.4031  0.1654
  766MPD2    C411310   1.928   4.521  15.038  0.1490  0.2033 -0.0410
  766MPD2    C511311   1.866   4.513  15.154  0.1379 -0.1500  0.1330
  766MPD2     H11312   2.220   4.644  15.128 -0.2554  0.1052 -2.3443
  766MPD2    H111313   1.872   4.494  14.949  1.3963  2.0441 -1.4116
  766MPD2    H211314   1.866   4.538  15.360  0.9979 -1.2555  0.1766
  766MPD2    H311315   1.765   4.476  15.148  0.3131 -0.9835  2.2153
  766MPD2     N11316   2.132   4.568  14.913 -0.1478 -0.5545 -0.8374
  766MPD2    H511317   2.082   4.564  14.824  1.4730 -0.7163 -1.7454
  766MPD2    N111318   2.110   4.674  15.376  0.0699  0.2118 -0.6795
  766MPD2    H711319   2.087   4.645  15.471 -0.3622  2.1783 -0.1761
  767MPD2     C11320   1.745   0.102  14.879 -0.1759 -0.4308  0.0836
  767MPD2    C111321   1.867   0.135  14.822  0.1737  0.6180  0.5321
  767MPD2    C211322   1.897   0.094  14.691  0.3444 -0.6108 -0.6540
  767MPD2    C311323   1.804   0.018  14.617 -0.4465  0.2110  0.0363
  767MPD2    C411324   1.680   4.714  14.679 -0.1458  0.8821 -0.0668
  767MPD2    C511325   1.658   0.031  14.806  0.4076  0.2867  0.4232
  767MPD2     H11326   1.995   0.121  14.653  0.3038  0.9505  0.3729
  767MPD2    H111327   1.616   4.643  14.629 -2.2763  1.5476  1.7006
  767MPD2    H211328   1.714   0.112  14.982 -1.8273 -0.1575 -0.4446
  767MPD2    H311329   1.567   0.002  14.857 -0.5905  0.0949 -1.4561
  767MPD2     N11330   1.850   4.695  14.495 -0.5057  0.1641  0.4147
  767MPD2    H511331   1.950   4.696  14.477 -0.9520 -3.2809 -2.1554
  767MPD2    N111332   1.967   0.218  14.881 -0.5333 -0.1182  0.3316
  767MPD2    H711333   2.051   0.224  14.824 -0.8416  0.7500 -0.0325
  768MPD2     C11334   2.325   2.852  10.876 -0.1171 -0.1739 -0.5404
  768MPD2    C111335   2.291   2.968  10.945  0.3242 -0.6051  0.0080
  768MPD2    C211336   2.367   3.015  11.046 -0.1115  0.3529 -0.1373
  768MPD2    C311337   2.498   2.964  11.059  0.0644  0.9839  0.3433
  768MPD2    C411338   2.534   2.850  10.988  0.6022 -0.9196  0.2077
  768MPD2    C511339   2.445   2.789  10.911 -0.4025 -1.0385 -0.3889
  768MPD2     H11340   2.330   3.099  11.104  1.5999  0.2843  1.0501
  768MPD2    H111341   2.635   2.811  10.988  0.1099 -2.2057  0.7494
  768MPD2    H211342   2.267   2.801  10.799  1.9417 -1.6902 -1.0633
  768MPD2    H311343   2.477   2.699  10.861  1.2385  2.1150 -5.1146
  768MPD2     N11344   2.605   3.022  11.131 -0.1232 -0.4322  0.3213
  768MPD2    H511345   2.698   2.983  11.129 -0.3526 -0.9659  0.1739
  768MPD2    N111346   2.174   3.045  10.919 -0.4983 -0.4656 -0.6958
  768MPD2    H711347   2.165   3.136  10.963  0.8773 -0.8581  0.4180
  769MPD2     C11348   3.844   0.968  14.819 -0.0747 -0.3447  0.1080
  769MPD2    C111349   3.782   1.091  14.819  0.1644  0.1067 -0.2296
  769MPD2    C211350   3.820   1.185  14.913 -0.2474  0.1844  0.2206
  769MPD2    C311351   3.920   1.164  15.008 -0.4707 -0.3573 -0.6537
  769MPD2    C411352   3.982   1.043  15.003 -0.8017  0.4300  0.1119
  769MPD2    C511353   3.944   0.943  14.913  0.9856 -0.1382  0.1064
  769MPD2     H11354   3.771   1.282  14.910 -1.1146 -0.3921 -3.2918
  769MPD2    H111355   4.067   1.016  15.065 -0.9048  0.1384  0.1255
  769MPD2    H211356   3.816   0.898  14.742 -0.2548 -0.7729  0.5618
  769MPD2    H311357   3.998   0.849  14.919  0.1324 -0.5785  0.9048
  769MPD2     N11358   3.940   1.268  15.104 -0.1102  0.7565 -0.0429
  769MPD2    H511359   3.876   1.345  15.091 -1.4082 -0.0170  1.7477
  769MPD2    N111360   3.664   1.112  14.730  0.2466  0.7266 -0.2717
  769MPD2    H711361   3.648   1.045  14.655 -1.4036 -2.1436  2.6559
  770MPD2     C11362   3.034   0.617  15.020  0.2651  0.2039 -0.0968
  770MPD2    C111363   3.095   0.578  14.908  0.0105 -0.0756  0.3774
  770MPD2    C211364   3.148   0.674  14.822 -0.5027 -0.3097 -0.2588
  770MPD2    C311365   3.125   0.811  14.846 -0.2370 -0.9411  0.2341
  770MPD2    C411366   3.045   0.842  14.960 -0.5941 -0.0954  0.2288
  770MPD2    C511367   3.000   0.745  15.046 -0.0186 -0.2163  0.2112
  770MPD2     H11368   3.216   0.648  14.742 -4.9890 -3.9792 -2.8829
  770MPD2    H111369   3.024   0.945  14.986 -1.5794  0.0002 -0.8898
  770MPD2    H211370   2.991   0.536  15.078 -0.5479  0.8548  0.2029
  770MPD2    H311371   2.948   0.775  15.137  0.9517 -1.3445  1.1485
  770MPD2     N11372   3.176   0.908  14.759 -0.4442  0.0361  0.0453
  770MPD2    H511373   3.205   0.865  14.672  0.8765  1.3517 -0.1694
  770MPD2    N111374   3.124   0.441  14.884 -0.9595 -0.6913 -0.1340
  770MPD2    H711375   3.079   0.386  14.957 -0.3107  1.7064  2.0966
  771MPD2     C11376   0.211   3.968  13.461  0.0735 -0.0552 -0.0772
  771MPD2    C111377   0.125   4.075  13.434 -0.3170  0.1523 -0.0548
  771MPD2    C211378   0.007   4.032  13.373 -0.2283 -0.1621  0.1303
  771MPD2    C311379   4.688   3.912  13.337 -0.0090  0.5301 -0.1676
  771MPD2    C411380   0.044   3.808  13.383  0.8917  0.6470  0.6414
  771MPD2    C511381   0.171   3.842  13.434 -0.1153 -0.1805  0.1276
  771MPD2     H11382   4.672   4.115  13.337 -2.7472 -2.2182 -0.3566
  771MPD2    H111383   0.039   3.705  13.352 -2.0286  0.0917  2.8621
  771MPD2    H211384   0.302   3.987  13.518  0.0498  0.8807 -0.3380
  771MPD2    H311385   0.242   3.765  13.462  1.1389  0.5193 -1.1142
  771MPD2     N11386   4.566   3.888  13.277 -0.2058 -0.4158  0.0873
  771MPD2    H511387   4.504   3.962  13.245  1.1172  0.0631 -1.3322
  771MPD2    N111388   0.136   4.210  13.466 -0.9599 -0.3073 -0.1459
  771MPD2    H711389   0.057   4.269  13.445  0.1375  0.1957 -2.8456
  772MPD2     C11390   4.522   0.136  13.510 -0.5838 -0.1014  0.7413
  772MPD2    C111391   4.529   4.722  13.516 -0.2372  0.0862 -0.0236
  772MPD2    C211392   4.413   4.652  13.565  0.3749 -0.2825 -0.6862
  772MPD2    C311393   4.296   4.724  13.574 -0.5609 -0.6019  0.0196
  772MPD2    C411394   4.287   0.135  13.544  0.4331 -0.3937  0.4095
  772MPD2    C511395   4.406   0.200  13.519  0.1185 -0.0693 -0.7582
  772MPD2     H11396   4.428   4.549  13.593 -3.8257 -0.8789 -0.6265
  772MPD2    H111397   4.197   0.193  13.559 -0.1789 -1.4704  0.9382
  772MPD2    H211398   4.603   0.204  13.488  0.0786 -0.6005  1.6473
  772MPD2    H311399   4.411   0.308  13.514  2.6861 -0.1470  0.4876
  772MPD2     N11400   4.169   4.666  13.622 -0.7866 -0.0104 -0.5016
  772MPD2    H511401   4.096   0.008  13.646 -0.2529  1.0990 -1.9330
  772MPD2    N111402   4.652   4.653  13.501  0.2506 -0.0401 -0.3038
  772MPD2    H711403   4.657   4.553  13.522  0.7497  0.2485  0.9482
  773MPD2     C11404   2.935   0.975  17.204 -0.3316  0.4459 -0.7918
  773MPD2    C111405   2.908   0.864  17.125  0.4738  0.2550  0.2842
  773MPD2    C211406   2.955   0.739  17.163  0.1186 -0.6716  0.5654
  773MPD2    C311407   3.039   0.718  17.270  0.3520  0.6660  0.4454
  773MPD2    C411408   3.067   0.826  17.353 -0.3720  0.5819 -0.7882
  773MPD2    C511409   3.013   0.948  17.319 -0.3715 -0.0615  0.4374
  773MPD2     H11410   2.935   0.655  17.099  1.3104 -1.2084  0.8920
  773MPD2    H111411   3.134   0.815  17.437 -0.3546 -2.1764 -1.1573
  773MPD2    H211412   2.899   1.074  17.178  0.6961  1.5186  1.8686
  773MPD2    H311413   3.033   1.031  17.386 -3.5731 -1.3590  3.0436
  773MPD2     N11414   3.089   0.594  17.291 -0.3670  0.2344 -0.0209
  773MPD2    H511415   3.074   0.521  17.221 -0.9809  0.7081 -0.3788
  773MPD2    N111416   2.829   0.867  17.010 -0.2379  0.9808  0.1004
  773MPD2    H711417   2.807   0.775  16.973  0.0102  0.2919  1.6927
  774MPD2     C11418   2.543   4.363  13.645  0.2644 -0.6028 -0.3257
  774MPD2    C111419   2.652   4.436  13.690 -0.4152  0.1744  0.1998
  774MPD2    C211420   2.683   4.560  13.639 -0.1781 -0.6350  0.9649
  774MPD2    C311421   2.606   4.615  13.538  0.6611 -0.2861  0.5830
  774MPD2    C411422   2.493   4.549  13.501 -0.0198  0.0808 -1.1261
  774MPD2    C511423   2.474   4.423  13.545  0.2286 -0.2850  0.0461
  774MPD2     H11424   2.767   4.620  13.671 -0.0062 -0.4286  0.1311
  774MPD2    H111425   2.429   4.600  13.430  0.3988  2.1214 -0.0307
  774MPD2    H211426   2.527   4.261  13.678  0.1427  0.1654  1.9558
  774MPD2    H311427   2.381   4.374  13.517  0.8308 -1.5753  0.3214
  774MPD2     N11428   2.633   0.022  13.490  0.0161 -1.0067  0.3461
  774MPD2    H511429   2.701   0.078  13.540 -0.7011  0.7394 -0.6251
  774MPD2    N111430   2.741   4.371  13.785  0.1988 -0.0339 -0.2146
  774MPD2    H711431   2.711   4.279  13.816  0.4595  0.1673  0.6435
  775MPD2     C11432   4.041   1.038  15.733 -0.1885  0.5490  0.2773
  775MPD2    C111433   4.018   1.172  15.763 -0.8733  0.0796  0.2740
  775MPD2    C211434   4.127   1.265  15.760  0.2779 -0.3586  0.0652
  775MPD2    C311435   4.256   1.230  15.734 -0.1703  0.6084 -0.4346
  775MPD2    C411436   4.275   1.097  15.697 -1.2508 -0.5332  0.0063
  775MPD2    C511437   4.167   1.010  15.698  0.3270  0.8751  0.0220
  775MPD2     H11438   4.098   1.370  15.761 -1.9896 -0.9784 -0.1235
  775MPD2    H111439   4.369   1.064  15.655 -1.7664  0.0022 -1.6012
  775MPD2    H211440   3.962   0.966  15.715  0.2078  0.1172  0.2579
  775MPD2    H311441   4.188   0.906  15.677  1.0499  1.1085 -0.4014
  775MPD2     N11442   4.369   1.316  15.724 -0.1299  0.0665  0.0635
  775MPD2    H511443   4.459   1.278  15.697 -0.5845  0.0614 -1.4894
  775MPD2    N111444   3.881   1.204  15.794 -0.6949  0.2405  0.0578
  775MPD2    H711445   3.815   1.129  15.809  1.0189 -1.5042 -1.1066
  776MPD2     C11446   3.189   1.801  12.187 -0.1409  0.2636 -0.2457
  776MPD2    C111447   3.091   1.776  12.094  0.2378  0.3720  0.3921
  776MPD2    C211448   3.069   1.857  11.984  0.0367 -0.4065  0.1935
  776MPD2    C311449   3.168   1.943  11.949 -0.1588 -0.1814 -0.7414
  776MPD2    C411450   3.278   1.956  12.032  0.0206 -0.7647  0.4163
  776MPD2    C511451   3.283   1.897  12.153  0.1195  0.1085  0.3394
  776MPD2     H11452   2.996   1.838  11.906  0.1219  0.5871 -0.1238
  776MPD2    H111453   3.354   2.027  12.000 -0.2766 -0.9866 -0.7778
  776MPD2    H211454   3.206   1.742  12.276  0.9696  0.5943 -0.2412
  776MPD2    H311455   3.369   1.918  12.216 -0.1762  0.1618  0.7282
  776MPD2     N11456   3.170   2.016  11.825 -0.5113  0.3827 -0.1333
  776MPD2    H511457   3.246   2.081  11.811 -0.3690  0.5816  1.5584
  776MPD2    N111458   3.007   1.664  12.117  0.5803  0.5843  0.3690
  776MPD2    H711459   3.041   1.602  12.190  0.2505 -1.0112 -0.8314
  777MPD2     C11460   3.584   4.058   0.646 -0.1085 -0.7305 -0.1686
  777MPD2    C111461   3.487   4.029   0.740  0.2449 -0.0685  0.0434
  777MPD2    C211462   3.434   3.903   0.734 -0.5952 -0.1005 -0.0223
  777MPD2    C311463   3.483   3.805   0.648 -0.5484 -0.3875  0.5108
  777MPD2    C411464   3.582   3.838   0.557 -0.2602 -0.3226  0.4501
  777MPD2    C511465   3.618   3.969   0.548 -0.3231  0.0603 -0.5335
  777MPD2     H11466   3.356   3.863   0.798 -0.2383  1.1649  1.2191
  777MPD2    H111467   3.612   3.771   0.478 -0.7553  0.3181 -0.2764
  777MPD2    H211468   3.620   4.160   0.638 -1.0219 -0.3232  0.8728
  777MPD2    H311469   3.684   3.997   0.467  1.0367 -0.7261  0.2905
  777MPD2     N11470   3.433   3.677   0.659  0.3299 -0.2595  0.3574
  777MPD2    H511471   3.362   3.657   0.728 -1.6922 -0.5319 -1.8032
  777MPD2    N111472   3.445   4.123   0.838  0.2482  0.1699  0.4243
  777MPD2    H711473   3.515   4.197   0.844  1.4488 -1.0750  1.5986
  778MPD2     C11474   4.523   3.778  15.088  0.5569  0.1292 -0.4570
  778MPD2    C111475   4.490   3.735  14.964 -0.0639 -0.1664  0.4245
  778MPD2    C211476   4.584   3.744  14.863  0.0673  0.4952  0.2452
  778MPD2    C311477   4.708   3.801  14.888 -0.9053  0.3992  0.9977
  778MPD2    C411478   0.025   3.825  15.018 -0.3210  0.2578  0.5367
  778MPD2    C511479   4.651   3.827  15.112  0.9738  0.3299 -0.8494
  778MPD2     H11480   4.562   3.722  14.760 -0.5820  1.0919  0.2526
  778MPD2    H111481   0.128   3.852  15.035  0.0434 -0.0911 -1.0465
  778MPD2    H211482   4.463   3.762  15.177  1.4101  0.0619  0.1056
  778MPD2    H311483   4.681   3.853  15.214  0.2058 -1.3556 -0.1958
  778MPD2     N11484   0.061   3.811  14.774  0.0943 -0.0704  0.0617
  778MPD2    H511485   0.016   3.801  14.684  1.3958 -0.2760 -0.5793
  778MPD2    N111486   4.374   3.662  14.942 -0.7595  0.0023  0.6550
  778MPD2    H711487   4.356   3.643  14.844  2.2625  0.0441  0.1015
  779MPD2     C11488   4.159   2.818  14.472  0.6197  0.2584 -0.4594
  779MPD2    C111489   4.246   2.806  14.366 -0.5607 -0.4358 -0.1343
  779MPD2    C211490   4.318   2.915  14.321 -0.1910 -0.1525 -0.2011
  779MPD2    C311491   4.299   3.047  14.388  0.3927  0.8052 -0.1843
  779MPD2    C411492   4.210   3.053  14.493 -0.6767 -0.0681  0.0539
  779MPD2    C511493   4.132   2.943  14.521 -0.0699 -0.3964  0.3027
  779MPD2     H11494   4.386   2.922  14.237 -2.3505  1.2390 -1.7982
  779MPD2    H111495   4.184   3.142  14.548  0.7596  1.6263 -2.0273
  779MPD2    H211496   4.105   2.737  14.520  0.2052  1.0058  0.3423
  779MPD2    H311497   4.057   2.956  14.598 -0.9118 -1.6507 -0.3198
  779MPD2     N11498   4.370   3.166  14.346  0.2751  0.6767 -0.1131
  779MPD2    H511499   4.429   3.152  14.264 -0.7418 -1.9800 -0.3713
  779MPD2    N111500   4.267   2.679  14.308  0.3310 -0.1667  0.4544
  779MPD2    H711501   4.346   2.676  14.245 -0.3348  0.9187 -0.4348
  780MPD2     C11502   2.804   2.732   0.314  0.2567 -0.2810 -0.1835
  780MPD2    C111503   2.865   2.714   0.196 -0.5123  0.5000 -0.3814
  780MPD2    C211504   3.003   2.730   0.189 -0.7226 -1.3790 -0.1012
  780MPD2    C311505   3.079   2.760   0.299  0.0538 -0.2515 -0.1213
  780MPD2    C411506   3.016   2.768   0.424 -0.2127 -0.9224  0.0691
  780MPD2    C511507   2.879   2.757   0.423 -0.4191 -0.2743  1.0133
  780MPD2     H11508   3.052   2.706   0.095 -0.5205 -0.3057 -0.2687
  780MPD2    H111509   3.053   2.788   0.524 -2.2544  1.0926  0.4310
  780MPD2    H211510   2.699   2.713   0.326  0.2976 -0.6082 -0.3709
  780MPD2    H311511   2.826   2.760   0.517 -2.0370 -0.2698  0.0980
  780MPD2     N11512   3.221   2.765   0.287 -0.0364  0.1564 -0.0852
  780MPD2    H511513   3.258   2.751   0.194  3.3224 -1.6321  1.5403
  780MPD2    N111514   2.778   2.677   0.093  0.0403  0.0596  0.1677
  780MPD2    H711515   2.686   2.645   0.119 -0.3497  1.8674  1.0171
  781MPD2     C11516   0.389   0.186  12.065 -0.2490 -0.4329 -0.1248
  781MPD2    C111517   0.479   0.079  12.077  0.3915  0.1431  0.1767
  781MPD2    C211518   0.531   0.024  11.960 -0.2155 -0.1818  0.7314
  781MPD2    C311519   0.494   0.078  11.840 -0.4730 -1.4093  0.1566
  781MPD2    C411520   0.394   0.169  11.832  0.5465  0.8649  0.9600
  781MPD2    C511521   0.336   0.220  11.945  0.2101 -0.4600  0.3836
  781MPD2     H11522   0.600   4.668  11.980 -1.0670 -0.8263  1.0620
  781MPD2    H111523   0.365   0.208  11.734 -0.5435 -1.3989  0.3676
  781MPD2    H211524   0.335   0.233  12.147 -0.3982  1.4284 -1.2831
  781MPD2    H311525   0.264   0.301  11.937  0.5787 -0.0635  1.0821
  781MPD2     N11526   0.578   0.050  11.729  0.1579 -0.4939 -0.1041
  781MPD2    H511527   0.574   0.116  11.652  2.1615 -0.8493 -0.5153
  781MPD2    N111528   0.518   0.008  12.194  0.1854 -0.4422  0.1103
  781MPD2    H711529   0.580   4.656  12.171  0.3045 -0.1588 -0.5278
  782MPD2     C11530   4.168   1.278  10.742 -0.3693  0.5616 -0.0677
  782MPD2    C111531   4.074   1.206  10.807  0.0674 -0.6455  0.0010
  782MPD2    C211532   4.016   1.249  10.929  0.0014  0.6675 -0.2495
  782MPD2    C311533   4.073   1.353  11.005  0.1946 -0.1018 -0.2393
  782MPD2    C411534   4.178   1.426  10.946 -0.5371 -0.4490  0.7155
  782MPD2    C511535   4.215   1.395  10.814  0.6668  0.5046  0.5133
  782MPD2     H11536   3.944   1.176  10.965 -1.5277  1.9517 -0.6590
  782MPD2    H111537   4.225   1.505  11.003  1.4601 -0.9562 -0.2402
  782MPD2    H211538   4.215   1.243  10.651  0.2151 -0.2828  0.5633
  782MPD2    H311539   4.282   1.474  10.781  1.6369 -1.7530 -2.9756
  782MPD2     N11540   4.039   1.375  11.139 -0.0314  0.2203  0.0698
  782MPD2    H511541   4.065   1.466  11.176  0.8778 -0.1063  0.2407
  782MPD2    N111542   4.034   1.097  10.728  0.4145 -0.1584 -0.2170
  782MPD2    H711543   4.087   1.082  10.642 -0.8170  0.7279 -1.1258
  783MPD2     C11544   3.422   0.365  10.993 -0.4036  0.4420  0.4133
  783MPD2    C111545   3.427   0.498  11.027 -0.2702 -0.4530  0.6774
  783MPD2    C211546   3.502   0.582  10.948 -0.2331 -0.0496  0.5097
  783MPD2    C311547   3.580   0.535  10.838  0.0143 -0.6029 -0.4352
  783MPD2    C411548   3.575   0.400  10.809  0.5510  0.7953 -1.0015
  783MPD2    C511549   3.499   0.319  10.890 -0.1365 -0.2934  0.2531
  783MPD2     H11550   3.508   0.688  10.966 -1.2283  0.0466  0.2317
  783MPD2    H111551   3.631   0.359  10.726  0.7383  0.9560 -0.9547
  783MPD2    H211552   3.365   0.292  11.051  2.0045  0.5293  2.8568
  783MPD2    H311553   3.481   0.215  10.863 -0.7029 -0.2578  0.4987
  783MPD2     N11554   3.650   0.632  10.750 -0.5742 -0.4845  0.1809
  783MPD2    H511555   3.645   0.727  10.785 -1.9367  0.0817 -1.5347
  783MPD2    N111556   3.351   0.549  11.136  0.4727 -0.1571 -0.8966
  783MPD2    H711557   3.285   0.482  11.175  0.5055  1.2655  1.6589
  784MPD2     C11558   1.320   0.719   0.217  0.0588 -0.0764 -0.8132
  784MPD2    C111559   1.293   0.771   0.345 -0.0032 -0.4728  0.5750
  784MPD2    C211560   1.183   0.852   0.367  0.0281  0.3219  0.0249
  784MPD2    C311561   1.107   0.880   0.259  0.5258  0.4626  0.9954
  784MPD2    C411562   1.128   0.830   0.129  0.1116  0.4588 -0.4356
  784MPD2    C511563   1.236   0.748   0.111  0.2494 -0.5778  0.2147
  784MPD2     H11564   1.157   0.891   0.464 -2.0958 -0.4991 -0.2070
  784MPD2    H111565   1.062   0.849   0.046  0.1882  1.8839 -0.1596
  784MPD2    H211566   1.403   0.652   0.204 -0.9105 -1.0825 -1.8684
  784MPD2    H311567   1.247   0.702   0.014  0.4121 -0.0885 -0.0004
  784MPD2     N11568   0.996   0.970   0.293  0.3823 -0.3781 -0.0232
  784MPD2    H511569   0.985   1.022   0.380 -0.0606 -1.6152  0.6520
  784MPD2    N111570   1.374   0.740   0.455  0.5652 -0.4366 -0.1071
  784MPD2    H711571   1.353   0.792   0.540  0.5151  1.2308 -1.1351
  785MPD2     C11572   1.373   0.061  10.918  0.5428 -0.0595  0.7029
  785MPD2    C111573   1.444   0.071  10.801  0.4253  0.0329  0.0086
  785MPD2    C211574   1.402   0.005  10.686  0.6334  0.1633 -0.8141
  785MPD2    C311575   1.291   4.649  10.697  0.1852  0.4527 -0.5008
  785MPD2    C411576   1.223   4.636  10.813 -0.1114  0.9161 -0.3982
  785MPD2    C511577   1.267   4.700  10.927 -0.6439 -0.1208  0.5808
  785MPD2     H11578   1.453   0.012  10.591  0.4385 -0.0742 -0.9356
  785MPD2    H111579   1.136   4.572  10.821  0.1358  0.4514 -1.4362
  785MPD2    H211580   1.416   0.108  11.005  1.4526 -3.3279  2.0310
  785MPD2    H311581   1.220   4.687  11.024 -0.8638 -0.2860  0.4522
  785MPD2     N11582   1.240   4.595  10.575 -0.1482 -0.3696  0.2020
  785MPD2    H511583   1.283   4.625  10.488 -2.2422  2.0836  0.0003
  785MPD2    N111584   1.569   0.136  10.803  0.0481 -0.5318 -0.2089
  785MPD2    H711585   1.593   0.181  10.891  0.3971  0.6297 -0.9164
  786MPD2     C11586   0.404   2.190  14.645  0.6638  0.1852  0.6816
  786MPD2    C111587   0.447   2.061  14.633 -0.3588  0.1316  0.1208
  786MPD2    C211588   0.521   2.005  14.742 -0.2107 -0.1729 -0.5368
  786MPD2    C311589   0.553   2.072  14.858 -0.0802 -0.0478  0.2520
  786MPD2    C411590   0.512   2.203  14.861 -0.1381 -0.5259 -0.1943
  786MPD2    C511591   0.433   2.261  14.765 -0.6646 -0.0204  0.1104
  786MPD2     H11592   0.566   1.909  14.721  1.4142  0.3621  0.4352
  786MPD2    H111593   0.532   2.266  14.947  1.3752 -0.6675 -0.4444
  786MPD2    H211594   0.341   2.242  14.573  0.8287 -2.5206 -1.4117
  786MPD2    H311595   0.393   2.360  14.782  0.5916  0.4443  0.3697
  786MPD2     N11596   0.629   2.025  14.966  0.0996 -0.1254 -0.0683
  786MPD2    H511597   0.652   2.092  15.038 -0.6921 -1.3094  1.2986
  786MPD2    N111598   0.420   1.978  14.524 -0.0443 -0.3593  0.0281
  786MPD2    H711599   0.442   1.879  14.530  0.3497 -0.2330  0.7264
  787MPD2     C11600   0.155   1.335  14.554  0.6995  0.4874  0.1014
  787MPD2    C111601   0.268   1.370  14.485  0.4468  1.2926 -0.1523
  787MPD2    C211602   0.389   1.302  14.517  0.2864 -0.3015  0.4830
  787MPD2    C311603   0.396   1.205  14.620  0.0083 -0.7428  0.6795
  787MPD2    C411604   0.278   1.164  14.683 -0.3413 -0.0945 -0.5152
  787MPD2    C511605   0.165   1.232  14.647  0.7145 -0.2922 -0.1619
  787MPD2     H11606   0.480   1.313  14.459 -0.6388  0.2273 -0.8902
  787MPD2    H111607   0.284   1.087  14.759  1.7096  0.1267 -0.4601
  787MPD2    H211608   0.058   1.383  14.546  0.2002 -0.5685 -0.0893
  787MPD2    H311609   0.076   1.207  14.702 -1.5727  0.3661 -3.5550
  787MPD2     N11610   0.524   1.162  14.657  0.4762 -0.2030  0.6387
  787MPD2    H511611   0.603   1.201  14.606  0.0772  1.3322  1.1902
  787MPD2    N111612   0.270   1.475  14.384  0.1883 -0.4074  0.5805
  787MPD2    H711613   0.178   1.520  14.380  0.2167 -0.2147  2.1298
  788MPD2     C11614   1.830   4.365   0.890 -0.2435  0.1212  0.0313
  788MPD2    C111615   1.924   4.319   0.813 -0.2838 -0.2212  0.1791
  788MPD2    C211616   1.991   4.404   0.727  0.5468  0.0952  0.4114
  788MPD2    C311617   1.939   4.530   0.698  0.5203  0.6209  0.0836
  788MPD2    C411618   1.844   4.574   0.778 -0.2403  0.1916  0.4453
  788MPD2    C511619   1.791   4.496   0.878  0.3661  0.0326 -0.4435
  788MPD2     H11620   2.058   4.354   0.657 -0.3165 -1.2713  0.5532
  788MPD2    H111621   1.811   4.677   0.765  0.9340  0.7152  1.6433
  788MPD2    H211622   1.765   4.295   0.941  0.7259 -0.0030  1.0792
  788MPD2    H311623   1.704   4.520   0.938  0.2861 -0.3215 -0.4184
  788MPD2     N11624   1.994   4.617   0.601  0.2330  0.1709 -0.6728
  788MPD2    H511625   1.946   4.705   0.585  0.0346 -0.0280 -1.1834
  788MPD2    N111626   1.940   4.177   0.821 -0.4143  0.2618 -0.2847
  788MPD2    H711627   1.868   4.121   0.866  0.8331 -0.0307  1.3738
  789MPD2     C11628   2.312   0.167  15.912  0.2734 -0.1761 -0.0846
  789MPD2    C111629   2.321   0.093  16.027 -0.1507 -0.4200  0.7683
  789MPD2    C211630   2.264   0.134  16.145  0.5402  0.0974 -0.0661
  789MPD2    C311631   2.192   0.255  16.151 -0.2010 -0.2349  0.3534
  789MPD2    C411632   2.182   0.323  16.034 -0.6960  0.6043  0.6176
  789MPD2    C511633   2.235   0.281  15.919 -0.1680 -0.5761  0.4812
  789MPD2     H11634   2.265   0.077  16.237 -0.1451  1.1625  0.5954
  789MPD2    H111635   2.137   0.422  16.042 -1.3588  0.4146 -0.8519
  789MPD2    H211636   2.336   0.127  15.814  1.7938  2.0266 -0.6160
  789MPD2    H311637   2.230   0.353  15.838 -1.3397 -0.6386  0.4992
  789MPD2     N11638   2.120   0.311  16.263 -0.3154  0.1885  0.3283
  789MPD2    H511639   2.064   0.394  16.247  1.5276  1.1184 -1.3257
  789MPD2    N111640   2.387   4.697  16.030 -0.2614 -0.0607 -0.4350
  789MPD2    H711641   2.363   4.631  16.103 -0.4039 -1.4730 -1.7530
  790MPD2     C11642   3.623   2.132  13.369  0.3012  0.5308 -0.2699
  790MPD2    C111643   3.648   1.996  13.364  0.0032 -0.0127 -0.0108
  790MPD2    C211644   3.570   1.923  13.278 -0.0507 -0.0688 -0.2746
  790MPD2    C311645   3.468   1.981  13.201  0.4603  0.0369 -0.0446
  790MPD2    C411646   3.449   2.116  13.207 -0.6852  0.1912  0.8551
  790MPD2    C511647   3.527   2.195  13.288  0.2466 -0.2684  0.5797
  790MPD2     H11648   3.586   1.817  13.267 -2.8448 -0.5512  0.3705
  790MPD2    H111649   3.366   2.167  13.160  0.2284 -0.7435 -1.7974
  790MPD2    H211650   3.668   2.193  13.446  2.2376 -0.8973 -0.2710
  790MPD2    H311651   3.516   2.302  13.300 -0.1216 -0.3372  0.8619
  790MPD2     N11652   3.389   1.893  13.135 -0.0291  0.1853  0.3116
  790MPD2    H511653   3.417   1.796  13.138  0.6373  0.3823  0.3472
  790MPD2    N111654   3.757   1.938  13.436  0.7367  0.6192 -0.5213
  790MPD2    H711655   3.799   1.991  13.511  0.8882  0.6867 -0.6540
  791MPD2     C11656   2.636   1.924  12.770  0.2581  0.5908  0.0966
  791MPD2    C111657   2.688   1.798  12.791 -0.1710 -0.1898 -0.3292
  791MPD2    C211658   2.613   1.689  12.741 -0.1045  0.1951  0.7305
  791MPD2    C311659   2.490   1.704  12.682 -0.2754 -0.6334 -0.3529
  791MPD2    C411660   2.450   1.836  12.655 -0.2043 -0.2791  0.1785
  791MPD2    C511661   2.520   1.945  12.697  0.0112 -0.4039  0.2430
  791MPD2     H11662   2.647   1.586  12.745 -0.9478 -0.1119 -0.1587
  791MPD2    H111663   2.356   1.855  12.605 -0.8415 -0.1767  1.4155
  791MPD2    H211664   2.675   2.009  12.825  0.8592  0.4841 -0.1766
  791MPD2    H311665   2.483   2.047  12.689 -0.1686 -0.6477 -1.8178
  791MPD2     N11666   2.418   1.588  12.636 -0.0928 -0.1910 -0.8718
  791MPD2    H511667   2.476   1.506  12.620 -0.0539 -0.6943  1.7731
  791MPD2    N111668   2.800   1.795  12.873 -0.1285  0.3243  0.0594
  791MPD2    H711669   2.848   1.882  12.889  2.0084 -1.4107  3.0755
  792MPD2     C11670   3.655   1.669  11.506 -0.1634 -0.1807 -0.2359
  792MPD2    C111671   3.565   1.715  11.413 -0.0930  0.4163  0.4023
  792MPD2    C211672   3.442   1.661  11.416  0.2400 -0.2657  0.6161
  792MPD2    C311673   3.407   1.544  11.485  0.4389 -0.2140 -0.1799
  792MPD2    C411674   3.502   1.498  11.570 -0.5596  1.0838 -0.1095
  792MPD2    C511675   3.624   1.557  11.581 -0.4832 -0.0677 -0.0665
  792MPD2     H11676   3.374   1.698  11.340 -0.4308  0.7254  1.6881
  792MPD2    H111677   3.482   1.409  11.628  0.7323  0.8119 -0.0798
  792MPD2    H211678   3.749   1.721  11.522 -0.9209  0.9431  0.4792
  792MPD2    H311679   3.700   1.517  11.647  0.1163  0.1566 -0.6242
  792MPD2     N11680   3.288   1.470  11.470  0.8134 -0.4106 -0.0002
  792MPD2    H511681   3.273   1.377  11.507 -0.3652 -0.1072  0.2860
  792MPD2    N111682   3.604   1.818  11.327 -0.3555  0.1819  0.5690
  792MPD2    H711683   3.693   1.865  11.337 -0.6344  0.6919  0.6725
  793MPD2     C11684   2.810   1.498  10.574  0.7486  0.2059 -0.3371
  793MPD2    C111685   2.947   1.491  10.594  0.0029  0.2911 -0.0704
  793MPD2    C211686   2.992   1.449  10.711 -1.2183 -0.0924  0.7336
  793MPD2    C311687   2.908   1.408  10.817 -0.4643  0.2861  0.0443
  793MPD2    C411688   2.775   1.428  10.801  0.7974 -0.3523 -0.4758
  793MPD2    C511689   2.723   1.463  10.675  0.0442 -0.6539 -0.5062
  793MPD2     H11690   3.099   1.452  10.728 -1.2482 -0.3506  0.9668
  793MPD2    H111691   2.704   1.420  10.883  0.8050  0.7450 -0.3640
  793MPD2    H211692   2.770   1.517  10.475  0.2699  0.0540 -0.1723
  793MPD2    H311693   2.617   1.476  10.658 -0.2834 -0.2453  1.7587
  793MPD2     N11694   2.960   1.374  10.947 -0.6376 -0.3783  0.1713
  793MPD2    H511695   3.060   1.385  10.961 -0.6551  2.0300 -1.5889
  793MPD2    N111696   3.035   1.531  10.486  0.0221 -0.1383  0.5071
  793MPD2    H711697   3.132   1.560  10.495  0.3832 -1.4070  0.7543
  794MPD2     C11698   2.257   1.245  16.444 -0.1892 -0.2370  0.4363
  794MPD2    C111699   2.350   1.157  16.396 -0.2479  0.1395  0.3434
  794MPD2    C211700   2.368   1.137  16.262  0.3714 -0.3598 -0.1834
  794MPD2    C311701   2.293   1.202  16.171  0.5621  0.1287 -0.2896
  794MPD2    C411702   2.196   1.294  16.212  0.4385  0.2377  1.0668
  794MPD2    C511703   2.175   1.312  16.346 -0.4509  0.3951 -0.1213
  794MPD2     H11704   2.445   1.069  16.228  1.4573  0.4459  0.6464
  794MPD2    H111705   2.143   1.364  16.149  1.8495 -0.9341 -1.4470
  794MPD2    H211706   2.247   1.258  16.551  0.7985  2.4405  0.2117
  794MPD2    H311707   2.091   1.370  16.382  0.7411  0.2017  3.0536
  794MPD2     N11708   2.309   1.201  16.031 -0.6429  0.3811  0.4140
  794MPD2    H511709   2.234   1.249  15.983 -1.1486 -1.0775 -0.2493
  794MPD2    N111710   2.443   1.090  16.483 -0.2654  0.1745 -0.2450
  794MPD2    H711711   2.512   1.036  16.432  1.9423  2.2630  0.5509
  795MPD2     C11712   0.670   3.062  14.021 -0.1141 -0.3512 -0.4178
  795MPD2    C111713   0.665   3.011  13.897 -0.3227 -0.2670  0.6831
  795MPD2    C211714   0.757   2.921  13.853 -0.2268 -0.2506 -0.0777
  795MPD2    C311715   0.860   2.878  13.935  0.9544 -0.1646 -0.2321
  795MPD2    C411716   0.878   2.947  14.052  0.0135  0.2853 -0.1828
  795MPD2    C511717   0.784   3.036  14.092  0.5214 -0.4008 -0.2957
  795MPD2     H11718   0.750   2.868  13.759 -1.5590  0.2191 -0.2444
  795MPD2    H111719   0.960   2.926  14.119  0.4551  0.9674 -0.4998
  795MPD2    H211720   0.602   3.142  14.049  0.0607 -0.8190  1.3414
  795MPD2    H311721   0.800   3.087  14.186  0.8787  0.8109 -1.0125
  795MPD2     N11722   0.947   2.776  13.886 -0.3876  0.2410  0.0307
  795MPD2    H511723   0.916   2.735  13.798  2.0015 -1.0809 -0.1934
  795MPD2    N111724   0.563   3.055  13.808 -0.0301 -0.3697  0.1577
  795MPD2    H711725   0.486   3.110  13.845 -0.9148 -0.4002 -1.6373
  796MPD2     C11726   0.599   4.518  15.759 -0.3236 -0.0303  0.1663
  796MPD2    C111727   0.584   4.543  15.897 -0.1726 -0.2185 -0.1090
  796MPD2    C211728   0.517   4.660  15.935  0.6865 -0.4591 -0.1094
  796MPD2    C311729   0.468   0.021  15.837  0.2426 -0.0959 -0.0184
  796MPD2    C411730   0.475   4.709  15.704 -0.9694  0.1806 -0.2792
  796MPD2    C511731   0.530   4.588  15.665 -0.7658 -0.0562  0.4208
  796MPD2     H11732   0.518   4.683  16.041 -1.2822  0.4888 -0.2994
  796MPD2    H111733   0.437   0.048  15.625 -0.3116  1.7651  0.6939
  796MPD2    H211734   0.657   4.432  15.730 -1.0249 -0.8512  1.1960
  796MPD2    H311735   0.541   4.564  15.559  2.9024 -0.2612  0.8211
  796MPD2     N11736   0.434   0.155  15.878  0.7424 -0.2272  0.9403
  796MPD2    H511737   0.452   0.180  15.975 -2.0357 -0.2503  1.4685
  796MPD2    N111738   0.630   4.452  15.994  0.0493  0.2874  0.0514
  796MPD2    H711739   0.582   4.458  16.083 -0.4843  0.6719 -0.2672
  797MPD2     C11740   1.589   3.904  17.354 -0.3991  0.6942 -0.6308
  797MPD2    C111741   1.681   4.009  17.349  0.3087  0.0843  0.6991
  797MPD2    C211742   1.646   4.125  17.284 -0.4333 -0.3301  0.0036
  797MPD2    C311743   1.522   4.130  17.227 -0.9862 -0.6878 -0.4655
  797MPD2    C411744   1.427   4.032  17.245  0.2803 -0.1225  0.6473
  797MPD2    C511745   1.459   3.919  17.313  0.1081 -0.5277 -0.3537
  797MPD2     H11746   1.716   4.205  17.262  0.7803 -1.4308 -0.1324
  797MPD2    H111747   1.328   4.039  17.202  0.5574  1.5710  0.2704
  797MPD2    H211748   1.614   3.810  17.400 -0.0299  1.0778 -0.0549
  797MPD2    H311749   1.389   3.840  17.335  1.2187 -1.3880  0.1205
  797MPD2     N11750   1.500   4.247  17.146  0.1262 -0.2832 -0.3713
  797MPD2    H511751   1.584   4.304  17.134 -0.3596  0.2489 -1.2421
  797MPD2    N111752   1.803   4.011  17.412  0.4815  0.4040  0.1430
  797MPD2    H711753   1.836   4.107  17.404 -0.5767  0.7702  0.1715
  798MPD2     C11754   2.113   4.504  16.929  0.3277 -0.2911  0.8072
  798MPD2    C111755   2.002   4.482  17.011  0.6766 -0.6028 -0.5433
  798MPD2    C211756   2.025   4.434  17.138  0.0631  0.0182  0.2708
  798MPD2    C311757   2.145   4.375  17.173  0.1332 -0.4397  0.5050
  798MPD2    C411758   2.255   4.388  17.090  0.2860 -0.2885  0.2906
  798MPD2    C511759   2.237   4.461  16.973  0.2846 -0.7836 -0.3885
  798MPD2     H11760   1.944   4.425  17.209 -0.7110  1.0591 -0.4773
  798MPD2    H111761   2.352   4.344  17.111  0.7937  0.3375 -0.7466
  798MPD2    H211762   2.114   4.561  16.836 -0.4851  0.6565  1.3836
  798MPD2    H311763   2.324   4.488  16.915 -0.2030 -2.3570 -1.8246
  798MPD2     N11764   2.155   4.296  17.291  0.0597  0.5728  0.1985
  798MPD2    H511765   2.079   4.298  17.359 -0.4921 -1.5039 -0.3428
  798MPD2    N111766   1.867   4.505  16.968  0.1450 -0.1116 -0.3915
  798MPD2    H711767   1.850   4.551  16.878  1.1894  1.6680  0.3149
  799MPD2     C11768   0.398   0.707  14.648 -0.0447  0.6635 -0.8467
  799MPD2    C111769   0.385   0.628  14.530 -0.2929  0.5924 -0.3569
  799MPD2    C211770   0.261   0.643  14.459 -0.5031 -0.3384  0.2678
  799MPD2    C311771   0.167   0.734  14.504 -0.4533  0.4159  0.1450
  799MPD2    C411772   0.192   0.811  14.611 -0.2655 -0.2328  0.6127
  799MPD2    C511773   0.303   0.796  14.691 -0.3175 -0.4037  0.1564
  799MPD2     H11774   0.232   0.590  14.370  0.1172 -0.5352  0.1832
  799MPD2    H111775   0.124   0.884  14.654  0.4413  0.7319  0.0944
  799MPD2    H211776   0.484   0.707  14.715 -0.6352 -1.2356 -0.0945
  799MPD2    H311777   0.323   0.859  14.776 -0.1987 -2.5050  1.6842
  799MPD2     N11778   0.051   0.772  14.441 -0.2963 -0.5022 -0.1793
  799MPD2    H511779   0.004   0.850  14.486  1.2494 -0.0975  0.7459
  799MPD2    N111780   0.485   0.532  14.487 -0.1978  0.2377 -0.0986
  799MPD2    H711781   0.458   0.473  14.409  0.6340  0.8695 -0.8701
  800MPD2     C11782   0.075   2.068  13.640  0.3676 -0.4961 -0.4612
  800MPD2    C111783   0.208   2.075  13.684 -0.3893 -0.1940 -0.6785
  800MPD2    C211784   0.303   2.030  13.595  0.0703  0.7411  0.3032
  800MPD2    C311785   0.266   1.993  13.465 -0.3758  0.2575 -0.4899
  800MPD2    C411786   0.136   1.985  13.423 -0.5622  0.8216  0.0377
  800MPD2    C511787   0.040   2.017  13.518 -0.1558 -0.1122  0.7651
  800MPD2     H11788   0.410   2.035  13.613  0.5623  0.2432 -2.4405
  800MPD2    H111789   0.098   1.957  13.326 -2.0392  1.5430  0.4092
  800MPD2    H211790   4.707   2.092  13.690  1.7069 -0.1244  1.8258
  800MPD2    H311791   4.662   2.010  13.486 -0.0259 -0.2684  0.3872
  800MPD2     N11792   0.373   1.953  13.377  0.1036  0.3441 -0.3330
  800MPD2    H511793   0.470   1.959  13.408  0.7869 -1.8861 -2.1039
  800MPD2    N111794   0.227   2.111  13.816  0.3471 -0.6791 -0.2701
  800MPD2    H711795   0.145   2.150  13.862 -0.4710 -4.2829  1.3676
  801MPD2     C11796   0.315   2.798  14.048  0.6061  0.6987  0.3595
  801MPD2    C111797   0.407   2.731  14.129 -0.3593  0.8586  0.3318
  801MPD2    C211798   0.484   2.803  14.217 -0.7465  0.2455 -0.1512
  801MPD2    C311799   0.470   2.938  14.237  0.0074 -0.1534  0.0274
  801MPD2    C411800   0.385   3.007  14.150  0.0804 -0.0798  0.0157
  801MPD2    C511801   0.308   2.935  14.066  0.0532 -0.4420  0.9967
  801MPD2     H11802   0.557   2.757  14.282  0.2685  2.8759  0.5945
  801MPD2    H111803   0.383   3.115  14.147 -1.6666 -0.0893  0.2975
  801MPD2    H211804   0.254   2.744  13.977  0.8749 -0.4562  0.9975
  801MPD2    H311805   0.246   2.994  13.999  0.0815  1.8310  2.9642
  801MPD2     N11806   0.533   3.010  14.339  0.1848 -0.0431  0.1959
  801MPD2    H511807   0.492   3.095  14.377 -1.7924 -1.2367  0.7379
  801MPD2    N111808   0.412   2.595  14.131 -0.3420  0.0636  0.6358
  801MPD2    H711809   0.488   2.558  14.188 -0.5179  0.2815  1.0141
  802MPD2     C11810   4.699   2.398   0.116  0.9905  0.6858 -0.2827
  802MPD2    C111811   0.034   2.517   0.103 -0.1863 -0.3759 -0.0788
  802MPD2    C211812   0.106   2.537  17.685  0.0173  0.4417  0.4445
  802MPD2    C311813   0.123   2.444  17.586  0.5397 -0.0690  0.0463
  802MPD2    C411814   0.052   2.327  17.605  0.7589 -0.4525  0.3674
  802MPD2    C511815   4.703   2.312   0.016  0.0880  0.8919  0.0748
  802MPD2     H11816   0.154   2.633  17.670 -2.5725  1.6549  0.0085
  802MPD2    H111817   0.049   2.250  17.529  0.3842 -0.2527  0.1767
  802MPD2    H211818   4.631   2.372   0.197  2.8052 -1.4151  0.5577
  802MPD2    H311819   4.650   2.219   0.032  0.7766  0.3123 -1.0280
  802MPD2     N11820   0.191   2.482  17.466  0.1779 -0.0004  0.0452
  802MPD2    H511821   0.201   2.581  17.446  0.6880 -0.1252 -0.2979
  802MPD2    N111822   0.013   2.612   0.202 -0.2350  0.1008 -0.2792
  802MPD2    H711823   4.684   2.578   0.280 -3.4712  0.7091 -2.2591
  803MPD2     C11824   1.583   2.024  11.496  0.2014 -0.0795 -0.1354
  803MPD2    C111825   1.621   2.006  11.626  0.2048 -0.4947 -0.5642
  803MPD2    C211826   1.526   1.969  11.716 -0.6515 -0.1150  0.0514
  803MPD2    C311827   1.401   1.935  11.684  0.5243 -0.5071  0.2532
  803MPD2    C411828   1.362   1.934  11.551 -0.4454 -0.0194 -0.0630
  803MPD2    C511829   1.463   1.971  11.460 -0.8291 -0.5080  0.3362
  803MPD2     H11830   1.555   1.988  11.819 -0.6370  0.6150 -0.0844
  803MPD2    H111831   1.280   1.881  11.504 -0.0094 -1.1929  0.5080
  803MPD2    H211832   1.659   2.053  11.424 -0.1420 -0.5779 -0.7057
  803MPD2    H311833   1.436   1.976  11.355  1.3673 -0.5405 -0.2272
  803MPD2     N11834   1.322   1.878  11.780 -0.0745  0.0254  0.0863
  803MPD2    H511835   1.236   1.835  11.747 -0.6490  0.3639  1.1499
  803MPD2    N111836   1.752   2.013  11.674  0.1172 -0.3397  0.4158
  803MPD2    H711837   1.768   2.005  11.774 -0.1228  0.5852  0.5230
  804MPD2     C11838   0.904   3.014  16.904  0.3117  0.0981 -0.2244
  804MPD2    C111839   0.895   2.961  17.034  0.4643 -0.1724 -0.2922
  804MPD2    C211840   0.987   3.017  17.124 -0.1004  0.5337  0.4205
  804MPD2    C311841   1.090   3.088  17.086  0.0057 -0.3835 -0.0474
  804MPD2    C411842   1.102   3.121  16.958 -0.8451 -0.3329 -0.7148
  804MPD2    C511843   1.015   3.082  16.870 -0.3246  0.0633 -0.0075
  804MPD2     H11844   0.972   3.000  17.230  0.4823  2.1334  0.7499
  804MPD2    H111845   1.176   3.179  16.904 -0.0938  1.3769  2.1470
  804MPD2    H211846   0.847   2.981  16.818  0.5105  1.1134 -0.7466
  804MPD2    H311847   1.026   3.123  16.770  0.2684 -1.5301 -0.5996
  804MPD2     N11848   1.176   3.143  17.184  0.5586  0.4929 -0.0285
  804MPD2    H511849   1.158   3.131  17.283 -0.1276  0.1670 -0.1995
  804MPD2    N111850   0.794   2.875  17.075  0.2869  0.3280  0.1220
  804MPD2    H711851   0.793   2.857  17.175 -0.9281  2.1052  0.4174
  805MPD2     C11852   4.637   0.963  15.607  0.7771  0.7368 -0.0310
  805MPD2    C111853   4.711   1.068  15.559  0.0898  0.1936  0.2412
  805MPD2    C211854   0.118   1.094  15.602  0.2640  0.2772  0.5526
  805MPD2    C311855   0.182   1.020  15.696 -0.4097 -0.3789  0.6821
  805MPD2    C411856   0.106   0.917  15.748  0.7713  0.3925  0.4763
  805MPD2    C511857   4.699   0.892  15.703 -0.4055 -0.1651 -0.4989
  805MPD2     H11858   0.178   1.171  15.555 -1.5052  0.2022 -1.8014
  805MPD2    H111859   0.145   0.843  15.818 -2.4202 -1.3271  0.4343
  805MPD2    H211860   4.536   0.943  15.573  1.6393 -2.7741 -0.5270
  805MPD2    H311861   4.634   0.817  15.748 -1.5887  1.3570  0.3052
  805MPD2     N11862   0.323   1.033  15.730 -0.3944  1.1495  0.0687
  805MPD2    H511863   0.371   1.110  15.685 -0.9667  0.1021 -2.3117
  805MPD2    N111864   4.685   1.135  15.436 -0.5657  0.2371 -0.0287
  805MPD2    H711865   0.033   1.192  15.395  0.7683 -1.2712  0.2690
  806MPD2     C11866   0.670   0.757   0.667 -0.0110 -0.1427 -0.5131
  806MPD2    C111867   0.793   0.738   0.611 -0.0518 -0.1359  0.2263
  806MPD2    C211868   0.809   0.712   0.471  0.0311 -0.1818  0.0870
  806MPD2    C311869   0.695   0.712   0.388  0.2003 -0.5206  0.5592
  806MPD2    C411870   0.571   0.730   0.440 -0.0132 -0.1650 -0.4584
  806MPD2    C511871   0.561   0.741   0.582  0.1567  0.2584  0.4119
  806MPD2     H11872   0.904   0.695   0.421  0.8715 -0.3902  1.7247
  806MPD2    H111873   0.480   0.741   0.383  0.6015  0.5167 -1.3124
  806MPD2    H211874   0.657   0.764   0.774 -0.6162  0.6172 -0.6343
  806MPD2    H311875   0.465   0.746   0.632 -0.2327  0.2561 -0.3282
  806MPD2     N11876   0.724   0.684   0.251 -0.2250 -0.1937  0.7575
  806MPD2    H511877   0.821   0.678   0.222  0.1776  1.6284  1.7621
  806MPD2    N111878   0.894   0.742   0.697 -0.0063 -0.5351 -0.0333
  806MPD2    H711879   0.876   0.754   0.796 -0.8473  1.7349 -0.4816
  807MPD2     C11880   0.942   0.934   1.394  1.2781 -0.6210 -0.2113
  807MPD2    C111881   0.879   0.866   1.293  0.1067  0.7980 -0.9262
  807MPD2    C211882   0.741   0.865   1.295 -0.0090 -0.0643 -0.0584
  807MPD2    C311883   0.672   0.930   1.397  0.1847  0.0677 -0.4066
  807MPD2    C411884   0.742   0.994   1.492  0.5405 -0.2687  1.0232
  807MPD2    C511885   0.878   0.998   1.496  0.2951  0.0789  0.0233
  807MPD2     H11886   0.692   0.816   1.212 -0.3798  2.6628 -1.4527
  807MPD2    H111887   0.687   1.054   1.564 -0.9068 -0.6946  0.2688
  807MPD2    H211888   1.050   0.935   1.397  1.2899  1.5049 -1.3776
  807MPD2    H311889   0.939   1.060   1.561  1.7426 -2.7429  1.3717
  807MPD2     N11890   0.527   0.905   1.404  1.0070 -0.2711  0.0178
  807MPD2    H511891   0.488   0.856   1.324  0.5924  1.0745 -0.6069
  807MPD2    N111892   0.950   0.799   1.180 -0.3403  0.6955  0.2521
  807MPD2    H711893   0.901   0.749   1.106  0.3218 -1.1755  1.0606
  808MPD2     C11894   0.492   2.132   8.913 -0.0186  0.6244 -0.3331
  808MPD2    C111895   0.518   2.197   9.036 -0.1896  0.6171  0.7103
  808MPD2    C211896   0.579   2.321   9.034  0.6500  0.0339  0.3502
  808MPD2    C311897   0.607   2.386   8.914 -0.0161 -0.2836  0.1293
  808MPD2    C411898   0.573   2.326   8.798 -0.2755 -0.8571 -0.3148
  808MPD2    C511899   0.520   2.198   8.799 -0.3861 -0.0493  0.5428
  808MPD2     H11900   0.598   2.373   9.128 -0.2944  3.7874 -1.5234
  808MPD2    H111901   0.591   2.376   8.703  0.9140 -0.8499 -0.0803
  808MPD2    H211902   0.434   2.041   8.905  1.2728 -0.1791 -0.6860
  808MPD2    H311903   0.502   2.144   8.707  0.4860  0.7783 -0.1148
  808MPD2     N11904   0.664   2.511   8.904 -0.0222 -0.4169  0.0731
  808MPD2    H511905   0.668   2.549   8.810  0.3369 -0.0651  0.2270
  808MPD2    N111906   0.503   2.134   9.165  0.8925  0.2120 -0.0766
  808MPD2    H711907   0.531   2.197   9.239  0.9689 -0.0011  0.0759
  809MPD2     C11908   1.261   2.762   8.317 -0.2373  0.6776 -0.6034
  809MPD2    C111909   1.286   2.830   8.434  0.5735  0.3477  0.2062
  809MPD2    C211910   1.190   2.832   8.531 -0.4947  0.5119  0.6968
  809MPD2    C311911   1.061   2.778   8.524 -0.5753 -0.7909 -0.4349
  809MPD2    C411912   1.039   2.707   8.410 -0.1974 -0.4940  0.0377
  809MPD2    C511913   1.138   2.698   8.309 -0.2612 -0.6093 -0.3563
  809MPD2     H11914   1.223   2.893   8.615 -0.2953  2.1809 -0.6074
  809MPD2    H111915   0.947   2.652   8.391 -1.1079  1.1241 -0.2633
  809MPD2    H211916   1.341   2.745   8.246  0.2251 -0.6904  0.2604
  809MPD2    H311917   1.125   2.635   8.222  0.2246  0.4298 -1.1794
  809MPD2     N11918   0.962   2.791   8.630 -0.8710 -0.5341  0.2799
  809MPD2    H511919   0.882   2.729   8.624 -2.5210  1.5035  1.2598
  809MPD2    N111920   1.404   2.894   8.468 -0.6651 -0.4843  0.1335
  809MPD2    H711921   1.416   2.917   8.566  2.3690  1.7027 -0.7757
  810MPD2     C11922   0.586   1.976  10.510  0.2048 -0.4824  0.2468
  810MPD2    C111923   0.517   1.863  10.539  0.7439  1.1674 -1.2438
  810MPD2    C211924   0.448   1.857  10.657  0.9229 -0.1079 -0.5031
  810MPD2    C311925   0.466   1.954  10.758 -0.4614  0.0369  0.3039
  810MPD2    C411926   0.525   2.068  10.718 -0.1072  0.5228 -0.2043
  810MPD2    C511927   0.579   2.076  10.593 -0.5070 -0.3952  0.1738
  810MPD2     H11928   0.387   1.769  10.672  1.8618 -0.4937  1.0036
  810MPD2    H111929   0.528   2.151  10.787  0.3337 -1.1246  1.7611
  810MPD2    H211930   0.648   1.988  10.421 -3.2941  2.4108 -1.8145
  810MPD2    H311931   0.648   2.157  10.571 -1.9032 -0.0637 -2.8905
  810MPD2     N11932   0.411   1.944  10.885 -0.0198 -0.6665 -0.3889
  810MPD2    H511933   0.434   2.023  10.945 -2.8786 -0.0335 -0.1140
  810MPD2    N111934   0.506   1.759  10.436 -0.1931 -0.0618 -0.1897
  810MPD2    H711935   0.532   1.799  10.347  1.2405  0.0576  0.2835
  811MPD2     C11936   0.122   1.496   9.695 -0.1377 -0.5063 -0.0489
  811MPD2    C111937   0.166   1.590   9.789 -0.1948  0.4647 -0.0633
  811MPD2    C211938   0.138   1.727   9.759 -0.4286 -0.0067  0.2893
  811MPD2    C311939   0.084   1.763   9.636 -0.5067 -0.8828 -0.4272
  811MPD2    C411940   0.038   1.662   9.548  0.5180 -0.1700 -0.8816
  811MPD2    C511941   0.062   1.534   9.578 -0.3292 -0.0089  0.6433
  811MPD2     H11942   0.172   1.804   9.826 -0.7150 -1.0648  1.6519
  811MPD2    H111943   4.715   1.695   9.457  0.3606  0.6890 -0.4950
  811MPD2    H211944   0.150   1.392   9.708 -1.9316 -0.8006  1.4730
  811MPD2    H311945   0.035   1.460   9.503  0.3872  0.0006  0.3677
  811MPD2     N11946   0.071   1.897   9.611  0.5764  0.2834 -0.8310
  811MPD2    H511947   0.081   1.959   9.691 -1.8268 -3.0556  2.0175
  811MPD2    N111948   0.232   1.552   9.908 -0.3219 -0.0745  0.6892
  811MPD2    H711949   0.248   1.453   9.925  0.1666  0.0582  0.9959
  812MPD2     C11950   3.965   1.146  12.083  0.2831  0.0048 -0.3355
  812MPD2    C111951   3.965   1.238  12.187 -0.1306 -0.3454 -0.4777
  812MPD2    C211952   3.961   1.190  12.315  1.0389 -0.8287  1.2446
  812MPD2    C311953   3.937   1.056  12.348 -0.4398  0.6795  0.1931
  812MPD2    C411954   3.925   0.973  12.240 -0.2942 -0.3535  1.0001
  812MPD2    C511955   3.944   1.010  12.113  0.5531 -0.1567  0.7748
  812MPD2     H11956   3.968   1.258  12.399 -1.0439  1.0048 -0.0793
  812MPD2    H111957   3.904   0.868  12.256  1.1256 -0.5349  1.6824
  812MPD2    H211958   3.980   1.181  11.981  0.0212  1.1892  0.0316
  812MPD2    H311959   3.933   0.934  12.036  2.2165  0.4344 -0.0621
  812MPD2     N11960   3.929   1.016  12.488  0.3081  0.2588 -0.4778
  812MPD2    H511961   3.953   1.093  12.550 -1.6587  1.1402 -0.8189
  812MPD2    N111962   3.979   1.371  12.146  0.2367 -0.2657 -0.8850
  812MPD2    H711963   3.987   1.397  12.048 -1.9878  0.8379 -0.7699
  813MPD2     C11964   2.519   3.208  12.934 -0.2804 -0.9046  1.1799
  813MPD2    C111965   2.524   3.348  12.948  0.5012  0.1289 -0.6506
  813MPD2    C211966   2.506   3.395  13.078  0.1041 -0.0770 -0.1695
  813MPD2    C311967   2.496   3.308  13.186  0.4011 -0.9049 -0.8733
  813MPD2    C411968   2.483   3.174  13.167  0.2782 -0.1047  0.6330
  813MPD2    C511969   2.484   3.125  13.036 -0.5071  0.8541 -0.2611
  813MPD2     H11970   2.520   3.500  13.099 -0.2674  0.0449 -0.5449
  813MPD2    H111971   2.449   3.101  13.240  1.8892  0.7610  2.2561
  813MPD2    H211972   2.516   3.169  12.833  1.4957 -1.2744  1.2684
  813MPD2    H311973   2.485   3.018  13.017  0.8862  0.4362  2.1078
  813MPD2     N11974   2.493   3.362  13.313  0.0240  0.2098 -0.5183
  813MPD2    H511975   2.496   3.463  13.320  1.6772  0.0402  1.3198
  813MPD2    N111976   2.555   3.428  12.830  0.6922  0.1188  0.4797
  813MPD2    H711977   2.573   3.373  12.747  0.0903  0.9950 -0.2410
  814MPD2     C11978   3.696   4.262  12.197  0.7506 -0.8583 -0.2723
  814MPD2    C111979   3.641   4.352  12.109  0.6503  0.1694 -0.1857
  814MPD2    C211980   3.670   4.486  12.128 -0.7341  0.3237  0.4807
  814MPD2    C311981   3.741   4.529  12.233  0.0116  0.2861  0.2048
  814MPD2    C411982   3.803   4.430  12.315  0.3169  0.3786 -0.1265
  814MPD2    C511983   3.773   4.298  12.300  0.1150 -0.2937  0.0318
  814MPD2     H11984   3.622   4.549  12.054  0.7296  0.2174 -0.5627
  814MPD2    H111985   3.877   4.460  12.388  1.4950  1.0313 -1.6077
  814MPD2    H211986   3.679   4.155  12.188 -1.2472 -0.8114  3.1147
  814MPD2    H311987   3.810   4.228  12.373 -1.8435 -0.3621  0.9583
  814MPD2     N11988   3.767   4.660  12.258  0.3880 -0.1114 -0.0074
  814MPD2    H511989   3.828   4.684  12.335 -0.0786  0.1174  0.2898
  814MPD2    N111990   3.551   4.316  11.998  0.1741 -0.2643 -0.2445
  814MPD2    H711991   3.517   4.394  11.942 -0.3300 -1.5447 -1.7236
  815MPD2     C11992   4.254   3.681  11.506 -0.1697  0.5268  0.5898
  815MPD2    C111993   4.191   3.565  11.472 -0.0054  0.0295 -0.1948
  815MPD2    C211994   4.053   3.551  11.491 -0.7299  0.3606  0.5486
  815MPD2    C311995   3.979   3.660  11.543  0.5417  0.1839 -0.0320
  815MPD2    C411996   4.049   3.773  11.583  0.6597  0.3102 -0.2128
  815MPD2    C511997   4.183   3.790  11.552 -0.3584  0.3718  0.0814
  815MPD2     H11998   4.001   3.459  11.470 -2.2980  1.5998 -0.9794
  815MPD2    H111999   3.995   3.859  11.620  0.8760  0.6583 -0.7104
  815MPD2    H212000   4.362   3.693  11.505 -0.0123 -0.8857  0.5812
  815MPD2    H312001   4.229   3.887  11.565  0.3092  0.1099 -0.3400
  815MPD2     N12002   3.840   3.648  11.558 -0.3942 -0.1633  0.4465
  815MPD2    H512003   3.796   3.562  11.529  0.6055  0.0362 -1.6805
  815MPD2    N112004   4.259   3.457  11.405 -0.5714 -0.1238 -0.1587
  815MPD2    H712005   4.206   3.391  11.348  2.0378 -2.6299  0.3245
  816MPD2     C12006   4.478   2.385  17.323 -0.0885 -0.6207 -0.1903
  816MPD2    C112007   4.382   2.358  17.240 -0.3238  0.8307  0.0525
  816MPD2    C212008   4.410   2.304  17.116  0.7127  0.7733  0.2459
  816MPD2    C312009   4.539   2.258  17.078  0.6345  0.5467 -0.9479
  816MPD2    C412010   4.642   2.279  17.174 -0.0550 -0.4023  0.0637
  816MPD2    C512011   4.602   2.342  17.291 -0.3458 -0.5722  0.3266
  816MPD2     H12012   4.333   2.313  17.040 -1.1475 -1.0651  1.8996
  816MPD2    H112013   0.022   2.257  17.160  0.3429  0.2999  2.0589
  816MPD2    H212014   4.459   2.424  17.422  1.8396 -1.0800  0.3696
  816MPD2    H312015   4.678   2.362  17.367  1.0070  0.4990 -1.3082
  816MPD2     N12016   4.558   2.217  16.944  0.0812  0.3792 -0.0777
  816MPD2    H512017   4.480   2.227  16.879  0.5405  0.5593 -0.6002
  816MPD2    N112018   4.247   2.395  17.284 -0.0725  0.2754  0.3547
  816MPD2    H712019   4.244   2.446  17.371 -1.6088 -1.7979  1.5360
  817MPD2     C12020   3.620   3.587  10.040  0.4563  0.0352  0.3164
  817MPD2    C112021   3.725   3.654   9.982  0.0935  0.3840 -0.5851
  817MPD2    C212022   3.722   3.785   9.969 -0.1468  0.9377  0.3940
  817MPD2    C312023   3.614   3.861  10.019  0.6785 -0.6137 -0.0962
  817MPD2    C412024   3.513   3.795  10.088 -0.2054  0.4957 -0.2670
  817MPD2    C512025   3.520   3.657  10.094 -0.0127 -0.0909 -0.4213
  817MPD2     H12026   3.804   3.834   9.918  0.6645 -2.5483 -1.6899
  817MPD2    H112027   3.421   3.839  10.124  1.8559  2.5162  2.5053
  817MPD2    H212028   3.616   3.479  10.043  0.3461  0.1356  4.2185
  817MPD2    H312029   3.426   3.617  10.131 -0.0083 -2.0319 -2.5907
  817MPD2     N12030   3.612   4.006  10.007  0.6106 -0.4443 -0.4682
  817MPD2    H512031   3.671   4.049   9.937  2.0573 -1.5539  0.0635
  817MPD2    N112032   3.838   3.590   9.922  0.3444  0.1431  0.3996
  817MPD2    H712033   3.907   3.647   9.875  1.3663 -1.6145 -0.2477
  818MPD2     C12034   2.844   3.532   9.759 -0.0941 -0.4118 -1.2166
  818MPD2    C112035   2.731   3.471   9.813  0.1462  0.0581 -0.4327
  818MPD2    C212036   2.745   3.338   9.843 -0.1595 -0.2867 -0.3146
  818MPD2    C312037   2.865   3.276   9.855 -0.1524  0.1393 -0.1221
  818MPD2    C412038   2.975   3.335   9.801 -0.3731 -0.0627 -0.8209
  818MPD2    C512039   2.961   3.460   9.742 -0.0183  0.0857 -0.0077
  818MPD2     H12040   2.659   3.295   9.894  0.7400 -3.4129 -1.4709
  818MPD2    H112041   3.075   3.293   9.810 -0.5389 -0.3413 -0.3005
  818MPD2    H212042   2.846   3.632   9.717  0.7864 -0.6653 -1.7674
  818MPD2    H312043   3.039   3.507   9.683  1.1706 -0.3532  1.2088
  818MPD2     N12044   2.886   3.144   9.906  0.2240 -0.1634 -0.3408
  818MPD2    H512045   2.978   3.101   9.910 -0.0497 -1.0670 -4.3172
  818MPD2    N112046   2.608   3.527   9.845  0.3782  0.1688 -0.2286
  818MPD2    H712047   2.536   3.469   9.887 -0.0591 -1.0164 -2.6248
  819MPD2     C12048   0.611   0.860  15.461  0.3894  0.6822 -0.7938
  819MPD2    C112049   0.629   0.724  15.459 -0.1255  0.0307  0.4383
  819MPD2    C212050   0.736   0.665  15.521  0.1760 -0.5336 -0.1996
  819MPD2    C312051   0.823   0.741  15.595  0.2723 -0.5489  0.8237
  819MPD2    C412052   0.809   0.882  15.588 -0.3248  0.1862 -0.0543
  819MPD2    C512053   0.705   0.939  15.522 -0.0147  0.2822 -0.7360
  819MPD2     H12054   0.751   0.558  15.510 -1.5585 -1.0716  2.9115
  819MPD2    H112055   0.882   0.944  15.638  0.5123 -1.7349  1.0909
  819MPD2    H212056   0.527   0.915  15.418  1.3370  1.9211 -1.0688
  819MPD2    H312057   0.679   1.044  15.525  0.4345  0.3437  0.9128
  819MPD2     N12058   0.912   0.671  15.678 -0.0686  0.0020  0.7498
  819MPD2    H512059   0.904   0.570  15.677 -1.2107  0.1352 -2.7281
  819MPD2    N112060   0.528   0.645  15.405  0.1810 -0.6297  0.6982
  819MPD2    H712061   0.462   0.700  15.351  0.1328 -0.9928  0.3783
  820MPD2     C12062   4.586   0.773  14.740  0.3912 -0.0360 -0.1177
  820MPD2    C112063   4.650   0.833  14.849  0.5716  0.5085 -0.6477
  820MPD2    C212064   0.010   0.753  14.927  0.4625  0.9568 -0.0035
  820MPD2    C312065   0.020   0.617  14.903 -0.1257  0.2073 -0.5089
  820MPD2    C412066   4.684   0.566  14.789 -0.7710  0.2662  0.6157
  820MPD2    C512067   4.594   0.641  14.714  0.4501 -0.3523  0.2255
  820MPD2     H12068   0.052   0.791  15.019 -0.8100 -0.4889  1.1712
  820MPD2    H112069   4.683   0.458  14.774 -2.6642 -0.0195  2.9070
  820MPD2    H212070   4.508   0.825  14.687  1.1822 -0.5333 -1.7731
  820MPD2    H312071   4.532   0.597  14.636  1.8587 -0.7805 -0.6573
  820MPD2     N12072   0.112   0.536  14.981 -0.4345 -0.0167  0.5239
  820MPD2    H512073   0.106   0.437  14.963  0.0328  0.0536 -0.0203
  820MPD2    N112074   4.625   0.960  14.897 -0.6020  0.6902 -0.8357
  820MPD2    H712075   4.532   0.997  14.882 -1.4060 -0.3908  1.4352
  821MPD2     C12076   0.656   2.309  12.717  1.0013 -0.2040  0.1770
  821MPD2    C112077   0.734   2.232  12.797 -0.0469 -0.1827 -0.6356
  821MPD2    C212078   0.869   2.277  12.804 -0.1166 -0.8757 -0.3283
  821MPD2    C312079   0.923   2.378  12.726 -0.6180  0.1528 -0.4187
  821MPD2    C412080   0.840   2.444  12.636  0.3691 -0.4228 -0.3878
  821MPD2    C512081   0.708   2.408  12.635  0.3978  0.2504  0.1812
  821MPD2     H12082   0.937   2.231  12.874  0.2970 -2.6228 -1.8605
  821MPD2    H112083   0.870   2.522  12.567 -1.5345 -0.6618 -1.5010
  821MPD2    H212084   0.552   2.285  12.697  1.0527  0.6259 -1.0464
  821MPD2    H312085   0.641   2.455  12.565  0.4270  1.3131  0.8597
  821MPD2     N12086   1.046   2.445  12.756  0.6374  0.2107 -0.4563
  821MPD2    H512087   1.065   2.527  12.699  0.4056 -0.8904 -2.1314
  821MPD2    N112088   0.701   2.114  12.871  0.0969 -0.4917 -0.3272
  821MPD2    H712089   0.769   2.058  12.921  0.0682  0.7617  1.0946
  822MPD2     C12090   1.302   2.237  15.542 -0.2014  0.1450  0.1867
  822MPD2    C112091   1.332   2.213  15.671 -0.0024  0.3660  0.4122
  822MPD2    C212092   1.313   2.310  15.762  0.6636 -0.0983  0.2778
  822MPD2    C312093   1.272   2.437  15.730 -0.3805  0.3928 -0.1884
  822MPD2    C412094   1.251   2.466  15.598  0.1411  0.0705 -0.0777
  822MPD2    C512095   1.257   2.360  15.509  0.3487 -0.2451  0.8061
  822MPD2     H12096   1.339   2.268  15.858 -2.1918  0.6334  1.3521
  822MPD2    H112097   1.207   2.563  15.574 -1.7905 -0.0160  2.9927
  822MPD2    H212098   1.321   2.180  15.452 -0.2247 -1.7376  1.3839
  822MPD2    H312099   1.231   2.384  15.406 -0.2554  1.4218  1.3406
  822MPD2     N12100   1.249   2.535  15.831  0.8351 -0.1391 -0.0510
  822MPD2    H512101   1.271   2.497  15.922  0.9643 -0.7556 -0.3363
  822MPD2    N112102   1.388   2.091  15.715  0.3098  0.0705  0.0301
  822MPD2    H712103   1.404   2.079  15.815  2.4134  0.0846 -0.2988
  823MPD2     C12104   1.034   2.748  16.620  0.2496 -0.4790  0.1325
  823MPD2    C112105   1.040   2.656  16.516  0.5608  0.3325 -0.3547
  823MPD2    C212106   1.066   2.523  16.536 -0.3270  1.1883  0.2863
  823MPD2    C312107   1.071   2.469  16.667 -0.1336 -0.5951  0.3670
  823MPD2    C412108   1.038   2.557  16.767 -0.3950  0.0457 -0.0547
  823MPD2    C512109   1.028   2.692  16.743 -0.2908  0.0166 -0.8907
  823MPD2     H12110   1.075   2.459  16.450  0.6801 -0.6782  1.7858
  823MPD2    H112111   1.038   2.526  16.871  1.2204  2.5281  0.6707
  823MPD2    H212112   1.029   2.855  16.605  0.0691 -0.5921 -0.6584
  823MPD2    H312113   1.014   2.760  16.827  0.8514 -0.7985 -0.0345
  823MPD2     N12114   1.101   2.334  16.702  0.3307  0.7271  0.1043
  823MPD2    H512115   1.072   2.304  16.795  0.2879 -0.0486 -0.1635
  823MPD2    N112116   1.019   2.716  16.391 -0.4814  0.3654 -0.7033
  823MPD2    H712117   1.007   2.817  16.393 -0.5958  0.2901  2.3495
  824MPD2     C12118   1.741   1.244  15.737  0.9286  0.5518 -0.4360
  824MPD2    C112119   1.779   1.357  15.667  0.7148  0.6714  0.2408
  824MPD2    C212120   1.882   1.343  15.577 -0.4601  0.3912  0.1787
  824MPD2    C312121   1.945   1.217  15.544 -0.0859 -0.3332  0.8037
  824MPD2    C412122   1.903   1.106  15.615  0.1265  0.5496  0.2851
  824MPD2    C512123   1.812   1.124  15.715 -0.1105 -1.1802  0.3980
  824MPD2     H12124   1.913   1.431  15.522 -2.3413  1.1577  0.3510
  824MPD2    H112125   1.943   1.007  15.600  2.3435  1.3917  0.6098
  824MPD2    H212126   1.667   1.249  15.816 -0.1492  1.9419 -1.5251
  824MPD2    H312127   1.781   1.035  15.769  1.2951 -1.5387  0.6218
  824MPD2     N12128   2.061   1.230  15.463  0.1708  0.0138  0.6464
  824MPD2    H512129   2.083   1.321  15.424  1.2061 -0.8935 -0.9193
  824MPD2    N112130   1.712   1.481  15.692 -0.4960  0.6720  0.0443
  824MPD2    H712131   1.631   1.485  15.754 -1.2113  0.5525 -0.8846
  825MPD2     C12132   2.600   1.541  14.884  0.5797 -0.0005  0.3317
  825MPD2    C112133   2.492   1.561  14.963  0.1866  0.1350  0.5183
  825MPD2    C212134   2.445   1.686  14.987  0.1810 -0.0700  0.0114
  825MPD2    C312135   2.507   1.798  14.926  0.2745 -0.0430 -0.2195
  825MPD2    C412136   2.610   1.773  14.840 -0.3725  0.2327  0.1542
  825MPD2    C512137   2.652   1.648  14.821 -0.3979 -0.2161 -0.4714
  825MPD2     H12138   2.363   1.699  15.057 -0.0439  3.1409 -0.8653
  825MPD2    H112139   2.656   1.860  14.794  0.2104 -1.0627 -1.6774
  825MPD2    H212140   2.645   1.444  14.869 -0.2019 -0.0403 -1.8271
  825MPD2    H312141   2.726   1.628  14.745 -0.4599 -0.8694 -0.3541
  825MPD2     N12142   2.468   1.929  14.953 -0.3609 -0.2017 -0.4053
  825MPD2    H512143   2.502   1.999  14.888  0.5534  1.3105  1.6944
  825MPD2    N112144   2.446   1.445  15.032 -0.5909 -0.0669  0.4147
  825MPD2    H712145   2.483   1.359  14.993  0.2257  1.0913 -1.3539
  826MPD2     C12146   2.010   1.500  13.935  0.2455 -0.1150 -0.4060
  826MPD2    C112147   2.025   1.542  13.799  0.2000 -1.2621 -0.0360
  826MPD2    C212148   2.001   1.670  13.766 -0.3395  0.5689 -0.1503
  826MPD2    C312149   1.953   1.761  13.861  0.2584 -0.1247 -0.2700
  826MPD2    C412150   1.949   1.724  13.997 -1.4131 -0.1837 -0.3571
  826MPD2    C512151   1.997   1.598  14.031  0.3069  0.4394 -0.0406
  826MPD2     H12152   2.001   1.697  13.661 -0.8907  0.1244 -0.2668
  826MPD2    H112153   1.920   1.793  14.075 -0.5972 -1.1955  0.8476
  826MPD2    H212154   2.031   1.399  13.967 -0.4775 -0.4181 -0.9098
  826MPD2    H312155   2.016   1.569  14.134  3.1154 -0.3108 -0.7804
  826MPD2     N12156   1.924   1.896  13.825 -0.4084  0.4174 -0.2067
  826MPD2    H512157   1.884   1.958  13.894 -0.9071 -1.3229  1.0831
  826MPD2    N112158   2.057   1.441  13.705  0.2320  0.1433 -0.7066
  826MPD2    H712159   2.091   1.351  13.737 -0.9667 -1.1633 -3.0786
  827MPD2     C12160   3.264   2.699  10.102  0.1212  0.1809  0.9772
  827MPD2    C112161   3.180   2.625  10.186  0.3706 -0.0557 -0.3383
  827MPD2    C212162   3.075   2.542  10.136 -0.7072 -0.0304 -0.3928
  827MPD2    C312163   3.048   2.554   9.997  0.4442 -0.4046 -0.1621
  827MPD2    C412164   3.119   2.640   9.916 -0.5061 -0.4333  0.7590
  827MPD2    C512165   3.228   2.700   9.968 -0.8438 -0.3999  0.1268
  827MPD2     H12166   3.025   2.468  10.197 -1.9197  1.0830 -0.0655
  827MPD2    H112167   3.099   2.651   9.811 -1.4524 -0.4812  0.9394
  827MPD2    H212168   3.344   2.767  10.129 -1.9315  1.7078  3.1787
  827MPD2    H312169   3.292   2.766   9.911 -0.0263 -1.1149  0.2158
  827MPD2     N12170   2.934   2.488   9.950  0.0856 -0.4260 -0.9369
  827MPD2    H512171   2.897   2.432  10.026 -2.8419  0.1472 -1.9057
  827MPD2    N112172   3.207   2.624  10.319  0.3615 -0.6111 -0.0307
  827MPD2    H712173   3.293   2.672  10.342  0.3394 -0.3589 -0.4832
  828MPD2     C12174   1.553   2.322  12.598  0.2347  0.1437 -0.3461
  828MPD2    C112175   1.556   2.357  12.465  0.3923  0.0984  0.0080
  828MPD2    C212176   1.676   2.350  12.402 -0.4927  0.3171 -0.3724
  828MPD2    C312177   1.792   2.302  12.463 -0.5178 -0.0056  0.2014
  828MPD2    C412178   1.788   2.257  12.590  0.4779 -0.5799  0.8253
  828MPD2    C512179   1.666   2.264  12.654 -0.2030  0.8733 -0.1023
  828MPD2     H12180   1.686   2.391  12.303 -0.6114  1.0269 -0.0912
  828MPD2    H112181   1.880   2.222  12.637 -1.0222 -3.8993  1.3150
  828MPD2    H212182   1.466   2.321  12.662  0.3536  0.6718 -0.1772
  828MPD2    H312183   1.661   2.231  12.757  3.2715  2.7959  0.6812
  828MPD2     N12184   1.921   2.288  12.392  0.2485 -0.2198 -0.0705
  828MPD2    H512185   1.994   2.240  12.444  0.0196 -0.5423 -0.0492
  828MPD2    N112186   1.448   2.389  12.383  0.7569 -0.1901  0.4823
  828MPD2    H712187   1.461   2.417  12.286 -0.7706  1.8715  0.8729
  829MPD2     C12188   1.526   2.722  11.599 -0.1607  0.6020 -0.4623
  829MPD2    C112189   1.392   2.728  11.613  0.0261 -0.6995  0.3679
  829MPD2    C212190   1.325   2.684  11.730 -0.5986  0.1156 -0.1106
  829MPD2    C312191   1.410   2.626  11.822  0.3673  0.4930  0.2184
  829MPD2    C412192   1.546   2.609  11.804  0.1488  0.2330  0.0066
  829MPD2    C512193   1.602   2.657  11.688 -0.6928 -0.0737  0.2122
  829MPD2     H12194   1.216   2.681  11.732 -0.5416 -0.2647  2.0868
  829MPD2    H112195   1.596   2.546  11.877 -0.6296 -1.5769 -1.0110
  829MPD2    H212196   1.576   2.757  11.510  0.4558  2.1100  0.4582
  829MPD2    H312197   1.707   2.634  11.672 -0.2989  0.7216  1.6363
  829MPD2     N12198   1.353   2.561  11.939  0.4952 -0.3032  0.1536
  829MPD2    H512199   1.414   2.512  12.004 -2.1327 -2.1496  1.2392
  829MPD2    N112200   1.313   2.796  11.509  0.1339  0.5893  0.6759
  829MPD2    H712201   1.364   2.811  11.423 -0.9714  1.0750  0.1206
  830MPD2     C12202   1.306   0.009  16.041 -0.5273  0.1080  0.2172
  830MPD2    C112203   1.266   0.078  15.928  0.4610  0.0193  0.1173
  830MPD2    C212204   1.321   0.048  15.804 -0.3028 -0.5111 -0.0512
  830MPD2    C312205   1.420   4.678  15.796 -0.2242  0.5154  0.3613
  830MPD2    C412206   1.442   4.595  15.904  0.1825 -0.3666  0.3397
  830MPD2    C512207   1.391   4.623  16.024 -0.0537  0.1392  0.0065
  830MPD2     H12208   1.300   0.121  15.726 -1.1242  0.2540  0.8786
  830MPD2    H112209   1.508   4.510  15.891 -0.2444 -0.8614  1.4651
  830MPD2    H212210   1.258   0.027  16.136 -0.9626  1.7385 -0.3193
  830MPD2    H312211   1.405   4.557  16.108  0.5848 -0.1801 -0.3537
  830MPD2     N12212   1.480   4.652  15.672  0.6649 -0.3621 -0.5476
  830MPD2    H512213   1.556   4.585  15.669 -0.2199 -1.2377 -2.7860
  830MPD2    N112214   1.196   0.200  15.947 -0.5158 -0.1018 -0.2269
  830MPD2    H712215   1.204   0.239  16.040  0.5685 -0.1359 -0.3028
  831MPD2     C12216   1.515   2.735  16.305  0.0638  0.2226  0.6772
  831MPD2    C112217   1.530   2.649  16.199 -0.5410 -0.2683 -0.7451
  831MPD2    C212218   1.455   2.530  16.195  0.2275 -0.6060  0.2514
  831MPD2    C312219   1.363   2.495  16.294  0.5451 -0.1144  0.4073
  831MPD2    C412220   1.361   2.571  16.407  0.0798  0.1636 -0.1576
  831MPD2    C512221   1.437   2.692  16.409 -0.3872  0.3500 -0.3506
  831MPD2     H12222   1.451   2.463  16.110  1.0659 -1.7770  1.1351
  831MPD2    H112223   1.303   2.546  16.495  0.5370 -0.0505  0.0851
  831MPD2    H212224   1.578   2.822  16.317 -0.9250  0.9850  0.3974
  831MPD2    H312225   1.439   2.755  16.497 -1.3991 -0.0826 -0.0175
  831MPD2     N12226   1.284   2.380  16.287  0.4648 -0.4520 -0.1336
  831MPD2    H512227   1.253   2.335  16.373  0.2778 -0.3912 -0.1697
  831MPD2    N112228   1.608   2.683  16.088 -0.4807  0.0393  0.0566
  831MPD2    H712229   1.662   2.768  16.101 -1.0626  0.1183  1.8568
  832MPD2     C12230   0.141   3.369  17.162  0.3809 -0.5880  0.0030
  832MPD2    C112231   0.053   3.475  17.178 -0.3137 -0.6480  0.6634
  832MPD2    C212232   4.659   3.481  17.098  0.0944 -0.4839  0.9699
  832MPD2    C312233   4.634   3.376  17.008 -0.4890  0.2873  0.3820
  832MPD2    C412234   4.721   3.268  17.001  0.2107  0.1265  0.1914
  832MPD2    C512235   0.111   3.266  17.072 -0.2746  0.0051 -0.0776
  832MPD2     H12236   4.618   3.580  17.086 -1.3223 -0.9254  2.1671
  832MPD2    H112237   4.711   3.190  16.927 -0.7857  0.4932 -0.0592
  832MPD2    H212238   0.232   3.360  17.219  0.1812  0.1333  0.4371
  832MPD2    H312239   0.183   3.185  17.060 -1.7699 -0.9629 -2.5217
  832MPD2     N12240   4.531   3.378  16.914 -0.7732 -0.4059  0.1299
  832MPD2    H512241   4.517   3.289  16.869 -0.9898 -0.5567  0.5019
  832MPD2    N112242   0.092   3.574  17.268 -0.6023  0.4311 -0.0800
  832MPD2    H712243   0.183   3.556  17.309  0.1138 -0.7130 -2.1735
  833MPD2     C12244   1.753   0.103  12.354 -0.5411  0.1636 -0.4441
  833MPD2    C112245   1.832   0.193  12.273 -0.3783 -0.6252 -0.2768
  833MPD2    C212246   1.874   0.141  12.148 -0.2228 -0.2487 -0.2304
  833MPD2    C312247   1.863   0.016  12.103 -0.0509  0.1275  0.7231
  833MPD2    C412248   1.814   4.644  12.198  0.2308 -0.3000  0.1006
  833MPD2    C512249   1.765   4.691  12.321  0.5377  0.0324 -0.2274
  833MPD2     H12250   1.919   0.210  12.077 -0.4256 -0.0050 -0.1224
  833MPD2    H112251   1.820   4.536  12.185 -0.6834 -0.1636 -1.3347
  833MPD2    H212252   1.701   0.129  12.446  0.0455 -0.7886  0.1636
  833MPD2    H312253   1.715   4.618  12.384 -1.2765  0.3063 -1.3630
  833MPD2     N12254   1.916   4.700  11.976  0.1297  0.1816 -0.1866
  833MPD2    H512255   1.890   4.610  11.937  0.2580  0.9910 -2.1362
  833MPD2    N112256   1.833   0.329  12.312  0.6109 -0.3847  0.5707
  833MPD2    H712257   1.793   0.347  12.403  0.3804  0.1228  0.3717
  834MPD2     C12258   1.526   4.578  11.091  0.2413  0.0377 -0.1066
  834MPD2    C112259   1.644   4.505  11.083  0.1768 -0.3986 -0.0555
  834MPD2    C212260   1.732   4.533  11.181 -0.8296 -0.1385 -0.2407
  834MPD2    C312261   1.706   4.598  11.297  0.0893  0.0181  0.0062
  834MPD2    C412262   1.578   4.647  11.317  0.2794 -0.3825 -0.7608
  834MPD2    C512263   1.494   4.653  11.208  0.1092 -0.0194  0.3953
  834MPD2     H12264   1.836   4.503  11.177 -1.0494 -0.8645 -0.5366
  834MPD2    H112265   1.544   4.696  11.407 -2.0723 -1.9359 -0.8232
  834MPD2    H212266   1.449   4.560  11.016 -0.5015 -0.0296  0.6685
  834MPD2    H312267   1.405   4.715  11.212  0.5292  0.5766  0.4094
  834MPD2     N12268   1.817   4.616  11.383  0.2481  0.3162 -0.3560
  834MPD2    H512269   1.906   4.575  11.358  0.6823 -0.2041  2.0346
  834MPD2    N112270   1.665   4.434  10.966  0.3465  0.4509  0.2413
  834MPD2    H712271   1.577   4.427  10.915 -0.5465  0.4356  1.8016
  835MPD2     C12272   1.778   2.805  10.945 -0.6176  0.6894 -0.3026
  835MPD2    C112273   1.693   2.913  10.981 -0.3242  0.1214 -0.0623
  835MPD2    C212274   1.709   2.969  11.106 -0.2067  0.0870 -0.2135
  835MPD2    C312275   1.795   2.916  11.200  0.5429  0.0560 -0.3891
  835MPD2    C412276   1.881   2.817  11.163  0.2212  0.6887 -0.6408
  835MPD2    C512277   1.874   2.766  11.037 -0.0156 -0.1865 -0.1586
  835MPD2     H12278   1.631   3.038  11.134  0.0346  0.1430  0.3220
  835MPD2    H112279   1.948   2.779  11.240 -0.0474  2.0173  0.2381
  835MPD2    H212280   1.772   2.752  10.850  0.5951  0.5955 -0.3255
  835MPD2    H312281   1.934   2.679  11.015  0.7190  0.2135  0.2514
  835MPD2     N12282   1.803   2.955  11.340 -0.2654 -0.2785  0.0252
  835MPD2    H512283   1.857   2.896  11.402  0.5377  1.1526  0.7065
  835MPD2    N112284   1.604   2.969  10.890 -0.7170  0.9137  0.0621
  835MPD2    H712285   1.543   3.046  10.914 -0.3973  1.2911 -0.3258
  836MPD2     C12286   1.163   3.163  11.550 -0.3619 -0.6119  0.1713
  836MPD2    C112287   1.227   3.141  11.665  0.1611  0.6563  0.5830
  836MPD2    C212288   1.170   3.178  11.783 -0.0533  0.2711  0.4909
  836MPD2    C312289   1.036   3.222  11.781 -0.1014 -0.1517 -0.1074
  836MPD2    C412290   0.973   3.244  11.663  0.4050 -0.0931 -0.6187
  836MPD2    C512291   1.042   3.217  11.551  0.3867  0.0182 -0.7430
  836MPD2     H12292   1.229   3.174  11.874 -1.9704 -0.6141  1.6881
  836MPD2    H112293   0.870   3.276  11.658 -0.1202 -1.6050  0.5844
  836MPD2    H212294   1.197   3.126  11.454  0.8606 -0.3859  0.5239
  836MPD2    H312295   0.996   3.238  11.454 -0.5983  1.8277  0.1090
  836MPD2     N12296   0.956   3.238  11.902  0.1911  0.2990  0.4307
  836MPD2    H512297   0.862   3.273  11.889  0.4849  0.8924 -0.0500
  836MPD2    N112298   1.359   3.092  11.649 -0.4383 -0.3406 -0.6433
  836MPD2    H712299   1.392   3.073  11.555 -0.4852  1.5085 -1.0289
  837MPD2     C12300   0.100   2.592   9.957 -0.4605  0.1457  0.2533
  837MPD2    C112301   0.090   2.613   9.822  0.6214 -0.3388 -0.0661
  837MPD2    C212302   0.063   2.740   9.770 -0.4341  0.7248 -0.9042
  837MPD2    C312303   0.053   2.848   9.853 -0.7199 -0.1887  0.0314
  837MPD2    C412304   0.068   2.824   9.989  0.3973 -0.4978  0.1231
  837MPD2    C512305   0.086   2.691  10.042 -0.1457 -0.5348  0.2516
  837MPD2     H12306   0.058   2.745   9.662  0.5721  2.2985 -0.8699
  837MPD2    H112307   0.045   2.903  10.060 -3.2788 -2.5670  1.2719
  837MPD2    H212308   0.114   2.491   9.993  0.1665 -0.3079 -1.2593
  837MPD2    H312309   0.088   2.676  10.149 -0.0761 -1.2393  0.1506
  837MPD2     N12310   0.018   2.966   9.798  0.2730 -0.4069  0.5657
  837MPD2    H512311   0.007   2.961   9.697 -0.4156  2.2386  0.5025
  837MPD2    N112312   0.083   2.509   9.730  0.3092  0.3241  0.2351
  837MPD2    H712313   0.076   2.531   9.631  0.7897 -1.0860 -0.1157
  838MPD2     C12314   2.919   0.262  11.568  0.1538  0.4921 -0.3149
  838MPD2    C112315   2.906   0.382  11.633 -0.4708  0.0906 -1.2147
  838MPD2    C212316   2.782   0.436  11.676 -0.1836 -0.1420 -0.3525
  838MPD2    C312317   2.673   0.353  11.661  0.3320 -0.4317 -0.1829
  838MPD2    C412318   2.683   0.229  11.598 -0.1938  0.3489  0.3330
  838MPD2    C512319   2.801   0.193  11.541 -0.0369 -0.5830 -1.0066
  838MPD2     H12320   2.781   0.528  11.733  1.5880 -0.7762  0.7296
  838MPD2    H112321   2.589   0.181  11.574  1.0909 -2.4661  0.9470
  838MPD2    H212322   3.012   0.229  11.523 -1.6546  1.1767 -4.5640
  838MPD2    H312323   2.799   0.102  11.483  0.8091 -0.9381 -0.4888
  838MPD2     N12324   2.556   0.400  11.731  0.3042  0.2933 -0.2130
  838MPD2    H512325   2.564   0.495  11.765 -0.4733  0.4686 -0.5208
  838MPD2    N112326   3.030   0.449  11.659 -0.7122 -0.8562 -0.4532
  838MPD2    H712327   3.110   0.402  11.619 -0.5075 -0.5124 -0.4513
  839MPD2     C12328   3.006   0.142  12.295  1.0016 -0.2662 -0.4070
  839MPD2    C112329   3.084   0.118  12.185 -0.6892 -0.6621  0.4881
  839MPD2    C212330   3.164   0.222  12.147  0.4872  0.1970 -0.0223
  839MPD2    C312331   3.174   0.346  12.205  0.0620 -0.5294  0.6179
  839MPD2    C412332   3.095   0.365  12.312  1.1640 -0.0100  1.0529
  839MPD2    C512333   3.005   0.268  12.351  0.2489 -0.1947  0.7132
  839MPD2     H12334   3.222   0.210  12.056 -1.6156  0.3530 -1.3834
  839MPD2    H112335   3.088   0.464  12.357 -2.8498 -0.3352  1.1429
  839MPD2    H212336   2.928   0.071  12.321  2.3697 -1.6112  0.0446
  839MPD2    H312337   2.940   0.303  12.431 -0.2028 -1.3751  0.8474
  839MPD2     N12338   3.250   0.442  12.150  0.0587  0.2554  0.1615
  839MPD2    H512339   3.223   0.537  12.175  1.8170  0.9691 -0.6194
  839MPD2    N112340   3.067   4.725  12.101  0.5918  0.3734  0.4202
  839MPD2    H712341   3.078   0.015  12.001  0.8095 -0.6233  0.2900
  840MPD2     C12342   3.776   2.749  10.565  0.4906  0.7970  0.2064
  840MPD2    C112343   3.673   2.775  10.649  0.0519 -0.1096 -0.7757
  840MPD2    C212344   3.687   2.882  10.737  0.0388 -0.6731 -0.0237
  840MPD2    C312345   3.795   2.962  10.728 -0.4767 -0.0365  0.6217
  840MPD2    C412346   3.898   2.936  10.641  0.2823  0.5311 -0.1134
  840MPD2    C512347   3.885   2.826  10.566  0.8805  0.1293  0.2379
  840MPD2     H12348   3.613   2.908  10.812 -0.7884 -2.8016 -0.0878
  840MPD2    H112349   3.987   2.996  10.625  0.3573  0.8787  1.5473
  840MPD2    H212350   3.777   2.664  10.497 -1.9281 -0.3402  1.6160
  840MPD2    H312351   3.966   2.802  10.497 -1.5729 -1.7385 -1.9950
  840MPD2     N12352   3.799   3.080  10.801  0.2556 -0.2687 -0.0393
  840MPD2    H512353   3.890   3.124  10.803 -0.5149  1.3158  0.2740
  840MPD2    N112354   3.566   2.690  10.644 -0.5482 -0.2164 -0.4164
  840MPD2    H712355   3.562   2.618  10.573 -0.3070  0.8720 -1.5388
  841MPD2     C12356   2.840   2.676  14.302  0.3315  0.1787  0.5018
  841MPD2    C112357   2.862   2.713  14.170 -0.0514  0.4879  0.2477
  841MPD2    C212358   2.916   2.837  14.138 -0.1261  0.3467  0.2285
  841MPD2    C312359   2.957   2.921  14.237 -0.0948 -0.7237 -0.0623
  841MPD2    C412360   2.943   2.883  14.371  0.6441  0.0857 -0.5843
  841MPD2    C512361   2.885   2.760  14.400  0.7707 -0.2531 -0.5084
  841MPD2     H12362   2.920   2.865  14.033 -0.0161  2.2910  0.7532
  841MPD2    H112363   2.970   2.951  14.452  1.5540 -0.3961 -0.4839
  841MPD2    H212364   2.804   2.577  14.326 -0.9637  0.0697 -1.8921
  841MPD2    H312365   2.875   2.738  14.506 -0.7026 -0.5291 -0.6998
  841MPD2     N12366   3.025   3.038  14.196 -0.2688 -0.0620 -0.2762
  841MPD2    H512367   3.017   3.054  14.096  1.1381  1.6270 -0.1089
  841MPD2    N112368   2.830   2.629  14.064  0.0248  0.1560 -0.0582
  841MPD2    H712369   2.875   2.645  13.974  1.8300 -1.8031  0.4980
  842MPD2     C12370   3.980   3.914  17.180 -0.2953 -0.2800 -0.6691
  842MPD2    C112371   3.914   3.812  17.119  0.4063 -0.1965 -0.5645
  842MPD2    C212372   3.817   3.746  17.187  0.3551  0.2622 -0.5930
  842MPD2    C312373   3.783   3.782  17.320  0.4196  0.1354 -0.9805
  842MPD2    C412374   3.848   3.895  17.374 -0.2820 -0.4193 -0.3020
  842MPD2    C512375   3.952   3.956  17.305  0.0469  0.3427  0.3420
  842MPD2     H12376   3.751   3.675  17.139  0.3009  0.0770 -0.2436
  842MPD2    H112377   3.830   3.922  17.477 -1.4129  1.1948 -0.9139
  842MPD2    H212378   4.056   3.974  17.131 -0.7543  1.1650  0.3733
  842MPD2    H312379   3.993   4.044  17.352 -0.3014  0.8149 -0.2434
  842MPD2     N12380   3.688   3.711  17.397  0.5173 -0.5280 -0.4612
  842MPD2    H512381   3.661   3.760  17.482  3.0931 -0.2588  0.2243
  842MPD2    N112382   3.945   3.782  16.981 -0.1116 -0.2725 -0.4229
  842MPD2    H712383   4.013   3.845  16.940  0.8065  0.4668  2.2832
  843MPD2     C12384   0.785   3.912   0.222 -0.6418 -0.4473 -0.0921
  843MPD2    C112385   0.802   3.823   0.114  0.3757  0.1884 -0.1624
  843MPD2    C212386   0.919   3.831   0.040 -0.1024  0.7006  1.2878
  843MPD2    C312387   1.008   3.933   0.070  0.1452  0.4082 -0.5790
  843MPD2    C412388   0.985   4.023   0.173  0.6662  0.4104 -0.1264
  843MPD2    C512389   0.881   4.002   0.262  0.8335  0.7008 -0.0225
  843MPD2     H12390   0.942   3.761  17.662 -1.7496  1.9208 -0.2382
  843MPD2    H112391   1.063   4.089   0.209  1.3672 -0.0075 -0.8764
  843MPD2    H212392   0.710   3.897   0.298 -1.8910  0.5617 -1.1279
  843MPD2    H312393   0.875   4.054   0.357 -0.5660 -0.1999  0.3876
  843MPD2     N12394   1.130   3.953   0.002  0.2781  0.5167  0.3331
  843MPD2    H512395   1.190   4.028   0.035  0.9983  0.1683 -0.1685
  843MPD2    N112396   0.704   3.723   0.102 -0.1210 -0.3308 -0.2637
  843MPD2    H712397   0.626   3.736   0.165  0.5367 -0.7104  0.6200
  844MPD2     C12398   4.439   3.241  16.378  0.7254 -0.0113  0.2591
  844MPD2    C112399   4.562   3.179  16.362 -0.2950 -0.1408  0.7482
  844MPD2    C212400   4.666   3.220  16.440 -0.1498  0.3096  0.7345
  844MPD2    C312401   4.659   3.329  16.527 -0.2378  0.6517 -0.2512
  844MPD2    C412402   4.537   3.386  16.545  0.4943  1.0092 -0.0307
  844MPD2    C512403   4.427   3.348  16.465  0.1063  0.2522  0.2512
  844MPD2     H12404   0.037   3.171  16.425  0.3531  1.7075 -0.6875
  844MPD2    H112405   4.520   3.470  16.611  0.1716 -0.5355  1.8749
  844MPD2    H212406   4.351   3.206  16.326 -0.3008  1.1151  1.2350
  844MPD2    H312407   4.328   3.393  16.470  0.5872  1.6707 -2.6108
  844MPD2     N12408   0.043   3.367  16.602  0.5257  0.1956 -0.2475
  844MPD2    H512409   0.121   3.303  16.614 -1.1635 -1.5404  1.5521
  844MPD2    N112410   4.585   3.067  16.283  0.0281  0.0456 -0.3583
  844MPD2    H712411   4.681   3.034  16.286 -0.2819 -0.7947  0.2175
  845MPD2     C12412   0.249   4.072  17.302  0.4627  0.2874  0.5292
  845MPD2    C112413   0.134   4.047  17.236 -0.4945 -0.5330 -0.0839
  845MPD2    C212414   0.140   3.951  17.127  0.7662  0.0703  0.4096
  845MPD2    C312415   0.259   3.899  17.079 -0.4384 -0.0443 -0.4329
  845MPD2    C412416   0.378   3.943  17.142 -0.2055  0.9426 -0.1111
  845MPD2    C512417   0.374   4.024  17.255 -0.0971  0.0782  0.3030
  845MPD2     H12418   0.046   3.923  17.083  1.6768 -0.4238 -1.2326
  845MPD2    H112419   0.469   3.896  17.105 -0.3931  0.3051  0.2466
  845MPD2    H212420   0.249   4.133  17.391 -0.5748  1.4750 -0.2751
  845MPD2    H312421   0.463   4.047  17.311 -0.3101  1.4322  0.0798
  845MPD2     N12422   0.255   3.800  16.980  0.0558  0.7954  0.3278
  845MPD2    H512423   0.165   3.757  16.964  1.3152 -0.2671 -4.0085
  845MPD2    N112424   0.006   4.098  17.270 -0.1541 -1.2557 -0.3636
  845MPD2    H712425   4.654   4.086  17.205 -0.7868 -0.5565  0.2574
  846MPD2     C12426   1.551   4.526  13.495 -0.5576  0.2767 -0.2489
  846MPD2    C112427   1.458   4.624  13.526  0.3326  0.2084  0.0532
  846MPD2    C212428   1.404   4.633  13.650  0.9858 -0.5299 -0.2686
  846MPD2    C312429   1.442   4.549  13.752 -0.1887  0.4872  0.2246
  846MPD2    C412430   1.543   4.459  13.723  0.2550  0.5602 -0.0500
  846MPD2    C512431   1.590   4.448  13.599 -0.0829  0.1402 -0.6709
  846MPD2     H12432   1.337   4.715  13.672  1.4651  0.0832 -1.1033
  846MPD2    H112433   1.583   4.388  13.795  0.4092 -1.4563 -2.1487
  846MPD2    H212434   1.609   4.514  13.405  0.7645  0.1370  0.6154
  846MPD2    H312435   1.663   4.368  13.597 -0.0145  0.1917 -0.2518
  846MPD2     N12436   1.377   4.553  13.884 -0.0321  0.0375  0.1518
  846MPD2    H512437   1.307   4.621  13.913  0.9766  0.5929  1.2628
  846MPD2    N112438   1.404   4.713  13.433 -0.0061 -0.1171 -0.1543
  846MPD2    H712439   1.360   0.071  13.472  0.1500 -0.3111  0.4486
  847MPD2     C12440   1.715   0.932  13.729  0.2859 -0.1064 -0.1981
  847MPD2    C112441   1.748   0.961  13.858 -0.2186 -0.2703  0.5340
  847MPD2    C212442   1.786   0.856  13.939  0.2818  0.0427  0.7011
  847MPD2    C312443   1.792   0.726  13.887  1.0449  0.0125  0.1521
  847MPD2    C412444   1.752   0.696  13.760 -0.7588  0.0111 -0.1157
  847MPD2    C512445   1.706   0.796  13.685 -0.9100 -0.3268 -0.3173
  847MPD2     H12446   1.808   0.877  14.043 -1.4616  1.0777  0.8609
  847MPD2    H112447   1.735   0.593  13.730  0.2542 -1.0289  2.9602
  847MPD2    H212448   1.681   1.009  13.661  0.0056 -0.3180 -0.2972
  847MPD2    H312449   1.672   0.765  13.586  0.6704  0.4471 -1.1067
  847MPD2     N12450   1.837   0.634  13.984 -0.0933 -0.0715  0.3044
  847MPD2    H512451   1.840   0.677  14.076 -3.4420 -2.0969  1.3519
  847MPD2    N112452   1.742   1.089  13.922  0.5115  0.5969 -0.5293
  847MPD2    H712453   1.748   1.084  14.023  2.0355 -0.7081 -0.6737
  848MPD2     C12454   4.094   3.771  16.344  0.6308 -0.3945  0.5129
  848MPD2    C112455   4.156   3.815  16.455  0.0507  0.1066  0.1831
  848MPD2    C212456   4.199   3.947  16.471  0.2183  0.2352  0.1423
  848MPD2    C312457   4.189   4.036  16.361  0.2831 -0.0674  0.0055
  848MPD2    C412458   4.141   3.987  16.241  0.0712  0.0156  0.4912
  848MPD2    C512459   4.086   3.860  16.234  0.9695 -0.3841  0.4489
  848MPD2     H12460   4.233   3.987  16.567 -0.7455  1.0282  0.1503
  848MPD2    H112461   4.142   4.051  16.154  0.0448 -3.0001 -1.7354
  848MPD2    H212462   4.033   3.682  16.340 -0.0373  0.0892 -0.4126
  848MPD2    H312463   4.039   3.822  16.144  1.5864  0.7717 -0.3587
  848MPD2     N12464   4.233   4.171  16.358  0.6075  0.3311 -0.7100
  848MPD2    H512465   4.204   4.221  16.275 -1.9703  1.5930  0.9151
  848MPD2    N112466   4.180   3.723  16.565 -0.0941  0.2156  0.0306
  848MPD2    H712467   4.187   3.767  16.656 -0.3225  1.0956 -0.3766
  849MPD2     C12468   3.137   3.676  14.183  0.1582 -0.4484  0.6923
  849MPD2    C112469   3.247   3.647  14.114  0.4210  0.2008  0.2077
  849MPD2    C212470   3.369   3.664  14.177 -0.0884 -0.6538  0.4391
  849MPD2    C312471   3.385   3.711  14.303 -1.0560  0.4559  0.2458
  849MPD2    C412472   3.269   3.727  14.382  0.2330  0.2654 -0.0605
  849MPD2    C512473   3.146   3.706  14.320 -0.3954  0.4120  0.4412
  849MPD2     H12474   3.468   3.640  14.138 -0.2374 -0.5861  0.0286
  849MPD2    H112475   3.290   3.750  14.486  1.9107 -0.8562 -0.1511
  849MPD2    H212476   3.041   3.676  14.132 -0.7935 -2.5005  2.4934
  849MPD2    H312477   3.050   3.718  14.368  0.3331  1.4085  1.6516
  849MPD2     N12478   3.521   3.711  14.344  0.3545  0.4061 -0.4000
  849MPD2    H512479   3.590   3.671  14.281 -1.6506 -0.1653 -2.2118
  849MPD2    N112480   3.229   3.593  13.986  0.1023  0.3028  0.0908
  849MPD2    H712481   3.137   3.590  13.944 -0.0140 -2.6158  0.5942
  850MPD2     C12482   1.983   1.097  15.049 -0.0950 -0.4574  0.2567
  850MPD2    C112483   1.907   1.178  15.134  0.3766 -0.2471  0.5280
  850MPD2    C212484   1.922   1.315  15.126  0.3547  0.0001  0.1348
  850MPD2    C312485   2.009   1.381  15.039 -0.0313 -1.1766 -0.0884
  850MPD2    C412486   2.083   1.298  14.960 -0.0166  0.7188  0.1808
  850MPD2    C512487   2.065   1.163  14.959  0.3544 -0.7342 -0.0581
  850MPD2     H12488   1.867   1.373  15.199  0.1822 -0.5640  0.4497
  850MPD2    H112489   2.156   1.331  14.887 -0.9637  0.7828 -0.7407
  850MPD2    H212490   1.966   0.990  15.042  0.4000 -0.4677 -0.8540
  850MPD2    H312491   2.122   1.097  14.896 -0.3200  0.3730 -1.8174
  850MPD2     N12492   2.037   1.519  15.030 -0.0944 -0.5598 -0.0639
  850MPD2    H512493   2.103   1.557  14.963 -0.0929  1.9902  1.3990
  850MPD2    N112494   1.799   1.113  15.215  0.3988 -0.3559  0.3093
  850MPD2    H712495   1.810   1.012  15.215 -0.6108 -0.4779  1.7654
  851MPD2     C12496   1.961   0.682  15.580 -0.2557 -0.5289  0.4479
  851MPD2    C112497   1.827   0.663  15.553  1.0393  0.8798 -0.0512
  851MPD2    C212498   1.779   0.533  15.530  0.3608  0.3071 -0.1842
  851MPD2    C312499   1.865   0.428  15.531 -0.5374  0.4063 -0.0453
  851MPD2    C412500   2.000   0.445  15.557 -0.1055  0.2993 -0.7274
  851MPD2    C512501   2.051   0.573  15.581 -0.2714  0.1054 -0.3718
  851MPD2     H12502   1.677   0.514  15.500  1.2141 -1.0942 -2.2354
  851MPD2    H112503   2.071   0.363  15.556 -0.3326  0.0955  0.6574
  851MPD2    H212504   1.999   0.780  15.607 -1.9372 -0.1204  1.3150
  851MPD2    H312505   2.154   0.581  15.613 -0.4566  2.8341 -0.4883
  851MPD2     N12506   1.809   0.302  15.500  0.0344  0.5696 -0.0464
  851MPD2    H512507   1.711   0.310  15.475 -0.0456  2.6781  0.9539
  851MPD2    N112508   1.745   0.776  15.548  0.2356  0.8699  0.1514
  851MPD2    H712509   1.796   0.864  15.544  0.7007  0.4875 -1.9238
  852MPD2     C12510   1.337   4.451   9.853  0.1286 -0.4762  1.5247
  852MPD2    C112511   1.357   4.573   9.921 -0.9039 -0.4132 -0.3249
  852MPD2    C212512   1.456   4.657   9.872  0.7225 -0.2552  0.5595
  852MPD2    C312513   1.533   4.624   9.759  0.0025  0.2254 -0.2757
  852MPD2    C412514   1.501   4.509   9.689  0.4488 -0.1414  0.5219
  852MPD2    C512515   1.403   4.422   9.734 -0.2977  0.2855 -1.2785
  852MPD2     H12516   1.490   0.019   9.926  1.4977  1.2086 -2.3263
  852MPD2    H112517   1.549   4.487   9.594  0.1041  1.5829 -0.0564
  852MPD2    H212518   1.265   4.380   9.893 -0.9498 -0.7662 -0.9618
  852MPD2    H312519   1.362   4.341   9.676  1.7028  0.2569 -2.6496
  852MPD2     N12520   1.626   4.715   9.711  0.1581 -0.3789 -0.0706
  852MPD2    H512521   1.625   0.075   9.766 -4.1621 -1.3184  1.2394
  852MPD2    N112522   1.287   4.617  10.031 -0.6190 -0.0699 -0.3718
  852MPD2    H712523   1.323   4.696  10.084  2.3819 -1.5256 -0.1981
  853MPD2     C12524   2.429   3.670  12.531  0.0650  0.2816  0.0897
  853MPD2    C112525   2.430   3.799  12.502  0.5257  0.2760  0.7467
  853MPD2    C212526   2.460   3.848  12.376 -0.8267  0.0701 -0.2722
  853MPD2    C312527   2.484   3.759  12.269 -0.5787 -0.3059 -0.3968
  853MPD2    C412528   2.492   3.627  12.303  0.9409 -0.5379  0.6161
  853MPD2    C512529   2.471   3.586  12.428 -0.3955 -0.1249  0.1173
  853MPD2     H12530   2.456   3.954  12.355  0.1095  0.3869  1.1061
  853MPD2    H112531   2.513   3.562  12.218 -1.3684 -1.0370  0.4397
  853MPD2    H212532   2.405   3.631  12.629 -2.8230 -2.2218 -1.6312
  853MPD2    H312533   2.467   3.478  12.441  0.1902 -0.2399 -0.6737
  853MPD2     N12534   2.500   3.798  12.129  0.5078 -0.3666  0.4374
  853MPD2    H512535   2.516   3.728  12.058  2.0145  1.4651 -1.0061
  853MPD2    N112536   2.380   3.888  12.599 -0.5414 -0.7023 -1.5679
  853MPD2    H712537   2.335   3.844  12.678  0.1295  2.4315  0.5891
  854MPD2     C12538   0.205   4.252  12.584 -0.8760 -0.3051 -0.0057
  854MPD2    C112539   0.105   4.166  12.537 -0.2321  0.1090 -0.1946
  854MPD2    C212540   0.127   4.028  12.553 -0.1853 -0.2445  0.1387
  854MPD2    C312541   0.233   3.986  12.632 -0.0632 -0.1733 -0.8027
  854MPD2    C412542   0.316   4.077  12.680  0.0442  0.3165  0.4675
  854MPD2    C512543   0.312   4.209  12.661  0.0988  0.5032  0.0385
  854MPD2     H12544   0.060   3.954  12.510 -0.5839  0.8295 -1.0879
  854MPD2    H112545   0.406   4.044  12.731  0.3131  1.0680  0.4856
  854MPD2    H212546   0.201   4.359  12.565  0.4050 -0.2863 -0.1383
  854MPD2    H312547   0.386   4.279  12.698  0.2120  0.9223 -0.9890
  854MPD2     N12548   0.256   3.850  12.669 -0.0386  0.0826 -0.3752
  854MPD2    H512549   0.338   3.837  12.726  0.0754 -0.3598 -0.6376
  854MPD2    N112550   4.715   4.221  12.476  0.8099  0.2501  0.0744
  854MPD2    H712551   4.710   4.322  12.472 -1.2883  0.1092 -0.8124
  855MPD2     C12552   0.647   3.777  13.351  0.1807  0.2191  0.5625
  855MPD2    C112553   0.574   3.660  13.351 -0.4200 -0.1085 -0.5298
  855MPD2    C212554   0.533   3.607  13.222  0.0912  0.2697 -0.2005
  855MPD2    C312555   0.548   3.681  13.105 -0.1500 -0.2396  0.1445
  855MPD2    C412556   0.611   3.802  13.113  0.8409 -0.0823 -0.1168
  855MPD2    C512557   0.664   3.841  13.231 -0.6193  0.0397 -0.1033
  855MPD2     H12558   0.481   3.513  13.224  2.9253 -1.2192  2.7249
  855MPD2    H112559   0.618   3.871  13.030  0.7178 -1.6288 -1.4197
  855MPD2    H212560   0.690   3.823  13.440  1.6120  1.5553 -0.8138
  855MPD2    H312561   0.716   3.936  13.231 -1.4145  0.4823 -1.0693
  855MPD2     N12562   0.508   3.637  12.973 -0.7354 -0.1208  0.2505
  855MPD2    H512563   0.527   3.705  12.900 -0.6734 -0.2274  0.1668
  855MPD2    N112564   0.535   3.595  13.471 -0.5550  0.1249  0.2627
  855MPD2    H712565   0.473   3.515  13.461  0.2870 -0.3494 -1.2565
  856MPD2     C12566   2.360   0.112  13.708  0.5770  0.0309 -0.5037
  856MPD2    C112567   2.434   0.220  13.752  0.0603 -0.0168  0.8859
  856MPD2    C212568   2.389   0.350  13.727  0.1861 -0.0113  0.4036
  856MPD2    C312569   2.259   0.369  13.678  0.0767 -0.5267 -0.4660
  856MPD2    C412570   2.199   0.266  13.609 -0.0517  0.1116 -0.7010
  856MPD2    C512571   2.244   0.142  13.632  0.0560  0.1402  0.0372
  856MPD2     H12572   2.457   0.428  13.760 -0.1369  1.0349 -1.4459
  856MPD2    H112573   2.109   0.286  13.553  1.6450  0.1949 -3.3905
  856MPD2    H212574   2.399   0.011  13.707  0.7508  0.0965 -0.3938
  856MPD2    H312575   2.189   0.058  13.593  0.8427 -0.3848  0.0473
  856MPD2     N12576   2.196   0.495  13.675 -0.2991  0.0996  0.2073
  856MPD2    H512577   2.122   0.504  13.606 -0.8311 -1.6399  0.5629
  856MPD2    N112578   2.561   0.207  13.814  0.0166 -0.2294 -0.2696
  856MPD2    H712579   2.619   0.290  13.813 -1.2320  0.6700  2.9032
  857MPD2     C12580   3.895   2.011  12.595 -0.4559  0.2506 -0.2764
  857MPD2    C112581   4.022   1.979  12.636  0.1021  0.3082 -1.1696
  857MPD2    C212582   4.091   2.079  12.699 -0.2760 -0.4039 -0.0974
  857MPD2    C312583   4.040   2.209  12.709 -0.5060 -0.5433 -0.0338
  857MPD2    C412584   3.910   2.236  12.670  0.6735 -0.7108 -0.6394
  857MPD2    C512585   3.837   2.131  12.625 -0.2000 -0.1951 -0.1482
  857MPD2     H12586   4.193   2.060  12.731  0.4416 -0.8643 -2.6339
  857MPD2    H112587   3.860   2.330  12.688  0.7783 -0.6379 -0.7316
  857MPD2    H212588   3.834   1.939  12.541 -2.6106  1.4952  0.5261
  857MPD2    H312589   3.736   2.156  12.595 -1.4382 -3.2614  1.4927
  857MPD2     N12590   4.123   2.320  12.757 -0.1417  0.7021 -0.3486
  857MPD2    H512591   4.220   2.297  12.778 -0.3100  0.4728  0.1838
  857MPD2    N112592   4.060   1.846  12.633  0.2116 -0.6679 -0.5921
  857MPD2    H712593   3.989   1.778  12.608  0.3349 -1.1716  0.4021
  858MPD2     C12594   4.457   1.104  16.474  0.3407 -0.0841  0.3363
  858MPD2    C112595   4.593   1.114  16.500 -0.6113 -0.3161  0.4570
  858MPD2    C212596   4.653   1.234  16.541  0.1143  0.9527 -0.2488
  858MPD2    C312597   4.576   1.345  16.564 -0.1473 -0.3342 -0.8901
  858MPD2    C412598   4.438   1.331  16.541 -0.1819  0.1849 -0.4127
  858MPD2    C512599   4.380   1.218  16.493  0.1716  0.0444  0.1472
  858MPD2     H12600   0.036   1.246  16.541  0.2140  0.0386 -0.4554
  858MPD2    H112601   4.366   1.411  16.558 -0.4895 -0.6256  2.0455
  858MPD2    H212602   4.405   1.015  16.442 -0.3013 -0.3109  1.9791
  858MPD2    H312603   4.274   1.205  16.473  0.1942  1.4936 -0.8699
  858MPD2     N12604   4.630   1.468  16.622  0.1742  0.2323 -0.6055
  858MPD2    H512605   4.566   1.541  16.650 -1.4669 -1.5245  0.2544
  858MPD2    N112606   4.666   0.998  16.490 -0.1316 -0.2180 -0.4052
  858MPD2    H712607   4.604   0.919  16.484  1.8968 -1.8166 -0.2898
  859MPD2     C12608   3.339   3.549  14.679  0.6007 -0.3078 -0.4160
  859MPD2    C112609   3.462   3.525  14.744  0.3410 -0.5044 -0.2968
  859MPD2    C212610   3.529   3.400  14.746  0.4390  0.5641  0.6931
  859MPD2    C312611   3.458   3.293  14.691  0.1907 -0.4649 -0.1455
  859MPD2    C412612   3.344   3.320  14.624 -0.4436 -0.0052 -0.4966
  859MPD2    C512613   3.286   3.443  14.611 -0.6425  0.0802  0.4333
  859MPD2     H12614   3.627   3.392  14.792  0.3125 -0.1655  0.8231
  859MPD2    H112615   3.297   3.239  14.569  0.6472 -0.2781 -1.0322
  859MPD2    H212616   3.286   3.643  14.674  1.4069  0.1967  0.3470
  859MPD2    H312617   3.189   3.450  14.562 -0.4919  2.0782  0.3842
  859MPD2     N12618   3.497   3.155  14.681 -0.2810  0.6171 -0.3666
  859MPD2    H512619   3.436   3.091  14.631  0.6910 -2.0669  1.8998
  859MPD2    N112620   3.519   3.640  14.797 -0.0432 -0.1797  0.0286
  859MPD2    H712621   3.464   3.725  14.792 -0.5973 -0.5609 -0.2660
  860MPD2     C12622   1.310   3.848  11.306  0.0799 -0.1483 -0.7254
  860MPD2    C112623   1.284   3.924  11.423  0.3546  0.4905 -0.6608
  860MPD2    C212624   1.165   3.895  11.496  0.5563 -0.6534  0.6494
  860MPD2    C312625   1.074   3.801  11.455  0.5706  0.1235  0.2544
  860MPD2    C412626   1.098   3.731  11.334  0.0070 -0.6050  0.2931
  860MPD2    C512627   1.210   3.761  11.264 -0.2220 -0.5913 -0.0312
  860MPD2     H12628   1.153   3.947  11.590  0.6446 -0.4921  0.5720
  860MPD2    H112629   1.030   3.653  11.301 -2.3074  0.0058  3.6388
  860MPD2    H212630   1.397   3.855  11.242  0.1549  0.4502 -0.5598
  860MPD2    H312631   1.229   3.715  11.168 -1.8107  1.8927 -1.5219
  860MPD2     N12632   0.965   3.774  11.539 -0.4550  0.0149 -0.7348
  860MPD2    H512633   0.956   3.830  11.624  1.5064  0.7945 -1.0267
  860MPD2    N112634   1.367   4.018  11.485  0.1790 -0.2610 -0.5987
  860MPD2    H712635   1.344   4.061  11.574 -0.1810  1.6431 -1.6174
  861MPD2     C12636   4.687   1.992  11.127  0.2835  0.7619 -0.8224
  861MPD2    C112637   4.615   2.105  11.171 -0.3653 -0.0039  0.7175
  861MPD2    C212638   4.508   2.151  11.096 -0.4346 -0.3073 -0.3263
  861MPD2    C312639   4.458   2.087  10.988  0.6187 -0.5798  0.0622
  861MPD2    C412640   4.524   1.974  10.948 -0.4842 -0.5397  0.4532
  861MPD2    C512641   4.628   1.930  11.021  0.1672 -0.3000  0.5501
  861MPD2     H12642   4.467   2.247  11.125  0.9406  0.7572 -1.8927
  861MPD2    H112643   4.474   1.917  10.871  1.9205  0.1971 -1.6403
  861MPD2    H212644   0.048   1.944  11.171  1.6380 -0.1370 -4.4700
  861MPD2    H312645   4.668   1.834  10.990  1.6695  1.3947 -2.7988
  861MPD2     N12646   4.348   2.128  10.919 -0.1430 -0.7627  0.0875
  861MPD2    H512647   4.323   2.075  10.837  1.0187 -2.1662  0.6278
  861MPD2    N112648   4.662   2.170  11.286 -0.4141 -0.1706  0.1072
  861MPD2    H712649   4.614   2.257  11.308  2.2301  1.5494 -0.9486
  862MPD2     C12650   4.271   2.131  10.176  0.4477 -0.0335  0.5625
  862MPD2    C112651   4.253   2.080  10.305 -0.0429  0.0800  0.0455
  862MPD2    C212652   4.231   1.945  10.310  0.5641 -0.3742 -0.2245
  862MPD2    C312653   4.238   1.861  10.207 -0.1338 -0.0382 -0.3676
  862MPD2    C412654   4.240   1.914  10.079  0.2151 -0.0266 -0.2171
  862MPD2    C512655   4.269   2.046  10.065 -0.1533  0.9384 -0.5610
  862MPD2     H12656   4.209   1.908  10.409  0.2372  0.5488  0.0514
  862MPD2    H112657   4.230   1.849   9.993 -0.4132 -0.6160  0.3045
  862MPD2    H212658   4.285   2.237  10.158  1.6056 -0.3945 -0.6361
  862MPD2    H312659   4.284   2.080   9.963  1.0569  0.2912 -0.5918
  862MPD2     N12660   4.240   1.721  10.223  0.5240 -0.1308 -0.0181
  862MPD2    H512661   4.253   1.667  10.138 -2.8193  1.0508 -1.2847
  862MPD2    N112662   4.241   2.150  10.433  0.2436 -0.4158 -0.1917
  862MPD2    H712663   4.224   2.099  10.520  0.4645 -1.2838 -0.6554
  863MPD2     C12664   2.698   0.253  16.222  0.4197  0.4230  0.4891
  863MPD2    C112665   2.783   0.358  16.226  0.0803  0.4537 -0.0239
  863MPD2    C212666   2.921   0.332  16.232 -0.2154 -0.0937  0.2180
  863MPD2    C312667   2.964   0.198  16.252  0.0662 -0.3234  0.0983
  863MPD2    C412668   2.875   0.096  16.256  0.1221  0.1227 -0.2678
  863MPD2    C512669   2.741   0.128  16.237  0.0450  0.2959  0.2277
  863MPD2     H12670   2.995   0.410  16.220  1.3865 -1.3993  1.4490
  863MPD2    H112671   2.901   4.718  16.275  0.2612  0.4717  1.4935
  863MPD2    H212672   2.591   0.271  16.227  0.4504  0.7003  0.0345
  863MPD2    H312673   2.669   0.047  16.244 -1.6636  1.7800 -0.1728
  863MPD2     N12674   3.097   0.169  16.285 -0.3527 -0.3452  0.9999
  863MPD2    H512675   3.117   0.071  16.307  0.3996 -0.1894  0.9820
  863MPD2    N112676   2.726   0.485  16.194 -0.2626 -0.1112  0.2592
  863MPD2    H712677   2.626   0.484  16.176  0.1542  0.7510 -2.1735
  864MPD2     C12678   3.073   1.303  17.086 -0.5095 -0.9005 -0.4661
  864MPD2    C112679   3.109   1.241  16.970 -0.1128  0.6187  0.2994
  864MPD2    C212680   3.159   1.315  16.862  0.7128  0.7094 -0.4571
  864MPD2    C312681   3.159   1.455  16.868  0.4318 -0.4348 -0.1605
  864MPD2    C412682   3.093   1.517  16.970  0.5148  0.0242  0.3788
  864MPD2    C512683   3.051   1.438  17.076  0.6672  0.0943  0.7599
  864MPD2     H12684   3.204   1.263  16.778  3.4295 -0.3192  1.6474
  864MPD2    H112685   3.087   1.625  16.978 -1.6092 -0.0996  0.4684
  864MPD2    H212686   3.042   1.254  17.178 -2.5556 -0.7763 -1.1019
  864MPD2    H312687   3.022   1.487  17.169  0.5141  2.5601 -0.5903
  864MPD2     N12688   3.209   1.535  16.763 -0.7176  0.0754 -0.4495
  864MPD2    H512689   3.217   1.634  16.783 -5.4021 -0.5591  4.5871
  864MPD2    N112690   3.118   1.103  16.971 -0.8078 -0.8133  0.1433
  864MPD2    H712691   3.122   1.056  17.060 -1.0776 -0.4941  0.3243
  865MPD2     C12692   3.600   1.866  16.039 -0.4462 -0.0165 -0.5379
  865MPD2    C112693   3.547   1.777  16.132  0.3016 -0.0665  0.3412
  865MPD2    C212694   3.472   1.811  16.245  0.5483  0.1521  0.0380
  865MPD2    C312695   3.475   1.946  16.289  0.1042 -0.1258  0.5780
  865MPD2    C412696   3.545   2.031  16.197  0.1422 -0.4404 -0.0212
  865MPD2    C512697   3.599   2.000  16.077  0.8569 -0.0714  0.0457
  865MPD2     H12698   3.422   1.732  16.300  4.1390 -1.2426  1.2521
  865MPD2    H112699   3.531   2.137  16.215  2.4469  0.1494 -1.8364
  865MPD2    H212700   3.647   1.840  15.945  1.2049  1.1756 -0.0506
  865MPD2    H312701   3.633   2.086  16.021  1.9674  0.6250  1.7842
  865MPD2     N12702   3.418   1.996  16.414 -0.0368  0.3739  0.1773
  865MPD2    H512703   3.404   2.096  16.410  1.9722  0.6568  0.1268
  865MPD2    N112704   3.561   1.645  16.080  0.0067  0.6166 -0.0372
  865MPD2    H712705   3.596   1.630  15.986 -1.8381 -0.9868 -0.4724
  866MPD2     C12706   0.456   2.755  11.453  0.8205  0.0768  0.2567
  866MPD2    C112707   0.438   2.640  11.383 -0.5053  0.3649 -0.4856
  866MPD2    C212708   0.312   2.623  11.323 -0.5040  0.1024  0.5364
  866MPD2    C312709   0.206   2.711  11.341 -0.1391 -0.7891 -0.0034
  866MPD2    C412710   0.224   2.815  11.427  0.1270  0.9516 -0.1290
  866MPD2    C512711   0.347   2.833  11.477  0.5403 -0.2232  0.2164
  866MPD2     H12712   0.304   2.542  11.252 -1.5867 -0.6877  1.5450
  866MPD2    H112713   0.154   2.896  11.442  2.5086  2.8625  0.6684
  866MPD2    H212714   0.550   2.781  11.500 -0.1433  2.3916  0.9028
  866MPD2    H312715   0.360   2.927  11.529  1.8424 -1.2438  1.7480
  866MPD2     N12716   0.083   2.694  11.281 -0.2499 -0.1478 -0.0397
  866MPD2    H512717   0.011   2.761  11.306  1.0127  1.3423 -0.4009
  866MPD2    N112718   0.556   2.565  11.361  0.6960 -0.2345 -0.1535
  866MPD2    H712719   0.647   2.608  11.377  1.0729 -0.7772 -0.8443
  867MPD2     C12720   2.042   1.726  15.676  0.0977 -0.0061 -0.1443
  867MPD2    C112721   2.081   1.628  15.764 -0.2315  0.1961 -0.2717
  867MPD2    C212722   2.060   1.647  15.903  0.2193 -0.0326  0.1916
  867MPD2    C312723   1.993   1.762  15.947  0.1131 -0.5604  0.5349
  867MPD2    C412724   1.944   1.852  15.856 -0.2650 -0.9045  0.0914
  867MPD2    C512725   1.968   1.836  15.719  0.5920 -0.0311  0.7187
  867MPD2     H12726   2.096   1.580  15.980  3.9723 -1.2477 -2.5970
  867MPD2    H112727   1.886   1.940  15.883  0.6331 -0.5543  0.8705
  867MPD2    H212728   2.060   1.721  15.569 -1.3283 -2.5512 -0.2735
  867MPD2    H312729   1.930   1.904  15.644  0.1933 -1.7836 -0.6558
  867MPD2     N12730   1.974   1.789  16.087 -0.2049 -0.0346 -0.6500
  867MPD2    H512731   1.933   1.879  16.110 -0.0162 -0.2812  0.6608
  867MPD2    N112732   2.136   1.512  15.708  0.0961  0.4109 -0.5071
  867MPD2    H712733   2.134   1.502  15.607  1.5847 -0.5331 -0.4463
  868MPD2     C12734   4.677   4.626  13.038  0.1359 -0.1955 -0.5694
  868MPD2    C112735   4.639   0.021  12.977  0.6530  0.3638  0.1550
  868MPD2    C212736   4.522   0.083  13.020  0.2454  0.4355 -0.9068
  868MPD2    C312737   4.440   0.029  13.111 -0.5428 -0.1763 -0.1482
  868MPD2    C412738   4.478   4.631  13.169 -0.2540  0.6603 -0.2235
  868MPD2    C512739   4.592   4.577  13.132  0.8469 -0.3447  0.4084
  868MPD2     H12740   4.496   0.181  12.982 -2.2031 -1.5086 -4.3021
  868MPD2    H112741   4.426   4.580  13.249  0.2336  0.4876 -0.0167
  868MPD2    H212742   0.034   4.568  12.998 -0.6867 -0.6302 -1.6391
  868MPD2    H312743   4.620   4.486  13.184  0.9553 -0.4887  0.0975
  868MPD2     N12744   4.318   0.085  13.148 -0.1036 -0.3202  0.2594
  868MPD2    H512745   4.294   0.176  13.110 -1.1516 -1.4694 -1.8772
  868MPD2    N112746   4.723   0.071  12.873  0.3946 -0.3472  0.3686
  868MPD2    H712747   0.071   0.013  12.833 -0.8230 -2.0560  0.6120
  869MPD2     C12748   0.872   4.413   0.957  0.6385  0.0234  0.3385
  869MPD2    C112749   0.846   4.281   0.924 -0.0698  0.1983  0.4349
  869MPD2    C212750   0.724   4.241   0.879  0.4695  0.6514 -0.8339
  869MPD2    C312751   0.620   4.336   0.882  0.3293 -0.3115 -0.1214
  869MPD2    C412752   0.647   4.471   0.903 -0.1996 -0.0452 -0.7797
  869MPD2    C512753   0.775   4.506   0.935  0.4737 -0.2122 -0.5065
  869MPD2     H12754   0.690   4.143   0.848  1.1799  0.1757 -0.1205
  869MPD2    H112755   0.572   4.547   0.882  1.8173  2.4908  1.2180
  869MPD2    H212756   0.977   4.436   0.970  0.6969  0.7443 -1.3362
  869MPD2    H312757   0.811   4.607   0.923 -0.0432  0.0053 -0.1798
  869MPD2     N12758   0.487   4.306   0.855  0.2461  0.2030  0.3606
  869MPD2    H512759   0.427   4.385   0.876 -0.2536 -0.1659  0.3177
  869MPD2    N112760   0.954   4.191   0.944  0.4812  0.2543 -0.2112
  869MPD2    H712761   1.046   4.222   0.973  1.2746 -0.0119 -2.4758
  870MPD2     C12762   4.682   1.724   1.591 -0.9339  0.4473 -0.4429
  870MPD2    C112763   0.053   1.766   1.496  0.8784  0.2420  0.5083
  870MPD2    C212764   0.039   1.892   1.455  0.1074 -0.1837  0.5015
  870MPD2    C312765   4.664   1.977   1.504 -0.5299  0.6196  0.6569
  870MPD2    C412766   4.584   1.942   1.604  0.1075  0.7231  0.0762
  870MPD2    C512767   4.594   1.809   1.644  0.1868  0.4917  0.1441
  870MPD2     H12768   0.112   1.944   1.394  1.2957 -2.1464  0.2486
  870MPD2    H112769   4.508   1.996   1.661 -0.5529  0.2591 -0.3725
  870MPD2    H212770   4.679   1.623   1.630 -4.3252 -0.1106 -2.1363
  870MPD2    H312771   4.525   1.777   1.721  0.6540 -3.2508 -0.9441
  870MPD2     N12772   4.660   2.112   1.450  0.0448  0.6995  0.4962
  870MPD2    H512773   4.719   2.136   1.372 -1.5622  0.2451 -0.8660
  870MPD2    N112774   0.140   1.662   1.441  0.4338  0.2779 -0.8016
  870MPD2    H712775   0.141   1.567   1.477  1.2889  0.8884  0.7584
  871MPD2     C12776   1.285   1.672  16.223  0.1771  0.1717  0.3238
  871MPD2    C112777   1.207   1.652  16.334  0.5209 -0.0565  0.0696
  871MPD2    C212778   1.161   1.525  16.366  0.2067 -0.4010 -0.1058
  871MPD2    C312779   1.171   1.422  16.271  0.3863 -0.1214 -0.2355
  871MPD2    C412780   1.245   1.445  16.159  0.3813  0.1865  0.1029
  871MPD2    C512781   1.297   1.567  16.132 -0.6927  0.2589  0.2323
  871MPD2     H12782   1.115   1.504  16.463 -1.6592  2.3395 -0.3949
  871MPD2    H112783   1.240   1.368  16.083 -0.9459 -0.0394  0.4174
  871MPD2    H212784   1.324   1.769  16.196 -0.2079  0.1679 -0.2508
  871MPD2    H312785   1.350   1.583  16.039 -2.7475  0.5598 -0.9022
  871MPD2     N12786   1.119   1.290  16.283 -0.2023  0.2312 -0.3189
  871MPD2    H512787   1.157   1.221  16.219  1.6428  1.3244 -0.3852
  871MPD2    N112788   1.188   1.765  16.414 -0.0051 -0.5016 -0.3089
  871MPD2    H712789   1.227   1.853  16.382 -1.8515  1.1982  2.0573
  872MPD2     C12790   2.626   4.025  14.421  0.8728 -0.1597 -0.4599
  872MPD2    C112791   2.593   4.067  14.296  0.5314  0.5906  0.2081
  872MPD2    C212792   2.457   4.067  14.253 -0.7683 -0.0278 -0.1882
  872MPD2    C312793   2.355   4.050  14.346  0.0474  0.1861 -0.1882
  872MPD2    C412794   2.389   4.021  14.477 -0.0318  0.7116  0.1470
  872MPD2    C512795   2.522   4.000  14.512  0.2568 -0.1986  0.3798
  872MPD2     H12796   2.441   4.083  14.147 -2.0396  1.8952  0.2912
  872MPD2    H112797   2.307   3.990  14.541  0.4939 -0.3372  0.3133
  872MPD2    H212798   2.728   4.036  14.457  0.3574  0.2683  0.8699
  872MPD2    H312799   2.554   3.962  14.609 -1.2824 -0.5330  0.7576
  872MPD2     N12800   2.218   4.044  14.312  0.6418 -0.3720 -0.0305
  872MPD2    H512801   2.154   4.010  14.383 -0.1191  1.1040 -0.0149
  872MPD2    N112802   2.685   4.091  14.187 -0.1335  0.0362  0.0030
  872MPD2    H712803   2.645   4.125  14.100  0.6894  1.3169  0.1313
  873MPD2     C12804   3.988   4.449   0.766  1.0633 -0.6094  0.7703
  873MPD2    C112805   3.873   4.384   0.813  0.1979  0.6725 -0.6775
  873MPD2    C212806   3.855   4.249   0.805  0.4330 -0.5278 -0.1302
  873MPD2    C312807   3.959   4.172   0.753 -0.5442 -0.0143 -0.2621
  873MPD2    C412808   4.069   4.241   0.698  0.6535 -0.5822  0.6985
  873MPD2    C512809   4.083   4.374   0.716  0.5537  0.1022  0.6801
  873MPD2     H12810   3.766   4.205   0.849 -2.2108  2.3852 -2.5349
  873MPD2    H112811   4.149   4.182   0.655  0.2409  0.3277 -1.3171
  873MPD2    H212812   3.997   4.557   0.767  0.2762 -0.5683  3.8435
  873MPD2    H312813   4.171   4.422   0.674 -2.1601  0.8197 -4.1644
  873MPD2     N12814   3.966   4.029   0.738 -0.4334  0.3465 -0.2739
  873MPD2    H512815   4.036   4.003   0.669 -1.0652 -2.2610  0.0761
  873MPD2    N112816   3.768   4.473   0.844 -0.3240  0.2289  0.6842
  873MPD2    H712817   3.799   4.569   0.852 -1.6195  0.7134 -0.0447
  874MPD2     C12818   3.786   4.083  16.196  0.2551  0.1895  0.2421
  874MPD2    C112819   3.822   4.102  16.326  0.4125  0.6456  0.4926
  874MPD2    C212820   3.871   4.227  16.357  0.2204 -1.3216  0.0125
  874MPD2    C312821   3.904   4.319  16.257 -0.4562  0.5222 -0.0631
  874MPD2    C412822   3.877   4.298  16.126  0.0248  0.0775  0.5548
  874MPD2    C512823   3.829   4.172  16.096 -0.5108 -0.1666 -0.4992
  874MPD2     H12824   3.898   4.249  16.460  0.3711  0.7121 -0.4495
  874MPD2    H112825   3.901   4.368  16.047 -0.7678 -0.4011 -0.1171
  874MPD2    H212826   3.726   3.999  16.165  3.3073 -1.8697 -0.0719
  874MPD2    H312827   3.797   4.146  15.996 -0.7752 -1.8473  0.0220
  874MPD2     N12828   3.987   4.431  16.299  0.2518  0.0501 -0.3055
  874MPD2    H512829   4.002   4.438  16.399  0.7373  2.3712 -0.5291
  874MPD2    N112830   3.788   4.005  16.424  0.5534 -0.6994  0.3908
  874MPD2    H712831   3.747   3.919  16.390  0.2084 -1.1772  2.0323
  875MPD2     C12832   0.130   2.399  14.391  0.4751 -0.4230 -0.5160
  875MPD2    C112833   0.008   2.394  14.465 -0.5999 -0.3334 -0.2144
  875MPD2    C212834   4.723   2.451  14.590  0.2516  0.5974 -0.3222
  875MPD2    C312835   0.102   2.505  14.651  1.2934 -0.3938  0.5369
  875MPD2    C412836   0.222   2.491  14.582 -0.1087  0.1054  0.4522
  875MPD2    C512837   0.233   2.452  14.450 -0.1292 -0.2735 -0.2397
  875MPD2     H12838   4.622   2.454  14.629  0.6552 -1.3524  0.8729
  875MPD2    H112839   0.314   2.534  14.620  0.1862 -1.3834  1.4178
  875MPD2    H212840   0.134   2.360  14.290 -1.5840 -3.2902  0.5096
  875MPD2    H312841   0.330   2.453  14.402  0.2570  2.0849  0.5939
  875MPD2     N12842   0.096   2.541  14.784  0.0620 -0.0284  0.0200
  875MPD2    H512843   0.179   2.573  14.833  0.2324 -2.3320  1.2429
  875MPD2    N112844   4.605   2.375  14.408  0.7015 -0.0233  0.5318
  875MPD2    H712845   4.521   2.384  14.464  0.4257 -0.5097  0.1936
  876MPD2     C12846   3.908   3.904  15.905  0.1230 -0.1458  0.3429
  876MPD2    C112847   4.037   3.861  15.871 -0.8591 -0.3481  0.2297
  876MPD2    C212848   4.063   3.725  15.888 -0.2220  0.2037 -0.4108
  876MPD2    C312849   3.970   3.637  15.946 -0.2068 -0.5883  0.4037
  876MPD2    C412850   3.845   3.684  15.990 -0.3016 -0.4811  0.3655
  876MPD2    C512851   3.820   3.818  15.964 -0.1951  0.1213  1.1750
  876MPD2     H12852   4.155   3.684  15.848 -0.9597 -1.6306 -0.2318
  876MPD2    H112853   3.766   3.621  16.030  2.2182 -2.2796  2.5007
  876MPD2    H212854   3.861   4.000  15.890 -1.2572 -0.5517  2.0660
  876MPD2    H312855   3.722   3.853  15.993 -1.0580 -0.3634 -1.1274
  876MPD2     N12856   3.996   3.497  15.947  0.1615  0.1346  0.1125
  876MPD2    H512857   4.088   3.467  15.917 -0.7113 -2.0725 -0.3626
  876MPD2    N112858   4.129   3.952  15.803 -0.3373 -0.2962  0.0616
  876MPD2    H712859   4.102   4.041  15.761 -2.5026 -1.2051 -0.4784
  877MPD2     C12860   3.952   4.233  15.258 -0.5178  0.7471 -0.6488
  877MPD2    C112861   4.078   4.289  15.241  0.1875  0.0197  0.3456
  877MPD2    C212862   4.115   4.346  15.124 -0.1699  0.5407 -0.7766
  877MPD2    C312863   4.032   4.343  15.011  0.1232 -0.3258  0.3851
  877MPD2    C412864   3.918   4.275  15.023  0.0915 -0.4737 -0.4721
  877MPD2    C512865   3.878   4.229  15.150 -0.5945 -0.0345  0.0264
  877MPD2     H12866   4.208   4.402  15.125  0.4978 -0.5997 -0.1780
  877MPD2    H112867   3.854   4.269  14.935  1.5936  0.5236 -1.6288
  877MPD2    H212868   3.910   4.194  15.350  2.5974 -0.3610  0.3053
  877MPD2    H312869   3.778   4.189  15.160 -0.3847 -1.0853 -1.9904
  877MPD2     N12870   4.060   4.401  14.886  0.8903 -0.2192 -0.1404
  877MPD2    H512871   3.994   4.373  14.814  3.0512  3.3366 -3.5215
  877MPD2    N112872   4.167   4.297  15.356  0.2969  0.5870 -0.6201
  877MPD2    H712873   4.254   4.346  15.337 -0.4089  2.3092  0.6152
  878MPD2     C12874   2.830   3.287  13.184 -0.4824  0.7610  0.6752
  878MPD2    C112875   2.927   3.373  13.131  0.2583  0.4400 -0.0398
  878MPD2    C212876   3.039   3.396  13.209  0.0602 -0.0345 -0.6813
  878MPD2    C312877   3.064   3.321  13.333  0.2282 -0.2207 -0.2329
  878MPD2    C412878   2.963   3.240  13.378  0.0479 -0.7398 -0.5295
  878MPD2    C512879   2.845   3.240  13.312 -0.1378  0.3946 -0.2367
  878MPD2     H12880   3.115   3.463  13.169 -0.3452  0.0731 -1.2639
  878MPD2    H112881   2.960   3.210  13.482 -2.2061 -2.2611 -1.0554
  878MPD2    H212882   2.733   3.265  13.140  0.1660 -0.5819 -0.1046
  878MPD2    H312883   2.766   3.198  13.373  2.2838 -1.5877  1.5597
  878MPD2     N12884   3.175   3.354  13.411 -0.2328 -0.2181  0.1112
  878MPD2    H512885   3.223   3.440  13.388 -1.1440 -0.0693 -1.2137
  878MPD2    N112886   2.900   3.430  13.009  0.6251 -0.2667 -0.7467
  878MPD2    H712887   2.813   3.400  12.965 -0.4498 -2.6492  2.9196
  879MPD2     C12888   3.703   0.017  17.219 -0.3111  0.4771  0.1023
  879MPD2    C112889   3.726   4.609  17.226  0.2580 -0.3932 -0.3667
  879MPD2    C212890   3.690   4.525  17.120 -0.0506 -0.1311  0.8468
  879MPD2    C312891   3.640   4.578  17.003  0.2449  0.3405  0.3563
  879MPD2    C412892   3.619   4.721  16.999 -0.5445  0.1527 -0.9905
  879MPD2    C512893   3.651   0.078  17.103  0.2936  0.2073  0.0301
  879MPD2     H12894   3.705   4.418  17.133  0.4844 -0.0638  0.7816
  879MPD2    H112895   3.570   0.047  16.917 -2.6718  0.8210  0.6886
  879MPD2    H212896   3.717   0.079  17.307 -0.5744  0.3206  0.2530
  879MPD2    H312897   3.638   0.185  17.097 -1.5933 -0.0353 -0.1729
  879MPD2     N12898   3.605   4.505  16.887 -0.0994  0.5454  0.1060
  879MPD2    H512899   3.551   4.549  16.813  1.2175  3.1623  0.6814
  879MPD2    N112900   3.767   4.556  17.350  0.5090  0.0130  0.5517
  879MPD2    H712901   3.776   4.619  17.430  1.8970  0.1740  0.2663
  880MPD2     C12902   0.442   1.852   0.052  0.0850 -0.0527 -0.6167
  880MPD2    C112903   0.442   1.847   0.183 -0.4353 -0.5770  0.4637
  880MPD2    C212904   0.465   1.724   0.245  0.0420 -0.5450  0.5007
  880MPD2    C312905   0.516   1.614   0.165 -0.0395 -0.2686 -0.1230
  880MPD2    C412906   0.519   1.634   0.030 -0.2638 -0.9274  0.1963
  880MPD2    C512907   0.471   1.748  17.675  0.4529 -0.3031 -0.4047
  880MPD2     H12908   0.449   1.729   0.352  0.9285  1.3751  0.5363
  880MPD2    H112909   0.564   1.558  17.670 -2.1407 -1.8310 -0.0691
  880MPD2    H212910   0.430   1.948   0.003 -2.5266  0.1721  0.4658
  880MPD2    H312911   0.472   1.770  17.569 -2.2927  1.3031 -0.0962
  880MPD2     N12912   0.564   1.498   0.224  1.1307  0.6001 -0.3099
  880MPD2    H512913   0.579   1.498   0.324 -1.5468  2.0671  0.0789
  880MPD2    N112914   0.419   1.969   0.250  0.1958 -0.3859  0.2374
  880MPD2    H712915   0.388   2.046   0.192  1.7589 -0.1361 -0.2577
  881MPD2     C12916   0.557   2.833  17.645  0.0044  0.3006  0.0377
  881MPD2    C112917   0.527   2.714  17.586 -0.0953  0.4498 -0.6946
  881MPD2    C212918   0.470   2.611  17.659 -0.0265  0.6767  0.2039
  881MPD2    C312919   0.427   2.641   0.087  0.7313 -0.6342 -0.7172
  881MPD2    C412920   0.447   2.766   0.135 -0.9461  0.6208 -0.6800
  881MPD2    C512921   0.517   2.865   0.071 -0.1547 -0.4324 -0.0516
  881MPD2     H12922   0.451   2.511  17.621 -1.6456  0.4069  1.7153
  881MPD2    H112923   0.409   2.792   0.233 -0.7168 -1.7993  0.0295
  881MPD2    H212924   0.613   2.903  17.584 -0.1890  0.2799 -0.1612
  881MPD2    H312925   0.547   2.956   0.121 -1.2913 -0.9842  1.6387
  881MPD2     N12926   0.379   2.548   0.185  0.0958  0.3535  0.3875
  881MPD2    H512927   0.373   2.578   0.281 -0.4145  1.6591 -0.0586
  881MPD2    N112928   0.576   2.697  17.457 -0.3320  0.2250 -0.3851
  881MPD2    H712929   0.613   2.784  17.418 -0.8668 -0.6759 -2.8932
  882MPD2     C12930   3.936   4.167  14.249 -0.8892  0.4046  0.2746
  882MPD2    C112931   3.886   4.267  14.325  0.2238 -0.1669  0.0890
  882MPD2    C212932   3.747   4.254  14.350  0.2191  0.0557 -0.0681
  882MPD2    C312933   3.674   4.140  14.311 -0.3772  0.6724 -0.1867
  882MPD2    C412934   3.732   4.038  14.246  1.3617 -0.3140 -0.3633
  882MPD2    C512935   3.865   4.053  14.217 -0.1712 -0.2427  0.1478
  882MPD2     H12936   3.707   4.338  14.406  2.6224  0.3711  1.1914
  882MPD2    H112937   3.680   3.957  14.197 -0.2814  0.8790 -0.5730
  882MPD2    H212938   4.040   4.180  14.223 -0.9002 -1.3055 -0.6496
  882MPD2    H312939   3.905   3.967  14.165  3.9630  3.0069 -1.9593
  882MPD2     N12940   3.538   4.128  14.348  0.1106  1.1454  0.1777
  882MPD2    H512941   3.493   4.037  14.339 -0.0932  1.2196  0.4301
  882MPD2    N112942   3.968   4.382  14.361  0.1624 -0.9084 -0.0247
  882MPD2    H712943   4.064   4.372  14.329  0.2888  1.4527 -0.3846
  883MPD2     C12944   0.936   3.786  16.365 -0.3079 -0.6630 -0.6467
  883MPD2    C112945   1.017   3.834  16.264 -0.1619 -0.4480  0.1511
  883MPD2    C212946   1.143   3.876  16.282 -0.2124 -0.6754 -0.4903
  883MPD2    C312947   1.199   3.870  16.406 -0.1390  0.9977 -0.3028
  883MPD2    C412948   1.112   3.829  16.510 -0.2134  1.7007  0.4041
  883MPD2    C512949   0.991   3.781  16.492  0.6118 -0.4361  0.5605
  883MPD2     H12950   1.200   3.907  16.195  2.2447  2.2433  2.1629
  883MPD2    H112951   1.156   3.810  16.607 -1.0549  0.1693  0.4727
  883MPD2    H212952   0.832   3.756  16.363 -0.1745 -1.0436 -1.8229
  883MPD2    H312953   0.923   3.749  16.570  0.4771 -1.7828 -0.1140
  883MPD2     N12954   1.334   3.922  16.418 -0.7323  0.0500 -0.4498
  883MPD2    H512955   1.387   3.966  16.344  0.3159 -2.0749 -0.9625
  883MPD2    N112956   0.951   3.837  16.132  0.6968  0.0885 -0.3327
  883MPD2    H712957   1.002   3.881  16.056  1.2855  2.1227  1.2351
  884MPD2     C12958   2.776   4.637  15.136 -0.2274 -0.2366 -0.3616
  884MPD2    C112959   2.788   0.017  15.040 -0.3759  0.6246  0.1372
  884MPD2    C212960   2.681   0.097  15.011 -0.4354  0.1585 -0.3904
  884MPD2    C312961   2.554   0.079  15.071  0.4883 -0.0965 -0.6172
  884MPD2    C412962   2.545   4.703  15.160  0.2640 -0.3983 -0.4878
  884MPD2    C512963   2.649   4.621  15.190  0.1513 -0.0698 -0.2569
  884MPD2     H12964   2.696   0.169  14.931  2.0784  0.8721  0.7415
  884MPD2    H112965   2.453   4.688  15.214  1.1476 -0.6930  0.9418
  884MPD2    H212966   2.855   4.570  15.168  0.2579 -0.5545 -2.2669
  884MPD2    H312967   2.636   4.547  15.269 -0.0428  2.2831  1.9217
  884MPD2     N12968   2.442   0.158  15.048 -0.1432 -0.4021 -0.0906
  884MPD2    H512969   2.361   0.145  15.108  0.9006  1.2394  1.6694
  884MPD2    N112970   2.907   0.055  14.979  0.2423  0.4614 -0.5038
  884MPD2    H712971   2.887   0.137  14.923  0.5931 -0.7308 -2.3936
  885MPD2     C12972   0.955   0.197   0.127  0.3256  0.1757 -0.0330
  885MPD2    C112973   1.034   0.109   0.050  0.7571  0.5709 -0.3797
  885MPD2    C212974   1.029   0.119  17.611 -0.1507 -0.6169  0.1219
  885MPD2    C312975   0.956   0.214  17.548  0.5969  0.5109 -0.5035
  885MPD2    C412976   0.872   0.291  17.625  0.3846  0.5117  0.4532
  885MPD2    C512977   0.871   0.278   0.060 -0.3232  0.2069 -0.0041
  885MPD2     H12978   1.084   0.051  17.547  0.4019 -0.3375  0.3035
  885MPD2    H112979   0.799   0.356  17.578  1.4469  1.0585 -0.4520
  885MPD2    H212980   0.950   0.189   0.235  1.7083 -1.1127 -0.0684
  885MPD2    H312981   0.798   0.334   0.117 -0.1837 -0.9598  1.3326
  885MPD2     N12982   0.986   0.237  17.411  0.3793  0.1934 -0.5246
  885MPD2    H512983   1.053   0.182  17.360  0.4377  0.9875 -1.2989
  885MPD2    N112984   1.110   0.018   0.127 -0.5756  1.0397 -0.1891
  885MPD2    H712985   1.100   0.025   0.228 -0.3578  0.9439 -0.1606
  886MPD2     C12986   2.443   3.672  14.849  0.0732 -0.0602  0.1245
  886MPD2    C112987   2.550   3.689  14.933 -0.5073  0.0683  0.3580
  886MPD2    C212988   2.581   3.818  14.975 -0.0266 -0.2627  0.6234
  886MPD2    C312989   2.521   3.931  14.926  0.2524 -0.0247  0.3014
  886MPD2    C412990   2.422   3.907  14.834  0.0365  0.1019 -0.5379
  886MPD2    C512991   2.379   3.782  14.813 -0.5483 -0.0998 -0.3387
  886MPD2     H12992   2.667   3.835  15.038  1.2320  2.0303 -1.7368
  886MPD2    H112993   2.377   3.997  14.794 -1.4169  0.1468  1.1736
  886MPD2    H212994   2.396   3.579  14.821 -2.1680  1.3086 -0.7054
  886MPD2    H312995   2.297   3.757  14.746  0.1115 -2.1215 -0.3833
  886MPD2     N12996   2.553   4.061  14.967 -0.4201 -0.2517 -0.2908
  886MPD2    H512997   2.516   4.136  14.910  0.3409  0.1069 -0.3202
  886MPD2    N112998   2.637   3.586  14.975  0.4968  0.1591  0.0066
  886MPD2    H712999   2.706   3.610  15.045  0.8735  1.6535 -0.8525
  887MPD2     C13000   3.316   3.505  15.158  0.3463 -0.3744 -0.1112
  887MPD2    C113001   3.193   3.576  15.143  0.4137 -0.1531  0.0975
  887MPD2    C213002   3.196   3.711  15.133 -0.2603 -0.3715 -0.0738
  887MPD2    C313003   3.314   3.784  15.128 -0.1087 -0.4256  0.1603
  887MPD2    C413004   3.435   3.720  15.139  0.4694 -0.2159 -0.4020
  887MPD2    C513005   3.436   3.578  15.156  0.6799  0.0431  0.0195
  887MPD2     H13006   3.105   3.769  15.136  0.4153  0.5684  1.9244
  887MPD2    H113007   3.531   3.771  15.133 -0.0473  0.7384 -0.4934
  887MPD2    H213008   3.323   3.399  15.180 -2.3469 -0.5555 -0.1101
  887MPD2    H313009   3.528   3.522  15.169 -0.0648 -1.6526 -1.9604
  887MPD2     N13010   3.299   3.929  15.129  0.7058  0.5775 -0.1755
  887MPD2    H513011   3.202   3.961  15.133  0.2054 -0.9923  0.3662
  887MPD2    N113012   3.065   3.525  15.143 -0.8414 -0.0767  0.0433
  887MPD2    H713013   2.986   3.587  15.130 -0.2360  0.4780 -1.0116
  888MPD2     C13014   0.644   3.502  15.195  0.1480 -0.2465  0.3532
  888MPD2    C113015   0.510   3.545  15.197 -0.3745 -0.0754  0.1891
  888MPD2    C213016   0.475   3.653  15.117 -0.1051 -0.6189 -0.0043
  888MPD2    C313017   0.572   3.731  15.054 -0.5173  0.3814 -0.0354
  888MPD2    C413018   0.703   3.695  15.072  0.0049  0.2313 -0.5219
  888MPD2    C513019   0.738   3.579  15.134  0.7285  0.4671 -0.9481
  888MPD2     H13020   0.374   3.691  15.110  0.5125  0.9212 -0.5339
  888MPD2    H113021   0.789   3.747  15.031  0.7614 -0.9455 -0.4638
  888MPD2    H213022   0.679   3.424  15.262  0.2536  0.4883  1.1648
  888MPD2    H313023   0.845   3.564  15.136  0.6661  0.4696  2.8704
  888MPD2     N13024   0.534   3.850  14.982 -0.5063  0.3250 -0.0402
  888MPD2    H513025   0.435   3.870  14.966 -0.8270 -0.5576  0.8590
  888MPD2    N113026   0.409   3.463  15.258  0.2868  0.5591  0.4454
  888MPD2    H713027   0.312   3.487  15.244 -0.5143 -2.3550  1.0066
  889MPD2     C13028   4.327   3.157  12.601 -0.1725  0.6506 -0.3335
  889MPD2    C113029   4.354   3.123  12.735  0.1588 -0.4599 -0.3552
  889MPD2    C213030   4.343   3.218  12.827 -0.0022 -0.5282 -0.2194
  889MPD2    C313031   4.341   3.359  12.793 -0.5040  0.7904  0.4105
  889MPD2    C413032   4.334   3.392  12.656  0.7513  0.3939 -0.1962
  889MPD2    C513033   4.325   3.289  12.558 -0.3004  0.2205  0.5672
  889MPD2     H13034   4.345   3.190  12.932  0.7252  1.1014  0.2169
  889MPD2    H113035   4.347   3.490  12.612 -0.9820  1.6158  1.9663
  889MPD2    H213036   4.322   3.095  12.512 -0.9566 -1.5465  1.2557
  889MPD2    H313037   4.322   3.307  12.451  1.5526  1.5334  0.7405
  889MPD2     N13038   4.329   3.459  12.895  0.1370 -0.4904 -0.7382
  889MPD2    H513039   4.326   3.423  12.989  1.9969  1.4398  0.0513
  889MPD2    N113040   4.332   2.994  12.786 -0.7729  0.2324 -0.6591
  889MPD2    H713041   4.334   2.981  12.887 -3.7007  1.1880 -0.4613
  890MPD2     C13042   3.665   0.380  14.509  0.5160  0.3366  0.3155
  890MPD2    C113043   3.778   0.449  14.534  0.3992  0.0945 -0.2079
  890MPD2    C213044   3.868   0.393  14.617 -0.7099  0.2635  0.2532
  890MPD2    C313045   3.857   0.271  14.675 -0.3520  0.5793 -0.2150
  890MPD2    C413046   3.743   0.198  14.645 -0.0089  0.4972 -0.2392
  890MPD2    C513047   3.648   0.257  14.563 -0.3383 -0.7795  0.1885
  890MPD2     H13048   3.955   0.453  14.640 -0.3842  0.0747 -0.5072
  890MPD2    H113049   3.732   0.097  14.683 -1.5628  0.2100 -1.4352
  890MPD2    H213050   3.595   0.426  14.440  0.2536 -0.9212 -0.2524
  890MPD2    H313051   3.558   0.203  14.534 -0.3418  0.3907 -1.9952
  890MPD2     N13052   3.958   0.216  14.760 -0.1415 -0.2108 -0.3429
  890MPD2    H513053   3.935   0.142  14.825  0.4982 -0.6858 -0.6639
  890MPD2    N113054   3.800   0.574  14.472 -0.2277  0.1615  0.0407
  890MPD2    H713055   3.721   0.605  14.417  0.4722  0.9227 -0.5277
  891MPD2     C13056   1.699   2.941  16.633 -0.2843 -0.2039  0.2380
  891MPD2    C113057   1.732   3.074  16.622  0.1197 -0.1866 -0.1522
  891MPD2    C213058   1.858   3.113  16.675 -0.4539 -0.4712 -0.2131
  891MPD2    C313059   1.953   3.023  16.718 -0.0544  0.0843 -0.3567
  891MPD2    C413060   1.924   2.892  16.714  0.3101  0.3364  0.0738
  891MPD2    C513061   1.796   2.852  16.673  0.1898  0.0914  0.4298
  891MPD2     H13062   1.890   3.217  16.675 -1.1685 -0.2554 -0.4735
  891MPD2    H113063   1.995   2.819  16.751  0.2231  0.0399 -0.3505
  891MPD2    H213064   1.599   2.910  16.606  0.2090  1.1036 -3.0499
  891MPD2    H313065   1.781   2.745  16.668  1.7652 -0.0564 -1.3356
  891MPD2     N13066   2.073   3.073  16.781  0.6683 -0.0729  0.2561
  891MPD2    H513067   2.097   3.172  16.788  0.7430  0.0173 -1.1483
  891MPD2    N113068   1.633   3.162  16.581 -0.3874  0.0384 -0.2880
  891MPD2    H713069   1.540   3.123  16.566 -0.0676 -0.9464  0.2594
  892MPD2     C13070   2.932   0.166  14.563 -0.2265  0.0261 -0.6010
  892MPD2    C113071   2.855   0.052  14.588 -0.5309 -0.3392 -0.1262
  892MPD2    C213072   2.903   4.651  14.555 -0.3285 -0.2326 -0.5350
  892MPD2    C313073   3.022   4.642  14.485 -0.0528 -1.1069  0.2025
  892MPD2    C413074   3.085   0.033  14.450  0.3298 -0.2310 -0.4080
  892MPD2    C513075   3.043   0.153  14.486 -0.4300 -0.2750  0.4056
  892MPD2     H13076   2.842   4.565  14.582 -1.0005  0.7078  0.9336
  892MPD2    H113077   3.182   0.029  14.402  0.8962 -0.3522  0.7352
  892MPD2    H213078   2.898   0.266  14.585 -0.2304 -0.1679  0.2622
  892MPD2    H313079   3.100   0.241  14.460 -0.6241 -0.2790 -0.0194
  892MPD2     N13080   3.078   4.514  14.437  0.0363 -0.7281 -0.1226
  892MPD2    H513081   3.167   4.511  14.389 -0.9773  2.1362 -2.1883
  892MPD2    N113082   2.734   0.077  14.646  0.6069 -0.0221  0.0995
  892MPD2    H713083   2.683   0.162  14.623  0.0909  0.1349  1.8638
  893MPD2     C13084   0.162   3.797   1.591  0.6728  0.9165 -0.4537
  893MPD2    C113085   0.076   3.708   1.538  0.2090  0.3783  0.2609
  893MPD2    C213086   4.683   3.682   1.602 -0.1877  0.1873  0.6801
  893MPD2    C313087   4.649   3.745   1.717  0.2531 -0.3902  0.6128
  893MPD2    C413088   0.008   3.836   1.775  0.3100 -0.0444 -0.3993
  893MPD2    C513089   0.128   3.865   1.708  1.0455 -0.2253 -0.8512
  893MPD2     H13090   4.609   3.617   1.556 -0.6425  0.7086  0.6846
  893MPD2    H113091   4.713   3.885   1.869 -1.4284 -0.5767 -0.4889
  893MPD2    H213092   0.256   3.825   1.545  1.1579 -1.0500 -0.6438
  893MPD2    H313093   0.202   3.938   1.737 -0.5550  0.2208  2.0676
  893MPD2     N13094   4.520   3.731   1.773 -0.1151 -0.2690 -0.1325
  893MPD2    H513095   4.500   3.768   1.865 -1.5929 -1.0752 -0.1210
  893MPD2    N113096   0.124   3.630   1.433 -0.9265  0.3061 -0.1634
  893MPD2    H713097   0.220   3.652   1.406 -1.2066  2.2649  0.4453
  894MPD2     C13098   2.514   0.405   0.384  0.1792 -0.5052 -0.0555
  894MPD2    C113099   2.433   0.381   0.495  0.3240 -0.5487 -0.6933
  894MPD2    C213100   2.349   0.478   0.541  0.5587 -0.3968 -0.4403
  894MPD2    C313101   2.341   0.604   0.481 -0.1824  0.4398  0.5137
  894MPD2    C413102   2.430   0.632   0.379 -0.2308 -0.3622 -0.0845
  894MPD2    C513103   2.509   0.532   0.331 -0.8286  0.0756  0.7119
  894MPD2     H13104   2.279   0.446   0.617  1.3233  0.3174  0.5702
  894MPD2    H113105   2.435   0.735   0.345 -1.4742 -0.0045  0.8030
  894MPD2    H213106   2.591   0.331   0.366  0.3604 -0.2619 -0.2762
  894MPD2    H313107   2.582   0.557   0.255 -1.0672 -1.2299  0.0595
  894MPD2     N13108   2.264   0.699   0.546 -0.0074  0.5969  0.4189
  894MPD2    H513109   2.227   0.674   0.638 -1.4755 -0.0376 -0.3489
  894MPD2    N113110   2.438   0.266   0.575  0.0973  0.4101 -0.2963
  894MPD2    H713111   2.376   0.267   0.655  1.9334  0.7357  1.1351
  895MPD2     C13112   1.663   3.740  13.375 -0.1157 -0.0519  0.4363
  895MPD2    C113113   1.588   3.654  13.299 -1.3640 -0.2331 -0.3894
  895MPD2    C213114   1.631   3.527  13.290  0.4178  0.7674 -0.5493
  895MPD2    C313115   1.750   3.482  13.343 -0.0928 -0.4377  0.0436
  895MPD2    C413116   1.830   3.573  13.408 -0.3094 -0.4612 -0.3256
  895MPD2    C513117   1.783   3.695  13.423 -0.4942  0.3238 -0.2295
  895MPD2     H13118   1.578   3.458  13.226 -2.3764  0.0065  2.5716
  895MPD2    H113119   1.928   3.562  13.452 -0.1461  3.0725  0.2020
  895MPD2    H213120   1.636   3.844  13.390 -1.4003 -0.3684  0.2969
  895MPD2    H313121   1.838   3.763  13.487  0.8445 -0.4023 -0.6178
  895MPD2     N13122   1.784   3.348  13.342  0.0699 -0.5370  0.6148
  895MPD2    H513123   1.724   3.288  13.286  0.6141 -2.2415  1.8672
  895MPD2    N113124   1.475   3.698  13.232  0.2250  0.2204 -0.1884
  895MPD2    H713125   1.413   3.631  13.188 -1.2489  1.8211 -0.5630
  896MPD2     C13126   4.065   1.901   0.774 -0.7201  0.9227  0.6547
  896MPD2    C113127   4.042   1.793   0.699 -0.0818 -0.1279  0.0349
  896MPD2    C213128   3.925   1.725   0.704 -0.0027 -0.0637 -0.1380
  896MPD2    C313129   3.829   1.766   0.796 -0.0236  0.1073  0.5096
  896MPD2    C413130   3.856   1.863   0.892  0.0334 -0.6302 -0.1639
  896MPD2    C513131   3.969   1.939   0.875  0.0075 -0.3639  0.1416
  896MPD2     H13132   3.906   1.649   0.630  1.8019 -0.5383 -0.1248
  896MPD2    H113133   3.782   1.893   0.965  0.8195  2.1841 -0.5147
  896MPD2    H213134   4.167   1.936   0.773  0.1122 -1.5080 -1.3899
  896MPD2    H313135   4.001   2.017   0.943  2.4534 -0.0557 -1.3821
  896MPD2     N13136   3.705   1.692   0.793 -0.1716  0.3062 -0.0414
  896MPD2    H513137   3.692   1.617   0.726  0.4710 -0.4494  0.6917
  896MPD2    N113138   4.149   1.750   0.609 -0.5111  0.3704 -0.1178
  896MPD2    H713139   4.243   1.789   0.619  0.6466 -2.3948 -0.2895
  897MPD2     C13140   0.185   3.015  10.305 -0.7494 -0.1929 -0.2064
  897MPD2    C113141   0.288   3.069  10.378 -1.0382 -0.6325  0.1254
  897MPD2    C213142   0.262   3.132  10.495  0.1051  0.1752 -0.3163
  897MPD2    C313143   0.138   3.127  10.551 -0.6040  0.9427 -0.4870
  897MPD2    C413144   0.036   3.062  10.479  0.2278 -0.3923  0.5545
  897MPD2    C513145   0.059   3.010  10.352 -0.0034 -0.1430 -0.7420
  897MPD2     H13146   0.325   3.212  10.535 -0.9029 -0.1322  1.8767
  897MPD2    H113147   4.666   3.052  10.529 -0.5504  0.1534 -0.8277
  897MPD2    H213148   0.200   2.971  10.207 -4.3825  0.4178 -1.0402
  897MPD2    H313149   4.713   2.954  10.292 -1.5417  0.2426  0.7329
  897MPD2     N13150   0.102   3.186  10.677 -0.1066 -0.3847  0.3975
  897MPD2    H513151   0.003   3.194  10.696  0.0746  0.6520  0.9178
  897MPD2    N113152   0.410   3.084  10.312  0.2090  0.6098 -0.1735
  897MPD2    H713153   0.425   3.027  10.230 -0.1031 -2.0186  1.5926
  898MPD2     C13154   2.862   3.500  17.487  0.1418  0.0439 -0.5537
  898MPD2    C113155   2.953   3.601  17.497 -0.2727 -0.4467  0.1915
  898MPD2    C213156   2.943   3.704  17.410 -0.0063  0.2771  0.3195
  898MPD2    C313157   2.860   3.698  17.298  0.5412  0.7729  0.0361
  898MPD2    C413158   2.774   3.592  17.284  0.4277  0.1533 -0.6370
  898MPD2    C513159   2.774   3.497  17.380  0.6883  0.2008 -0.6493
  898MPD2     H13160   3.015   3.783  17.430  1.3593 -0.8964  0.0488
  898MPD2    H113161   2.727   3.572  17.188 -0.6387  2.6774 -0.6429
  898MPD2    H213162   2.857   3.415  17.555 -0.7219  1.1034  0.6913
  898MPD2    H313163   2.720   3.405  17.361  1.5413 -0.0064 -2.1423
  898MPD2     N13164   2.864   3.802  17.210  0.4565 -0.5839 -0.2119
  898MPD2    H513165   2.916   3.885  17.238 -1.1525  0.2786  0.1916
  898MPD2    N113166   3.039   3.617  17.607 -0.3829 -0.1990 -0.4605
  898MPD2    H713167   3.075   3.710  17.627  2.1383 -1.6290  1.6229
  899MPD2     C13168   3.197   4.353  16.619 -0.4456 -0.0465  0.5662
  899MPD2    C113169   3.255   4.463  16.673  0.1658  0.6819  0.7986
  899MPD2    C213170   3.260   4.489  16.806  0.8784 -0.0148 -0.1483
  899MPD2    C313171   3.197   4.399  16.895  0.1543  0.4498  1.0727
  899MPD2    C413172   3.137   4.285  16.838  0.4469  0.0763  0.2266
  899MPD2    C513173   3.127   4.271  16.705  0.0835  0.1417  0.1512
  899MPD2     H13174   3.303   4.582  16.840 -1.5492  1.1523 -0.2699
  899MPD2    H113175   3.075   4.214  16.892  2.0240 -1.6942 -0.2670
  899MPD2    H213176   3.183   4.331  16.514  0.9668  1.0671  0.1578
  899MPD2    H313177   3.080   4.192  16.649  0.0336  0.2593  0.0265
  899MPD2     N13178   3.174   4.429  17.030  0.4575  0.1759 -0.3024
  899MPD2    H513179   3.111   4.367  17.081  2.4575  0.2586  2.2809
  899MPD2    N113180   3.298   4.551  16.573  0.0222 -0.1052 -0.0634
  899MPD2    H713181   3.270   4.535  16.477  1.1703 -1.3361 -0.1893
  900MPD2     C13182   3.135   1.514  12.539  0.0341  0.0939 -1.0007
  900MPD2    C113183   3.043   1.447  12.467 -0.1281 -0.4281 -0.0261
  900MPD2    C213184   2.928   1.512  12.425  1.0371  0.1563 -0.7764
  900MPD2    C313185   2.904   1.645  12.459  1.1350  0.1930  0.1999
  900MPD2    C413186   2.998   1.708  12.540 -0.5078  0.2776  0.5678
  900MPD2    C513187   3.114   1.646  12.579  0.5387  0.1296  0.4573
  900MPD2     H13188   2.853   1.471  12.359 -0.1825  1.8416 -0.4413
  900MPD2    H113189   2.979   1.805  12.584  0.0277  1.3268 -1.4881
  900MPD2    H213190   3.224   1.463  12.575  0.6559  0.5542 -1.8609
  900MPD2    H313191   3.181   1.699  12.645 -0.9859  4.3728 -1.4419
  900MPD2     N13192   2.789   1.700  12.413 -0.3439 -0.0151  0.0969
  900MPD2    H513193   2.731   1.634  12.362 -0.3815 -0.2830  0.4787
  900MPD2    N113194   3.053   1.306  12.463 -0.0003 -0.2148  0.0272
  900MPD2    H713195   3.128   1.263  12.515  1.8498  0.1493 -2.3527
  901MPD2     C13196   2.993   0.505  13.072  0.2960  0.2660 -0.3363
  901MPD2    C113197   2.934   0.462  12.952 -0.3300  0.7397 -0.1198
  901MPD2    C213198   2.943   0.545  12.840 -0.5689  0.1667  0.1832
  901MPD2    C313199   3.012   0.662  12.848  0.0673  0.0855 -0.2298
  901MPD2    C413200   3.063   0.707  12.965  0.2340  0.6581  0.6889
  901MPD2    C513201   3.059   0.625  13.076  0.1806  0.2028 -0.1448
  901MPD2     H13202   2.897   0.500  12.752  0.3281 -0.2193 -0.0834
  901MPD2    H113203   3.109   0.805  12.969  3.0670 -0.5816 -1.3682
  901MPD2    H213204   2.975   0.446  13.162 -0.5054 -0.1096 -0.7435
  901MPD2    H313205   3.109   0.658  13.166  1.2360  1.0499 -1.0479
  901MPD2     N13206   3.014   0.736  12.727  0.4467 -0.1972  0.8131
  901MPD2    H513207   2.991   0.690  12.639 -0.6330  1.5625  0.1669
  901MPD2    N113208   2.863   0.335  12.953 -0.2617  0.3063 -0.0492
  901MPD2    H713209   2.882   0.285  13.039  0.0814 -1.7511 -1.3488
  902MPD2     C13210   1.328   3.973  12.397  0.1038  0.9445 -0.0997
  902MPD2    C113211   1.388   4.068  12.477 -0.3023  0.1193  0.7410
  902MPD2    C213212   1.511   4.041  12.531 -0.4442 -0.1732  0.1618
  902MPD2    C313213   1.580   3.926  12.495 -0.1375 -0.1505  0.9218
  902MPD2    C413214   1.506   3.824  12.435  0.3631 -0.6425  0.8907
  902MPD2    C513215   1.382   3.846  12.385 -0.7688 -0.2391 -0.0252
  902MPD2     H13216   1.561   4.125  12.578 -0.9912  1.0410 -1.3821
  902MPD2    H113217   1.558   3.733  12.405 -1.3180 -0.7256 -1.7694
  902MPD2    H213218   1.230   3.986  12.351  1.3189  2.8173 -2.1150
  902MPD2    H313219   1.339   3.774  12.315  0.5346 -0.7333 -0.3217
  902MPD2     N13220   1.724   3.909  12.516  0.2412 -0.6624  0.6838
  902MPD2    H513221   1.757   3.829  12.464 -0.3944  0.5901 -1.6120
  902MPD2    N113222   1.351   4.204  12.481  0.0116 -0.0927  0.4811
  902MPD2    H713223   1.411   4.268  12.531  1.5134 -0.2574 -1.1413
  903MPD2     C13224   2.214   4.350  11.964  0.4415 -0.9069  0.7425
  903MPD2    C113225   2.102   4.297  12.027 -0.4501 -0.2673  0.5558
  903MPD2    C213226   1.990   4.294  11.958 -0.1020 -0.0293 -0.7704
  903MPD2    C313227   1.981   4.332  11.825 -0.3195  0.1140  0.1416
  903MPD2    C413228   2.093   4.391  11.770 -0.2771  0.8227  0.1933
  903MPD2    C513229   2.210   4.398  11.842 -0.1900 -0.1286  0.0175
  903MPD2     H13230   1.904   4.244  12.000 -1.2515  1.8968 -0.8640
  903MPD2    H113231   2.090   4.430  11.668  2.5037 -0.2928 -0.3033
  903MPD2    H213232   2.311   4.335  12.011  0.7018 -2.5465 -0.3289
  903MPD2    H313233   2.304   4.427  11.797  2.1936 -1.9246  3.8973
  903MPD2     N13234   1.859   4.331  11.751 -0.5959 -0.4888 -1.1444
  903MPD2    H513235   1.775   4.320  11.808 -1.1815  0.7007 -1.7741
  903MPD2    N113236   2.110   4.239  12.153  0.4183  0.0403  0.0560
  903MPD2    H713237   2.202   4.252  12.194  0.9383 -0.9712 -0.7848
  904MPD2     C13238   1.704   2.863  14.326 -0.2714  0.1649  0.1273
  904MPD2    C113239   1.793   2.931  14.257 -0.6992 -0.3557 -0.5115
  904MPD2    C213240   1.927   2.944  14.304 -0.8410  0.7083 -0.1849
  904MPD2    C313241   1.960   2.881  14.423 -0.3542 -0.7406  0.3401
  904MPD2    C413242   1.865   2.811  14.499 -0.3785  0.3284 -0.0165
  904MPD2    C513243   1.739   2.805  14.446 -0.1979  0.5780  0.0050
  904MPD2     H13244   1.998   2.993  14.237 -0.2970  0.3507  0.1259
  904MPD2    H113245   1.888   2.771  14.597  0.3239  1.4102  0.2578
  904MPD2    H213246   1.600   2.872  14.298  0.3508  2.7743 -1.2574
  904MPD2    H313247   1.660   2.767  14.510  1.3672  0.0448  1.6103
  904MPD2     N13248   2.095   2.887  14.453 -0.5401 -0.1954  0.4331
  904MPD2    H513249   2.151   2.925  14.377 -0.3796 -0.8407  0.2244
  904MPD2    N113250   1.760   2.986  14.134  0.0168  0.6760  0.1652
  904MPD2    H713251   1.838   3.031  14.088 -0.1844  0.0866 -0.7489
  905MPD2     C13252   1.412   2.725  13.470 -0.3924  0.4145  0.3089
  905MPD2    C113253   1.464   2.850  13.464 -0.1324  0.6157 -0.5980
  905MPD2    C213254   1.555   2.874  13.364 -0.5252  0.2456  0.1039
  905MPD2    C313255   1.592   2.777  13.267 -0.7364  0.1946 -0.4905
  905MPD2    C413256   1.537   2.654  13.280 -0.7166  1.2916  0.2440
  905MPD2    C513257   1.446   2.631  13.378 -0.1690  0.0941  0.8377
  905MPD2     H13258   1.604   2.971  13.365  1.7469 -0.9317  1.5950
  905MPD2    H113259   1.564   2.579  13.206  1.0916 -0.8476  3.0743
  905MPD2    H213260   1.350   2.698  13.555 -0.9308  1.1195  0.1381
  905MPD2    H313261   1.401   2.532  13.383 -0.2340  0.0983  0.3107
  905MPD2     N13262   1.690   2.797  13.168 -0.0756 -0.1566  0.3598
  905MPD2    H513263   1.695   2.724  13.097  2.0691 -1.3952  1.7935
  905MPD2    N113264   1.455   2.933  13.578 -0.0418  0.7045  0.1380
  905MPD2    H713265   1.411   2.893  13.660  1.2570 -0.0261  0.4720
  906MPD2     C13266   3.791   3.238  11.572  0.0429 -0.3668 -0.2126
  906MPD2    C113267   3.706   3.182  11.480 -0.6136  0.0591 -0.0081
  906MPD2    C213268   3.667   3.055  11.509 -0.3453 -0.5391 -0.5175
  906MPD2    C313269   3.685   2.993  11.629  0.6045  0.2793 -0.2140
  906MPD2    C413270   3.766   3.055  11.716  0.2052  0.7340 -0.1964
  906MPD2    C513271   3.819   3.180  11.696 -0.3996  0.0477 -0.4404
  906MPD2     H13272   3.617   3.005  11.426 -0.3367 -2.3880  0.6017
  906MPD2    H113273   3.789   3.013  11.814  0.3358  0.8898 -0.1592
  906MPD2    H213274   3.834   3.336  11.558 -3.1146  0.6875 -2.3557
  906MPD2    H313275   3.895   3.216  11.765  0.5254  2.2088 -2.5718
  906MPD2     N13276   3.630   2.862  11.648 -0.1762  0.3342 -0.0427
  906MPD2    H513277   3.570   2.841  11.569 -2.8257  0.2704  1.9781
  906MPD2    N113278   3.672   3.238  11.346  0.4755  0.0782 -0.2938
  906MPD2    H713279   3.631   3.176  11.278 -1.4051  0.0735  0.8527
  907MPD2     C13280   2.610   2.465  15.492  0.4693 -0.0892  0.1648
  907MPD2    C113281   2.559   2.341  15.476 -0.1209 -0.4198  0.8194
  907MPD2    C213282   2.574   2.239  15.576 -0.4466  0.1010 -1.0676
  907MPD2    C313283   2.638   2.281  15.690 -0.4157 -0.0936  0.5378
  907MPD2    C413284   2.711   2.405  15.696 -0.2063  0.2230  0.2518
  907MPD2    C513285   2.691   2.497  15.597  0.0809  0.0601  0.8736
  907MPD2     H13286   2.532   2.139  15.572  1.5192 -0.7843  0.4162
  907MPD2    H113287   2.763   2.438  15.785 -0.0542  2.7352 -0.7481
  907MPD2    H213288   2.594   2.543  15.419  0.1591  0.3061  0.6581
  907MPD2    H313289   2.720   2.601  15.605 -0.4857  0.6138 -4.0511
  907MPD2     N13290   2.643   2.192  15.798 -0.1623 -0.1254  0.4299
  907MPD2    H513291   2.631   2.091  15.790 -2.9732  0.2441  0.1007
  907MPD2    N113292   2.500   2.302  15.356  0.5017 -0.1178  0.2991
  907MPD2    H713293   2.454   2.211  15.352 -0.9932  0.6620 -0.2577
  908MPD2     C13294   0.489   3.438   9.495  0.3303 -0.2961 -0.6344
  908MPD2    C113295   0.472   3.302   9.513 -0.5623  0.2633 -0.2814
  908MPD2    C213296   0.507   3.248   9.633 -0.0368 -0.0853 -0.3419
  908MPD2    C313297   0.562   3.322   9.735  0.3044 -0.1768  0.2738
  908MPD2    C413298   0.568   3.458   9.719  0.3538  0.0514  0.1420
  908MPD2    C513299   0.536   3.518   9.595  0.0953 -0.1521  0.4133
  908MPD2     H13300   0.508   3.142   9.653 -0.3611 -0.3507 -1.7415
  908MPD2    H113301   0.586   3.532   9.796 -0.5422  0.1824  0.2259
  908MPD2    H213302   0.469   3.488   9.401  2.1774  0.7133 -0.4881
  908MPD2    H313303   0.537   3.626   9.592 -1.2152 -0.1689 -0.9129
  908MPD2     N13304   0.596   3.259   9.861 -0.0209  0.4247  0.5422
  908MPD2    H513305   0.587   3.158   9.861  1.5094  0.2902 -1.5935
  908MPD2    N113306   0.426   3.219   9.407  0.1793  0.3999 -0.3480
  908MPD2    H713307   0.420   3.121   9.433 -0.5887  0.3603 -0.7014
  909MPD2     C13308   0.879   1.066  11.546  0.0055  0.3215 -0.3706
  909MPD2    C113309   0.904   1.201  11.520 -1.2580  0.3602 -0.2650
  909MPD2    C213310   0.832   1.299  11.587  0.0534 -0.4872 -0.5373
  909MPD2    C313311   0.756   1.259  11.699 -0.1611 -0.0543 -0.0898
  909MPD2    C413312   0.739   1.128  11.720  0.6736 -1.1895 -0.4253
  909MPD2    C513313   0.791   1.032  11.650  0.0876 -0.1030 -0.7880
  909MPD2     H13314   0.849   1.399  11.550 -2.6467 -0.5612 -1.9828
  909MPD2    H113315   0.673   1.097  11.801  0.5306 -1.2328 -0.5594
  909MPD2    H213316   0.923   0.982  11.494 -2.8496 -0.6729 -1.2032
  909MPD2    H313317   0.776   0.929  11.683  1.0436  0.9828  2.9494
  909MPD2     N13318   0.717   1.358  11.786  0.6700  0.0217  0.1295
  909MPD2    H513319   0.750   1.450  11.757 -1.6669  0.5971 -0.6883
  909MPD2    N113320   0.993   1.238  11.423  0.1408 -0.2263  0.3489
  909MPD2    H713321   1.009   1.335  11.399  2.6096 -1.1138 -1.5687
  910MPD2     C13322   2.202   2.947  16.116 -0.0323 -0.4445 -0.0914
  910MPD2    C113323   2.261   2.856  16.033  0.3449  0.1283 -0.1632
  910MPD2    C213324   2.217   2.852  15.900  0.0051  0.2489  0.0601
  910MPD2    C313325   2.141   2.956  15.849 -0.4752  0.3571  0.5042
  910MPD2    C413326   2.084   3.047  15.937  0.0293  0.2130 -0.3784
  910MPD2    C513327   2.111   3.037  16.068 -0.5380  0.0658  0.1588
  910MPD2     H13328   2.260   2.775  15.837  0.6798 -0.0877  0.9185
  910MPD2    H113329   2.016   3.124  15.903  2.0078  1.4292 -1.6157
  910MPD2    H213330   2.214   2.955  16.223  0.9254  0.2947 -0.2524
  910MPD2    H313331   2.066   3.113  16.132  0.1995  1.8401 -1.4142
  910MPD2     N13332   2.094   2.962  15.717  0.0917 -0.1260  0.7126
  910MPD2    H513333   2.034   3.040  15.693  0.3785  0.0188  0.4605
  910MPD2    N113334   2.355   2.759  16.078 -0.1155  0.3389  0.1315
  910MPD2    H713335   2.383   2.682  16.018  0.6580  1.7158 -1.2738
  911MPD2     C13336   0.202   3.238  16.013  0.1193 -1.0470 -0.5153
  911MPD2    C113337   0.210   3.269  16.149  0.6379 -0.9125  0.5569
  911MPD2    C213338   0.120   3.356  16.201 -0.1866 -0.0942 -0.5419
  911MPD2    C313339   0.022   3.421  16.117 -0.1148  0.1866  0.4763
  911MPD2    C413340   0.006   3.385  15.987 -0.1998 -0.2573 -1.3186
  911MPD2    C513341   0.102   3.297  15.935 -0.1682  0.1773  0.0266
  911MPD2     H13342   0.131   3.381  16.306  0.7818  1.6604 -1.0562
  911MPD2    H113343   4.664   3.426  15.913 -1.9915 -0.2117  0.3373
  911MPD2    H213344   0.265   3.159  15.976  0.5565 -0.7179 -0.4814
  911MPD2    H313345   0.102   3.261  15.833  0.1862  2.0753 -0.6463
  911MPD2     N13346   4.649   3.518  16.166 -0.0975 -0.0083  0.0502
  911MPD2    H513347   4.561   3.528  16.116  0.2309  0.0916 -0.5078
  911MPD2    N113348   0.304   3.201  16.228 -0.1475 -0.1938  0.4763
  911MPD2    H713349   0.367   3.141  16.176 -1.8771 -0.7929 -0.9431
  912MPD2     C13350   4.361   3.483  15.735 -0.6247  0.3925  0.1568
  912MPD2    C113351   4.358   3.467  15.872  0.4234 -0.1040 -0.4233
  912MPD2    C213352   4.408   3.345  15.917  0.4261 -0.0390 -0.1973
  912MPD2    C313353   4.455   3.249  15.827  0.3703  0.4377  0.3080
  912MPD2    C413354   4.468   3.277  15.692 -0.9449 -0.3923  0.6070
  912MPD2    C513355   4.406   3.392  15.645  0.1876 -0.7115  0.2088
  912MPD2     H13356   4.424   3.326  16.022 -2.6087  0.8344  0.4013
  912MPD2    H113357   4.494   3.199  15.621 -0.7504  1.1467 -1.0296
  912MPD2    H213358   4.326   3.576  15.692 -0.6131 -0.0770 -0.8911
  912MPD2    H313359   4.405   3.412  15.539  1.0697  0.0981  0.3531
  912MPD2     N13360   4.514   3.133  15.880  0.5210 -0.1656 -0.0326
  912MPD2    H513361   4.501   3.116  15.980  1.1134  1.8030  0.3693
  912MPD2    N113362   4.342   3.582  15.954 -0.3533  0.0570  0.3525
  912MPD2    H713363   4.331   3.670  15.905 -0.2290 -0.5689 -0.7936
  913MPD2     C13364   0.258   4.601  10.548 -0.2149  0.2589 -0.6466
  913MPD2    C113365   0.329   4.722  10.542  0.5885 -0.0269 -0.3347
  913MPD2    C213366   0.354   0.045  10.414 -0.4332  0.2778  0.0250
  913MPD2    C313367   0.326   4.699  10.300  0.1465 -0.0375  0.9304
  913MPD2    C413368   0.259   4.588  10.311  0.7792  0.8300  0.0142
  913MPD2    C513369   0.232   4.531  10.436 -0.4131  0.0861  0.2718
  913MPD2     H13370   0.408   0.139  10.402  1.0512 -0.3557  1.6896
  913MPD2    H113371   0.229   4.532  10.223 -1.7558  3.2086 -0.6329
  913MPD2    H213372   0.240   4.541  10.637  0.1017  2.2853  0.7877
  913MPD2    H313373   0.191   4.430  10.442  1.3303 -0.6087  0.4975
  913MPD2     N13374   0.380   0.006  10.171  0.4412  0.1446 -0.3909
  913MPD2    H513375   0.356   4.677  10.088  1.8280 -0.8728 -0.1198
  913MPD2    N113376   0.376   0.054  10.663 -0.0527  0.1213  0.0809
  913MPD2    H713377   0.353   0.002  10.747  0.8377  1.0023  0.8769
  914MPD2     C13378   2.244   4.655  12.292  0.4197 -0.7975  0.0844
  914MPD2    C113379   2.282   0.056  12.316  0.0172  0.0623 -0.1563
  914MPD2    C213380   2.347   0.082  12.439  0.0546 -0.3735  0.4491
  914MPD2    C313381   2.371   4.700  12.526 -0.3742  0.6748 -0.1645
  914MPD2    C413382   2.336   4.572  12.499  0.4119 -0.4370  0.2639
  914MPD2    C513383   2.261   4.556  12.383  0.4082 -0.3540 -0.3198
  914MPD2     H13384   2.400   0.174  12.461 -1.7071  0.8937 -0.6491
  914MPD2    H113385   2.347   4.489  12.568 -0.3333 -0.9778 -0.2584
  914MPD2    H213386   2.208   4.616  12.197  0.2449 -1.2487  0.3338
  914MPD2    H313387   2.251   4.450  12.361 -1.2673  0.0836 -1.5909
  914MPD2     N13388   2.443   0.012  12.643  0.3422 -0.2533 -0.0622
  914MPD2    H513389   2.457   0.112  12.658 -0.1782 -0.0069 -1.2346
  914MPD2    N113390   2.259   0.154  12.214 -0.0819  0.2536 -0.2856
  914MPD2    H713391   2.230   0.128  12.120 -1.2491  0.2307  0.0745
  915MPD2     C13392   1.233   4.340  15.524 -0.0164 -0.1994 -0.0519
  915MPD2    C113393   1.107   4.383  15.507 -0.1015  0.1796 -0.1387
  915MPD2    C213394   1.042   4.456  15.605  0.5702 -0.1510  0.0315
  915MPD2    C313395   1.099   4.448  15.734  0.6116 -0.0981  0.0920
  915MPD2    C413396   1.217   4.395  15.757 -0.2515 -0.0371 -0.1044
  915MPD2    C513397   1.288   4.350  15.649  0.6321  0.4731  0.4976
  915MPD2     H13398   0.945   4.502  15.592  1.3493  2.1701  2.1700
  915MPD2    H113399   1.270   4.396  15.851 -0.8277 -0.3156  0.2194
  915MPD2    H213400   1.289   4.300  15.440  1.1727  1.0979  0.1141
  915MPD2    H313401   1.387   4.308  15.659 -0.3040 -1.9859 -0.4746
  915MPD2     N13402   1.033   4.529  15.827 -0.0461 -0.8022 -0.3686
  915MPD2    H513403   0.962   4.589  15.787 -0.7940 -1.9324 -0.7572
  915MPD2    N113404   1.045   4.389  15.382  0.5280 -0.4744 -0.0429
  915MPD2    H713405   0.946   4.410  15.385  0.6295  0.1887 -1.0627
  916MPD2     C13406   4.105   3.161  15.428 -0.6293 -0.2837 -0.2025
  916MPD2    C113407   4.139   3.078  15.539  0.3098  0.6173 -0.1398
  916MPD2    C213408   4.178   2.947  15.507  0.9820 -0.1469  0.0291
  916MPD2    C313409   4.155   2.893  15.378 -0.9122 -0.5511 -0.8486
  916MPD2    C413410   4.125   2.977  15.275  0.4652  0.6022 -0.2679
  916MPD2    C513411   4.099   3.109  15.300 -0.2654  0.0455 -0.9194
  916MPD2     H13412   4.222   2.883  15.582  1.3995  0.7547  0.5449
  916MPD2    H113413   4.111   2.945  15.172  0.4889  0.4287 -0.2164
  916MPD2    H213414   4.070   3.261  15.450 -0.5202 -0.0568 -1.0769
  916MPD2    H313415   4.077   3.172  15.214 -0.4870 -2.1945 -2.4862
  916MPD2     N13416   4.191   2.761  15.355  0.7588 -0.1278 -0.2062
  916MPD2    H513417   4.233   2.723  15.440  0.9686  2.4631  0.8422
  916MPD2    N113418   4.152   3.131  15.665  0.4459  0.6874 -0.2082
  916MPD2    H713419   4.125   3.229  15.677 -0.1546  0.5238 -0.1992
  917MPD2     C13420   4.095   0.351  11.110 -0.3202  0.3537 -0.2646
  917MPD2    C113421   4.122   0.412  11.231 -0.0959 -0.0968  0.1962
  917MPD2    C213422   4.216   0.513  11.230  0.0003 -0.4788 -0.2956
  917MPD2    C313423   4.303   0.541  11.121  0.4743 -0.0104  0.0112
  917MPD2    C413424   4.286   0.462  11.006  0.4186  0.5359  0.5946
  917MPD2    C513425   4.182   0.370  11.006  0.3173 -0.1062 -0.9223
  917MPD2     H13426   4.228   0.577  11.317 -3.2698 -0.7043  0.3486
  917MPD2    H113427   4.353   0.479  10.923  0.6716 -0.8098  0.5159
  917MPD2    H213428   4.016   0.278  11.101 -0.8952  1.2700 -2.5484
  917MPD2    H313429   4.168   0.319  10.911  1.1330  2.2742 -2.3153
  917MPD2     N13430   4.398   0.646  11.115 -0.2068 -0.0110 -0.0799
  917MPD2    H513431   4.456   0.650  11.032 -0.4769  0.6657 -0.2296
  917MPD2    N113432   4.038   0.382  11.342 -0.7358 -0.9967  0.4894
  917MPD2    H713433   3.967   0.310  11.333 -0.7027 -0.5844 -3.0563
  918MPD2     C13434   4.201   0.733  12.305 -0.4197 -0.4766 -0.1628
  918MPD2    C113435   4.269   0.740  12.187  0.0395  0.5917  0.4422
  918MPD2    C213436   4.217   0.673  12.078  0.2105 -0.1421  0.0026
  918MPD2    C313437   4.102   0.597  12.080 -0.0486  0.2779 -0.6746
  918MPD2    C413438   4.046   0.590  12.204 -0.0533  0.0769 -0.4581
  918MPD2    C513439   4.084   0.663  12.313  0.6900  1.0544  0.0367
  918MPD2     H13440   4.271   0.676  11.983 -0.8625  1.9294 -0.5486
  918MPD2    H113441   3.955   0.533  12.220  0.2475 -0.3355 -0.2139
  918MPD2    H213442   4.235   0.783  12.395  1.8705  0.9936 -1.8117
  918MPD2    H313443   4.039   0.649  12.411  1.3173  1.4409  0.3774
  918MPD2     N13444   4.061   0.536  11.964 -0.2361  0.1220  0.6074
  918MPD2    H513445   4.126   0.540  11.886 -0.4253 -1.1911  0.3830
  918MPD2    N113446   4.388   0.818  12.183  1.2637  0.0985 -0.6160
  918MPD2    H713447   4.406   0.866  12.271  1.0081 -2.5906  0.9033
  919MPD2     C13448   0.067   4.540  11.288 -0.1966  0.3254  0.4863
  919MPD2    C113449   0.035   4.404  11.295  0.4162 -0.0012 -0.0585
  919MPD2    C213450   0.011   4.335  11.178 -0.3668  0.3252  0.1347
  919MPD2    C313451   4.724   4.411  11.054  0.0846  0.6072  1.1817
  919MPD2    C413452   0.016   4.542  11.060 -0.3767 -0.2011  0.1995
  919MPD2    C513453   0.056   4.606  11.170 -0.9347  0.7751  0.0766
  919MPD2     H13454   4.712   4.230  11.181  0.3945  0.1971  1.7618
  919MPD2    H113455   0.006   4.591  10.964 -0.1698 -1.1285 -0.2997
  919MPD2    H213456   0.098   4.597  11.374  0.2937  2.0607 -0.8318
  919MPD2    H313457   0.046   4.714  11.169 -0.6426  0.7529 -3.2405
  919MPD2     N13458   4.694   4.351  10.926 -0.1913  0.1983  0.8846
  919MPD2    H513459   4.652   4.406  10.852  2.4277 -0.2431 -0.9019
  919MPD2    N113460   0.042   4.329  11.417  0.1952 -0.5866  0.0172
  919MPD2    H713461   0.045   4.228  11.406  0.6819 -0.6291  0.5128
  920MPD2     C13462   4.451   4.672  10.141 -0.1817  0.3038  0.1737
  920MPD2    C113463   4.373   4.661  10.248  0.1796  0.4680  0.2028
  920MPD2    C213464   4.414   4.575  10.351  0.4826 -0.6695  0.0723
  920MPD2    C313465   4.527   4.502  10.342  0.0705 -0.2430 -0.3124
  920MPD2    C413466   4.610   4.516  10.231  0.1895  0.1529  0.1567
  920MPD2    C513467   4.573   4.603  10.135  0.6568 -0.4607 -0.8668
  920MPD2     H13468   4.346   4.555  10.433 -0.8395  0.8342 -0.6453
  920MPD2    H113469   4.710   4.473  10.230  0.5420  0.9563  1.0334
  920MPD2    H213470   4.431   0.007  10.053 -2.9792  0.3052  0.8021
  920MPD2    H313471   4.634   4.619  10.047  0.0621  0.8263 -1.0429
  920MPD2     N13472   4.552   4.407  10.446  0.8141 -0.0031  0.3942
  920MPD2    H513473   4.488   4.408  10.525  0.0688  1.9699 -0.2187
  920MPD2    N113474   4.251   0.008  10.256  0.1669 -0.8512  0.0877
  920MPD2    H713475   4.189   4.721  10.335 -0.8055 -2.4407 -0.9321
  921MPD2     C13476   0.929   3.562  16.792 -0.4312  0.4228 -0.4569
  921MPD2    C113477   0.985   3.469  16.709 -0.0366  0.8888  0.3549
  921MPD2    C213478   0.910   3.361  16.668  0.3837 -0.3955 -0.0051
  921MPD2    C313479   0.783   3.336  16.714  0.2167  0.2427 -0.2437
  921MPD2    C413480   0.735   3.425  16.806 -0.5423  0.0579  0.1090
  921MPD2    C513481   0.800   3.541  16.836 -0.5926 -0.0665 -0.1981
  921MPD2     H13482   0.950   3.298  16.590  1.6637 -0.2781  0.5652
  921MPD2    H113483   0.643   3.408  16.860 -1.2374  1.6980 -0.5483
  921MPD2    H213484   0.973   3.657  16.821 -0.6757 -0.8997  4.2220
  921MPD2    H313485   0.756   3.613  16.904 -0.3789 -0.6375  0.5363
  921MPD2     N13486   0.704   3.225  16.687  0.0547 -0.2280  0.2748
  921MPD2    H513487   0.608   3.213  16.720 -0.4805  2.4192 -0.3046
  921MPD2    N113488   1.122   3.489  16.664 -0.5566  0.0194  0.4116
  921MPD2    H713489   1.164   3.579  16.688 -0.9946 -0.1769  1.9259
  922MPD2     C13490   1.836   1.981  16.723  0.7914  0.1100 -0.5515
  922MPD2    C113491   1.838   1.996  16.858 -0.8467 -0.4960 -0.0797
  922MPD2    C213492   1.844   1.886  16.936 -0.0004 -0.4691 -0.8103
  922MPD2    C313493   1.836   1.759  16.894  0.0842 -0.4849 -1.2352
  922MPD2    C413494   1.827   1.738  16.757  1.0737 -0.5609 -0.1664
  922MPD2    C513495   1.836   1.848  16.675  0.1799  0.2721 -0.5665
  922MPD2     H13496   1.874   1.911  17.038  0.1766 -1.3830 -0.6430
  922MPD2    H113497   1.826   1.640  16.711 -1.3395 -0.4096 -0.4347
  922MPD2    H213498   1.824   2.059  16.649  0.1366  1.4976  1.0318
  922MPD2    H313499   1.858   1.838  16.569  0.5682 -0.5161 -0.4083
  922MPD2     N13500   1.829   1.652  16.987 -0.4497 -0.1034 -0.3026
  922MPD2    H513501   1.835   1.667  17.087  0.8494 -2.7060  0.0029
  922MPD2    N113502   1.825   2.129  16.924  0.4832 -0.0538 -0.5832
  922MPD2    H713503   1.813   2.124  17.025 -0.3208  3.8382 -0.5034
  923MPD2     C13504   3.450   2.961   9.037  0.2671  0.0821  0.3399
  923MPD2    C113505   3.374   3.050   9.104  0.1736  0.7969  0.7307
  923MPD2    C213506   3.424   3.097   9.223 -0.1292 -0.7100  0.4482
  923MPD2    C313507   3.543   3.055   9.278 -0.1446 -0.6214  0.1642
  923MPD2    C413508   3.617   2.966   9.200  0.4530 -0.2292 -0.1023
  923MPD2    C513509   3.570   2.919   9.085  0.0876  0.0184  0.0174
  923MPD2     H13510   3.367   3.166   9.285  0.6227  0.3008  0.0168
  923MPD2    H113511   3.717   2.935   9.228  0.2475 -0.0758  0.7924
  923MPD2    H213512   3.412   2.922   8.943  0.0472 -2.6054  1.5611
  923MPD2    H313513   3.616   2.837   9.032  0.7883 -0.3038  1.1406
  923MPD2     N13514   3.604   3.099   9.399 -0.4299 -0.0755 -0.1277
  923MPD2    H513515   3.683   3.049   9.437 -0.7679  0.4684  1.3054
  923MPD2    N113516   3.251   3.083   9.050 -0.3760 -0.1589 -0.4215
  923MPD2    H713517   3.222   3.034   8.965 -1.0099 -0.2806 -0.1367
  924MPD2     C13518   2.869   1.325  15.810 -0.6073 -0.7617  0.5292
  924MPD2    C113519   2.844   1.361  15.943  0.6716 -0.8519  0.2533
  924MPD2    C213520   2.836   1.494  15.980  0.4010 -0.1288  0.7097
  924MPD2    C313521   2.847   1.595  15.885  0.1212  0.2916 -0.2737
  924MPD2    C413522   2.880   1.551  15.758 -0.3164  0.0020  0.2188
  924MPD2    C513523   2.898   1.425  15.723  0.4259 -0.1025  0.1992
  924MPD2     H13524   2.833   1.517  16.086 -0.5967 -1.9462  1.0869
  924MPD2    H113525   2.906   1.618  15.677 -0.0722 -1.2501 -0.7311
  924MPD2    H213526   2.861   1.222  15.776 -3.4060 -0.3527  0.0081
  924MPD2    H313527   2.923   1.394  15.622 -0.7347 -0.2226 -0.0501
  924MPD2     N13528   2.839   1.734  15.910 -0.0632 -0.7362  0.1383
  924MPD2    H513529   2.863   1.805  15.841 -1.7075  0.9672  1.3256
  924MPD2    N113530   2.826   1.252  16.028  0.4849 -0.4622 -0.0237
  924MPD2    H713531   2.847   1.164  15.984  1.0802 -0.6929  0.7096
  925MPD2     C13532   1.646   4.338  14.651  0.7960  0.4866  0.3483
  925MPD2    C113533   1.719   4.221  14.634  0.5444  0.4607 -0.3610
  925MPD2    C213534   1.733   4.135  14.742 -0.3088 -0.3211 -0.2556
  925MPD2    C313535   1.681   4.170  14.867 -0.3394  0.4184  0.0668
  925MPD2    C413536   1.617   4.287  14.882 -0.2197  0.5523 -0.7882
  925MPD2    C513537   1.594   4.365  14.773  0.0715  0.3988  1.0643
  925MPD2     H13538   1.773   4.037  14.717  0.2896 -0.5380  1.5767
  925MPD2    H113539   1.563   4.316  14.972  0.1529  2.0539 -1.0526
  925MPD2    H213540   1.623   4.402  14.566  2.0050  1.3369  0.6691
  925MPD2    H313541   1.534   4.454  14.785  0.2921  0.7800 -0.6256
  925MPD2     N13542   1.689   4.080  14.980  0.6564  0.3033  0.3113
  925MPD2    H513543   1.661   4.112  15.073 -0.9291  0.8233 -0.3488
  925MPD2    N113544   1.775   4.178  14.511  0.6500  0.5702  0.1330
  925MPD2    H713545   1.831   4.094  14.514 -1.7877 -1.0971 -0.6535
  926MPD2     C13546   4.483   2.288  13.528 -0.0920  0.6211  0.0857
  926MPD2    C113547   4.596   2.353  13.577  0.1948 -0.2964  0.5819
  926MPD2    C213548   4.698   2.374  13.489 -0.2553 -0.0157 -0.2871
  926MPD2    C313549   4.698   2.310  13.364  0.2411  0.3951 -0.6362
  926MPD2    C413550   4.589   2.239  13.320 -0.0273  0.7955 -0.0189
  926MPD2    C513551   4.481   2.225  13.408  0.5456  0.7565 -0.2143
  926MPD2     H13552   0.056   2.436  13.520 -0.1042  0.5670 -1.8521
  926MPD2    H113553   4.604   2.177  13.232 -0.3767 -0.4559  0.8000
  926MPD2    H213554   4.395   2.267  13.588 -0.5330  1.3648 -0.3076
  926MPD2    H313555   4.398   2.158  13.388 -0.3309  1.4491  1.1021
  926MPD2     N13556   0.090   2.318  13.281 -0.2253  0.0131 -0.2983
  926MPD2    H513557   0.088   2.279  13.188 -1.5722  1.9803 -1.1036
  926MPD2    N113558   4.609   2.410  13.708  0.7704 -0.0212 -0.6578
  926MPD2    H713559   4.697   2.458  13.721  0.6498  0.1630 -0.5119
  927MPD2     C13560   0.741   0.082   0.436 -0.0859 -0.6297  0.2787
  927MPD2    C113561   0.668   0.112   0.328  0.2837  0.5121  0.3021
  927MPD2    C213562   0.667   0.023   0.228  0.8053  0.0028 -0.5783
  927MPD2    C313563   0.756   4.640   0.224 -0.2492  0.2926 -0.7909
  927MPD2    C413564   0.838   4.618   0.333  0.1007 -1.0118  0.4748
  927MPD2    C513565   0.834   4.705   0.436 -0.1500  0.6665 -0.9686
  927MPD2     H13566   0.597   0.035   0.146  0.5241  0.2862 -0.2989
  927MPD2    H113567   0.904   4.535   0.353  1.6786 -0.0756 -0.8514
  927MPD2    H213568   0.734   0.156   0.515  0.5405  0.0276 -0.2766
  927MPD2    H313569   0.898   4.702   0.524  0.4206  0.3157 -1.3970
  927MPD2     N13570   0.765   4.560   0.112 -0.0334  0.7298 -0.3950
  927MPD2    H513571   0.713   4.592   0.031  0.1619 -0.8793 -1.1528
  927MPD2    N113572   0.584   0.226   0.344 -0.4781  0.5614 -0.6789
  927MPD2    H713573   0.597   0.276   0.431  0.2366 -2.2013  0.7955
  928MPD2     C13574   3.152   3.430   1.427 -0.0133  0.0318 -0.3068
  928MPD2    C113575   3.281   3.472   1.389 -0.9322  0.0823 -0.3081
  928MPD2    C213576   3.320   3.441   1.259 -0.4005  0.2371  0.1790
  928MPD2    C313577   3.237   3.372   1.168  0.5426 -0.4049 -0.3853
  928MPD2    C413578   3.116   3.323   1.216  0.0569  0.2222 -0.2098
  928MPD2    C513579   3.079   3.352   1.344 -0.1782  0.2651 -0.2585
  928MPD2     H13580   3.416   3.480   1.225  0.1387  0.3424  1.8144
  928MPD2    H113581   3.051   3.259   1.157 -0.9058  0.9927  0.0144
  928MPD2    H213582   3.106   3.458   1.521 -0.6892 -1.6127 -0.1560
  928MPD2    H313583   2.987   3.314   1.388  0.1517 -0.1497  0.0748
  928MPD2     N13584   3.269   3.369   1.032  0.1371  0.2183  0.4091
  928MPD2    H513585   3.347   3.426   1.001 -2.0207  2.5064 -0.7040
  928MPD2    N113586   3.361   3.538   1.483  0.6478  0.3602 -0.7776
  928MPD2    H713587   3.316   3.559   1.570 -0.5426 -1.3390 -0.9844
  929MPD2     C13588   3.408   3.063  10.593  0.0108 -0.4251  0.3673
  929MPD2    C113589   3.295   3.006  10.635  0.5224 -0.4742  0.4377
  929MPD2    C213590   3.200   2.961  10.544  0.2313  0.1104  0.0374
  929MPD2    C313591   3.227   2.969  10.410  0.6424 -0.2198  0.1972
  929MPD2    C413592   3.338   3.028  10.367 -0.0465 -0.0700  0.3613
  929MPD2    C513593   3.438   3.069  10.460 -0.2697  0.6830  0.2551
  929MPD2     H13594   3.126   2.887  10.573  1.9933 -1.1226  1.3831
  929MPD2    H113595   3.350   3.040  10.260 -2.0645 -1.4018 -0.0121
  929MPD2    H213596   3.485   3.096  10.661 -0.9675  0.4854  1.0347
  929MPD2    H313597   3.529   3.118  10.427 -0.2926  0.3410 -0.3176
  929MPD2     N13598   3.133   2.935  10.306  0.6012  0.3319  0.2259
  929MPD2    H513599   3.157   2.959  10.210 -1.1454 -1.4246 -0.6590
  929MPD2    N113600   3.278   2.985  10.770 -0.0644  0.3345  0.3846
  929MPD2    H713601   3.360   2.999  10.829  0.4552  1.6426 -0.6153
  930MPD2     C13602   0.060   0.414  14.008  0.1332  0.6348  0.0934
  930MPD2    C113603   0.191   0.448  13.981  0.5811  0.5160  0.0709
  930MPD2    C213604   0.247   0.402  13.863 -0.0092 -0.1682  0.3182
  930MPD2    C313605   0.171   0.334  13.769  0.3713 -0.2164  0.3786
  930MPD2    C413606   0.039   0.303  13.796  0.3956  0.2678  0.7189
  930MPD2    C513607   4.710   0.349  13.917 -0.4778  0.4223 -0.4317
  930MPD2     H13608   0.350   0.426  13.840 -0.2849  0.1640 -0.5692
  930MPD2    H113609   4.703   0.244  13.728  1.8437  0.9326 -1.1508
  930MPD2    H213610   0.012   0.432  14.104  0.9271 -0.2956  0.6674
  930MPD2    H313611   4.607   0.328  13.945 -0.3577  1.3265  0.6688
  930MPD2     N13612   0.214   0.311  13.636  0.0714  1.2668  0.5334
  930MPD2    H513613   0.142   0.276  13.574  1.4040  0.9816 -0.8442
  930MPD2    N113614   0.258   0.531  14.078 -0.5532  0.0179  0.7091
  930MPD2    H713615   0.198   0.570  14.149  0.1934 -2.9245  2.9693
  931MPD2     C13616   0.139   0.810   0.798 -0.3092 -0.3486  1.0537
  931MPD2    C113617   0.161   0.673   0.778  0.7063  0.3081  0.1387
  931MPD2    C213618   0.126   0.576   0.873 -0.3094 -0.0745 -0.2344
  931MPD2    C313619   0.055   0.626   0.986  0.5168 -0.6806 -0.1765
  931MPD2    C413620   0.043   0.767   1.008 -0.3131  0.4499 -0.1116
  931MPD2    C513621   0.092   0.854   0.918  0.0341  0.4919  0.0056
  931MPD2     H13622   0.129   0.470   0.851 -1.2151 -0.6255  2.2472
  931MPD2    H113623   4.711   0.803   1.094  0.4750  1.4093  0.0092
  931MPD2    H213624   0.170   0.885   0.726 -0.4997  1.1688  2.5399
  931MPD2    H313625   0.084   0.961   0.930 -0.0330  0.5734 -0.7343
  931MPD2     N13626   4.710   0.539   1.079  0.0810  0.2695  0.0759
  931MPD2    H513627   4.657   0.591   1.148 -0.7675 -1.4612  0.7325
  931MPD2    N113628   0.209   0.637   0.647 -0.9656  0.3214 -0.2665
  931MPD2    H713629   0.215   0.711   0.578  0.7624 -0.3554 -0.8428
  932MPD2     C13630   1.466   3.747  10.969  0.1022 -0.2262 -0.3298
  932MPD2    C113631   1.562   3.833  11.014 -0.1566 -0.1843  0.0498
  932MPD2    C213632   1.640   3.791  11.120 -0.3190 -0.6987 -0.0306
  932MPD2    C313633   1.636   3.657  11.165  0.3463  0.2957 -0.1365
  932MPD2    C413634   1.538   3.572  11.111 -0.1638 -0.3434  0.3781
  932MPD2    C513635   1.451   3.619  11.014  0.3835 -0.1130 -0.9830
  932MPD2     H13636   1.722   3.849  11.160 -1.0524  1.6412 -1.9938
  932MPD2    H113637   1.539   3.467  11.138  0.0286 -0.6296 -0.7768
  932MPD2    H213638   1.398   3.787  10.894 -0.6375  0.7393  0.8440
  932MPD2    H313639   1.381   3.549  10.969  0.9962 -1.6283  0.3734
  932MPD2     N13640   1.735   3.600  11.246  0.3942 -0.1584 -0.2012
  932MPD2    H513641   1.730   3.499  11.249 -0.2585 -0.1280 -0.2393
  932MPD2    N113642   1.590   3.952  10.942 -0.3034 -0.3564 -0.2322
  932MPD2    H713643   1.655   4.013  10.990 -0.7383 -1.3619  1.6407
  933MPD2     C13644   3.473   4.201   2.030  0.4353 -0.2180 -0.0314
  933MPD2    C113645   3.397   4.121   1.950 -0.2154  0.0578  0.8607
  933MPD2    C213646   3.257   4.139   1.950  0.0249 -0.0401 -0.0887
  933MPD2    C313647   3.197   4.235   2.023 -0.2753 -0.4080  0.7478
  933MPD2    C413648   3.279   4.308   2.111 -0.3225 -0.3266  0.7833
  933MPD2    C513649   3.415   4.296   2.113  0.1212  0.5726  0.1652
  933MPD2     H13650   3.197   4.077   1.886 -0.6096  0.2710  0.2082
  933MPD2    H113651   3.230   4.380   2.176  0.0944 -0.2170  0.9783
  933MPD2    H213652   3.580   4.198   2.016  0.6259  1.0558  1.1386
  933MPD2    H313653   3.479   4.364   2.167  0.2260  2.0032 -1.7368
  933MPD2     N13654   3.060   4.249   2.009 -0.1978 -0.5002  0.0564
  933MPD2    H513655   3.020   4.179   1.948  0.6419  2.1541 -3.6251
  933MPD2    N113656   3.464   4.025   1.872 -1.1237  0.4958  0.2752
  933MPD2    H713657   3.562   4.013   1.894 -0.9105  0.4079 -0.7370
  934MPD2     C13658   3.172   1.613   1.064 -0.0969 -0.5905 -0.0832
  934MPD2    C113659   3.286   1.534   1.085  0.8669  0.6612  0.0426
  934MPD2    C213660   3.288   1.395   1.058  0.2814  0.2611 -0.5523
  934MPD2    C313661   3.173   1.334   0.998  0.2715  0.3929  0.0038
  934MPD2    C413662   3.063   1.416   0.972  0.2678  0.2252  0.0797
  934MPD2    C513663   3.060   1.549   1.021 -0.0171 -0.0956  0.2036
  934MPD2     H13664   3.365   1.325   1.087  0.3042  0.2874 -0.5494
  934MPD2    H113665   2.978   1.381   0.915  0.1406 -1.0630  1.0667
  934MPD2    H213666   3.177   1.719   1.088 -0.0216 -0.8374  0.9850
  934MPD2    H313667   2.973   1.614   1.016 -1.2579 -1.9017 -1.5354
  934MPD2     N13668   3.167   1.203   0.957  0.6006  0.0142 -0.1336
  934MPD2    H513669   3.077   1.171   0.923  0.5957  1.7552 -1.7957
  934MPD2    N113670   3.397   1.601   1.149  0.0231  0.9093 -0.8013
  934MPD2    H713671   3.391   1.700   1.170  1.4002  0.5475  1.3460
  935MPD2     C13672   3.717   0.362   0.742 -0.4158 -0.0959 -0.0781
  935MPD2    C113673   3.588   0.348   0.693 -0.2988  0.4086  0.3527
  935MPD2    C213674   3.495   0.444   0.731 -0.1753 -0.3958  0.4148
  935MPD2    C313675   3.522   0.545   0.828 -0.0836 -0.2080  0.4714
  935MPD2    C413676   3.647   0.540   0.882  0.9229  0.1288 -0.7945
  935MPD2    C513677   3.744   0.455   0.838  0.6298  0.2107 -0.0874
  935MPD2     H13678   3.394   0.439   0.693  0.2700 -0.3577 -0.7642
  935MPD2    H113679   3.675   0.608   0.962  0.7037 -0.6973 -0.0271
  935MPD2    H213680   3.801   0.303   0.707 -0.1040  1.0429 -1.2237
  935MPD2    H313681   3.840   0.453   0.889  0.9621 -0.0661 -0.7180
  935MPD2     N13682   3.432   0.635   0.888 -0.0719  0.8117 -0.0522
  935MPD2    H513683   3.464   0.698   0.961  2.9711 -0.2741 -0.4512
  935MPD2    N113684   3.553   0.242   0.604 -0.2076  0.4372 -0.1076
  935MPD2    H713685   3.456   0.244   0.572 -0.2215  0.7655 -0.0414
  936MPD2     C13686   2.555   2.716  12.290  0.6081 -0.4190  0.2432
  936MPD2    C113687   2.629   2.629  12.370 -0.6172 -0.4316  0.4032
  936MPD2    C213688   2.764   2.635  12.355  0.0369 -0.3415  0.0098
  936MPD2    C313689   2.826   2.727  12.278  0.2618 -0.2352  0.2752
  936MPD2    C413690   2.752   2.784  12.179 -0.1189 -0.1315 -0.4864
  936MPD2    C513691   2.622   2.780  12.185  0.2854  0.1486 -0.2051
  936MPD2     H13692   2.822   2.560  12.408  1.6925  0.3755 -0.8129
  936MPD2    H113693   2.803   2.844  12.104  0.5242 -1.2633 -0.9536
  936MPD2    H213694   2.447   2.723  12.299  0.8200 -0.2297  2.5517
  936MPD2    H313695   2.560   2.840  12.120 -0.2487  0.7180  0.8346
  936MPD2     N13696   2.966   2.755  12.292  0.6249  0.6825  0.0727
  936MPD2    H513697   3.014   2.800  12.215  1.1920 -0.4019 -0.2124
  936MPD2    N113698   2.571   2.541  12.464 -0.1235  0.0681 -0.6167
  936MPD2    H713699   2.638   2.478  12.507 -0.3620  1.2702  1.4927
  937MPD2     C13700   0.280   3.695  11.549 -0.3284  0.0842  0.5625
  937MPD2    C113701   0.315   3.818  11.509 -0.0333  0.2741  0.6101
  937MPD2    C213702   0.390   3.828  11.392 -0.2388 -0.3615 -0.2186
  937MPD2    C313703   0.449   3.721  11.339 -0.1191 -0.4885 -0.0714
  937MPD2    C413704   0.426   3.596  11.390  0.5661 -0.1287 -0.3233
  937MPD2    C513705   0.339   3.587  11.494 -0.4724  0.0854  0.0466
  937MPD2     H13706   0.403   3.925  11.346 -2.3025 -0.3967 -0.8673
  937MPD2    H113707   0.479   3.506  11.361 -0.3144 -0.8862  0.4149
  937MPD2    H213708   0.218   3.670  11.634 -1.5005 -0.3530 -0.4137
  937MPD2    H313709   0.331   3.494  11.550 -0.4464 -0.9193 -1.6255
  937MPD2     N13710   0.549   3.748  11.240 -0.9097 -0.2024 -0.5976
  937MPD2    H513711   0.558   3.846  11.216  2.5884  0.2716  2.6308
  937MPD2    N113712   0.251   3.931  11.555 -0.3052  0.0017 -0.1403
  937MPD2    H713713   0.250   4.011  11.492 -0.5432 -1.2096 -1.6692
  938MPD2     C13714   2.789   0.092   0.825 -0.1280  0.3171 -0.5914
  938MPD2    C113715   2.731   0.206   0.878  1.1229 -0.4664  0.3849
  938MPD2    C213716   2.635   0.192   0.976 -1.1149  0.1612 -0.2893
  938MPD2    C313717   2.606   0.064   1.029 -0.6925  0.2957  0.1311
  938MPD2    C413718   2.671   4.679   0.981 -0.7278 -0.1635  0.5504
  938MPD2    C513719   2.755   4.696   0.876  0.0643 -0.0190  0.5351
  938MPD2     H13720   2.581   0.282   1.001 -2.2994 -0.1837 -1.5989
  938MPD2    H113721   2.646   4.579   1.015 -0.8960  0.2959  1.7528
  938MPD2    H213722   2.869   0.090   0.752 -0.8115 -1.2085 -1.3043
  938MPD2    H313723   2.814   4.611   0.842  1.9184  0.6961  1.9371
  938MPD2     N13724   2.503   0.042   1.127  0.0494  0.0438 -0.3205
  938MPD2    H513725   2.492   4.675   1.169 -0.8118  0.6147  0.7083
  938MPD2    N113726   2.758   0.340   0.830 -0.1253  0.1854 -0.1132
  938MPD2    H713727   2.696   0.408   0.873  0.5537 -0.7659  2.3517
  939MPD2     C13728   3.736   1.659  17.531 -0.5917 -0.4021  0.0541
  939MPD2    C113729   3.763   1.734  17.644  0.8866 -0.0496  0.0237
  939MPD2    C213730   3.894   1.757  17.684  0.5371 -0.1523 -0.8138
  939MPD2    C313731   4.004   1.708  17.616  0.3832 -0.3555  0.5833
  939MPD2    C413732   3.972   1.629  17.508 -0.3639  0.0498  0.4466
  939MPD2    C513733   3.845   1.608  17.458  0.1157 -0.7628 -0.0573
  939MPD2     H13734   3.911   1.821   0.068 -0.0691  0.4307 -1.1300
  939MPD2    H113735   4.051   1.592  17.445 -1.5777 -0.2197 -0.9185
  939MPD2    H213736   3.634   1.642  17.498 -0.5525  1.7759 -1.1939
  939MPD2    H313737   3.839   1.545  17.370 -1.2725 -0.9004  0.1405
  939MPD2     N13738   4.138   1.741  17.654 -0.5008  0.5769  0.2089
  939MPD2    H513739   4.150   1.805   0.030 -0.4338 -0.4133  1.0071
  939MPD2    N113740   3.668   1.797   0.026 -0.3760  0.3288 -0.6361
  939MPD2    H713741   3.711   1.858   0.094  0.6578  0.2407 -1.2154
  940MPD2     C13742   3.634   3.201  12.916 -0.2949  0.6185 -0.0901
  940MPD2    C113743   3.624   3.069  12.874 -0.3698  0.5194 -0.3537
  940MPD2    C213744   3.597   3.044  12.737 -0.7255  0.6938 -0.4042
  940MPD2    C313745   3.603   3.147  12.649 -0.4846 -0.3163 -0.0377
  940MPD2    C413746   3.621   3.277  12.692 -1.1093 -0.5630 -0.7365
  940MPD2    C513747   3.636   3.303  12.825  0.1092  0.2207  0.1667
  940MPD2     H13748   3.573   2.942  12.709 -0.8784  0.0611  1.9993
  940MPD2    H113749   3.610   3.361  12.625 -1.0716 -0.8444 -1.0947
  940MPD2    H213750   3.655   3.221  13.021 -0.3367  0.7074 -0.0993
  940MPD2    H313751   3.647   3.406  12.857  3.0336 -0.7087  2.0882
  940MPD2     N13752   3.612   3.127  12.511 -0.2978 -0.3254 -0.0861
  940MPD2    H513753   3.604   3.215  12.461 -2.4074 -0.0390  0.7631
  940MPD2    N113754   3.637   2.955  12.952 -0.3085  0.5663  0.3588
  940MPD2    H713755   3.612   2.864  12.915 -1.2418  1.4789 -1.2622
  941MPD2     C13756   2.557   1.992   9.431 -0.7464 -0.3766  0.4209
  941MPD2    C113757   2.616   1.949   9.549 -0.6086  0.3623 -0.1266
  941MPD2    C213758   2.551   1.860   9.632  0.3019  0.1362  0.3337
  941MPD2    C313759   2.424   1.825   9.602  0.0937 -0.5153  1.0417
  941MPD2    C413760   2.358   1.880   9.499  0.1004 -0.5101 -0.1330
  941MPD2    C513761   2.421   1.965   9.411  0.0219 -0.6516  0.1353
  941MPD2     H13762   2.606   1.819   9.716  2.1110  2.1444  0.1203
  941MPD2    H113763   2.252   1.858   9.490 -0.2707  1.1285  0.3197
  941MPD2    H213764   2.599   2.075   9.375 -1.3058 -0.7170 -0.4928
  941MPD2    H313765   2.369   2.023   9.335  1.3759  0.7186  0.2530
  941MPD2     N13766   2.354   1.727   9.681  0.1197 -0.0780  0.5092
  941MPD2    H513767   2.255   1.716   9.663  0.0391 -0.8200  1.4569
  941MPD2    N113768   2.749   1.989   9.587 -0.5165  0.3241  0.2487
  941MPD2    H713769   2.786   1.965   9.679 -1.7339 -0.0028  0.6433
  942MPD2     C13770   2.758   2.842   8.976  0.4289 -0.2583  0.3896
  942MPD2    C113771   2.760   2.899   9.104  0.0232  0.1541  0.2850
  942MPD2    C213772   2.875   2.897   9.181 -0.5359 -0.1592 -0.3280
  942MPD2    C313773   2.993   2.836   9.135  0.3608 -0.5807 -0.5840
  942MPD2    C413774   2.988   2.782   9.007  0.1942 -1.3008  0.1656
  942MPD2    C513775   2.874   2.777   8.934  0.4030 -0.8715  0.4735
  942MPD2     H13776   2.868   2.938   9.281  0.1360 -0.8289 -0.0026
  942MPD2    H113777   3.074   2.724   8.973  0.5685 -0.7397  0.1651
  942MPD2    H213778   2.675   2.845   8.907 -0.3435  1.1523  1.3756
  942MPD2    H313779   2.865   2.723   8.840  2.1121  1.2665 -0.9132
  942MPD2     N13780   3.116   2.819   9.202  1.3574 -0.4552 -0.1669
  942MPD2    H513781   3.191   2.778   9.147 -0.2510 -3.7600  0.0660
  942MPD2    N113782   2.645   2.958   9.162 -0.2144  0.2682 -0.0419
  942MPD2    H713783   2.646   2.975   9.262  2.1169  1.5778 -0.3120
  943MPD2     C13784   0.753   1.666   9.290  0.3756  1.0117 -0.2425
  943MPD2    C113785   0.764   1.563   9.385 -0.7139 -0.3949 -0.3363
  943MPD2    C213786   0.779   1.605   9.518 -0.0548  0.1585  0.0089
  943MPD2    C313787   0.791   1.736   9.551 -0.0638  0.1313 -0.5092
  943MPD2    C413788   0.771   1.834   9.459 -0.1806 -0.4448  0.0691
  943MPD2    C513789   0.753   1.796   9.330 -0.1063  0.1340  0.4637
  943MPD2     H13790   0.784   1.533   9.599  2.2242  1.1105  0.7194
  943MPD2    H113791   0.762   1.940   9.479  1.2018 -0.8124  2.6219
  943MPD2    H213792   0.750   1.641   9.185 -1.7203  0.5246 -0.0600
  943MPD2    H313793   0.737   1.870   9.252  2.8253 -0.6738 -0.9215
  943MPD2     N13794   0.821   1.786   9.681 -1.0282 -0.5700  0.7818
  943MPD2    H513795   0.843   1.885   9.691 -1.1113 -0.3486 -1.1555
  943MPD2    N113796   0.761   1.427   9.341  0.3123 -0.7825 -0.3678
  943MPD2    H713797   0.740   1.408   9.243 -0.2016 -0.6064 -0.2878
  944MPD2     C13798   0.697   0.721  10.800  0.2512  0.5576 -0.2903
  944MPD2    C113799   0.773   0.830  10.788  0.1794  0.9621 -0.2290
  944MPD2    C213800   0.769   0.929  10.887  0.1810  0.2403  0.2691
  944MPD2    C313801   0.684   0.912  10.996 -0.3911 -0.1701  0.2420
  944MPD2    C413802   0.598   0.803  11.004 -0.1670 -0.6731 -0.2282
  944MPD2    C513803   0.612   0.708  10.906  0.4366  0.1671 -0.1371
  944MPD2     H13804   0.823   1.021  10.866  0.3524  0.0945  0.0720
  944MPD2    H113805   0.526   0.784  11.083  1.2579 -0.0830  1.2164
  944MPD2    H213806   0.692   0.648  10.720 -0.7440  1.7159 -1.2779
  944MPD2    H313807   0.553   0.621  10.932  0.0564 -0.4906 -3.2737
  944MPD2     N13808   0.693   1.008  11.098  0.0879  0.7244 -0.5881
  944MPD2    H513809   0.757   1.085  11.080  0.1366  0.6525 -0.7254
  944MPD2    N113810   0.866   0.836  10.681 -0.1710  0.3850 -0.6916
  944MPD2    H713811   0.865   0.774  10.601 -0.2535 -0.6433  0.1112
    1TCq1    O113812   3.531   1.510  14.566 -0.0680 -0.6764  0.1151
    1TCq1    C113813   3.494   1.496  14.434  0.4149  0.2963  0.0068
    1TCq1    O213814   3.506   1.393  14.368  0.0122 -0.0451 -0.5905
    1TCq1    C213815   3.457   1.622  14.383 -0.7227 -0.2428  1.2385
    1TCq1    C313816   3.374   1.631  14.273 -0.7049  0.1275  0.9379
    1TCq1    C413817   3.375   1.747  14.202  0.0574 -0.2508  0.5698
    1TCq1    C513818   3.434   1.862  14.244  0.2169  0.6908 -0.1627
    1TCq1    C613819   3.533   1.845  14.339 -0.3396 -0.2046  0.0402
    1TCq1    C713820   3.543   1.726  14.404 -0.7633 -0.6691  0.2089
    1TCq1    C813821   3.619   1.950  14.383 -0.0587 -0.0489 -0.2410
    1TCq1    O413822   3.726   1.917  14.434 -0.3307  0.3038  0.2802
    1TCq1    C913823   3.301   1.746  14.077 -0.3949 -0.3938  0.6068
    1TCq1    O513824   3.328   1.835  13.988 -0.5933 -0.4233  0.8388
    1TCq1    O613825   3.208   1.661  14.054  0.1502  0.7441 -0.1237
    1TCq1    H113826   3.491   1.593  14.598 -0.6074 -0.3818 -1.3358
    1TCq1    H213827   3.301   1.559  14.236 -1.7436  0.7916  1.7142
    1TCq1    H313828   3.418   1.952  14.186  2.7072  0.5476 -1.0688
    1TCq1    H413829   3.621   1.716  14.479  0.5602  2.7053 -0.6798
    2MPD2     C13830   3.758   2.433  14.385 -0.0718 -0.1129  0.1078
    2MPD2    C113831   3.680   2.410  14.274 -0.3421 -0.1044 -0.2249
    2MPD2    C213832   3.635   2.280  14.257  0.6288  0.6383  0.6312
    2MPD2    C313833   3.651   2.182  14.350 -0.0758  0.3283 -0.0500
    2MPD2    C413834   3.714   2.215  14.468  0.1371 -0.1401 -0.1003
    2MPD2    C513835   3.771   2.338  14.477  0.1130  0.3108  0.3794
    2MPD2     H13836   3.587   2.247  14.166  2.0450  0.0637  0.0879
    2MPD2    H113837   3.724   2.143  14.548 -1.6904 -1.6976 -1.2911
    2MPD2    H213838   3.805   2.527  14.411 -1.0493 -0.2981  2.4980
    2MPD2    H313839   3.819   2.351  14.573  1.6500 -0.7250 -0.2289
    2MPD2     N13840   3.595   2.066  14.321 -0.7182 -0.0923  0.3856
    2MPD2    H513841   3.540   2.065  14.235  1.2865  1.2171 -0.8922
    2MPD2    N113842   3.671   2.513  14.182 -0.4394 -0.3829  0.3934
    2MPD2    H713843   3.712   2.604  14.201 -0.8465 -0.2099  0.4386
    3TMC2    C113844   3.610   2.622  13.973  0.2115  0.2556 -0.2984
    3TMC2    C213845   3.667   2.736  14.012  0.0923  0.2975 -0.9356
    3TMC2    C313846   3.664   2.844  13.932 -0.6880  0.7685  0.2118
    3TMC2    C413847   3.545   2.614  13.855 -0.1089 -0.5141  0.0430
    3TMC2    C513848   3.559   2.721  13.773  0.2315 -0.7157  0.3636
    3TMC2    C613849   3.612   2.841  13.808  0.4235  0.4604  0.7114
    3TMC2     C13850   3.607   2.508  14.059  0.0968  0.9272  0.4601
    3TMC2     O13851   3.542   2.412  14.017 -0.0859 -0.2572 -0.4045
    3TMC2     H13852   3.703   2.743  14.114 -1.6279 -0.6870 -0.2704
    3TMC2    H113853   3.494   2.524  13.822 -1.2114 -0.9600  2.9507
    3TMC2    H213854   3.616   2.933  13.750 -3.4215  0.4056  0.3243
    3TMC2    C713855   3.466   2.714  13.657 -0.2213 -0.1736  0.1726
    3TMC2    C813856   3.744   2.964  13.974 -0.1867  0.2789 -0.0661
    3TMC2    O113857   3.426   2.604  13.629  0.4633  0.6931  0.1674
    3TMC2    O213858   3.699   3.068  13.941 -0.0694  0.1825  0.7695
    3TMC2    O513859   3.868   2.930  13.927  0.5360  0.3660  0.5000
    3TMC2    H513860   3.905   2.843  13.954 -0.2451  0.0802  0.6399
    4MPD2     C13861   2.775   3.042  12.406  1.0401  0.8475 -0.3085
    4MPD2    C113862   2.738   3.005  12.529 -0.2009  0.3881 -0.5365
    4MPD2    C213863   2.819   3.027  12.641  0.9867  0.7041 -0.4944
    4MPD2    C313864   2.939   3.101  12.634  0.0670 -0.5275  0.0905
    4MPD2    C413865   2.967   3.147  12.506 -0.9947 -0.1193  0.0373
    4MPD2    C513866   2.894   3.111  12.395 -0.5194 -0.2937  0.1237
    4MPD2     H13867   2.796   2.991  12.740 -0.0027 -0.5710 -1.1830
    4MPD2    H113868   3.051   3.212  12.487  0.1787 -1.6652 -0.0665
    4MPD2    H213869   2.712   3.019  12.321  1.6364 -0.9381 -0.2565
    4MPD2    H313870   2.923   3.135  12.294 -0.8397  2.4261  0.6831
    4MPD2     N13871   3.000   3.147  12.754 -0.0564 -0.8422 -0.6344
    4MPD2    H513872   2.974   3.103  12.841 -2.4489  0.6588 -0.6009
    4MPD2    N113873   2.606   2.954  12.541  0.1480  0.5841 -0.6070
    4MPD2    H713874   2.555   2.949  12.453 -0.4179 -0.1807 -0.2374
    5TCq2    C113875   3.100   3.238  12.747  0.8916 -0.3252  0.0571
    5TCq2    O213876   3.150   3.300  12.651  0.2687  0.9682 -0.7346
    5TCq2    C213877   3.169   3.280  12.872  0.0950 -0.4294 -0.4431
    5TCq2    C313878   3.242   3.389  12.862 -0.2679  0.2187 -0.0885
    5TCq2    C413879   3.321   3.434  12.965 -0.4238  0.5083 -0.6129
    5TCq2    C513880   3.345   3.352  13.069  0.3618  0.1333  0.0865
    5TCq2    C613881   3.279   3.238  13.076 -0.3994 -0.1849 -0.5411
    5TCq2    C713882   3.188   3.197  12.978 -0.0512  0.0915  0.2557
    5TCq2    C813883   3.329   3.139  13.177 -0.2101 -0.1079  0.2906
    5TCq2    O413884   3.438   3.159  13.230  0.6085  0.3340  0.2716
    5TCq2    C913885   3.376   3.569  12.962  0.1735  0.9027 -0.3420
    5TCq2    O513886   3.430   3.608  13.073  0.0803  0.2287 -0.6527
    5TCq2    O613887   3.347   3.641  12.859  0.2394 -0.1404  0.3976
    5TCq2    H213888   3.231   3.461  12.781  1.0090 -0.6623 -1.0470
    5TCq2    H313889   3.417   3.379  13.146 -1.9238  1.5487  1.7074
    5TCq2    H413890   3.147   3.097  12.970 -2.8447  1.0708  2.3430
    6MPD1     C13891   1.239   4.137  12.859  0.5054 -0.2358 -0.5987
    6MPD1    C113892   1.341   4.114  12.954 -0.3921  0.5835 -0.3685
    6MPD1    C213893   1.421   4.010  12.942  0.0838  0.0248 -0.3381
    6MPD1    C313894   1.407   3.919  12.835 -0.2381 -0.3615 -0.4743
    6MPD1    C413895   1.305   3.943  12.745 -0.1494 -0.0277  0.1147
    6MPD1    C513896   1.217   4.045  12.760  0.4353  0.1988  0.0531
    6MPD1     H13897   1.511   4.005  13.003  0.6732  0.2932 -1.1760
    6MPD1    H113898   1.309   3.881  12.656 -0.8320  2.0240 -1.3738
    6MPD1    H213899   1.166   4.217  12.867 -1.0295 -1.7850  0.8838
    6MPD1    H313900   1.143   4.048  12.681 -0.6667  0.5666  1.0972
    6MPD1     N13901   1.496   3.815  12.800 -0.1590  0.3595  0.2259
    6MPD1    H513902   1.477   3.766  12.713  0.6256 -1.3266  1.0054
    6MPD1    N113903   1.377   4.222  13.038 -0.3610 -0.0096 -0.1081
    6MPD1    H613904   1.289   4.266  13.066 -0.3592  0.6282 -1.1005
    6MPD1    H713905   1.431   4.195  13.119  1.0862  0.5940 -0.8781
    7MPD2     C13906   2.082   3.253  13.137  0.4038  0.6462  0.5254
    7MPD2    C113907   2.022   3.231  13.010  0.4014 -0.0814  0.7701
    7MPD2    C213908   2.044   3.114  12.941 -0.8014  0.1516 -0.2790
    7MPD2    C313909   2.135   3.021  12.985 -0.1559  0.0512 -0.1484
    7MPD2    C413910   2.193   3.040  13.111 -0.2726  0.4383  0.0593
    7MPD2    C513911   2.160   3.157  13.186 -0.1772 -0.3317 -0.1303
    7MPD2     H13912   1.999   3.108  12.843 -0.6835  0.0565 -0.3284
    7MPD2    H113913   2.262   2.969  13.155 -1.0658 -0.9876 -1.0242
    7MPD2    H213914   2.073   3.346  13.192  1.2868  0.0175  1.7198
    7MPD2    H313915   2.197   3.164  13.287 -1.9339 -0.6800  0.5441
    7MPD2     N13916   2.176   2.910  12.911  0.2941 -0.0831 -0.0903
    7MPD2    H513917   2.264   2.868  12.938  0.4148 -0.3702 -0.9158
    7MPD2    N113918   1.933   3.319  12.949 -0.6024  0.5194  0.1562
    7MPD2    H713919   1.876   3.298  12.868  1.9008 -1.0769 -1.1709
    8TMC3    C113920   2.203   2.784  12.715  0.1729 -0.1281 -0.5322
    8TMC3    C213921   2.332   2.807  12.732 -0.2283  0.0489  0.5077
    8TMC3    C313922   2.402   2.865  12.629  0.6364 -0.2827 -0.7261
    8TMC3    C413923   2.141   2.789  12.593 -0.0302  0.0123  0.1458
    8TMC3    C513924   2.215   2.853  12.491  0.1971 -0.8702 -0.5505
    8TMC3    C613925   2.347   2.892  12.507  0.0830 -0.4024 -0.1308
    8TMC3     C13926   2.116   2.872  12.792  0.1808  0.7975  0.7690
    8TMC3     O13927   2.004   2.908  12.753  0.4888 -0.5543 -0.7339
    8TMC3     H13928   2.384   2.766  12.818  1.6934 -0.0783 -0.7250
    8TMC3    H113929   2.035   2.769  12.598  0.1104 -1.0345 -1.0843
    8TMC3    H213930   2.398   2.944  12.426  0.9843  0.7997  1.1956
    8TMC3    C713931   2.130   2.955  12.426  0.5315 -0.4619 -0.7965
    8TMC3    C813932   2.541   2.911  12.652  0.1455  0.6948 -0.0230
    8TMC3    O113933   2.180   3.063  12.405  0.2966  0.3493 -0.2446
    8TMC3    O213934   2.573   2.904  12.770  1.1262  0.5112 -0.1588
    9TMC3    C113935   1.666   3.651  12.838 -0.9273  0.6410 -0.2375
    9TMC3    C213936   1.662   3.617  12.708  0.0909 -0.3023 -0.2005
    9TMC3    C313937   1.763   3.531  12.661 -0.4128  0.5529  0.1238
    9TMC3    C413938   1.753   3.608  12.929  0.0834 -0.0661 -0.5063
    9TMC3    C513939   1.832   3.504  12.887  0.8293 -0.6550 -0.2076
    9TMC3    C613940   1.850   3.477  12.752  0.0444 -0.6269  0.5843
    9TMC3     C13941   1.595   3.774  12.888  0.3494 -0.2941 -0.1688
    9TMC3     O13942   1.618   3.818  13.000  0.3053  0.2221 -0.0055
    9TMC3     H13943   1.586   3.640  12.634  1.1508  0.6177 -0.9928
    9TMC3    H113944   1.732   3.601  13.036 -1.4326  0.9770 -0.7261
    9TMC3    H213945   1.928   3.409  12.721  2.7428  1.6794  2.3485
    9TMC3    C713946   1.916   3.441  12.987 -0.7006  0.3443  0.2723
    9TMC3    C813947   1.725   3.455  12.543  0.2319  0.7764  0.0937
    9TMC3    O113948   1.979   3.513  13.063  0.5009 -0.0536 -0.2082
    9TMC3    O213949   1.611   3.467  12.500  0.2226 -0.2493 -0.6996
   10MPD2     C13950   1.756   2.962  12.420  0.5502 -0.0545  0.1014
   10MPD2    C113951   1.882   3.011  12.424 -0.4761  0.7552 -0.1383
   10MPD2    C213952   1.905   3.148  12.443  0.8321 -0.3480  0.6474
   10MPD2    C313953   1.799   3.231  12.456  0.0192  0.3386 -0.4599
   10MPD2    C413954   1.671   3.182  12.432 -0.4920  0.3990  0.0634
   10MPD2    C513955   1.648   3.046  12.413  0.1867  0.1376  0.2885
   10MPD2     H13956   2.003   3.187  12.469 -0.3385  2.4480  0.8731
   10MPD2    H113957   1.585   3.247  12.429  0.1324  1.1862 -0.6873
   10MPD2    H213958   1.740   2.856  12.401 -1.0705  0.1015  0.5669
   10MPD2    H313959   1.546   3.019  12.391  0.6970 -0.6466 -1.0956
   10MPD2     N13960   1.822   3.360  12.513  0.5551 -0.2538  1.3767
   10MPD2    H513961   1.916   3.376  12.546  0.5198 -2.2329  2.4446
   10MPD2    N113962   1.993   2.922  12.419 -0.2143 -0.6090 -0.2338
   10MPD2    H713963   1.958   2.827  12.423 -1.1702 -0.1774  2.1099
   11MPD2     C13964   3.223   2.762  13.510  0.3016  1.0866  0.5760
   11MPD2    C113965   3.335   2.843  13.498 -0.5814  0.3042  0.4822
   11MPD2    C213966   3.330   2.942  13.406 -0.5576 -1.0712 -0.3178
   11MPD2    C313967   3.232   2.957  13.309  0.3315  0.8911 -0.3815
   11MPD2    C413968   3.114   2.888  13.332  0.6388  0.0861  0.5025
   11MPD2    C513969   3.119   2.784  13.421  0.0708  0.1533  0.7552
   11MPD2     H13970   3.418   3.005  13.398 -0.7497 -0.6483  0.8790
   11MPD2    H113971   3.017   2.897  13.283  0.1831  1.1545  1.6162
   11MPD2    H213972   3.211   2.684  13.585 -3.8910  0.6638 -0.5193
   11MPD2    H313973   3.034   2.718  13.432 -0.2075  0.0464 -2.0485
   11MPD2     N13974   3.234   3.046  13.205 -0.0774 -0.4567  0.7403
   11MPD2    H513975   3.144   3.051  13.159 -0.3771 -2.0641  1.1515
   11MPD2    N113976   3.447   2.825  13.590  0.2293  0.2088 -0.3216
   11MPD2    H713977   3.508   2.906  13.599 -2.1160  1.7835  1.3718
    1MPD1     C13978   0.985   3.434  17.259  0.0575 -0.6340 -0.7160
    1MPD1    C113979   1.069   3.508  17.341 -0.1238  0.3027 -0.1468
    1MPD1    C213980   1.187   3.548  17.286  0.1282 -0.4754 -0.2403
    1MPD1    C313981   1.216   3.526  17.154 -0.4015 -0.3274  0.1384
    1MPD1    C413982   1.116   3.476  17.074  0.0321 -0.7137  0.1155
    1MPD1    C513983   1.004   3.424  17.124 -0.2927 -0.3374 -0.3045
    1MPD1     H13984   1.257   3.592  17.356  0.0221  0.1852 -0.5465
    1MPD1    H113985   1.147   3.457  16.972  0.8139  1.1030  0.0088
    1MPD1    H213986   0.892   3.392  17.296  0.3533  0.7269  1.5724
    1MPD1    H313987   0.939   3.364  17.061 -1.0782  0.2095 -0.0064
    1MPD1     N13988   1.337   3.566  17.094  0.1553  0.1282 -0.8106
    1MPD1    H513989   1.353   3.555  16.994 -0.4003 -0.4446 -0.8419
    1MPD1    N113990   1.046   3.518  17.476  0.0588  0.3064 -0.1844
    1MPD1    H613991   0.957   3.553  17.510 -0.5697 -2.6170  1.1305
    1MPD1    H713992   1.114   3.572  17.529  0.0083  0.6478 -0.4713
    2MPD1     C13993   2.423   3.685  17.326  0.1808  0.1030  0.3278
    2MPD1    C113994   2.370   3.800  17.271 -0.5771 -0.7382 -0.1612
    2MPD1    C213995   2.238   3.794  17.218  0.0308  0.2902 -0.2672
    2MPD1    C313996   2.152   3.687  17.248  0.7788 -0.4016  0.6943
    2MPD1    C413997   2.209   3.582  17.314  0.1981  0.3186  0.0050
    2MPD1    C513998   2.342   3.577  17.337 -0.2788 -0.3457  0.2861
    2MPD1     H13999   2.212   3.872  17.147  1.6786  0.6816 -0.4446
    2MPD1    H114000   2.150   3.494  17.337  0.0742  0.7831  1.4970
    2MPD1    H214001   2.528   3.687  17.351  0.7592  1.1542 -2.1857
    2MPD1    H314002   2.384   3.486  17.378  1.1500 -0.0605 -0.5323
    2MPD1     N14003   2.021   3.706  17.196 -0.6651 -0.3790 -0.6767
    2MPD1    H514004   2.009   3.793  17.146 -1.9399  0.9075  1.9108
    2MPD1    N114005   2.458   3.904  17.242 -0.2164 -0.2259 -0.0154
    2MPD1    H614006   2.535   3.911  17.309 -0.4811 -0.5540  0.3261
    2MPD1    H714007   2.423   3.999  17.226  2.4163  1.0835  1.8992
    3TMC3    C114008   1.800   3.650  17.130  0.4145 -0.1565 -0.2755
    3TMC3    C214009   1.802   3.723  17.010 -0.4428 -0.6812  0.2156
    3TMC3    C314010   1.691   3.730  16.933 -0.3336 -0.0820 -0.2768
    3TMC3    C414011   1.692   3.580  17.168  0.1559 -0.6579  0.2013
    3TMC3    C514012   1.580   3.603  17.098 -0.3318 -0.0088 -0.6911
    3TMC3    C614013   1.577   3.664  16.976 -0.2576  0.0123 -0.4808
    3TMC3     C14014   1.923   3.604  17.190 -0.5498  0.3841  0.0854
    3TMC3     O14015   1.929   3.488  17.220 -0.0343  0.2847 -0.3648
    3TMC3     H14016   1.884   3.793  16.997 -1.4761  0.5702  0.3913
    3TMC3    H114017   1.686   3.535  17.267 -0.5402  1.9137  1.3284
    3TMC3    H214018   1.486   3.685  16.920 -1.2479 -1.9701  0.3601
    3TMC3    C714019   1.453   3.574  17.164 -0.1672  0.4449 -0.2406
    3TMC3    C814020   1.707   3.745  16.790  0.5535  0.1333 -0.1397
    3TMC3    O114021   1.462   3.550  17.282  0.2673 -0.7235 -0.4554
    3TMC3    O214022   1.605   3.735  16.725 -0.1015  0.3305 -0.1691
    4MPD1     C14023   1.983   3.630  16.371 -0.5357  0.0599  0.0207
    4MPD1    C114024   2.065   3.621  16.482  0.0686 -0.8855 -0.7720
    4MPD1    C214025   2.014   3.651  16.607 -0.2505  0.9661  0.5430
    4MPD1    C314026   1.881   3.683  16.624  0.0607 -0.7654  0.0907
    4MPD1    C414027   1.800   3.688  16.504 -0.3856 -0.1887 -0.4868
    4MPD1    C514028   1.855   3.662  16.384  0.3733 -0.3127  0.2300
    4MPD1     H14029   2.077   3.646  16.695  0.5209  0.9430 -0.0097
    4MPD1    H114030   1.698   3.722  16.512 -0.5678 -0.6077 -1.0112
    4MPD1    H214031   2.023   3.618  16.271 -0.7966 -0.2612 -0.0477
    4MPD1    H314032   1.795   3.674  16.294 -1.5647  0.8783  1.6629
    4MPD1     N14033   1.840   3.717  16.755  0.2539  0.2402 -0.2540
    4MPD1    H514034   1.915   3.712  16.823 -0.6919  0.7106  0.8251
    4MPD1    N114035   2.207   3.616  16.463  0.2066  0.2311 -0.2445
    4MPD1    H614036   2.250   3.562  16.537 -1.7375  0.1462  0.8360
    4MPD1    H714037   2.230   3.579  16.371  2.2683  0.6267  0.1197
    1TCq1    O114038   3.027   3.373  11.790  0.0017  0.3424 -0.1096
    1TCq1    C114039   3.051   3.444  11.678  0.4345 -0.1423 -0.6819
    1TCq1    O214040   2.987   3.428  11.577 -0.1060  0.2858 -0.6771
    1TCq1    C214041   3.103   3.572  11.728 -0.3581 -0.1226  0.4230
    1TCq1    C314042   3.114   3.595  11.860 -0.2429  0.2313  0.5233
    1TCq1    C414043   3.166   3.715  11.901  0.2022  0.4964  0.3764
    1TCq1    C514044   3.248   3.779  11.807  0.3653  0.1301  0.0839
    1TCq1    C614045   3.247   3.735  11.679 -0.1661 -0.2047  0.1096
    1TCq1    C714046   3.169   3.635  11.629 -0.4553  0.5662  0.5227
    1TCq1    C814047   3.319   3.815  11.583 -0.0899 -0.3594 -0.7265
    1TCq1    O414048   3.362   3.923  11.620  0.1564  0.8777  0.0393
    1TCq1    C914049   3.169   3.751  12.042 -0.1728 -0.1134 -0.3235
    1TCq1    O514050   3.221   3.862  12.068 -0.3179  0.1169  0.1724
    1TCq1    O614051   3.090   3.696  12.120 -0.4809 -0.4216 -0.0166
    1TCq1    H114052   3.099   3.382  11.857 -1.7148  1.4912  1.5898
    1TCq1    H214053   3.056   3.545  11.936 -1.4785 -1.6794 -1.6661
    1TCq1    H314054   3.310   3.860  11.844 -0.4389  0.0850  1.5079
    1TCq1    H414055   3.167   3.585  11.533 -1.2464  0.5543  0.5481
    2MPD1     C14056   3.449   3.870  11.098  0.0805  0.1252 -0.2678
    2MPD1    C114057   3.431   3.733  11.123  0.1141  0.8145 -0.1256
    2MPD1    C214058   3.395   3.701  11.251 -0.0348 -0.7345  0.1793
    2MPD1    C314059   3.400   3.789  11.355 -0.2075  0.4128  0.6334
    2MPD1    C414060   3.441   3.923  11.335  0.2402 -0.4626  0.0387
    2MPD1    C514061   3.460   3.959  11.203 -0.0273 -0.2711  0.3857
    2MPD1     H14062   3.357   3.605  11.283  1.2804 -1.5135 -0.6080
    2MPD1    H114063   3.445   3.995  11.415 -1.4818  0.9667 -1.1633
    2MPD1    H214064   3.464   3.910  10.998  0.8979 -0.2831 -0.3096
    2MPD1    H314065   3.474   4.064  11.178 -1.0789 -0.1365  0.3401
    2MPD1     N14066   3.365   3.742  11.477 -0.0971 -0.7759  0.3787
    2MPD1    H514067   3.344   3.642  11.481 -1.4322 -0.4212  2.8222
    2MPD1    N114068   3.419   3.638  11.024 -0.2646  0.4954 -0.1819
    2MPD1    H614069   3.479   3.663  10.946 -2.5014  2.1518 -1.3933
    2MPD1    H714070   3.454   3.550  11.062 -0.0672  0.6171 -0.0802
    1TCq1    O114071   3.587   2.495   0.784 -0.0531 -0.7715  0.0459
    1TCq1    C114072   3.679   2.550   0.699 -0.5073  0.0861  0.2456
    1TCq1    O214073   3.783   2.610   0.724  0.2571  0.4737  0.0607
    1TCq1    C214074   3.662   2.474   0.573 -0.2768  0.4255  0.2567
    1TCq1    C314075   3.775   2.433   0.502  0.1187 -0.2574 -0.2438
    1TCq1    C414076   3.770   2.398   0.374  0.9136  0.3532  0.0415
    1TCq1    C514077   3.648   2.357   0.328 -0.1662 -0.3780  0.2854
    1TCq1    C614078   3.538   2.389   0.398 -0.1055  0.3474  0.5450
    1TCq1    C714079   3.537   2.447   0.521 -0.0561  0.9257 -0.0409
    1TCq1    C814080   3.405   2.393   0.334 -0.3370 -0.2030  0.0907
    1TCq1    O414081   3.321   2.457   0.395  0.4043  0.0263  0.5269
    1TCq1    C914082   3.890   2.345   0.317 -0.1456 -0.0084  1.1587
    1TCq1    O514083   3.881   2.273   0.213  0.7012 -0.1204 -0.7764
    1TCq1    O614084   3.994   2.417   0.346  0.1725 -0.1942  0.0428
    1TCq1    H114085   3.541   2.419   0.741 -3.8856  0.3194  2.2979
    1TCq1    H214086   3.875   2.446   0.543  0.1790  2.7766 -1.3408
    1TCq1    H314087   3.655   2.315   0.228  1.1659 -1.7825  0.9644
    1TCq1    H414088   3.452   2.479   0.580 -0.2529 -1.5185  0.9914
    2MPD1     C14089   3.073   2.396  17.646 -0.6553  0.5033  0.4051
    2MPD1    C114090   3.197   2.383  17.596 -0.5224 -0.5505 -0.3056
    2MPD1    C214091   3.305   2.366  17.687  0.0825  0.5942 -0.0135
    2MPD1    C314092   3.283   2.380   0.119 -0.0858 -0.2508  0.3852
    2MPD1    C414093   3.162   2.412   0.169 -0.3380  0.4371  0.4710
    2MPD1    C514094   3.063   2.415   0.077 -0.6026 -0.4743 -0.0028
    2MPD1     H14095   3.406   2.357  17.650 -0.0302  1.0851 -0.4446
    2MPD1    H114096   3.132   2.406   0.273 -0.2698 -0.2094  0.4512
    2MPD1    H214097   2.982   2.413  17.589 -0.4987 -0.7060 -0.2010
    2MPD1    H314098   2.963   2.425   0.118  0.5383 -0.9447  2.8900
    2MPD1     N14099   3.398   2.367   0.202 -0.9122  0.5503 -0.1534
    2MPD1    H514100   3.480   2.333   0.152 -1.8068 -1.8541  0.0262
    2MPD1    N114101   3.223   2.359  17.459 -0.2350 -0.2090  0.4753
    2MPD1    H614102   3.149   2.399  17.403 -1.3839 -0.0415  2.1050
    2MPD1    H714103   3.317   2.379  17.426  0.0729 -2.1126  0.1662
    1MPD1     C14104   4.120   2.821  11.607 -0.6234  0.4025  0.3564
    1MPD1    C114105   4.053   2.865  11.717  0.3186  0.3975  0.3495
    1MPD1    C214106   4.102   2.982  11.779  0.1515 -0.4313 -0.0134
    1MPD1    C314107   4.190   3.067  11.717 -0.0701  0.0688 -0.5437
    1MPD1    C414108   4.242   3.026  11.598 -0.0780 -0.2671  0.1103
    1MPD1    C514109   4.217   2.904  11.548 -0.1819 -0.2654  1.1358
    1MPD1     H14110   4.052   3.019  11.869  0.0528  3.6273 -1.7239
    1MPD1    H114111   4.329   3.072  11.554 -0.3244 -0.5587 -0.6764
    1MPD1    H214112   4.098   2.726  11.561  0.3438 -0.2264  1.1978
    1MPD1    H314113   4.278   2.862  11.469 -0.6421  1.1386  0.0561
    1MPD1     N14114   4.228   3.197  11.783 -0.0075  0.3680  0.2507
    1MPD1    H514115   4.185   3.223  11.871  1.6198  0.5494  0.9915
    1MPD1    N114116   3.962   2.782  11.794 -0.9729 -0.2796 -0.1815
    1MPD1    H614117   3.885   2.834  11.834 -1.4662 -0.4043 -0.9526
    1MPD1    H714118   3.911   2.729  11.723  1.0002 -3.7767  0.9973
    2MPD1     C14119   2.993   4.604  10.936  0.0463  0.1986  0.3157
    2MPD1    C114120   2.946   4.520  10.842  0.1756  0.5610 -0.6365
    2MPD1    C214121   3.034   4.435  10.776  0.1561 -0.2697 -0.0478
    2MPD1    C314122   3.170   4.447  10.801 -0.0890 -1.2093 -0.7630
    2MPD1    C414123   3.211   4.545  10.888 -0.0253 -0.1626  0.3580
    2MPD1    C514124   3.125   4.619  10.958  0.1214  0.4108 -0.2665
    2MPD1     H14125   2.996   4.361  10.706 -0.2644 -0.5143  0.4366
    2MPD1    H114126   3.316   4.564  10.907  0.3743  1.4447 -3.4475
    2MPD1    H214127   2.932   4.666  11.001 -3.8554 -2.2732 -0.9874
    2MPD1    H314128   3.162   4.686  11.035 -0.3389  0.6719 -0.2719
    2MPD1     N14129   3.269   4.355  10.761  0.6520  0.0424 -0.0354
    2MPD1    H514130   3.367   4.372  10.781  0.5904 -0.1992  0.4724
    2MPD1    N114131   2.805   4.498  10.818 -0.2711  0.4681  0.2392
    2MPD1    H614132   2.788   4.469  10.722  0.6002  1.4132 -0.1978
    2MPD1    H714133   2.755   4.583  10.844  0.3302  0.9720 -0.2456
    3MPD1     C14134   3.244   3.369  10.429  0.5594 -0.3335 -0.0786
    3MPD1    C114135   3.192   3.411  10.553 -0.0814 -0.1477 -0.3329
    3MPD1    C214136   3.224   3.537  10.600  0.0621  0.4317 -0.0555
    3MPD1    C314137   3.305   3.619  10.532 -1.1082 -0.0087  0.0337
    3MPD1    C414138   3.357   3.575  10.414  0.1315  0.3659  0.3532
    3MPD1    C514139   3.329   3.450  10.371 -0.2336  0.1037 -0.2563
    3MPD1     H14140   3.173   3.569  10.690  0.6220 -1.5423  0.9841
    3MPD1    H114141   3.424   3.636  10.354 -0.3655 -1.8099 -2.4544
    3MPD1    H214142   3.226   3.269  10.392 -3.1707 -0.4471  2.0010
    3MPD1    H314143   3.364   3.416  10.274 -1.2846 -1.5949 -0.0306
    3MPD1     N14144   3.340   3.738  10.593  0.2222  0.8438  0.3273
    3MPD1    H514145   3.292   3.763  10.679 -0.1787  0.1457  0.3090
    3MPD1    N114146   3.096   3.328  10.619  0.5486 -0.0758  0.0296
    3MPD1    H614147   3.084   3.234  10.581  1.1161 -0.4458  0.7579
    3MPD1    H714148   3.096   3.327  10.721 -1.4898 -1.3123  0.0006
    4MPD2     C14149   3.920   3.877  11.979 -0.0740  0.0114 -0.6289
    4MPD2    C114150   4.042   3.880  11.923  0.9988  0.0394  0.0992
    4MPD2    C214151   4.075   3.991  11.843  0.1773 -0.1117  0.4588
    4MPD2    C314152   3.992   4.099  11.816  0.1615  0.3227 -0.4315
    4MPD2    C414153   3.863   4.083  11.863  0.3447  0.4637  0.2467
    4MPD2    C514154   3.828   3.977  11.945 -0.3233  0.5931 -0.3094
    4MPD2     H14155   4.174   3.997  11.799  0.8018 -2.8669  1.4556
    4MPD2    H114156   3.786   4.154  11.834 -0.1108 -1.0535 -2.2853
    4MPD2    H214157   3.885   3.797  12.043 -3.6970  1.2948 -0.9977
    4MPD2    H314158   3.727   3.970  11.983 -0.9948 -0.7486 -2.3311
    4MPD2     N14159   4.026   4.204  11.725  0.0896 -0.3713  0.5400
    4MPD2    H514160   3.959   4.273  11.691  1.0418  0.0759 -0.4313
    4MPD2    N114161   4.132   3.777  11.935 -0.2851 -0.1130 -0.5886
    4MPD2    H714162   4.213   3.786  11.873 -1.1424  0.9592 -1.5599
    5TMC3    C114163   4.229   3.564  11.976  0.0259 -0.5585 -0.2812
    5TMC3    C214164   4.224   3.449  11.893 -0.0076  0.1159  0.7915
    5TMC3    C314165   4.329   3.411  11.820 -0.0790  0.5636 -0.6179
    5TMC3    C414166   4.342   3.644  11.973  0.5140 -0.3618  0.6744
    5TMC3    C514167   4.439   3.616  11.875  0.1246  0.7332  0.3466
    5TMC3    C614168   4.443   3.491  11.813 -1.0107  0.5760 -0.3966
    5TMC3     C14169   4.111   3.651  11.986  0.9140  0.2486  0.6008
    5TMC3     O14170   4.012   3.603  12.043  0.0335  0.0895 -0.0580
    5TMC3     H14171   4.130   3.395  11.887  0.2878  0.1918 -4.2549
    5TMC3    H114172   4.345   3.731  12.037 -0.3489  1.1402 -1.3150
    5TMC3    H214173   4.524   3.470  11.744 -0.3738  1.4806  0.0599
    5TMC3    C714174   4.477   3.733  11.803 -0.5937 -0.1045 -1.0869
    5TMC3    C814175   4.320   3.289  11.733 -0.0328 -0.0800 -0.3545
    5TMC3    O114176   4.428   3.837  11.848 -0.0110 -0.4117  0.0736
    5TMC3    O214177   4.397   3.273  11.643 -0.2548 -0.1228 -0.0062
    6TMC3    C114178   3.352   4.144  10.712 -0.4859  0.0585 -0.6981
    6TMC3    C214179   3.338   4.018  10.661  1.0047  0.0067 -1.2179
    6TMC3    C314180   3.453   3.939  10.642  0.4984 -0.4664 -0.1149
    6TMC3    C414181   3.474   4.185  10.765 -0.1573 -0.2826 -0.6301
    6TMC3    C514182   3.586   4.099  10.758  0.2973  0.4464 -0.1375
    6TMC3    C614183   3.576   3.982  10.692  0.0655 -0.3987  0.1173
    6TMC3     C14184   3.239   4.238  10.705 -0.1338  0.6800 -0.0658
    6TMC3     O14185   3.142   4.213  10.635  0.0377  0.0534  0.4682
    6TMC3     H14186   3.239   3.986  10.631  1.3026 -1.4613 -0.6264
    6TMC3    H114187   3.494   4.286  10.800  1.1406 -1.1992  1.3021
    6TMC3    H214188   3.662   3.916  10.685  0.8521  0.3664  2.4494
    6TMC3    C714189   3.683   4.102  10.866 -0.4127 -0.7358  0.5498
    6TMC3    C814190   3.445   3.819  10.565 -0.1843  0.2348  0.8637
    6TMC3    O114191   3.696   4.211  10.916 -0.1638  0.6027 -0.1775
    6TMC3    O214192   3.537   3.805  10.482 -0.7945 -0.2073 -0.4546
    7MPD2     C14193   4.600   3.997  11.387  0.3803  0.1380 -0.4731
    7MPD2    C114194   4.506   4.022  11.481 -0.5836 -0.0575  0.2445
    7MPD2    C214195   4.507   3.938  11.590  0.0761  0.5036 -0.6396
    7MPD2    C314196   4.580   3.820  11.595  0.1871  0.7469 -0.4794
    7MPD2    C414197   4.662   3.794  11.495  0.9884  0.4728 -0.4112
    7MPD2    C514198   4.688   3.889  11.402 -0.4121 -0.0218  0.7098
    7MPD2     H14199   4.436   3.960  11.669  1.6421  0.2299  0.8448
    7MPD2    H114200   4.720   3.702  11.489  2.2083  1.3270 -1.6384
    7MPD2    H214201   4.617   4.071  11.309 -0.8483 -1.2909 -2.0829
    7MPD2    H314202   0.028   3.849  11.325  0.4426  1.3722  0.7118
    7MPD2     N14203   4.563   3.721  11.694 -0.3023  0.6525 -0.3421
    7MPD2    H514204   4.595   3.630  11.662 -0.2410 -0.2953  2.4507
    7MPD2    N114205   4.419   4.135  11.475  0.0410 -0.1592 -0.3899
    7MPD2    H714206   4.355   4.153  11.552  0.1840 -1.5387  0.0505
    8TMC3    C114207   4.318   4.335  11.401  0.5629  0.1232 -0.5914
    8TMC3    C214208   4.216   4.331  11.308  0.0860  0.0518  0.1707
    8TMC3    C314209   4.086   4.319  11.357  0.2714  0.4920  0.7804
    8TMC3    C414210   4.294   4.341  11.539  0.2977 -0.0142 -0.6255
    8TMC3    C514211   4.161   4.329  11.579  0.9189 -0.8108 -0.6046
    8TMC3    C614212   4.056   4.309  11.492  0.4214 -0.6216  0.8817
    8TMC3     C14213   4.412   4.229  11.374 -0.5820 -0.0872  0.0240
    8TMC3     O14214   4.447   4.218  11.255  0.1656 -0.3483 -0.3585
    8TMC3     H14215   4.230   4.349  11.202 -3.4354  0.2928 -0.2612
    8TMC3    H114216   4.377   4.354  11.607  1.2786 -0.2222 -1.7795
    8TMC3    H214217   3.954   4.310  11.531  0.6659  0.5065  1.4852
    8TMC3    C714218   4.154   4.231  11.685 -0.5372  0.4188 -0.2915
    8TMC3    C814219   3.999   4.249  11.266  0.1719 -0.0668  0.1712
    8TMC3    O114220   4.266   4.190  11.715 -0.2854  0.0467  0.4847
    8TMC3    O214221   4.013   4.273  11.147  0.4630  0.7160 -0.0513
    9MPD2     C14222   3.853   3.917  11.311 -0.4931  0.2024 -0.0411
    9MPD2    C114223   3.873   4.042  11.246  0.2627 -0.1587  0.5122
    9MPD2    C214224   3.829   4.069  11.121 -0.2051  0.7124  0.2361
    9MPD2    C314225   3.777   3.966  11.046  0.2516  0.3866 -0.2324
    9MPD2    C414226   3.776   3.840  11.099 -0.1124  0.2047 -0.1065
    9MPD2    C514227   3.801   3.814  11.233  0.0997 -0.7790 -0.2524
    9MPD2     H14228   3.825   4.172  11.085  2.8315  0.4775 -0.8095
    9MPD2    H114229   3.721   3.759  11.051 -0.3836  1.1083 -1.3114
    9MPD2    H214230   3.884   3.906  11.414 -0.0463 -0.7550 -0.2864
    9MPD2    H314231   3.789   3.715  11.275 -1.5644 -0.5279 -0.1172
    9MPD2     N14232   3.709   3.978  10.917 -0.2175 -0.2913 -0.3015
    9MPD2    H514233   3.680   3.891  10.872  1.9532  0.2066 -2.6237
    9MPD2    N114234   3.935   4.143  11.328  0.9128  0.5203 -0.1792
    9MPD2    H714235   3.936   4.128  11.428 -0.8751  1.9961  0.0613
    1MPD1     C14236   2.915   2.535  15.259  0.3044 -0.1856 -0.1494
    1MPD1    C114237   2.854   2.657  15.286  0.0798  0.1856  0.6676
    1MPD1    C214238   2.935   2.763  15.335 -0.2663 -0.2169 -0.1712
    1MPD1    C314239   3.068   2.741  15.367 -0.2724 -0.0683  0.5118
    1MPD1    C414240   3.122   2.618  15.354 -0.4822 -0.1779  0.1959
    1MPD1    C514241   3.047   2.523  15.293 -0.4118  0.0541  1.2404
    1MPD1     H14242   2.873   2.845  15.369  0.5069  0.8685 -1.4066
    1MPD1    H114243   3.226   2.608  15.380 -0.1966 -0.5467 -1.0801
    1MPD1    H214244   2.862   2.449  15.221 -0.8497  0.2347  0.5022
    1MPD1    H314245   3.100   2.430  15.276 -4.0439 -1.8082  0.0655
    1MPD1     N14246   3.147   2.842  15.438  0.0837  0.1706 -0.0410
    1MPD1    H514247   3.228   2.813  15.491 -0.7777 -0.9309  0.6798
    1MPD1    N114248   2.718   2.685  15.243  0.7654 -0.1845  0.3415
    1MPD1    H614249   2.669   2.596  15.251  1.6015 -0.7514 -0.7064
    1MPD1    H714250   2.674   2.759  15.297 -1.3797  0.2730 -2.0188
    2MPD1     C14251   3.153   3.832  15.461  0.2272  0.0524  0.2602
    2MPD1    C114252   3.042   3.753  15.482  0.0116  0.4481  0.2103
    2MPD1    C214253   3.066   3.623  15.525  0.0937  0.1714 -0.4487
    2MPD1    C314254   3.197   3.574  15.536 -0.4336  0.1812  0.1195
    2MPD1    C414255   3.307   3.652  15.513  0.3645 -0.0710  0.7608
    2MPD1    C514256   3.278   3.782  15.477 -0.6548 -0.1215 -0.1894
    2MPD1     H14257   2.992   3.550  15.557 -0.6637  0.7625 -0.8514
    2MPD1    H114258   3.409   3.625  15.537  0.3658 -0.6247  0.1298
    2MPD1    H214259   3.143   3.937  15.437  1.6436  0.0463 -0.3807
    2MPD1    H314260   3.362   3.847  15.456  0.7137 -2.1288 -0.9313
    2MPD1     N14261   3.207   3.444  15.578 -0.2156 -0.0459 -0.0074
    2MPD1    H514262   3.118   3.394  15.575  0.8868 -2.1862  3.3490
    2MPD1    N114263   2.912   3.805  15.479  0.0742  0.0685 -0.0022
    2MPD1    H614264   2.903   3.887  15.419 -2.9780  0.5626  1.1060
    2MPD1    H714265   2.847   3.731  15.455  0.2061 -0.3681  0.9766
    3TCq2    C114266   3.327   3.374  15.599 -0.6274  0.0704 -0.4107
    3TCq2    O214267   3.439   3.421  15.616  0.1338  0.2434 -0.0532
    3TCq2    C214268   3.308   3.235  15.613  0.1555  0.7201  0.4221
    3TCq2    C314269   3.414   3.165  15.672  0.6817  0.3176 -0.3467
    3TCq2    C414270   3.401   3.025  15.680  0.5942  0.9965  0.0846
    3TCq2    C514271   3.291   2.968  15.626 -0.9372 -0.4785  0.1022
    3TCq2    C614272   3.208   3.037  15.544 -0.0891 -0.4829 -0.2770
    3TCq2    C714273   3.211   3.172  15.538 -0.4116 -0.3822  0.1104
    3TCq2    C814274   3.112   2.971  15.452 -0.2311  0.4712  0.2146
    3TCq2    O414275   3.017   3.035  15.408  0.2164 -0.4692 -0.3114
    3TCq2    C914276   3.502   2.938  15.746  0.2282 -0.1780  0.1726
    3TCq2    O514277   3.603   3.004  15.789 -0.4752 -0.7795 -0.2000
    3TCq2    O614278   3.486   2.815  15.737 -0.0914 -0.1077 -0.2163
    3TCq2    H214279   3.500   3.214  15.716  0.1385 -1.0137  2.2287
    3TCq2    H314280   3.275   2.863  15.649  0.2865 -0.4017  1.3390
    3TCq2    H414281   3.144   3.217  15.466 -0.3686  0.2761  0.4736
    1TCq1    O114282   1.614   1.050  12.393 -0.3841 -0.1433 -0.1897
    1TCq1    C114283   1.541   1.151  12.446 -0.2843  0.2726 -0.3334
    1TCq1    O214284   1.421   1.171  12.430  0.0540  0.0934 -0.0114
    1TCq1    C214285   1.616   1.194  12.562  0.1644  0.5512  0.0806
    1TCq1    C314286   1.544   1.255  12.664  0.4357 -0.7245  0.2048
    1TCq1    C414287   1.617   1.320  12.759 -0.6627  0.4259  0.2765
    1TCq1    C514288   1.754   1.312  12.765  0.3262 -0.5177 -0.1283
    1TCq1    C614289   1.816   1.233  12.674  0.3860  0.3173 -0.0999
    1TCq1    C714290   1.751   1.189  12.566  0.1440  0.3983 -0.1632
    1TCq1    C814291   1.960   1.203  12.681 -0.3591  0.2552 -0.2377
    1TCq1    O414292   2.011   1.141  12.590  0.2869 -0.5017  0.6554
    1TCq1    C914293   1.553   1.364  12.881 -0.4351  0.0150  0.1310
    1TCq1    O514294   1.627   1.392  12.981  0.2721 -0.0110 -0.5535
    1TCq1    O614295   1.428   1.381  12.871  0.0643 -0.4405  0.0092
    1TCq1    H114296   1.696   1.030  12.443 -0.0171 -1.2727 -1.2657
    1TCq1    H214297   1.436   1.253  12.674  0.4013 -1.4719 -0.3604
    1TCq1    H314298   1.801   1.357  12.851 -1.4548  1.4459 -0.1874
    1TCq1    H414299   1.804   1.153  12.479 -1.9746  0.4943 -1.4706
    2MPD2     C14300   2.246   1.181  12.768 -0.6393  0.0115 -0.1800
    2MPD2    C114301   2.159   1.283  12.801 -0.1024  0.7867 -0.6950
    2MPD2    C214302   2.208   1.390  12.869  0.8198 -0.0353 -0.2002
    2MPD2    C314303   2.337   1.399  12.903  0.5700 -0.2322 -0.9943
    2MPD2    C414304   2.425   1.308  12.858 -0.5355  0.1423  0.0981
    2MPD2    C514305   2.384   1.202  12.783  0.3661 -0.0899  0.7018
    2MPD2     H14306   2.145   1.473  12.900 -0.7402 -1.8409  1.5052
    2MPD2    H114307   2.533   1.308  12.873 -0.4508  1.4582 -0.5405
    2MPD2    H214308   2.217   1.096  12.709  0.3498 -1.9248  2.1352
    2MPD2    H314309   2.448   1.122  12.747  1.6849  1.9698 -1.4968
    2MPD2     N14310   2.371   1.514  12.979 -1.0180  0.1424 -0.5223
    2MPD2    H514311   2.296   1.572  13.016 -2.0005 -1.1183 -0.5520
    2MPD2    N114312   2.025   1.284  12.766 -0.4234 -0.0361  0.5924
    2MPD2    H714313   1.961   1.351  12.807  0.0194 -0.2355  1.6221
    3TCq1    O114314   2.778   1.805  13.445 -0.1490 -0.3087  0.0977
    3TCq1    C114315   2.771   1.750  13.321 -0.7648 -0.2028  1.1788
    3TCq1    O214316   2.852   1.776  13.233 -0.1739  0.3479  0.0020
    3TCq1    C214317   2.634   1.736  13.279 -0.5493 -0.2443 -0.0844
    3TCq1    C314318   2.543   1.838  13.289  0.2287 -0.3247 -0.3529
    3TCq1    C414319   2.439   1.835  13.202  0.3744  0.5496  0.2420
    3TCq1    C514320   2.424   1.738  13.111 -0.0564  0.3074  0.3797
    3TCq1    C614321   2.514   1.639  13.108 -0.1972 -0.2110 -0.2332
    3TCq1    C714322   2.625   1.643  13.188 -0.2877  0.2413  0.2996
    3TCq1    C814323   2.500   1.530  13.024  0.4846 -0.6270 -1.1761
    3TCq1    O414324   2.589   1.448  13.022  0.1012 -0.2849  1.2337
    3TCq1    C914325   2.338   1.941  13.215  0.5719 -0.7167 -0.0486
    3TCq1    O514326   2.246   1.941  13.130  0.1339 -0.0861 -0.6898
    3TCq1    O614327   2.351   2.018  13.316 -0.1877 -0.2500 -0.1438
    3TCq1    H114328   2.698   1.784  13.498  0.9785 -0.4533  1.7102
    3TCq1    H214329   2.556   1.912  13.366  2.2681 -0.4698 -0.5654
    3TCq1    H314330   2.337   1.744  13.046  0.7132  1.2273 -0.5483
    3TCq1    H414331   2.703   1.569  13.174  0.9870  1.4668  0.9283
    1MPD2     C14332   1.702   2.479  14.906  0.8178  0.1263 -0.1350
    1MPD2    C114333   1.563   2.464  14.905  0.7592  0.6745  0.5522
    1MPD2    C214334   1.517   2.330  14.902 -0.6032 -0.3105  0.0775
    1MPD2    C314335   1.594   2.220  14.919  0.0263 -0.2357  0.1968
    1MPD2    C414336   1.728   2.246  14.937 -0.5830 -0.3566 -0.4769
    1MPD2    C514337   1.783   2.372  14.918  0.2385  0.1297  0.9308
    1MPD2     H14338   1.415   2.310  14.873 -0.5382  0.6126 -0.7809
    1MPD2    H114339   1.788   2.156  14.932 -0.2492 -0.1562 -0.1347
    1MPD2    H214340   1.746   2.578  14.904 -1.1465  0.9586 -1.6049
    1MPD2    H314341   1.889   2.394  14.922  0.6420 -1.8876  1.0458
    1MPD2     N14342   1.549   2.086  14.908  0.2966 -0.0432  0.1044
    1MPD2    H514343   1.620   2.014  14.899 -2.3011 -2.4129 -1.4998
    1MPD2    N114344   1.474   2.579  14.887 -0.1591 -0.0023  0.3235
    1MPD2    H714345   1.515   2.670  14.873 -0.5742 -0.0798 -1.4302
    2TMC3    C114346   1.277   2.695  14.834 -0.7788  0.4637  0.1309
    2TMC3    C214347   1.142   2.684  14.861 -0.8800 -0.5835 -0.5790
    2TMC3    C314348   1.052   2.705  14.764  0.4487  1.2803 -0.6123
    2TMC3    C414349   1.321   2.754  14.719 -0.2024 -0.6206 -0.0350
    2TMC3    C514350   1.229   2.785  14.626 -0.8172 -0.0021  0.9160
    2TMC3    C614351   1.100   2.749  14.640  0.0561 -0.1210 -0.3686
    2TMC3     C14352   1.334   2.566  14.868 -0.3384  0.0725  0.8456
    2TMC3     O14353   1.266   2.463  14.877  0.0119  0.8019 -1.3765
    2TMC3     H14354   1.109   2.645  14.957  0.7583 -1.7245 -0.4758
    2TMC3    H114355   1.427   2.772  14.715 -0.0928 -1.2299  0.0974
    2TMC3    H214356   1.023   2.777  14.569 -1.1149  1.5941  1.5707
    2TMC3    C714357   1.247   2.885  14.524  0.2997  0.1946  1.0868
    2TMC3    C814358   0.956   2.598  14.735 -0.1506 -0.7010 -0.5575
    2TMC3    O114359   1.168   2.878  14.431  0.7472 -0.5315 -0.5915
    2TMC3    O214360   0.845   2.621  14.689 -0.0487  0.2326  0.3547
    3TCq1    O114361   1.950   3.806  14.312  0.3754  0.1240  0.5916
    3TCq1    C114362   2.029   3.749  14.403 -0.5587 -1.0920 -0.0204
    3TCq1    O214363   2.129   3.795  14.463 -1.1076  0.2870  0.3372
    3TCq1    C214364   1.968   3.632  14.458  0.0177 -0.0761  0.3220
    3TCq1    C314365   2.014   3.593  14.583  0.5566  0.5454 -0.6614
    3TCq1    C414366   1.986   3.470  14.633  0.2688  0.0243  0.3649
    3TCq1    C514367   1.921   3.375  14.557  0.4875  0.7163 -0.2818
    3TCq1    C614368   1.888   3.419  14.427 -0.4146  0.1388  0.0923
    3TCq1    C714369   1.910   3.542  14.382  0.7929  0.3126 -0.1305
    3TCq1    C814370   1.788   3.347  14.352  0.4298  0.0785 -0.8938
    3TCq1    O414371   1.761   3.375  14.235 -0.8171 -0.1548  0.3335
    3TCq1    C914372   2.021   3.438  14.763 -0.4423  0.4540 -0.1677
    3TCq1    O514373   2.089   3.526  14.833  0.0298 -0.5174  0.0600
    3TCq1    O614374   1.968   3.331  14.809 -0.4277  0.3498 -0.6474
    3TCq1    H114375   1.864   3.762  14.302  0.6432 -0.0046 -1.0775
    3TCq1    H214376   2.064   3.659  14.653  0.4919  0.9222 -0.9725
    3TCq1    H314377   1.905   3.275  14.595 -0.8742  1.2803  0.5925
    3TCq1    H414378   1.906   3.560  14.275 -0.4105  1.0871  0.0392
    4MPD2     C14379   1.524   3.208  14.256  0.7846  0.7232 -0.1139
    4MPD2    C114380   1.582   3.208  14.384 -0.4364 -0.3719  0.0352
    4MPD2    C214381   1.512   3.131  14.478 -0.2026  0.3424 -0.1490
    4MPD2    C314382   1.403   3.054  14.444 -0.8213 -0.4898 -0.6295
    4MPD2    C414383   1.344   3.072  14.317 -0.2783  0.3269 -0.2389
    4MPD2    C514384   1.404   3.148  14.220  0.3139 -0.4162  0.3290
    4MPD2     H14385   1.556   3.128  14.577  0.1393 -1.3249 -0.3508
    4MPD2    H114386   1.256   3.014  14.293  0.6204 -0.7503 -0.8741
    4MPD2    H214387   1.570   3.263  14.175 -0.2242  2.0851  0.2283
    4MPD2    H314388   1.371   3.140  14.117  0.3378 -0.5027  0.3288
    4MPD2     N14389   1.357   2.965  14.544  0.1611  0.3465 -0.0935
    4MPD2    H514390   1.398   2.977  14.637 -2.9559  1.2565  1.1484
    4MPD2    N114391   1.702   3.273  14.429 -0.2851 -0.2252  0.0045
    4MPD2    H714392   1.721   3.285  14.528 -0.2929 -0.1316 -0.0051
    5TMC2    C114393   1.193   1.804  14.798  0.9739  0.2270  1.0736
    5TMC2    C214394   1.267   1.743  14.690 -0.4951  0.3880  0.9398
    5TMC2    C314395   1.399   1.785  14.679 -0.2178  0.3455 -0.1678
    5TMC2    C414396   1.257   1.877  14.893 -0.0281  0.1697 -0.6681
    5TMC2    C514397   1.389   1.909  14.876  0.3277 -1.2381 -0.1070
    5TMC2    C614398   1.467   1.861  14.773 -0.1007  0.1757  0.4783
    5TMC2     C14399   1.071   1.873  14.761  0.0576  0.5991  1.3194
    5TMC2     O14400   0.990   1.815  14.689 -0.7314  0.0958 -0.8411
    5TMC2     H14401   1.213   1.701  14.606  1.1811 -1.0910  0.6194
    5TMC2    H114402   1.205   1.914  14.981  0.8590  0.8264 -0.4140
    5TMC2    H214403   1.570   1.889  14.755 -0.0194 -1.4157 -1.4855
    5TMC2    C714404   1.417   2.046  14.911  0.0455  0.4812 -0.7962
    5TMC2    C814405   1.466   1.760  14.555 -0.1189  0.8198 -0.1151
    5TMC2    O114406   1.311   2.109  14.935 -0.0294 -0.7683 -0.2146
    5TMC2    O214407   1.558   1.832  14.517  0.2589 -0.0899  0.0103
    5TMC2    O514408   1.476   1.623  14.538  0.4782  0.2275  0.1741
    5TMC2    H514409   1.437   1.572  14.612  0.2007  0.7275  0.3760
    6MPD2     C14410   0.848   2.320  14.656 -0.1544 -0.3562  0.4341
    6MPD2    C114411   0.969   2.351  14.724  0.3025 -0.5154  0.6412
    6MPD2    C214412   1.049   2.243  14.760  0.3723  1.0252  0.1309
    6MPD2    C314413   1.011   2.115  14.717  0.9060 -0.4480  0.4541
    6MPD2    C414414   0.894   2.086  14.664  0.5805  0.5944  0.7482
    6MPD2    C514415   0.804   2.189  14.641  0.2244 -0.3800 -0.0021
    6MPD2     H14416   1.141   2.261  14.814  0.9572 -0.2178 -0.4544
    6MPD2    H114417   0.868   1.986  14.632 -0.0781  0.8691  0.4280
    6MPD2    H214418   0.778   2.399  14.632  1.9335  0.9666 -1.3598
    6MPD2    H314419   0.709   2.165  14.595  0.6813  0.3868 -1.3377
    6MPD2     N14420   1.091   2.010  14.765  0.5157  0.1523 -0.1687
    6MPD2    H514421   1.175   2.044  14.810  0.2415  2.0063 -1.0685
    6MPD2    N114422   1.018   2.480  14.765  0.6723 -0.2549  0.2904
    6MPD2    H714423   1.105   2.487  14.817 -0.9298  0.6304  2.8685
  945NH3     N114424   1.850   2.615   3.437  0.3467  0.0905 -0.1646
  945NH3     H214425   1.803   2.702   3.415 -0.2328  0.1014  1.0712
  945NH3     H314426   1.944   2.634   3.407  0.9586 -1.2952  0.8671
  945NH3     H414427   1.804   2.551   3.373 -1.1480  0.9877  0.0208
  946SOD     NA14428   0.242   1.139  13.087 -0.3078 -0.5768 -0.0034
  947SOD     NA14429   3.853   2.771  15.075 -0.1562 -0.0000  0.2276
  948SOD     NA14430   0.697   2.944  11.000  0.2504 -0.3924  0.5792
  949SOD     NA14431   0.191   1.072  11.636 -0.3033 -0.2692  0.0021
  950SOD     NA14432   3.425   2.644  15.841 -0.3362  0.4311 -0.0669
  951SOD     NA14433   1.296   3.794  15.618 -0.2774 -0.6478 -0.3202
  952SOD     NA14434   0.756   1.894  11.120  0.2679  0.2933  0.6690
  953SOD     NA14435   0.203   1.983   1.115  0.0193 -0.4506  0.0741
  954SOD     NA14436   4.413   2.388  14.772 -0.2389 -0.2087  0.0403
  955SOD     NA14437   3.796   3.343  17.315 -0.4955 -0.7372 -0.0173
  956SOD     NA14438   0.330   2.092  17.375 -0.2866  0.0183 -0.1730
  957SOD     NA14439   0.523   2.195   9.908 -0.1874  0.6301 -0.1033
  958SOD     NA14440   3.633   0.797   1.600  0.3721 -0.2428  0.0378
  959SOD     NA14441   2.556   0.411  12.334  0.2625  0.2739  0.4905
  960SOD     NA14442   0.671   0.552  14.884  0.1033 -0.1489  0.0618
  961SOD     NA14443   3.778   1.229   0.749 -0.1597  0.5724  0.8223
  962SOD     NA14444   1.872   4.399  13.144 -0.0589  0.5081  0.2606
  963SOD     NA14445   1.302   1.598  10.558 -0.3223 -0.2015  0.0244
  964SOD     NA14446   3.021   1.886  11.036 -0.4213 -0.1248 -0.0962
  965SOD     NA14447   0.936   4.336   9.977 -0.5977  0.4235 -0.1993
  966SOD     NA14448   1.916   3.432   8.141  0.7983 -0.0581 -0.5256
  967SOD     NA14449   2.470   2.132  13.474 -0.4026  0.1051 -0.4046
  968SOD     NA14450   0.746   1.951  11.477  0.1632 -0.1846  0.0081
  969SOD     NA14451   3.294   4.376  12.575  0.3112  0.1182  0.5027
  970SOD     NA14452   1.318   0.646  10.081 -0.1487 -0.2043 -0.2396
  971SOD     NA14453   1.718   1.556  13.097  0.3453 -0.7197  0.0477
  972SOD     NA14454   2.568   1.876  11.703 -0.0943 -0.2143 -0.3623
  973SOD     NA14455   1.193   3.322   2.114  0.1995 -0.2101 -0.1204
  974SOD     NA14456   0.942   1.277  12.849  0.2443 -0.1983 -0.0351
  975SOD     NA14457   0.896   1.516   8.173  0.3765 -0.0279 -0.4985
  976SOD     NA14458   2.380   3.248  11.442 -0.0478 -0.3669  0.0290
  977SOD     NA14459   2.549   2.045  11.430  0.1457 -0.1464  0.2001
  978SOD     NA14460   3.583   1.222   0.157  0.4471  0.4468  0.1297
  979SOD     NA14461   3.403   3.915  12.170  0.2706  0.3230 -0.4814
  980SOD     NA14462   2.223   1.960  13.488 -0.3282 -0.1014  0.0941
  981SOD     NA14463   3.461   4.124   0.311 -0.0281  0.4423  0.0855
  982SOD     NA14464   3.507   0.298   6.851 -0.2392  0.3476 -0.2141
  983SOD     NA14465   3.286   3.661  16.165  0.1721 -0.3018 -0.3925
  984SOD     NA14466   2.054   2.758  10.606 -0.0773 -0.3873 -0.2599
  985SOD     NA14467   1.474   2.237   4.524 -0.3471  0.3856 -0.4641
  986SOD     NA14468   4.106   2.345   0.174 -0.2201 -0.4381  0.3851
  987SOD     NA14469   3.618   2.521   1.974  0.4322 -0.1363  0.1009
  988SOD     NA14470   1.271   0.418   5.518 -0.1213  0.4179  0.3360
  989SOD     NA14471   2.679   1.470   8.666 -0.0185  0.1101  0.2735
  990SOD     NA14472   3.072   4.363   0.580 -0.0980  0.2889 -0.0705
  991SOD     NA14473   4.099   3.765  15.301  0.3417 -0.4412  0.0446
  992SOD     NA14474   2.090   3.175  14.900  0.4144 -0.5859 -0.3484
  993SOD     NA14475   4.137   2.618  12.243  0.6005 -0.3765 -0.5723
  994SOD     NA14476   4.552   2.099   8.508 -0.0425  0.0917 -0.2983
  995SOD     NA14477   3.745   1.360  14.243 -0.2494  0.0852  0.2094
  996SOD     NA14478   1.379   1.354  10.334 -0.3158  0.1922 -0.2295
  997SOD     NA14479   2.776   1.341  12.918  0.2211  0.2563 -0.0196
  998SOD     NA14480   0.056   0.533  17.082  0.0564  0.6628  0.1449
  999SOD     NA14481   2.886   3.848   1.920 -0.2352  0.4099 -0.1896
 1000SOD     NA14482   3.448   1.435   3.728 -0.1075 -0.4275  0.9186
 1001SOD     NA14483   2.884   1.839   8.278 -0.3474 -0.0621  0.0945
 1002SOD     NA14484   4.618   0.725  13.041  0.2194  0.4801 -0.0717
 1003SOD     NA14485   0.591   2.439  15.694 -0.2599  0.5353 -0.0739
 1004SOD     NA14486   2.551   2.177  11.770  0.3335  0.0003  0.1489
 1005SOD     NA14487   4.476   1.955  12.780  0.2235 -0.1706 -0.1527
 1006SOD     NA14488   1.047   0.875   8.939 -0.7472  0.0914  0.0206
 1007SOD     NA14489   4.171   2.352   0.512  0.0694  0.2209 -0.0514
 1008SOD     NA14490   1.132   2.711  14.275 -0.1483  0.0582  0.6050
 1009SOD     NA14491   1.492   1.889   9.863  0.2101  0.0030  0.1818
 1010SOD     NA14492   2.398   0.476   1.109 -0.6990  0.0205  0.1343
 1011SOD     NA14493   0.315   1.968   9.973  0.2307  0.0107  0.2366
 1012SOL     OW14494   1.710   1.264  10.281 -0.9446 -0.0880  0.1108
 1012SOL    HW114495   1.743   1.272  10.371 -0.3821  1.9734 -0.2864
 1012SOL    HW214496   1.629   1.223  10.309 -0.9716  1.1152  1.8197
 1013SOL     OW14497   0.565   3.640   2.252  0.3301  0.3432  0.6080
 1013SOL    HW114498   0.481   3.604   2.222  1.7127 -0.3585 -2.4150
 1013SOL    HW214499   0.596   3.563   2.300  1.1193  0.0139 -0.4333
 1014SOL     OW14500   2.995   3.011  13.692 -0.6545  0.4845 -0.8254
 1014SOL    HW114501   2.939   3.014  13.614  0.7309  1.0631 -1.8017
 1014SOL    HW214502   3.065   3.072  13.670 -1.0502  0.6655 -1.6048
 1015SOL     OW14503   4.609   2.838  12.659  0.6657 -0.4083  0.3184
 1015SOL    HW114504   4.576   2.838  12.569 -0.8201 -0.4331  0.8663
 1015SOL    HW214505   4.632   2.747  12.678  0.0854 -0.1993  1.9830
 1016SOL     OW14506   3.083   0.687   3.544  0.4477  0.1310  0.2609
 1016SOL    HW114507   3.169   0.646   3.558  0.0489 -0.6284  0.4683
 1016SOL    HW214508   3.027   0.637   3.604 -0.1646  0.7121  0.1747
 1017SOL     OW14509   2.656   2.314  12.208  0.1932 -0.3469 -0.0579
 1017SOL    HW114510   2.675   2.240  12.151  1.1852 -1.0305  1.1666
 1017SOL    HW214511   2.743   2.326  12.244  0.9145 -1.6580 -1.3786
 1018SOL     OW14512   2.747   0.175   4.950  0.2007 -0.1272  0.5778
 1018SOL    HW114513   2.822   0.220   4.911  0.6384 -1.5211 -0.1879
 1018SOL    HW214514   2.694   0.146   4.876  0.5905 -0.3426  0.3828
 1019SOL     OW14515   3.111   1.700  15.031  0.2071 -0.2803 -0.1734
 1019SOL    HW114516   3.111   1.793  15.009  0.2802  0.2181  1.9279
 1019SOL    HW214517   3.034   1.703  15.089  0.8757 -2.1655  0.8099
 1020SOL     OW14518   4.462   0.148   5.722 -0.1441  0.3134  0.5329
 1020SOL    HW114519   4.464   0.112   5.634 -0.7716 -0.9474  1.0341
 1020SOL    HW214520   4.442   0.066   5.768 -1.2167  1.6431  2.4750
 1021SOL     OW14521   3.359   1.213   8.705 -0.0577 -0.1496 -0.2396
 1021SOL    HW114522   3.326   1.123   8.697  2.7904 -1.1324 -0.9162
 1021SOL    HW214523   3.360   1.229   8.800 -2.3566  1.7818 -0.5320
 1022SOL     OW14524   1.087   4.584  12.993  0.0788  0.7121 -0.0363
 1022SOL    HW114525   1.113   4.503  13.037 -2.3224 -1.3599 -2.4290
 1022SOL    HW214526   1.064   4.542  12.910 -0.6360  0.6221  0.2070
 1023SOL     OW14527   4.599   3.375   1.848 -0.7411 -0.3085 -0.2371
 1023SOL    HW114528   4.622   3.385   1.756  2.4457 -0.3261  0.5577
 1023SOL    HW214529   4.521   3.319   1.845  0.6720 -2.4446  3.0947
 1024SOL     OW14530   2.629   1.297  17.417 -0.3080  0.0546 -0.6516
 1024SOL    HW114531   2.550   1.325  17.371 -1.4851 -0.4853  1.0485
 1024SOL    HW214532   2.700   1.304  17.354  0.5786 -2.6050  0.0507
 1025SOL     OW14533   4.273   2.169  16.867 -0.0180  0.3055  0.0057
 1025SOL    HW114534   4.241   2.106  16.932 -1.0162  0.5419 -0.2589
 1025SOL    HW214535   4.208   2.151  16.799  1.5069  1.5236 -1.7772
 1026SOL     OW14536   2.913   3.860   8.676 -0.1639  0.0640  0.5642
 1026SOL    HW114537   2.842   3.824   8.623  0.3879 -2.3063  1.4373
 1026SOL    HW214538   2.917   3.800   8.750 -1.0868 -2.3975 -1.3758
 1027SOL     OW14539   0.203   1.117   0.685  0.2074  0.1451 -0.0987
 1027SOL    HW114540   0.289   1.122   0.645 -0.3983 -0.7131 -1.4849
 1027SOL    HW214541   0.142   1.133   0.613  1.2436 -0.7654 -1.1680
 1028SOL     OW14542   1.483   3.453   3.756 -0.6445 -0.5640 -0.4073
 1028SOL    HW114543   1.531   3.393   3.699 -0.6130  0.3242 -1.3038
 1028SOL    HW214544   1.415   3.392   3.786 -0.5650 -0.6530 -0.4062
 1029SOL     OW14545   1.311   3.260   4.300  0.3055 -0.5471 -0.1848
 1029SOL    HW114546   1.277   3.317   4.231  0.1789  1.7500  1.7616
 1029SOL    HW214547   1.232   3.207   4.311  0.9385 -1.7116 -1.1726
 1030SOL     OW14548   1.398   3.241   8.926 -0.3412 -0.2669  0.4649
 1030SOL    HW114549   1.393   3.330   8.962  1.0883 -0.5047  1.2401
 1030SOL    HW214550   1.444   3.201   9.000  0.4343 -1.5705 -0.7120
 1031SOL     OW14551   2.827   0.804   2.190 -0.3391 -0.1243 -0.2306
 1031SOL    HW114552   2.853   0.731   2.245  0.4840  1.0215  0.8867
 1031SOL    HW214553   2.811   0.760   2.106 -1.0479  1.3134 -0.8617
 1032SOL     OW14554   1.749   2.901  12.802  0.2688  0.0862  0.1686
 1032SOL    HW114555   1.766   2.894  12.896 -0.8956  2.6049  0.5870
 1032SOL    HW214556   1.837   2.880  12.772 -0.4772 -0.3251 -1.6924
 1033SOL     OW14557   3.056   1.032  16.265  0.1225  0.3160 -0.1372
 1033SOL    HW114558   2.974   1.082  16.262 -0.2485 -0.2107  1.1717
 1033SOL    HW214559   3.038   0.950  16.310  0.5267  0.5624  0.4675
 1034SOL     OW14560   0.739   0.273   6.847 -0.3347  0.0582 -0.3574
 1034SOL    HW114561   0.732   0.194   6.900 -0.5602  0.3515  0.0512
 1034SOL    HW214562   0.700   0.247   6.764 -2.8808 -1.1893  1.2331
 1035SOL     OW14563   4.534   0.242   5.252  0.6539 -0.2307 -0.1681
 1035SOL    HW114564   4.590   0.190   5.310  1.3300  0.0414 -0.5730
 1035SOL    HW214565   4.588   0.225   5.174 -0.5604  2.0654 -1.4953
 1036SOL     OW14566   3.515   4.271  12.721  0.0968 -0.4903 -0.0619
 1036SOL    HW114567   3.581   4.339  12.732  0.9333 -1.3847  0.4175
 1036SOL    HW214568   3.574   4.197  12.707 -1.8472 -1.8981 -0.8653
 1037SOL     OW14569   3.095   1.752   2.321  0.0471 -0.2573 -0.7152
 1037SOL    HW114570   3.117   1.683   2.257 -0.6047 -2.2834  1.2431
 1037SOL    HW214571   3.058   1.821   2.266 -0.8386 -1.0767 -1.1589
 1038SOL     OW14572   1.542   1.049   7.152 -0.5773  0.6680 -0.1215
 1038SOL    HW114573   1.559   1.117   7.086  0.2911  1.6471  1.1177
 1038SOL    HW214574   1.514   0.977   7.096  0.6185  1.0162 -1.1615
 1039SOL     OW14575   4.710   3.990   8.359  0.6771  0.1280  0.0114
 1039SOL    HW114576   0.031   3.913   8.327  0.3890  0.2935 -0.8146
 1039SOL    HW214577   4.660   3.946   8.428  1.8594  0.2952  0.9580
 1040SOL     OW14578   0.632   1.632  11.592 -0.0606  0.7156 -0.3230
 1040SOL    HW114579   0.631   1.703  11.657 -0.5828 -1.0179  1.5789
 1040SOL    HW214580   0.596   1.679  11.518  1.9568  1.0078 -1.1008
 1041SOL     OW14581   1.111   0.245   8.527 -0.1649 -0.2181 -0.3048
 1041SOL    HW114582   1.021   0.219   8.547  0.2872  1.5911  4.0829
 1041SOL    HW214583   1.134   0.169   8.474  1.7182  0.2222 -0.1137
 1042SOL     OW14584   3.257   4.295   6.150 -0.6469 -0.1058 -0.0991
 1042SOL    HW114585   3.238   4.378   6.194 -2.3469  0.6168 -2.2013
 1042SOL    HW214586   3.254   4.236   6.225 -2.2939  0.4892  0.2969
 1043SOL     OW14587   2.327   2.465   8.715  0.3647  0.4498 -0.1101
 1043SOL    HW114588   2.399   2.444   8.775  0.1649 -0.9576 -0.3839
 1043SOL    HW214589   2.376   2.539   8.678  1.1121 -0.1351 -0.3033
 1044SOL     OW14590   2.468   0.370  17.428  0.1574 -1.0303  0.3795
 1044SOL    HW114591   2.554   0.383  17.468  0.1648  0.9044 -0.2247
 1044SOL    HW214592   2.429   0.308  17.489 -1.8346  0.5650  0.7229
 1045SOL     OW14593   2.568   0.549   0.986  0.0316 -0.3878 -0.3649
 1045SOL    HW114594   2.527   0.600   0.916  2.9414 -0.1581 -1.9181
 1045SOL    HW214595   2.658   0.582   0.981  0.1363 -0.9636 -2.1690
 1046SOL     OW14596   0.796   1.367   5.656 -0.4834  0.3241 -0.4199
 1046SOL    HW114597   0.889   1.357   5.635 -0.7267  1.3361 -1.9075
 1046SOL    HW214598   0.769   1.290   5.706  0.9259  0.7188  0.9385
 1047SOL     OW14599   3.467   4.474   7.317 -0.3226 -0.1231 -0.2904
 1047SOL    HW114600   3.475   4.402   7.379 -1.7705 -0.1486 -0.1428
 1047SOL    HW214601   3.517   4.545   7.358  2.5118 -1.3237 -1.6203
 1048SOL     OW14602   4.439   1.251   1.559  0.1703 -0.2455  0.0253
 1048SOL    HW114603   4.506   1.191   1.591  1.2984 -0.2665 -2.4357
 1048SOL    HW214604   4.400   1.279   1.642  3.1228  2.6917  0.4399
 1049SOL     OW14605   0.293   4.311  16.834 -0.2083  0.3568  0.2457
 1049SOL    HW114606   0.375   4.360  16.822  0.0264 -0.1689 -0.2932
 1049SOL    HW214607   0.315   4.219  16.846  1.4316  0.6791 -0.3142
 1050SOL     OW14608   3.268   3.125   1.519  0.4308  0.2510  0.6875
 1050SOL    HW114609   3.236   3.206   1.558 -0.4004 -0.4293  1.3968
 1050SOL    HW214610   3.317   3.082   1.589 -0.8460 -1.0228  0.7895
 1051SOL     OW14611   2.660   1.277  14.656  0.3067  0.1028 -0.6506
 1051SOL    HW114612   2.649   1.270  14.751 -0.8381  1.9173 -0.6423
 1051SOL    HW214613   2.581   1.328  14.639 -1.4666 -1.7508  2.0229
 1052SOL     OW14614   0.352   3.839   0.940 -0.1391 -0.4914 -0.1071
 1052SOL    HW114615   0.344   3.782   0.864 -3.5724 -1.1286  0.6909
 1052SOL    HW214616   0.427   3.895   0.922  0.9829 -1.6924  0.8464
 1053SOL     OW14617   4.666   1.136   1.173  0.4359  0.3529  0.3850
 1053SOL    HW114618   4.643   1.218   1.215 -1.1835 -1.2079  2.5421
 1053SOL    HW214619   0.020   1.157   1.124 -0.0037 -1.1404 -0.9793
 1054SOL     OW14620   4.065   3.413  12.244  0.0713  0.1725 -0.7314
 1054SOL    HW114621   4.035   3.433  12.156 -0.8571  3.1135  0.2576
 1054SOL    HW214622   4.021   3.327  12.246  0.9424 -0.2566 -0.1036
 1055SOL     OW14623   4.427   0.270   2.855  0.1873  0.0028 -0.1306
 1055SOL    HW114624   4.432   0.275   2.760  1.1352  3.8583  0.1376
 1055SOL    HW214625   4.415   0.176   2.868 -1.0908  0.2822  0.6434
 1056SOL     OW14626   2.636   2.753   2.386  0.3517  0.0651 -0.4568
 1056SOL    HW114627   2.552   2.751   2.433  0.5950  0.6803  0.0113
 1056SOL    HW214628   2.691   2.699   2.442 -0.4126 -1.6782 -1.4086
 1057SOL     OW14629   2.833   0.903   4.407 -0.0146  0.0682  0.3342
 1057SOL    HW114630   2.835   0.946   4.321 -0.5590 -1.5346 -0.4837
 1057SOL    HW214631   2.794   0.974   4.459 -2.6651 -0.9197 -0.2819
 1058SOL     OW14632   4.135   1.219   9.129 -0.5705  0.2737 -0.5952
 1058SOL    HW114633   4.228   1.207   9.148 -0.0392  0.0404 -3.2659
 1058SOL    HW214634   4.114   1.248   9.218  0.5653 -2.1609  0.4659
 1059SOL     OW14635   1.085   2.299  15.082  0.1367  0.5157 -0.2854
 1059SOL    HW114636   1.068   2.256  15.166 -1.2415  2.4877  0.4521
 1059SOL    HW214637   1.161   2.358  15.088  1.4063 -1.2923  1.4984
 1060SOL     OW14638   0.669   4.092   9.727  0.6578  0.0280  0.1306
 1060SOL    HW114639   0.619   4.038   9.666 -1.0495  2.5750 -0.6932
 1060SOL    HW214640   0.759   4.083   9.696  1.1217 -1.6127  1.9756
 1061SOL     OW14641   0.858   0.371   1.810  0.3702  0.1326 -0.4155
 1061SOL    HW114642   0.938   0.324   1.787  0.1291  0.6564 -2.3382
 1061SOL    HW214643   0.790   0.305   1.822  1.3657 -0.9646 -0.7782
 1062SOL     OW14644   2.017   1.690   3.470  0.0346 -0.2262 -0.2379
 1062SOL    HW114645   1.970   1.729   3.396 -1.5279  0.7701  1.3118
 1062SOL    HW214646   2.051   1.607   3.435  0.1994 -0.7906  1.2552
 1063SOL     OW14647   3.921   2.234  17.671  0.5498  0.4321 -0.2785
 1063SOL    HW114648   4.009   2.197  17.679  0.5592  0.8100  1.2671
 1063SOL    HW214649   3.893   2.231   0.060 -0.8595  2.5895 -0.6440
 1064SOL     OW14650   0.559   0.608   1.658  0.3121  0.0398 -0.5573
 1064SOL    HW114651   0.533   0.516   1.657  0.0346  0.1343 -2.0936
 1064SOL    HW214652   0.651   0.595   1.634 -0.3418  0.2481 -3.1678
 1065SOL     OW14653   0.777   1.197   3.205 -0.1526  0.3055  1.0722
 1065SOL    HW114654   0.720   1.258   3.160 -0.4511 -1.0681 -0.4193
 1065SOL    HW214655   0.738   1.118   3.167  0.9690 -0.7803  2.1735
 1066SOL     OW14656   4.453   1.299   9.450  0.3409  0.6112 -0.2068
 1066SOL    HW114657   4.507   1.252   9.513  0.2551  0.4186 -0.2767
 1066SOL    HW214658   4.506   1.302   9.370  0.7420 -0.1048  0.0289
 1067SOL     OW14659   4.168   0.485   5.462 -0.0771  0.3771 -0.2618
 1067SOL    HW114660   4.120   0.495   5.381 -1.3260 -3.3246  0.0553
 1067SOL    HW214661   4.131   0.556   5.515 -3.5152  0.2751 -2.5587
 1068SOL     OW14662   3.991   3.913  15.425 -0.1820  0.2679  0.1358
 1068SOL    HW114663   3.998   3.985  15.488 -1.9930  0.4952  0.0804
 1068SOL    HW214664   3.928   3.943  15.359  0.9181 -2.0878 -1.9846
 1069SOL     OW14665   4.534   3.633   5.424 -0.3449 -0.2706  0.2446
 1069SOL    HW114666   4.460   3.670   5.376  1.3817 -0.9421 -2.8923
 1069SOL    HW214667   4.562   3.564   5.364 -1.2051 -0.0963 -0.3617
 1070SOL     OW14668   2.086   0.286   4.979 -0.8938  0.4548  0.6126
 1070SOL    HW114669   2.127   0.263   5.063  1.6349 -1.0065 -1.0443
 1070SOL    HW214670   2.045   0.363   5.018 -0.1068 -0.2186  2.7663
 1071SOL     OW14671   3.862   0.996   3.279  0.3190 -0.8831  0.1645
 1071SOL    HW114672   3.801   0.924   3.264 -1.8250  1.0629 -0.6802
 1071SOL    HW214673   3.944   0.950   3.264 -0.3796 -2.0304 -0.1649
 1072SOL     OW14674   2.945   2.190   4.418 -0.2161  0.6817  0.2127
 1072SOL    HW114675   3.008   2.181   4.490  0.0812  1.4198  0.0411
 1072SOL    HW214676   2.970   2.278   4.393  1.2864  0.0273 -0.5801
 1073SOL     OW14677   4.470   0.206   6.970 -0.1327  0.2693 -0.1222
 1073SOL    HW114678   4.454   0.290   6.928  1.7679  1.0148  0.6548
 1073SOL    HW214679   4.448   0.137   6.907 -0.7107 -0.8097  1.2529
 1074SOL     OW14680   3.477   4.038   4.473  0.0323 -0.1492  0.1468
 1074SOL    HW114681   3.450   3.979   4.544 -1.3310 -2.4678 -2.3238
 1074SOL    HW214682   3.400   4.092   4.457  1.0709  1.7061  1.3050
 1075SOL     OW14683   0.532   0.443  16.999  0.1857 -0.1112 -0.3187
 1075SOL    HW114684   0.563   0.413  17.084 -0.1706 -2.5766 -1.0625
 1075SOL    HW214685   0.577   0.528  16.994 -1.3038  0.7202  0.6315
 1076SOL     OW14686   4.470   3.214  15.357  0.6171  0.1909 -0.3993
 1076SOL    HW114687   4.487   3.206  15.264  0.6015 -1.2250 -0.2705
 1076SOL    HW214688   4.465   3.123  15.385 -0.8883 -0.5599 -3.1659
 1077SOL     OW14689   4.239   0.147  12.243 -0.6921  0.1007  0.3118
 1077SOL    HW114690   4.328   0.111  12.245 -0.4110  0.7159 -1.0260
 1077SOL    HW214691   4.253   0.226  12.295  0.1807  1.4408 -1.9552
 1078SOL     OW14692   2.784   0.375  17.156  0.1178  0.7701 -0.1127
 1078SOL    HW114693   2.860   0.404  17.106  0.4208  0.3651  0.1153
 1078SOL    HW214694   2.803   0.369  17.250  0.0869  0.5810 -0.1189
 1079SOL     OW14695   2.393   2.778   5.953  0.0417 -0.1470  0.7321
 1079SOL    HW114696   2.434   2.822   6.027  1.2597  1.0913 -0.6819
 1079SOL    HW214697   2.386   2.852   5.892  0.9652  0.2620  1.1273
 1080SOL     OW14698   2.158   4.013  13.128  0.0794  0.1585  0.1878
 1080SOL    HW114699   2.153   3.971  13.213  0.6775  1.7713  1.0199
 1080SOL    HW214700   2.185   3.942  13.070  0.3590  1.1361 -0.8855
 1081SOL     OW14701   2.166   1.866   0.209 -0.2189 -0.3917  0.4921
 1081SOL    HW114702   2.257   1.837   0.217 -0.0722 -0.3130 -0.8308
 1081SOL    HW214703   2.133   1.839   0.294  1.8058  0.5903  1.5943
 1082SOL     OW14704   3.409   0.862   8.670 -0.7465 -0.0018 -0.0179
 1082SOL    HW114705   3.322   0.886   8.702 -0.3831  0.5410  0.5852
 1082SOL    HW214706   3.416   0.884   8.578  1.8248  1.7310  0.5630
 1083SOL     OW14707   3.325   1.886   7.240 -0.1025  0.3676  0.1617
 1083SOL    HW114708   3.308   1.849   7.153  0.7995 -1.8610  0.9423
 1083SOL    HW214709   3.307   1.819   7.306 -2.5344  0.4169 -0.4572
 1084SOL     OW14710   4.191   3.725   6.775  0.7165 -0.3298  0.2710
 1084SOL    HW114711   4.107   3.680   6.769  0.8874 -0.8322  1.7777
 1084SOL    HW214712   4.226   3.691   6.692 -0.6487 -2.3892  0.5475
 1085SOL     OW14713   0.856   0.407  14.889  0.5358 -0.0301  0.1983
 1085SOL    HW114714   0.915   0.369  14.954  1.3843  1.3305  0.2270
 1085SOL    HW214715   0.884   0.498  14.881 -0.6581  0.3105  0.0050
 1086SOL     OW14716   2.770   1.446   8.453 -0.0360  0.0825  0.0836
 1086SOL    HW114717   2.716   1.422   8.377  0.9484  0.2251 -0.6716
 1086SOL    HW214718   2.853   1.463   8.409  0.6002 -1.5785  0.6105
 1087SOL     OW14719   0.223   2.954   5.233  0.3752 -0.1514  0.4026
 1087SOL    HW114720   0.128   2.940   5.230  0.0781  1.6173  1.2136
 1087SOL    HW214721   0.246   2.992   5.149  0.1436 -3.5988 -1.2251
 1088SOL     OW14722   0.060   2.280   2.193  0.3170  0.0927  0.0690
 1088SOL    HW114723   0.030   2.353   2.138  0.3319  0.0648  0.0247
 1088SOL    HW214724   0.119   2.240   2.130 -1.0202 -1.7904  0.0322
 1089SOL     OW14725   3.321   1.692  13.536 -0.6129  0.0454  0.2472
 1089SOL    HW114726   3.256   1.720  13.471 -0.8792  1.4108  1.0995
 1089SOL    HW214727   3.294   1.746  13.610  0.6559  0.2720  0.5375
 1090SOL     OW14728   2.938   0.120  15.334  0.0395 -0.1188 -0.2551
 1090SOL    HW114729   2.860   0.091  15.382  0.1584  2.4171  1.4887
 1090SOL    HW214730   2.990   0.041  15.326 -0.5703 -0.6215  0.7512
 1091SOL     OW14731   0.989   3.863   2.491 -0.6463 -0.2473  0.3119
 1091SOL    HW114732   1.016   3.950   2.519  1.7996 -1.1074  0.6912
 1091SOL    HW214733   0.965   3.822   2.574  0.2371 -0.3725  0.5047
 1092SOL     OW14734   0.574   2.635  14.637 -0.1598  0.5361  0.1162
 1092SOL    HW114735   0.668   2.630  14.657 -0.3344  0.1781  0.8545
 1092SOL    HW214736   0.590   2.585  14.556 -1.9197  0.4464 -0.1640
 1093SOL     OW14737   4.380   3.673  10.730 -0.5195  0.3913 -0.4226
 1093SOL    HW114738   4.394   3.584  10.762  0.0354  1.0086  1.0465
 1093SOL    HW214739   4.465   3.717  10.737 -0.8432  0.6028  2.1868
 1094SOL     OW14740   4.213   3.480  13.359  0.1297  0.2431  0.0759
 1094SOL    HW114741   4.156   3.557  13.363  0.7731  0.8187 -1.7600
 1094SOL    HW214742   4.177   3.432  13.434  0.0449 -0.5299 -0.4602
 1095SOL     OW14743   0.545   1.800   1.393 -0.2722  0.2330 -0.0096
 1095SOL    HW114744   0.537   1.758   1.479  0.6315  0.2767  0.0906
 1095SOL    HW214745   0.598   1.876   1.416 -0.9973  1.5050 -2.5563
 1096SOL     OW14746   4.590   3.663  10.052  0.4256  0.2310 -0.2961
 1096SOL    HW114747   4.555   3.610   9.980 -0.2645  1.0425 -0.5510
 1096SOL    HW214748   4.673   3.622  10.076  0.3991  0.4052  0.0941
 1097SOL     OW14749   3.539   0.062  12.910 -0.4737  0.1011  0.2610
 1097SOL    HW114750   3.468   4.723  12.908  0.9249 -1.4128 -1.2808
 1097SOL    HW214751   3.526   0.097  12.998  2.4147  0.2830  0.6094
 1098SOL     OW14752   2.029   1.065   1.277  0.0843 -0.6924  0.1958
 1098SOL    HW114753   2.078   1.059   1.195  1.5565  1.7244  0.8936
 1098SOL    HW214754   1.975   1.142   1.256  0.9163  0.3680  1.9304
 1099SOL     OW14755   1.375   1.868   7.274  0.2791 -0.5064  0.1758
 1099SOL    HW114756   1.281   1.856   7.263 -0.2728  1.4866  2.9341
 1099SOL    HW214757   1.385   1.904   7.362  0.9299 -3.7038  1.4401
 1100SOL     OW14758   4.573   2.362   7.010  0.0240  0.2112 -0.2755
 1100SOL    HW114759   4.640   2.314   6.962  0.4804 -0.9733  1.5574
 1100SOL    HW214760   4.527   2.298   7.064  0.6579  0.3409  0.4128
 1101SOL     OW14761   1.018   0.817   5.395  0.2941 -0.1911 -0.0300
 1101SOL    HW114762   1.074   0.893   5.411  1.6931 -1.8414  3.0948
 1101SOL    HW214763   1.067   0.752   5.446  0.7383 -0.3501 -0.6626
 1102SOL     OW14764   3.982   1.715  16.781 -0.4319 -0.5417 -0.1092
 1102SOL    HW114765   3.906   1.701  16.725 -0.7342  0.1491  0.1415
 1102SOL    HW214766   3.941   1.780  16.837 -0.0128 -0.3344 -0.0411
 1103SOL     OW14767   4.318   2.476   0.111  0.0667  0.2513 -0.2630
 1103SOL    HW114768   4.291   2.568   0.119  0.2787  0.4955 -2.3905
 1103SOL    HW214769   4.320   2.477   0.016 -0.4488  0.5925 -0.2711
 1104SOL     OW14770   2.821   0.089   5.785  1.0414  0.0587  0.1548
 1104SOL    HW114771   2.754   0.095   5.718 -0.1135  1.1921  1.4206
 1104SOL    HW214772   2.800   0.160   5.845 -1.3023 -0.4049 -0.1321
 1105SOL     OW14773   1.574   1.925  17.101 -0.1493 -0.2649 -0.1125
 1105SOL    HW114774   1.585   1.909  17.008  1.9515 -1.6879  0.3771
 1105SOL    HW214775   1.562   1.838  17.139  0.7193 -0.6026 -0.6110
 1106SOL     OW14776   2.119   4.244  14.772 -0.1711 -0.3088 -0.2173
 1106SOL    HW114777   2.213   4.228  14.763  0.0909  1.5534 -0.8801
 1106SOL    HW214778   2.096   4.226  14.863 -3.3398  1.9986 -0.5694
 1107SOL     OW14779   4.329   0.133  15.460 -0.2595  0.3277 -0.3145
 1107SOL    HW114780   4.302   0.109  15.371  1.8961  0.4729 -1.0094
 1107SOL    HW214781   4.405   0.186  15.435  1.4378 -1.3034  1.4620
 1108SOL     OW14782   1.530   0.186   7.729  0.2423 -0.2345 -0.1175
 1108SOL    HW114783   1.585   0.215   7.802  0.1985  0.2205 -0.2640
 1108SOL    HW214784   1.452   0.148   7.769 -0.3672 -1.1730 -2.2423
 1109SOL     OW14785   1.064   0.320   5.125  0.2057  0.7345  0.3605
 1109SOL    HW114786   1.028   0.266   5.195 -0.7228 -0.2044 -0.8553
 1109SOL    HW214787   0.987   0.325   5.069  0.2658 -1.5468  0.0596
 1110SOL     OW14788   2.549   4.562  11.616  0.1332  0.2889  0.5128
 1110SOL    HW114789   2.487   4.567  11.543  0.3002  1.1407  0.4359
 1110SOL    HW214790   2.535   4.468  11.633 -0.3460  0.5017  1.2912
 1111SOL     OW14791   4.207   1.334   1.266 -0.0555 -0.2596  0.5119
 1111SOL    HW114792   4.288   1.285   1.280 -1.3014 -1.8650  2.0038
 1111SOL    HW214793   4.156   1.326   1.346  0.8986 -1.3414  1.0138
 1112SOL     OW14794   1.177   0.578   9.440 -0.3060  0.0279 -0.1001
 1112SOL    HW114795   1.128   0.634   9.379 -0.2214 -1.5350 -1.6085
 1112SOL    HW214796   1.111   0.559   9.507  0.2432 -0.6141  0.2575
 1113SOL     OW14797   4.405   0.480  17.624  0.3373 -0.5818  0.1412
 1113SOL    HW114798   4.379   0.528   0.000 -3.1462 -1.3532 -0.5191
 1113SOL    HW214799   4.477   0.427  17.657  0.6508  0.0232  0.4220
 1114SOL     OW14800   0.091   3.209  17.512 -0.5274 -0.2583  0.5811
 1114SOL    HW114801   0.127   3.297  17.497 -2.6143 -0.2625 -4.3693
 1114SOL    HW214802   0.160   3.180  17.572 -0.6883  0.1255  0.9529
 1115SOL     OW14803   2.920   3.592   5.763 -0.2354 -0.6578  0.8132
 1115SOL    HW114804   2.920   3.587   5.859  1.0643 -0.7302  0.8146
 1115SOL    HW214805   3.012   3.616   5.751 -0.2971 -0.5073  0.6531
 1116SOL     OW14806   0.267   1.158  16.846 -0.0521 -0.6180 -0.3132
 1116SOL    HW114807   0.204   1.215  16.890 -0.5670 -0.5900 -1.0797
 1116SOL    HW214808   0.217   1.125  16.772 -1.1833 -0.6699  0.4840
 1117SOL     OW14809   3.565   2.722   5.893  0.9699  0.6958 -0.7863
 1117SOL    HW114810   3.610   2.760   5.818 -0.8577  0.9427 -1.7416
 1117SOL    HW214811   3.584   2.629   5.878 -1.5697  0.2721 -1.2533
 1118SOL     OW14812   1.966   4.346   9.093 -0.6440 -0.1628 -0.0565
 1118SOL    HW114813   1.933   4.410   9.030 -0.3305  0.7479  0.7056
 1118SOL    HW214814   2.002   4.395   9.166  0.8779  0.1803 -1.0380
 1119SOL     OW14815   0.932   2.725   5.750  0.1861 -0.8834 -0.5462
 1119SOL    HW114816   0.845   2.759   5.727 -0.5663 -1.4332  1.4461
 1119SOL    HW214817   0.949   2.674   5.671 -1.3095 -2.2080 -0.0358
 1120SOL     OW14818   4.471   0.873   9.625  0.4284  0.2406  0.3552
 1120SOL    HW114819   4.498   0.963   9.606  1.0330 -0.0335 -0.0960
 1120SOL    HW214820   4.512   0.852   9.709 -0.6672  0.6679  0.9985
 1121SOL     OW14821   4.048   2.394   0.704 -0.0194 -0.0404 -0.1485
 1121SOL    HW114822   4.052   2.319   0.763 -0.0303  0.9161  1.0714
 1121SOL    HW214823   3.966   2.433   0.733  1.2758  1.4502  1.5849
 1122SOL     OW14824   2.936   2.898   4.317  0.9669 -0.4074  0.3272
 1122SOL    HW114825   2.844   2.906   4.341  1.3863 -0.3152  1.9113
 1122SOL    HW214826   2.927   2.897   4.221 -3.1052  1.1918  0.7093
 1123SOL     OW14827   0.302   2.157   7.270  0.3000  0.0118 -0.0326
 1123SOL    HW114828   0.363   2.231   7.266 -0.3355  0.6057  1.5809
 1123SOL    HW214829   0.276   2.149   7.178 -1.0819  0.2794  0.3466
 1124SOL     OW14830   0.051   3.435   2.723 -0.6973  0.7973 -0.3985
 1124SOL    HW114831   0.022   3.453   2.812  0.8760  1.8109 -0.0940
 1124SOL    HW214832   0.020   3.344   2.721  1.4646  0.0602  0.9139
 1125SOL     OW14833   0.092   1.175   3.981  0.1426  0.4351  0.8938
 1125SOL    HW114834   0.130   1.245   4.034  0.7363 -0.8649  2.1929
 1125SOL    HW214835   0.027   1.149   4.047 -0.7014  0.1466 -0.0464
 1126SOL     OW14836   1.392   1.714   9.137  0.1014 -0.0367  0.0506
 1126SOL    HW114837   1.453   1.678   9.202 -1.8305 -2.0268  0.7301
 1126SOL    HW214838   1.378   1.805   9.165  1.6547 -0.2313  1.4721
 1127SOL     OW14839   4.667   3.581   6.222  0.0928 -0.2174 -0.4753
 1127SOL    HW114840   4.615   3.566   6.301  0.5016  0.6274 -0.0548
 1127SOL    HW214841   0.025   3.545   6.252 -0.3238  0.0271  0.9751
 1128SOL     OW14842   4.183   2.190   0.042  0.1078  0.6006 -0.0022
 1128SOL    HW114843   4.219   2.167  17.658  0.8147 -0.4880  0.5986
 1128SOL    HW214844   4.221   2.116   0.090  2.6131  1.4656 -0.6377
 1129SOL     OW14845   1.825   1.596   8.683 -0.2004  0.1242  0.8839
 1129SOL    HW114846   1.781   1.651   8.747 -0.1490  2.6399 -1.2499
 1129SOL    HW214847   1.866   1.539   8.748  0.4132 -0.8944 -0.3887
 1130SOL     OW14848   3.316   1.464   6.465  0.5189  0.4825  0.2666
 1130SOL    HW114849   3.326   1.370   6.479 -0.5342  0.4319  0.6658
 1130SOL    HW214850   3.285   1.487   6.552 -2.2956 -1.8830 -0.0795
 1131SOL     OW14851   0.144   2.178  12.219  0.1412  0.4872  0.2297
 1131SOL    HW114852   0.237   2.168  12.239 -0.2010 -2.5794  0.3214
 1131SOL    HW214853   0.148   2.222  12.135 -0.9758 -1.3548 -0.8000
 1132SOL     OW14854   1.400   2.464   1.313  0.5531 -0.0113  0.6508
 1132SOL    HW114855   1.434   2.553   1.316  0.7544 -0.0675  0.0292
 1132SOL    HW214856   1.368   2.453   1.403  1.9475 -2.3404  0.8613
 1133SOL     OW14857   4.007   3.969  12.619  0.0202  0.0511  0.6014
 1133SOL    HW114858   4.099   3.949  12.636  0.0261  0.6272  1.2450
 1133SOL    HW214859   4.015   4.055  12.578  1.2911 -1.3668 -2.0909
 1134SOL     OW14860   0.234   2.135   8.610  0.3099 -0.3168 -0.2593
 1134SOL    HW114861   0.258   2.055   8.657 -1.9328 -0.8803 -0.0649
 1134SOL    HW214862   0.305   2.140   8.545  1.7062 -0.5029  1.2421
 1135SOL     OW14863   2.896   3.174  10.863 -0.4434  0.7143 -0.3339
 1135SOL    HW114864   2.980   3.218  10.872  0.0491  0.0027 -1.4403
 1135SOL    HW214865   2.847   3.256  10.864  1.2252  1.6554  1.8100
 1136SOL     OW14866   2.639   0.959   5.189  0.5178 -0.0993  0.2240
 1136SOL    HW114867   2.684   0.880   5.159  1.5577  0.6115 -0.0720
 1136SOL    HW214868   2.613   0.927   5.276 -1.4596  0.5029 -0.1464
 1137SOL     OW14869   2.933   4.621   7.974  0.0757  0.0288 -0.2062
 1137SOL    HW114870   2.976   4.563   7.910  1.2263  2.2836 -1.4540
 1137SOL    HW214871   2.873   4.562   8.019  1.2353 -1.1700 -0.2296
 1138SOL     OW14872   3.221   3.937   2.405  0.5957  0.3613  0.0612
 1138SOL    HW114873   3.186   3.849   2.395  1.2766  0.3455 -2.1319
 1138SOL    HW214874   3.143   3.981   2.440  1.2920  2.6166 -1.1645
 1139SOL     OW14875   0.101   3.682  13.785 -0.0964  0.3519 -0.3945
 1139SOL    HW114876   0.180   3.716  13.827 -1.3168  0.6397  1.6843
 1139SOL    HW214877   0.026   3.733  13.815  0.5761  0.3621  1.2466
 1140SOL     OW14878   2.875   4.521   8.907  0.0299  0.4804  0.2097
 1140SOL    HW114879   2.943   4.502   8.972 -2.0179 -0.9300  1.9176
 1140SOL    HW214880   2.906   4.597   8.858  2.1283 -0.5983 -0.1310
 1141SOL     OW14881   0.149   4.220  14.616  0.4753  0.1908  0.0650
 1141SOL    HW114882   0.089   4.211  14.690  0.2613  0.7751 -0.0370
 1141SOL    HW214883   0.091   4.256  14.549  1.1380  0.7905 -0.1829
 1142SOL     OW14884   4.246   3.748  17.075 -0.1890 -0.2424 -0.7208
 1142SOL    HW114885   4.314   3.689  17.042  0.1763 -0.2516  0.0397
 1142SOL    HW214886   4.276   3.781  17.160 -0.3604 -1.8199 -0.0476
 1143SOL     OW14887   1.496   0.291   8.425 -0.3084 -0.0728  0.0549
 1143SOL    HW114888   1.537   0.374   8.452 -0.0271  0.1564 -1.0403
 1143SOL    HW214889   1.407   0.312   8.451  0.1868  0.7586  1.0796
 1144SOL     OW14890   4.229   2.440  12.102 -0.5282  0.8667 -0.7138
 1144SOL    HW114891   4.321   2.424  12.082 -0.3690 -2.2082  2.4372
 1144SOL    HW214892   4.209   2.496  12.027 -0.3826  1.0071 -0.6474
 1145SOL     OW14893   0.292   0.649   1.711  0.5028  0.5924 -0.3331
 1145SOL    HW114894   0.250   0.624   1.628 -0.6798 -0.6829  0.6461
 1145SOL    HW214895   0.385   0.632   1.695  0.6365 -1.6993  2.9051
 1146SOL     OW14896   0.201   3.427   5.518 -0.3615 -0.4640 -0.0368
 1146SOL    HW114897   0.213   3.334   5.497  0.9836  0.0076 -1.3377
 1146SOL    HW214898   0.272   3.469   5.470 -1.2445  0.6774 -0.3465
 1147SOL     OW14899   2.163   3.691   3.417 -0.4503  0.5157 -0.4695
 1147SOL    HW114900   2.201   3.603   3.426 -0.9826  0.3570  0.2340
 1147SOL    HW214901   2.234   3.730   3.366 -0.7268 -0.7066 -1.7880
 1148SOL     OW14902   4.135   2.495  10.184 -0.2017  0.6502  0.6448
 1148SOL    HW114903   4.047   2.476  10.216 -0.8208 -1.1743 -2.1505
 1148SOL    HW214904   4.193   2.452  10.248 -1.0888 -1.2485  0.1685
 1149SOL     OW14905   0.249   3.199  14.837  0.9031 -0.3584  1.1508
 1149SOL    HW114906   0.339   3.218  14.863  1.6462  0.2972 -1.9096
 1149SOL    HW214907   0.211   3.219  14.923  1.4028 -1.5584  1.6366
 1150SOL     OW14908   0.411   1.059   5.544  0.8560  0.3496 -0.2192
 1150SOL    HW114909   0.385   1.052   5.636 -0.0001 -1.2161 -0.5908
 1150SOL    HW214910   0.499   1.021   5.549 -0.5193 -2.6098  1.3518
 1151SOL     OW14911   2.546   1.622   1.319 -0.1832 -0.4852 -0.3326
 1151SOL    HW114912   2.468   1.571   1.296 -1.8610  2.3640 -0.9625
 1151SOL    HW214913   2.593   1.623   1.235 -2.0357 -1.8229 -1.3784
 1152SOL     OW14914   0.833   0.357  15.690  0.1204  0.0957 -0.3527
 1152SOL    HW114915   0.841   0.300  15.767  0.8785 -3.0940 -2.7924
 1152SOL    HW214916   0.838   0.290  15.622 -1.2868  1.0805 -1.4215
 1153SOL     OW14917   4.702   0.476   4.269 -0.1591 -0.3475 -0.1291
 1153SOL    HW114918   0.047   0.439   4.216 -0.0841 -1.0041  0.4317
 1153SOL    HW214919   0.006   0.567   4.279 -0.9371  0.0859 -1.7765
 1154SOL     OW14920   2.884   4.010   1.035  0.2011 -0.2788 -0.2098
 1154SOL    HW114921   2.870   3.999   0.941  1.5012 -0.0946 -0.4329
 1154SOL    HW214922   2.904   4.102   1.052 -0.6294 -0.6166  2.6764
 1155SOL     OW14923   1.185   1.304   0.512 -0.4338 -0.0480 -0.6351
 1155SOL    HW114924   1.239   1.310   0.433  1.8510 -1.2775  0.8376
 1155SOL    HW214925   1.239   1.343   0.580  2.4282 -1.2285 -2.2278
 1156SOL     OW14926   2.650   1.320   5.574  0.6639  0.2658 -0.1195
 1156SOL    HW114927   2.604   1.260   5.515  0.5203  1.2950 -1.0595
 1156SOL    HW214928   2.577   1.373   5.608  0.0602 -0.8354  0.2879
 1157SOL     OW14929   2.332   3.806  16.764 -0.4154 -0.3412 -0.5002
 1157SOL    HW114930   2.365   3.757  16.689 -2.2407 -0.1429 -1.4420
 1157SOL    HW214931   2.406   3.793  16.823 -1.4210  1.4223  1.1553
 1158SOL     OW14932   0.270   1.506   5.695 -0.1080 -0.2396  0.2682
 1158SOL    HW114933   0.240   1.426   5.653  0.1790 -0.0814 -0.2380
 1158SOL    HW214934   0.249   1.585   5.646 -0.0008  0.3525  1.1583
 1159SOL     OW14935   3.800   3.629  12.883 -0.3299  0.3950  0.1780
 1159SOL    HW114936   3.864   3.568  12.845  0.5943  0.7686  1.1422
 1159SOL    HW214937   3.829   3.620  12.974  0.0565  0.4323  0.0590
 1160SOL     OW14938   1.875   4.688   5.713  0.1190 -0.1526 -0.2799
 1160SOL    HW114939   1.961   0.002   5.730 -0.4078  1.3951 -1.1973
 1160SOL    HW214940   1.905   4.597   5.717  2.0859  0.5482  0.9668
 1161SOL     OW14941   1.873   4.399   6.801 -0.1750  0.4649 -0.4695
 1161SOL    HW114942   1.853   4.306   6.790 -2.4854  0.9302 -0.3337
 1161SOL    HW214943   1.841   4.432   6.717 -1.1842 -0.6559 -0.5211
 1162SOL     OW14944   3.048   1.620   5.464 -0.2186 -0.5056  1.0617
 1162SOL    HW114945   3.024   1.540   5.417 -0.9610  0.0234  0.5452
 1162SOL    HW214946   3.039   1.678   5.389 -1.6470 -0.5342  1.2005
 1163SOL     OW14947   0.774   0.347   5.033  0.2012 -0.0314  0.1387
 1163SOL    HW114948   0.698   0.324   5.087 -1.3218 -1.6396 -2.7172
 1163SOL    HW214949   0.775   0.274   4.972  1.6372  2.0381 -2.3150
 1164SOL     OW14950   1.276   3.549  15.557  0.3030  0.1893 -0.2865
 1164SOL    HW114951   1.190   3.510  15.541 -0.3826  1.7768 -0.4589
 1164SOL    HW214952   1.313   3.545  15.469  1.2572 -1.3080  0.1921
 1165SOL     OW14953   1.543   0.865  13.346  0.3985 -0.3723  0.1241
 1165SOL    HW114954   1.466   0.813  13.323 -0.7670  1.4762 -0.2117
 1165SOL    HW214955   1.608   0.834  13.282 -0.4853 -1.0071 -0.4758
 1166SOL     OW14956   3.834   2.238  14.982 -0.0749  0.5160 -0.1104
 1166SOL    HW114957   3.915   2.244  14.930  1.6068 -1.0795  2.2921
 1166SOL    HW214958   3.768   2.270  14.921 -2.4952 -3.2347  0.5349
 1167SOL     OW14959   0.397   3.620   5.381  0.0481  0.2965  0.7270
 1167SOL    HW114960   0.399   3.712   5.356 -1.8089 -0.0049 -0.5420
 1167SOL    HW214961   0.375   3.583   5.295  0.4513  1.1523  0.2538
 1168SOL     OW14962   0.009   3.954   3.349  0.0434  0.0078  0.1551
 1168SOL    HW114963   0.001   3.878   3.407  1.4103 -2.3820 -2.8361
 1168SOL    HW214964   4.703   3.916   3.267  0.8445 -0.7055  0.1861
 1169SOL     OW14965   0.474   2.341   2.179  0.8662  0.6145 -0.2260
 1169SOL    HW114966   0.437   2.253   2.174 -0.0914  1.0059 -0.0639
 1169SOL    HW214967   0.558   2.308   2.212 -0.1253 -1.0868  0.5809
 1170SOL     OW14968   4.035   4.374   8.759 -0.0805 -0.2129  0.5766
 1170SOL    HW114969   3.941   4.369   8.739 -0.1944  1.1382  0.7737
 1170SOL    HW214970   4.034   4.326   8.842 -2.1931 -0.2236  0.5514
 1171SOL     OW14971   2.185   1.008   8.357  0.4592  0.0336  0.6038
 1171SOL    HW114972   2.210   1.024   8.448 -0.7610  1.2978  0.7128
 1171SOL    HW214973   2.259   0.954   8.328 -1.3713 -2.2704  0.2268
 1172SOL     OW14974   1.540   1.533  15.190 -0.2304 -0.2948 -0.2764
 1172SOL    HW114975   1.477   1.514  15.260  0.0145  0.6155  0.1901
 1172SOL    HW214976   1.593   1.454  15.195 -1.0203 -0.7888  0.3863
 1173SOL     OW14977   1.142   0.080   3.166 -0.1710 -0.3572  0.0779
 1173SOL    HW114978   1.231   0.100   3.135 -0.3930 -0.7371 -0.8039
 1173SOL    HW214979   1.147   4.710   3.170  3.2385 -0.2143 -0.7363
 1174SOL     OW14980   1.090   0.400   5.944  0.2177  0.2037  0.3550
 1174SOL    HW114981   1.144   0.406   6.024  2.1141 -0.1491 -0.8967
 1174SOL    HW214982   1.010   0.363   5.982  0.8968 -1.3845  0.2699
 1175SOL     OW14983   0.222   0.416   5.665  0.5760 -0.1541  0.1735
 1175SOL    HW114984   0.150   0.476   5.683  0.0454 -1.0105  0.8528
 1175SOL    HW214985   0.198   0.339   5.717 -0.0484  0.6618  1.0781
 1176SOL     OW14986   0.322   4.558  10.908 -0.8218 -0.2347 -0.2121
 1176SOL    HW114987   0.274   4.479  10.882 -0.8613  0.2300 -1.5216
 1176SOL    HW214988   0.408   4.529  10.940 -1.1611 -1.3427 -0.2827
 1177SOL     OW14989   3.460   4.193   6.008 -0.5906 -0.1283 -0.0485
 1177SOL    HW114990   3.416   4.180   5.924 -0.5102 -2.0043  0.2105
 1177SOL    HW214991   3.386   4.241   6.047  1.0077  2.9021 -0.7880
 1178SOL     OW14992   2.472   3.014   8.716  0.2167  0.2837  0.0136
 1178SOL    HW114993   2.562   3.014   8.684 -0.2714 -2.3047 -1.3732
 1178SOL    HW214994   2.480   2.983   8.806  0.3604 -1.1147 -0.4830
 1179SOL     OW14995   4.261   4.413   6.475  0.6721 -0.2053 -0.0780
 1179SOL    HW114996   4.314   4.341   6.440  1.4609 -0.6881  2.1058
 1179SOL    HW214997   4.178   4.377   6.505  0.0740  1.0954 -0.1597
 1180SOL     OW14998   1.221   1.199   8.463  0.5809 -0.1025 -0.0018
 1180SOL    HW114999   1.137   1.244   8.471  0.9076 -0.0094  2.9453
 1180SOL    HW215000   1.289   1.266   8.463  0.8070 -0.3279  0.5441
 1181SOL     OW15001   0.683   1.729   5.973 -0.2175  0.0698 -0.1960
 1181SOL    HW115002   0.754   1.794   5.971 -1.0032  0.9628  0.8144
 1181SOL    HW215003   0.613   1.752   5.913 -0.6761  0.5687  0.5223
 1182SOL     OW15004   3.012   4.005   3.530  0.4580 -0.0380  0.0575
 1182SOL    HW115005   2.925   4.029   3.564  0.9172  2.4770 -0.5266
 1182SOL    HW215006   3.017   3.910   3.542 -1.4022 -0.3785 -1.8679
 1183SOL     OW15007   1.282   2.990   8.097 -0.0140  0.2252  0.4243
 1183SOL    HW115008   1.221   2.980   8.170 -0.6315 -3.7603 -0.6142
 1183SOL    HW215009   1.366   2.975   8.141  0.1175 -0.1630  0.0327
 1184SOL     OW15010   0.420   1.241   5.000  0.7037  0.2509 -0.2437
 1184SOL    HW115011   0.355   1.172   4.997  0.7042  0.1239  2.9035
 1184SOL    HW215012   0.382   1.312   4.948 -1.3680  0.0947  1.0672
 1185SOL     OW15013   2.669   2.404  14.853 -0.6224  0.1945 -0.1164
 1185SOL    HW115014   2.758   2.414  14.820 -0.8123 -0.6489 -0.8938
 1185SOL    HW215015   2.645   2.492  14.882 -1.1497  0.6004 -1.7998
 1186SOL     OW15016   1.580   0.414   1.928 -0.7954 -0.4761 -0.0363
 1186SOL    HW115017   1.592   0.483   1.863  1.1385 -1.4593 -0.7308
 1186SOL    HW215018   1.670   0.401   1.959 -1.3702  0.4462  2.0224
 1187SOL     OW15019   4.460   3.687  13.576  0.0563  0.1431 -0.2782
 1187SOL    HW115020   4.453   3.782  13.572 -3.0093 -0.0414  0.7761
 1187SOL    HW215021   4.553   3.669  13.558 -0.0591  0.5602 -1.2939
 1188SOL     OW15022   0.622   1.605  15.267 -0.2331  0.2748 -0.5660
 1188SOL    HW115023   0.557   1.536  15.252 -0.0959  0.0245 -0.0204
 1188SOL    HW215024   0.573   1.687  15.259  1.8351  1.2085 -3.4923
 1189SOL     OW15025   3.527   1.078   1.186 -0.2498  0.3439  0.4415
 1189SOL    HW115026   3.554   1.160   1.226  0.7116 -1.3675  3.3190
 1189SOL    HW215027   3.471   1.108   1.115  0.9841 -1.7429 -1.4051
 1190SOL     OW15028   1.766   4.519   7.059 -0.2054  0.5788 -0.4100
 1190SOL    HW115029   1.818   4.510   6.979  0.7473 -0.7910  0.3527
 1190SOL    HW215030   1.840   4.550   7.112  0.1418  1.0214 -1.1514
 1191SOL     OW15031   1.110   2.808   4.343 -0.2050 -0.2665  0.0793
 1191SOL    HW115032   1.111   2.758   4.424 -2.0320 -0.5140 -0.0543
 1191SOL    HW215033   1.164   2.755   4.285 -0.3562 -0.9430  0.5576
 1192SOL     OW15034   1.800   1.549   8.136  0.4279  0.5937  0.4694
 1192SOL    HW115035   1.808   1.492   8.213 -0.1183  1.3224  1.0584
 1192SOL    HW215036   1.777   1.483   8.071  0.2181  0.3574  0.7776
 1193SOL     OW15037   2.393   0.580   1.672  0.1746  0.6988  0.2405
 1193SOL    HW115038   2.378   0.638   1.747 -2.5438  2.0392 -1.3207
 1193SOL    HW215039   2.408   0.637   1.597 -2.7086  1.3750  0.1692
 1194SOL     OW15040   0.720   4.078   1.221 -0.2484 -0.5015 -0.2859
 1194SOL    HW115041   0.782   4.143   1.252  0.1786 -0.9772 -0.1501
 1194SOL    HW215042   0.658   4.091   1.293  0.3513 -0.0503  0.1493
 1195SOL     OW15043   2.194   0.445  13.368  0.3496 -0.1811  0.3188
 1195SOL    HW115044   2.132   0.465  13.297 -1.0338 -1.4595  1.1871
 1195SOL    HW215045   2.180   0.351  13.377 -0.9922 -0.0734 -0.5476
 1196SOL     OW15046   0.863   2.069   9.670  0.2158  0.2684 -0.4801
 1196SOL    HW115047   0.835   2.095   9.582  1.6802 -2.2177 -1.6599
 1196SOL    HW215048   0.823   2.140   9.721  1.2812 -0.9714  2.0235
 1197SOL     OW15049   0.427   1.143   7.789  0.0195  0.3501  0.0339
 1197SOL    HW115050   0.397   1.075   7.728  0.2685  0.9472 -0.7418
 1197SOL    HW215051   0.485   1.091   7.845 -0.3012 -1.5211 -1.3589
 1198SOL     OW15052   0.138   2.272   7.459 -0.0019  0.4318  0.0786
 1198SOL    HW115053   0.186   2.354   7.471 -1.7554  1.2610  1.4200
 1198SOL    HW215054   0.191   2.223   7.396 -0.4286 -1.6500  1.3510
 1199SOL     OW15055   1.892   1.004   2.299  0.2313 -0.8234  0.3448
 1199SOL    HW115056   1.886   0.913   2.326 -2.8431 -1.1874 -1.6435
 1199SOL    HW215057   1.824   1.039   2.357 -0.9599 -1.9462 -0.3965
 1200SOL     OW15058   1.171   2.154   6.532  0.5629  0.1543  0.2892
 1200SOL    HW115059   1.097   2.097   6.550 -0.5563  1.3775 -0.3975
 1200SOL    HW215060   1.228   2.102   6.476  1.8979  0.6542  1.1566
 1201SOL     OW15061   0.543   1.385   8.471 -0.3917  0.1028 -0.0101
 1201SOL    HW115062   0.500   1.321   8.528  1.9885 -2.5007 -1.1054
 1201SOL    HW215063   0.546   1.460   8.531 -0.1627 -0.8791  1.1946
 1202SOL     OW15064   1.923   1.650   2.939 -0.1589  1.0384 -0.6964
 1202SOL    HW115065   1.827   1.652   2.932 -0.1756 -0.2016 -0.7189
 1202SOL    HW215066   1.944   1.736   2.902  2.5546  1.2401  1.3514
 1203SOL     OW15067   1.432   3.769   5.691  0.7312 -0.5733 -0.0999
 1203SOL    HW115068   1.425   3.859   5.659  0.4675 -0.4540  0.2970
 1203SOL    HW215069   1.389   3.779   5.776  3.4152  1.2502  1.0564
 1204SOL     OW15070   0.837   0.559   7.995  0.1245  0.3750 -0.3284
 1204SOL    HW115071   0.882   0.498   7.938 -0.5046  0.1515 -0.5797
 1204SOL    HW215072   0.912   0.597   8.042 -0.0739  1.7047 -1.0768
 1205SOL     OW15073   3.610   4.105   3.113  0.5272  0.3980  0.2434
 1205SOL    HW115074   3.547   4.140   3.175 -1.9714 -1.2265 -1.4088
 1205SOL    HW215075   3.619   4.177   3.051 -2.9530  0.8566  0.2925
 1206SOL     OW15076   3.171   2.584   7.110 -0.2112 -0.5780  0.0113
 1206SOL    HW115077   3.194   2.660   7.055 -2.5201  1.2574  1.6020
 1206SOL    HW215078   3.256   2.542   7.124  0.4741  0.0311 -2.2708
 1207SOL     OW15079   2.855   3.573   5.152 -0.1613 -0.1539 -0.6173
 1207SOL    HW115080   2.859   3.519   5.231 -0.4959  1.2326  0.3358
 1207SOL    HW215081   2.801   3.512   5.101 -0.3227 -0.4124 -0.1402
 1208SOL     OW15082   2.021   0.681   7.480  0.1386  0.2626 -0.3242
 1208SOL    HW115083   1.928   0.680   7.461  0.0382  1.1617  0.1492
 1208SOL    HW215084   2.046   0.602   7.430  0.9023  1.1092 -1.2852
 1209SOL     OW15085   2.975   1.326  16.579 -0.0349 -0.0860  0.4413
 1209SOL    HW115086   3.050   1.322  16.638  0.3520 -0.7760 -0.0999
 1209SOL    HW215087   3.018   1.381  16.513 -3.0113  0.0565 -1.3519
 1210SOL     OW15088   2.374   2.860   3.713 -0.0145 -0.0827 -0.2390
 1210SOL    HW115089   2.369   2.825   3.624  1.0803  1.3695 -0.8722
 1210SOL    HW215090   2.300   2.812   3.749  1.0933  0.1369  2.3068
 1211SOL     OW15091   1.336   1.505   1.084 -0.2031 -0.3038  0.0817
 1211SOL    HW115092   1.414   1.536   1.037  1.4786 -2.9296  1.1490
 1211SOL    HW215093   1.293   1.453   1.017 -0.8587 -1.8295  1.6911
 1212SOL     OW15094   2.693   0.130   6.637  0.0077  0.0585 -0.6601
 1212SOL    HW115095   2.726   0.098   6.721 -0.5294 -0.2298 -0.5563
 1212SOL    HW215096   2.636   0.055   6.616  1.0150 -0.5308 -1.3036
 1213SOL     OW15097   4.607   2.080   2.221  0.6437  0.9283 -0.6276
 1213SOL    HW115098   4.586   2.072   2.315 -0.6501 -1.1882 -1.1085
 1213SOL    HW215099   4.665   2.156   2.230  1.6208  0.1967 -0.7750
 1214SOL     OW15100   2.299   3.007   1.699 -0.8646 -0.0209 -0.0945
 1214SOL    HW115101   2.263   2.924   1.668  0.5559 -0.4671 -0.5680
 1214SOL    HW215102   2.238   3.034   1.768 -1.0930 -1.3184  0.2101
 1215SOL     OW15103   2.282   3.944   1.571 -0.1054  0.2084  0.3901
 1215SOL    HW115104   2.340   3.882   1.528 -0.3265  0.4034 -0.1937
 1215SOL    HW215105   2.205   3.941   1.514  0.9651 -0.4966 -1.0302
 1216SOL     OW15106   2.435   3.926  10.634  0.2967  0.3259  0.3025
 1216SOL    HW115107   2.452   3.833  10.620  0.3338  0.4046 -0.1716
 1216SOL    HW215108   2.342   3.917  10.652  0.6009 -0.8788  1.2809
 1217SOL     OW15109   1.359   4.165   3.801 -0.3727  0.0990  0.1025
 1217SOL    HW115110   1.406   4.082   3.804  1.4237  1.1442  0.6951
 1217SOL    HW215111   1.293   4.146   3.735  2.2427  0.4073 -2.6047
 1218SOL     OW15112   0.599   1.712   3.793 -0.0329 -0.1044  0.2531
 1218SOL    HW115113   0.603   1.710   3.888 -1.6222  0.1648  0.3259
 1218SOL    HW215114   0.571   1.802   3.780  0.5572  0.0555  0.0850
 1219SOL     OW15115   2.480   3.693  14.051  0.3504  0.2852  0.0006
 1219SOL    HW115116   2.417   3.711  14.121 -0.6013  1.9641 -1.2932
 1219SOL    HW215117   2.562   3.704  14.100  0.6293  0.8620 -0.6020
 1220SOL     OW15118   4.208   2.027   6.252 -0.2962 -0.4722 -0.3569
 1220SOL    HW115119   4.116   2.035   6.229 -0.4107 -0.4390  0.1179
 1220SOL    HW215120   4.204   1.968   6.327  1.8212  0.4831  0.5306
 1221SOL     OW15121   3.666   0.048   7.079  0.6474  0.2875  0.1795
 1221SOL    HW115122   3.594   0.081   7.025  0.4519 -0.2104  0.1438
 1221SOL    HW215123   3.664   4.679   7.064  0.7070 -0.2366  3.4458
 1222SOL     OW15124   3.542   3.831  16.232  0.1808 -0.4050 -0.2977
 1222SOL    HW115125   3.536   3.776  16.154 -0.8784 -0.8845  0.1261
 1222SOL    HW215126   3.459   3.821  16.278 -0.1827 -1.0640 -1.1041
 1223SOL     OW15127   3.420   0.186   7.043 -0.4363 -0.2409 -0.0064
 1223SOL    HW115128   3.455   0.194   7.131  2.6495  0.5953 -1.3091
 1223SOL    HW215129   3.342   0.131   7.054  0.4405 -0.9825  2.3463
 1224SOL     OW15130   4.040   0.131   0.006  0.4003 -0.1514  0.0157
 1224SOL    HW115131   4.032   0.227   0.003 -0.3119 -0.1666  1.2079
 1224SOL    HW215132   4.131   0.127   0.033 -0.0344 -0.7110  1.3984
 1225SOL     OW15133   0.059   3.191   2.261 -0.0013 -0.1724  0.5394
 1225SOL    HW115134   0.108   3.215   2.182 -1.5778 -1.4167 -0.8159
 1225SOL    HW215135   0.017   3.273   2.286 -0.8403  0.0924 -1.7271
 1226SOL     OW15136   0.695   4.707   5.221  0.2237 -0.1682 -0.3872
 1226SOL    HW115137   0.600   4.713   5.229  0.0570  0.8541 -2.9384
 1226SOL    HW215138   0.723   4.699   5.312 -1.1320  0.5115  0.0896
 1227SOL     OW15139   2.314   1.750   3.911 -0.2346 -0.0547 -0.7622
 1227SOL    HW115140   2.392   1.746   3.966  0.3919 -1.1200 -1.7294
 1227SOL    HW215141   2.312   1.665   3.867  0.5795 -0.2834 -0.3546
 1228SOL     OW15142   2.100   3.043   3.601 -0.2347  0.1418  0.0340
 1228SOL    HW115143   2.135   2.986   3.533 -0.8511 -3.1560  2.4985
 1228SOL    HW215144   2.062   3.114   3.550  1.8666  0.1998 -1.4485
 1229SOL     OW15145   1.730   2.743   9.107  0.0995  0.0854 -0.1532
 1229SOL    HW115146   1.724   2.796   9.027 -0.8455  1.1825  0.6441
 1229SOL    HW215147   1.717   2.809   9.174 -1.4663  1.4509 -1.7875
 1230SOL     OW15148   1.499   2.289   8.307  0.3725  0.2811  0.2156
 1230SOL    HW115149   1.551   2.254   8.379 -0.9778 -1.8424  0.1475
 1230SOL    HW215150   1.461   2.367   8.346 -1.0974  0.9562 -2.5774
 1231SOL     OW15151   2.816   3.943   0.773  0.3229  0.1660  0.4426
 1231SOL    HW115152   2.902   3.935   0.732  0.0132 -2.5810  0.3231
 1231SOL    HW215153   2.774   4.010   0.719 -0.7597 -0.8035  0.0728
 1232SOL     OW15154   1.179   2.027  13.924  0.3824  0.5091  0.1558
 1232SOL    HW115155   1.227   1.945  13.913  1.6412  1.3485 -0.6241
 1232SOL    HW215156   1.097   2.004  13.882 -0.1698  2.4464  0.1586
 1233SOL     OW15157   3.460   1.519   7.439 -0.2558  0.0349  0.3739
 1233SOL    HW115158   3.500   1.445   7.394 -1.0509 -0.2818  0.2084
 1233SOL    HW215159   3.410   1.553   7.366 -2.8785 -0.6870  1.8341
 1234SOL     OW15160   0.569   0.361  17.256  0.1558  0.8037 -0.1081
 1234SOL    HW115161   0.576   0.269  17.279  1.9480  1.4017  1.7195
 1234SOL    HW215162   0.653   0.390  17.290 -0.7349  0.2696  2.5192
 1235SOL     OW15163   4.133   2.596   2.097  0.4894 -0.1428  0.2014
 1235SOL    HW115164   4.164   2.604   2.006 -0.6036 -1.6156 -0.3062
 1235SOL    HW215165   4.085   2.678   2.113  1.8340  0.8027 -0.6141
 1236SOL     OW15166   3.556   3.669   4.594  0.0427 -0.1767 -0.1440
 1236SOL    HW115167   3.565   3.583   4.633  0.2129 -0.6084 -1.1318
 1236SOL    HW215168   3.535   3.647   4.503 -2.5359  0.5522  0.2872
 1237SOL     OW15169   1.639   1.845   0.376  0.3647  0.2563  0.5391
 1237SOL    HW115170   1.563   1.788   0.382  0.9322 -0.5324  0.1544
 1237SOL    HW215171   1.686   1.815   0.453 -0.1162 -0.4447  0.5539
 1238SOL     OW15172   0.709   2.023   2.358  0.3430  0.0624 -0.0409
 1238SOL    HW115173   0.727   1.934   2.326  1.2740  0.6261 -1.0778
 1238SOL    HW215174   0.642   2.014   2.426 -0.9422 -1.8797 -1.5494
 1239SOL     OW15175   4.558   0.789   1.274  0.3541 -0.1987  0.1697
 1239SOL    HW115176   4.557   0.884   1.266 -1.4872 -0.1901  0.4391
 1239SOL    HW215177   4.482   0.759   1.225  0.8645 -0.9524 -0.1583
 1240SOL     OW15178   0.463   4.082   1.140  0.7273  0.0700  0.5705
 1240SOL    HW115179   0.555   4.071   1.163  1.7521  0.2645 -3.3409
 1240SOL    HW215180   0.433   3.996   1.168 -1.7229 -0.3272 -3.2441
 1241SOL     OW15181   1.952   4.133   1.125  0.1634 -0.4850  0.4045
 1241SOL    HW115182   1.971   4.203   1.063  0.4947 -1.9602 -1.1456
 1241SOL    HW215183   1.896   4.075   1.075  0.4115  0.5462 -1.0626
 1242SOL     OW15184   3.849   3.477   7.501 -0.2292  0.1545 -0.0498
 1242SOL    HW115185   3.916   3.482   7.569  0.5422 -0.7554 -0.7511
 1242SOL    HW215186   3.884   3.527   7.427  0.5674 -1.2244 -0.6030
 1243SOL     OW15187   2.619   2.163   2.175  0.0090 -0.4973 -0.1108
 1243SOL    HW115188   2.686   2.128   2.117  1.2460  1.3065  0.2415
 1243SOL    HW215189   2.583   2.226   2.113 -2.1802 -3.6773 -2.0997
 1244SOL     OW15190   1.629   3.038   9.800 -0.6851  0.0404 -0.1525
 1244SOL    HW115191   1.618   3.119   9.850  0.3153  1.1411 -1.7239
 1244SOL    HW215192   1.539   3.004   9.804 -1.1868  1.3008 -0.5068
 1245SOL     OW15193   1.301   0.726   8.702  0.1288  0.4017 -0.2205
 1245SOL    HW115194   1.206   0.714   8.711 -0.0033  0.6464 -1.2446
 1245SOL    HW215195   1.321   0.688   8.787  5.1536  0.7609 -1.2845
 1246SOL     OW15196   2.125   0.953  15.960 -0.1237 -0.1439  0.5854
 1246SOL    HW115197   2.048   0.995  15.998  1.2279  3.3380 -0.5227
 1246SOL    HW215198   2.169   0.926  16.041  1.1281  0.7194  0.1999
 1247SOL     OW15199   0.921   3.537  15.434  0.7463  0.0763  0.1764
 1247SOL    HW115200   0.983   3.531  15.362  0.3893  1.6240 -0.2550
 1247SOL    HW215201   0.937   3.627  15.462  0.6326  0.1874 -0.1080
 1248SOL     OW15202   0.253   4.528   0.812  0.8612  0.1396 -0.3548
 1248SOL    HW115203   0.170   4.575   0.819  1.1848  0.7176 -0.4572
 1248SOL    HW215204   0.245   4.506   0.719  0.2843 -2.0259  0.2163
 1249SOL     OW15205   3.485   4.170   6.793 -0.3748  0.5449 -0.2005
 1249SOL    HW115206   3.490   4.265   6.806 -0.5431  0.5078  0.1409
 1249SOL    HW215207   3.471   4.153   6.886 -1.1460 -0.5746 -0.5292
 1250SOL     OW15208   2.892   1.137   0.861  0.1048  0.4523  0.3523
 1250SOL    HW115209   2.805   1.105   0.841  1.0473 -0.7313 -1.8699
 1250SOL    HW215210   2.924   1.181   0.782  0.8815  1.0400  0.9836
 1251SOL     OW15211   3.828   3.524   1.279  0.2918  0.0806  0.3584
 1251SOL    HW115212   3.750   3.545   1.331 -0.0575  1.6383 -0.7815
 1251SOL    HW215213   3.792   3.579   1.210 -1.4312 -1.2328  0.2003
 1252SOL     OW15214   2.450   2.759  10.394 -0.2072 -0.0896  0.1928
 1252SOL    HW115215   2.526   2.718  10.353  0.5729  0.8644  0.6780
 1252SOL    HW215216   2.499   2.814  10.455  2.0544 -1.9832  0.0973
 1253SOL     OW15217   3.713   4.303   4.012  0.4781  0.9118  0.1020
 1253SOL    HW115218   3.797   4.281   3.970 -0.6513 -0.3301 -1.5451
 1253SOL    HW215219   3.687   4.212   4.025  0.3239  0.7736 -1.1267
 1254SOL     OW15220   2.964   0.106   4.000 -0.2871 -0.6259 -0.0700
 1254SOL    HW115221   3.024   0.033   4.012 -0.9438 -1.4284 -1.6902
 1254SOL    HW215222   2.933   0.112   4.091  1.0410 -1.3023  0.4163
 1255SOL     OW15223   4.279   2.509   4.918  0.3358  0.4300  0.1590
 1255SOL    HW115224   4.317   2.423   4.940 -0.3860  0.1153  0.1685
 1255SOL    HW215225   4.350   2.563   4.954 -0.1942  1.4100 -0.2727
 1256SOL     OW15226   3.946   2.943   6.595 -0.5613 -0.1204 -0.2099
 1256SOL    HW115227   3.856   2.974   6.580 -0.0496  0.5186 -1.9705
 1256SOL    HW215228   3.934   2.877   6.664 -2.9291  2.6857  2.0572
 1257SOL     OW15229   1.109   0.198   1.985 -0.2477  0.1119  0.2696
 1257SOL    HW115230   1.186   0.231   1.938 -0.8701  3.4641  1.5850
 1257SOL    HW215231   1.120   0.221   2.077  1.3259 -0.2694  0.1761
 1258SOL     OW15232   0.385   4.301   8.951  0.3592 -0.2077  0.1382
 1258SOL    HW115233   0.437   4.351   9.014 -0.4154 -0.6632  1.1451
 1258SOL    HW215234   0.295   4.324   8.975 -1.0145 -3.1660 -2.2018
 1259SOL     OW15235   2.402   0.123   7.458  0.2019 -0.0783 -0.0725
 1259SOL    HW115236   2.484   0.156   7.495  0.5919 -0.7483 -0.3294
 1259SOL    HW215237   2.373   0.062   7.526 -0.5851  0.3632 -0.0129
 1260SOL     OW15238   2.070   1.084  10.391 -0.4092  0.1462  0.1018
 1260SOL    HW115239   2.142   1.021  10.398 -0.2081  0.4905  1.0020
 1260SOL    HW215240   2.119   1.164  10.407 -0.8417  0.4873 -0.2946
 1261SOL     OW15241   1.009   2.681   9.082 -0.2851  0.1365 -0.2530
 1261SOL    HW115242   0.964   2.626   9.147 -1.8559 -0.1725 -1.6020
 1261SOL    HW215243   1.033   2.745   9.149  0.2306  0.6733 -0.9566
 1262SOL     OW15244   3.228   3.236   2.787 -0.3815 -0.1430 -0.6526
 1262SOL    HW115245   3.276   3.204   2.863 -0.5329  2.0922  0.3738
 1262SOL    HW215246   3.192   3.155   2.750 -0.9449 -0.0337 -0.3463
 1263SOL     OW15247   4.271   2.873  16.660 -0.6199  0.1585  1.0060
 1263SOL    HW115248   4.237   2.919  16.584  0.2176  0.5094  0.8374
 1263SOL    HW215249   4.304   2.788  16.631 -2.3324 -0.8316  1.9511
 1264SOL     OW15250   2.221   4.046   9.404  0.3669 -0.2583  0.0140
 1264SOL    HW115251   2.258   3.958   9.415  3.3819  1.0473  0.1707
 1264SOL    HW215252   2.168   4.047   9.484 -0.8690 -0.5336 -0.7903
 1265SOL     OW15253   1.642   4.240   9.370  0.3115  0.4596 -0.0523
 1265SOL    HW115254   1.690   4.191   9.303 -0.1964  1.8185 -1.4161
 1265SOL    HW215255   1.657   4.193   9.452  2.0210  0.8301 -0.1407
 1266SOL     OW15256   1.508   0.144  16.366 -0.0379  0.4120 -0.0213
 1266SOL    HW115257   1.437   0.153  16.429 -0.2961 -1.4992 -0.0278
 1266SOL    HW215258   1.583   0.131  16.425 -0.7280  0.5597  0.8803
 1267SOL     OW15259   0.827   3.698   2.629 -0.3939 -0.5657  0.2717
 1267SOL    HW115260   0.778   3.769   2.588  2.6709  2.0114  1.0448
 1267SOL    HW215261   0.758   3.632   2.625  0.4169 -1.3000 -1.5429
 1268SOL     OW15262   2.300   4.350   9.792  0.2673  0.2899 -0.0245
 1268SOL    HW115263   2.298   4.254   9.792 -1.5282  0.3146 -0.0726
 1268SOL    HW215264   2.395   4.355   9.786  0.1028 -0.8287 -3.3897
 1269SOL     OW15265   3.442   4.374  13.483  0.8508 -0.1325 -0.2051
 1269SOL    HW115266   3.526   4.355  13.525 -0.3434 -1.2708  1.6956
 1269SOL    HW215267   3.405   4.293  13.517  1.4927  0.2710  1.4578
 1270SOL     OW15268   2.178   0.920   6.662 -0.3377  0.0798 -0.1546
 1270SOL    HW115269   2.167   0.995   6.721  0.1411  0.5299 -0.6511
 1270SOL    HW215270   2.123   0.854   6.705 -1.3689 -0.5819 -2.4709
 1271SOL     OW15271   2.402   2.676  17.504  0.3257 -0.1860  0.3023
 1271SOL    HW115272   2.408   2.746  17.440 -1.7942  1.3447  1.7808
 1271SOL    HW215273   2.391   2.598  17.449 -1.8467 -0.2186  0.8049
 1272SOL     OW15274   3.338   3.259   6.492  0.4806 -0.3192 -0.9131
 1272SOL    HW115275   3.243   3.259   6.482  0.3454 -0.3296  0.3111
 1272SOL    HW215276   3.345   3.210   6.574 -1.8692  0.3910 -0.2923
 1273SOL     OW15277   1.055   2.589   0.105 -0.1213 -0.2037 -0.4053
 1273SOL    HW115278   1.108   2.655   0.151  0.9845 -2.3975  1.4633
 1273SOL    HW215279   1.042   2.522   0.172  1.4633  0.1435  0.2544
 1274SOL     OW15280   1.544   2.673  16.882 -0.6400  0.4517 -0.3373
 1274SOL    HW115281   1.599   2.651  16.807  0.6658 -0.7535  0.9620
 1274SOL    HW215282   1.489   2.742  16.844  0.6517  0.5041 -2.1035
 1275SOL     OW15283   2.665   3.565   2.509 -0.6898 -0.0072  0.2429
 1275SOL    HW115284   2.646   3.501   2.440 -0.7396  1.4278 -1.0516
 1275SOL    HW215285   2.697   3.505   2.577 -2.7179  0.7854  1.8883
 1276SOL     OW15286   1.400   0.834   5.577 -0.2750  0.7487 -0.1392
 1276SOL    HW115287   1.488   0.874   5.575 -1.2634  2.9316  0.1234
 1276SOL    HW215288   1.381   0.821   5.669  3.5117  3.7548  1.0820
 1277SOL     OW15289   1.342   4.401  12.763  0.4845 -0.2436  0.0163
 1277SOL    HW115290   1.247   4.412  12.771  0.5671  1.6239 -1.4948
 1277SOL    HW215291   1.357   4.313  12.796  0.9845 -0.9537 -2.1040
 1278SOL     OW15292   3.494   1.015   0.273 -0.4038  0.4014 -0.0094
 1278SOL    HW115293   3.413   1.008   0.222  0.9623 -2.8781 -1.6548
 1278SOL    HW215294   3.460   0.986   0.358  1.4835 -2.4810 -0.2689
 1279SOL     OW15295   3.776   2.196  16.460 -0.1854  0.5068 -0.5376
 1279SOL    HW115296   3.790   2.231  16.372 -2.4281 -1.8225 -1.8281
 1279SOL    HW215297   3.827   2.262  16.507 -0.4554  0.7562 -0.5870
 1280SOL     OW15298   2.413   3.436   3.067 -0.2998 -0.1872 -0.0749
 1280SOL    HW115299   2.470   3.360   3.050 -2.4461 -1.5628 -1.1317
 1280SOL    HW215300   2.331   3.391   3.045  0.3120 -2.4987  2.2929
 1281SOL     OW15301   3.100   2.152   7.269 -0.1774  0.4118  0.1858
 1281SOL    HW115302   3.098   2.180   7.361  0.8092 -0.8083  0.5814
 1281SOL    HW215303   3.025   2.093   7.258  1.3782 -1.5366 -0.1250
 1282SOL     OW15304   3.663   1.050   0.881 -0.0424  0.6428  0.3188
 1282SOL    HW115305   3.575   1.063   0.917  0.4467 -0.0157  1.7355
 1282SOL    HW215306   3.669   0.955   0.890  1.2302  0.7789  0.8807
 1283SOL     OW15307   4.703   3.952  12.858  0.3714  0.7103 -0.0206
 1283SOL    HW115308   4.655   3.875  12.826 -1.4819  1.7155  0.3648
 1283SOL    HW215309   0.043   3.961  12.788 -0.0240  1.6664 -0.2597
 1284SOL     OW15310   2.568   3.214   3.032  0.6364  0.3232 -0.2270
 1284SOL    HW115311   2.620   3.198   2.954  1.1540  0.1557  0.1507
 1284SOL    HW215312   2.530   3.129   3.054 -0.5830  0.5849 -1.3378
 1285SOL     OW15313   2.909   2.841   3.178  0.2572 -0.3563 -0.3372
 1285SOL    HW115314   2.910   2.924   3.130  1.3199 -0.5112 -0.5751
 1285SOL    HW215315   2.872   2.871   3.261  0.0760  1.1641 -0.9662
 1286SOL     OW15316   2.026   1.700   9.614  0.6856 -0.2044  0.1404
 1286SOL    HW115317   1.985   1.671   9.696 -1.8567  0.2895 -0.9625
 1286SOL    HW215318   2.055   1.622   9.566 -0.6503 -1.0054  0.6323
 1287SOL     OW15319   0.795   2.691  11.418 -0.0172  0.3848  0.2845
 1287SOL    HW115320   0.882   2.654  11.404  0.3224  1.2397  0.1366
 1287SOL    HW215321   0.809   2.747  11.495  0.8691  0.2519  0.2148
 1288SOL     OW15322   2.246   1.561  14.800  0.3972  0.5543 -0.1449
 1288SOL    HW115323   2.341   1.572  14.803  0.2753  2.2084 -2.6078
 1288SOL    HW215324   2.233   1.542  14.707 -1.5348  0.8666  0.0684
 1289SOL     OW15325   2.464   3.229  10.865  0.1664 -0.8815 -0.4072
 1289SOL    HW115326   2.411   3.161  10.906 -0.8785 -0.5584 -1.2066
 1289SOL    HW215327   2.543   3.179  10.846 -0.0309 -1.6010  0.6441
 1290SOL     OW15328   2.018   3.896   0.217 -0.2305  0.7098  0.6826
 1290SOL    HW115329   2.050   3.824   0.271 -0.1896 -0.7631 -1.3223
 1290SOL    HW215330   1.924   3.884   0.232 -0.0054 -2.2813 -0.3410
 1291SOL     OW15331   3.920   4.419   3.093  0.4687 -0.0294  0.4543
 1291SOL    HW115332   3.877   4.474   3.158 -1.2142 -1.2074  0.3481
 1291SOL    HW215333   3.924   4.333   3.136 -3.9641 -1.6063 -2.3032
 1292SOL     OW15334   3.689   2.101  15.728 -0.0421  0.9806  0.3499
 1292SOL    HW115335   3.641   2.183  15.713 -1.4422  0.0152 -0.3938
 1292SOL    HW215336   3.750   2.150  15.783 -1.8540  1.8864  1.5666
 1293SOL     OW15337   2.113   4.595   3.845 -0.1957  0.2373  0.1485
 1293SOL    HW115338   2.063   4.660   3.893 -2.4314  0.5927 -2.6855
 1293SOL    HW215339   2.200   4.610   3.884 -0.3264  3.2208 -0.7419
 1294SOL     OW15340   1.721   2.038  10.662 -0.5654 -0.1575  0.0518
 1294SOL    HW115341   1.726   2.004  10.752  2.2191  2.0624  0.7366
 1294SOL    HW215342   1.675   2.120  10.677  0.6811  0.3326  1.2034
 1295SOL     OW15343   2.831   0.585  14.741 -0.1704  0.1769 -0.0474
 1295SOL    HW115344   2.925   0.602  14.732  0.5198 -3.3812  0.5331
 1295SOL    HW215345   2.791   0.672  14.742  0.2294  0.3652 -0.8077
 1296SOL     OW15346   1.751   1.184   5.108 -0.2270  0.5546  0.3790
 1296SOL    HW115347   1.800   1.262   5.083  2.1567 -1.1093 -0.1644
 1296SOL    HW215348   1.694   1.177   5.032  1.3383 -0.4643 -0.7020
 1297SOL     OW15349   0.897   0.201  16.602 -0.7384  0.1739 -0.0305
 1297SOL    HW115350   0.948   0.169  16.676 -0.2619 -0.1395 -0.4947
 1297SOL    HW215351   0.849   0.271  16.646  0.9341  0.6029  1.0906
 1298SOL     OW15352   1.505   1.025  10.121  0.1797  0.3223 -0.4073
 1298SOL    HW115353   1.444   0.950  10.123 -1.7649  1.8908 -0.9906
 1298SOL    HW215354   1.531   1.023  10.213 -0.8795 -4.1484 -0.1681
 1299SOL     OW15355   2.039   4.082   4.650 -0.0025 -0.2447 -0.1105
 1299SOL    HW115356   1.964   4.097   4.592  0.0613  0.4602 -0.0050
 1299SOL    HW215357   2.038   3.987   4.663 -1.1544  0.0716  2.1272
 1300SOL     OW15358   2.141   2.975   6.034  0.5086 -0.2424  0.3099
 1300SOL    HW115359   2.104   2.888   6.051  0.0482 -0.3638 -1.3289
 1300SOL    HW215360   2.236   2.964   6.038  0.4947 -1.2619 -2.3349
 1301SOL     OW15361   2.052   0.353   2.715 -0.2504  0.4090  0.0481
 1301SOL    HW115362   1.985   0.336   2.648 -2.1619  0.9601  1.8150
 1301SOL    HW215363   2.137   0.347   2.673  0.2251  0.3057  1.0110
 1302SOL     OW15364   3.712   1.529   6.534  0.0975  0.0946  0.1938
 1302SOL    HW115365   3.792   1.552   6.488 -0.9915 -0.7518 -2.1526
 1302SOL    HW215366   3.714   1.596   6.602 -4.1844  1.5640 -1.0996
 1303SOL     OW15367   4.307   1.232   7.142  0.5875  0.2800  0.3444
 1303SOL    HW115368   4.286   1.143   7.169 -2.1747  0.6681 -0.5042
 1303SOL    HW215369   4.218   1.262   7.122 -0.4940 -1.1881  2.9494
 1304SOL     OW15370   3.643   4.118  15.549 -0.2022  0.2419  0.0789
 1304SOL    HW115371   3.590   4.193  15.576 -1.8034 -0.3267 -1.4624
 1304SOL    HW215372   3.727   4.154  15.576 -0.0452 -0.0309 -0.0455
 1305SOL     OW15373   4.654   2.575   3.327  0.0721  0.3181 -0.1254
 1305SOL    HW115374   4.711   2.568   3.404  0.5248  1.1934 -0.3710
 1305SOL    HW215375   4.606   2.652   3.358 -0.1808  0.4170 -0.7603
 1306SOL     OW15376   1.398   3.191   4.967 -0.2837 -0.2269  0.3584
 1306SOL    HW115377   1.456   3.122   5.000  0.5104  1.0250  1.5554
 1306SOL    HW215378   1.389   3.172   4.874  2.2253  0.1978  0.0452
 1307SOL     OW15379   2.011   3.279  16.425  0.2893  0.3826 -0.4000
 1307SOL    HW115380   2.003   3.343  16.354 -2.5740  0.5545  0.0440
 1307SOL    HW215381   1.918   3.280  16.449  0.6512  1.0000  0.9711
 1308SOL     OW15382   2.176   0.072   8.669  0.3302  0.8205 -0.0125
 1308SOL    HW115383   2.246   0.118   8.622  0.3426 -0.2704 -1.0859
 1308SOL    HW215384   2.154   0.150   8.719 -3.0478  1.1753 -2.0967
 1309SOL     OW15385   2.706   0.865   3.075 -0.3209  0.1590 -0.6927
 1309SOL    HW115386   2.701   0.779   3.035 -1.1038  1.1749 -2.7676
 1309SOL    HW215387   2.641   0.907   3.018  0.2731  1.5151 -0.3766
 1310SOL     OW15388   2.744   3.242  14.692  0.0211 -0.0820  0.5355
 1310SOL    HW115389   2.832   3.225  14.660  0.1141  1.0427  0.2095
 1310SOL    HW215390   2.753   3.218  14.785 -2.2181  0.6867  0.9722
 1311SOL     OW15391   3.912   0.105   9.188  0.2516 -0.0958  0.0170
 1311SOL    HW115392   3.903   0.156   9.108  0.9996 -0.9831 -0.6337
 1311SOL    HW215393   3.996   0.133   9.224 -0.2751 -1.0762  2.0621
 1312SOL     OW15394   2.401   4.271  16.734  0.2594  0.4047  0.3255
 1312SOL    HW115395   2.443   4.201  16.683  0.5330  0.0817  0.9987
 1312SOL    HW215396   2.398   4.234  16.822 -0.8513  2.7767  1.2740
 1313SOL     OW15397   3.636   1.468   0.126 -0.4774  0.4556 -0.1765
 1313SOL    HW115398   3.624   1.484   0.032  1.7854 -0.6811 -0.6677
 1313SOL    HW215399   3.725   1.497   0.143  0.3004 -1.8356 -0.3052
 1314SOL     OW15400   1.709   0.890   5.877  0.0921  0.2115 -0.3400
 1314SOL    HW115401   1.621   0.868   5.848 -0.4974  0.8553  0.9868
 1314SOL    HW215402   1.700   0.863   5.968 -1.4250  1.0141 -0.2621
 1315SOL     OW15403   3.277   0.115   1.651 -0.5629 -0.4118 -0.7280
 1315SOL    HW115404   3.319   0.094   1.567  2.2030  1.6726  0.1037
 1315SOL    HW215405   3.192   0.074   1.637 -1.2002 -0.3573  2.9386
 1316SOL     OW15406   1.590   1.238   3.394 -0.1100 -0.0772 -0.2176
 1316SOL    HW115407   1.561   1.155   3.356  0.7222  0.5505 -2.2311
 1316SOL    HW215408   1.669   1.268   3.348  1.0729  2.1742  3.2729
 1317SOL     OW15409   4.676   3.998   9.801  0.0296 -0.4641  0.5604
 1317SOL    HW115410   4.693   4.015   9.708  1.5703 -0.6047  0.8061
 1317SOL    HW215411   4.586   3.968   9.806  0.0592 -0.4744  0.9867
 1318SOL     OW15412   0.110   4.677   7.607  0.8039 -0.6998  0.1052
 1318SOL    HW115413   0.042   4.711   7.548  1.4934 -0.2159 -0.4074
 1318SOL    HW215414   0.189   4.702   7.560 -0.6673  0.2705 -1.8805
 1319SOL     OW15415   4.560   1.352   1.327  0.1933  0.4601 -0.5907
 1319SOL    HW115416   4.507   1.319   1.399  1.4233  1.7547  0.8920
 1319SOL    HW215417   4.522   1.439   1.315 -2.1960 -0.4507  0.2904
 1320SOL     OW15418   4.019   0.415   0.334  0.2572 -0.1538 -0.2876
 1320SOL    HW115419   3.997   0.469   0.258  1.3841  0.0112 -0.4984
 1320SOL    HW215420   3.984   0.463   0.409  0.8514 -0.3693  0.1271
 1321SOL     OW15421   1.019   2.367   0.917 -0.3245  0.1858 -0.5979
 1321SOL    HW115422   1.090   2.343   0.858  0.9222  1.7271  0.2449
 1321SOL    HW215423   1.070   2.434   0.965 -0.3725 -1.2812  1.4962
 1322SOL     OW15424   2.976   0.800   0.023  0.5825  0.1277 -0.3073
 1322SOL    HW115425   3.071   0.791   0.032  0.6672  3.2970  1.9688
 1322SOL    HW215426   2.970   0.893   0.005  1.6807  0.1435 -0.5918
 1323SOL     OW15427   0.257   4.364   4.847 -0.2284 -0.8666 -0.0841
 1323SOL    HW115428   0.215   4.313   4.917  3.6833 -3.0888  0.6012
 1323SOL    HW215429   0.262   4.450   4.889  0.5660 -0.9179 -0.0848
 1324SOL     OW15430   4.075   1.949  14.637  0.5744 -0.2677 -0.5727
 1324SOL    HW115431   4.070   1.960  14.732  0.8335 -1.3203 -0.4335
 1324SOL    HW215432   4.080   2.041  14.613  0.9990  0.3807  1.9793
 1325SOL     OW15433   4.082   1.764  14.970  0.1926 -0.3189 -0.5497
 1325SOL    HW115434   4.120   1.851  14.960  1.7866 -0.8355  1.0978
 1325SOL    HW215435   4.141   1.721  15.031 -0.0532  0.8548  0.5187
 1326SOL     OW15436   0.621   1.796  14.109 -0.4727 -0.3192 -0.2050
 1326SOL    HW115437   0.657   1.748  14.183  0.4259 -0.4423 -0.7373
 1326SOL    HW215438   0.668   1.760  14.034  0.2659  0.5970 -0.1842
 1327SOL     OW15439   0.467   3.351   3.736  0.0849  0.3319 -0.1487
 1327SOL    HW115440   0.413   3.284   3.695  0.3938 -0.1881  0.2941
 1327SOL    HW215441   0.405   3.394   3.795 -2.7347 -0.4885 -2.5172
 1328SOL     OW15442   4.655   3.587   4.757 -0.1452  0.0789  0.0670
 1328SOL    HW115443   4.571   3.604   4.800  0.0258 -0.7292  0.7415
 1328SOL    HW215444   4.724   3.612   4.819 -1.1758  1.5012  0.6215
 1329SOL     OW15445   2.662   4.365   7.348 -0.4492 -0.0811 -0.1258
 1329SOL    HW115446   2.677   4.383   7.440 -1.1084 -0.9195  0.1457
 1329SOL    HW215447   2.660   4.449   7.302  0.4811  0.5211  0.9485
 1330SOL     OW15448   1.385   3.156   6.109 -0.1427  0.1256  0.5952
 1330SOL    HW115449   1.445   3.197   6.171  1.3741 -1.7352  0.3697
 1330SOL    HW215450   1.305   3.203   6.132 -1.7183 -0.7542 -3.1206
 1331SOL     OW15451   0.142   0.834  10.878 -0.0895  0.0622 -0.2335
 1331SOL    HW115452   0.165   0.762  10.936 -0.6281  1.9507  2.3361
 1331SOL    HW215453   0.048   0.819  10.890 -0.2409  0.6894 -0.5948
 1332SOL     OW15454   4.105   0.480   7.686 -0.2782 -0.0122 -0.7063
 1332SOL    HW115455   4.147   0.566   7.679 -0.1848 -0.0914 -1.1193
 1332SOL    HW215456   4.037   0.486   7.753 -0.4420 -0.0443 -0.8679
 1333SOL     OW15457   0.252   4.085   3.392  0.3119 -0.2185  0.2921
 1333SOL    HW115458   0.184   4.050   3.334  0.6030 -0.6058  0.1862
 1333SOL    HW215459   0.216   4.066   3.479  0.9107 -0.0848  0.5684
 1334SOL     OW15460   4.397   4.155  16.013  0.8771  0.6527  0.0817
 1334SOL    HW115461   4.318   4.204  15.991  0.8753  0.7741  0.3555
 1334SOL    HW215462   4.475   4.203  15.984  0.0449  1.3407 -1.0185
 1335SOL     OW15463   0.353   2.314  10.012  0.4189 -0.2900 -0.6575
 1335SOL    HW115464   0.272   2.302   9.962  0.5728 -0.5949 -0.8356
 1335SOL    HW215465   0.310   2.307  10.097 -0.4862  0.2766 -1.0714
 1336SOL     OW15466   0.787   3.986   1.996 -0.3274  0.5755 -0.2558
 1336SOL    HW115467   0.863   4.032   2.031 -0.1588 -0.1170  0.2947
 1336SOL    HW215468   0.815   3.968   1.906 -2.5561 -0.2851 -0.7811
 1337SOL     OW15469   4.614   2.968   7.854  0.2325  0.3469  0.3145
 1337SOL    HW115470   4.658   2.980   7.939  1.0377 -0.6810  0.0456
 1337SOL    HW215471   4.662   2.890   7.828  1.2383  0.9879  0.2519
 1338SOL     OW15472   2.552   1.647  10.222  0.0125  0.0985  0.0806
 1338SOL    HW115473   2.564   1.706  10.297 -1.4074 -0.1217  0.4680
 1338SOL    HW215474   2.506   1.576  10.267 -0.1895  0.1828  0.0060
 1339SOL     OW15475   2.687   1.084   1.562 -0.2595 -0.0146  0.3662
 1339SOL    HW115476   2.759   1.021   1.561 -1.4853 -1.4178  0.2496
 1339SOL    HW215477   2.716   1.148   1.627  1.5424 -1.8425  1.3401
 1340SOL     OW15478   3.633   3.477   6.771  0.2274  0.0508 -0.0786
 1340SOL    HW115479   3.587   3.490   6.688 -0.9215  1.7247  0.8215
 1340SOL    HW215480   3.585   3.418   6.829 -0.8096  0.6922 -0.2877
 1341SOL     OW15481   1.522   2.460   1.882  0.5344  0.0255  0.3667
 1341SOL    HW115482   1.613   2.465   1.913  1.1126  2.1511 -1.6691
 1341SOL    HW215483   1.509   2.366   1.892  2.1388 -0.6307 -3.8678
 1342SOL     OW15484   3.326   1.292  13.129 -0.3134  0.0368 -0.3439
 1342SOL    HW115485   3.414   1.258  13.142 -0.3654  0.6324  1.5453
 1342SOL    HW215486   3.299   1.226  13.065  0.4452 -1.5878  1.0075
 1343SOL     OW15487   0.617   0.874   5.365 -0.1109 -0.1017  0.2659
 1343SOL    HW115488   0.621   0.801   5.304  1.4141  0.6712 -0.5648
 1343SOL    HW215489   0.523   0.886   5.357 -0.1106 -2.4925 -3.3088
 1344SOL     OW15490   3.782   1.499  15.069  0.0755 -0.2200  0.0481
 1344SOL    HW115491   3.780   1.575  15.011  1.2181 -0.1523  0.0942
 1344SOL    HW215492   3.775   1.554  15.147 -0.3255 -0.8470  0.4497
 1345SOL     OW15493   1.374   2.598   5.374  0.2500 -0.1130 -0.0368
 1345SOL    HW115494   1.329   2.670   5.419  0.5205  0.3097 -0.4421
 1345SOL    HW215495   1.362   2.521   5.430 -0.9433  2.3603  3.1053
 1346SOL     OW15496   2.831   3.520  16.905 -0.0297  0.0737 -0.5363
 1346SOL    HW115497   2.893   3.493  16.973  1.1193  1.4915 -1.0387
 1346SOL    HW215498   2.826   3.614  16.924  0.8515  0.2213 -1.0557
 1347SOL     OW15499   0.529   1.345  12.762  0.2896  0.1066 -0.3113
 1347SOL    HW115500   0.583   1.334  12.684  1.1508  0.9101  0.1722
 1347SOL    HW215501   0.597   1.315  12.822 -0.7261 -1.5291  0.0306
 1348SOL     OW15502   0.075   3.813   2.329 -0.3983 -0.2490 -0.2346
 1348SOL    HW115503   4.724   3.797   2.273 -0.8368  1.9510 -0.2566
 1348SOL    HW215504   0.130   3.769   2.264  0.7789  2.0682 -0.7891
 1349SOL     OW15505   2.164   0.005   5.777 -0.0724  0.2401  0.7727
 1349SOL    HW115506   2.213   4.653   5.749 -2.3154 -1.9978  2.9332
 1349SOL    HW215507   2.227   0.074   5.761  0.0338  0.0478  0.3690
 1350SOL     OW15508   2.163   3.550   9.165  0.0333  0.2707  0.2597
 1350SOL    HW115509   2.183   3.507   9.082  2.8077  0.2909  0.9043
 1350SOL    HW215510   2.146   3.641   9.144 -4.1607 -0.8639 -1.1822
 1351SOL     OW15511   1.986   1.842   2.474  0.0879 -0.3548  0.1005
 1351SOL    HW115512   2.028   1.855   2.389 -0.7380  0.6568 -0.1431
 1351SOL    HW215513   1.914   1.904   2.464 -0.0348 -0.5880 -0.4623
 1352SOL     OW15514   1.642   2.058   9.870  0.5331 -0.3657  0.2480
 1352SOL    HW115515   1.666   2.122   9.803 -0.2628 -1.1283 -0.7740
 1352SOL    HW215516   1.724   2.050   9.918  1.4224 -2.7830 -1.6882
 1353SOL     OW15517   0.371   3.957  14.060  0.0390  0.2006  0.0931
 1353SOL    HW115518   0.308   3.885  14.060  1.9079 -1.4414  1.8382
 1353SOL    HW215519   0.347   3.986  13.972  0.4033  0.7299  0.1704
 1354SOL     OW15520   4.396   0.973  12.474  0.2744 -0.0671  0.0766
 1354SOL    HW115521   4.319   0.975  12.530 -1.0673 -0.1159 -1.7574
 1354SOL    HW215522   4.466   0.953  12.537  0.0489 -0.2038  0.2835
 1355SOL     OW15523   1.721   0.735  14.251  0.1226 -0.1881 -0.3925
 1355SOL    HW115524   1.708   0.829  14.262  0.1231 -0.2251 -0.0672
 1355SOL    HW215525   1.710   0.706  14.341  0.9402  3.1076  0.7574
 1356SOL     OW15526   4.090   3.167  10.789  0.0779  0.6349  0.4955
 1356SOL    HW115527   4.147   3.103  10.833 -2.5527 -0.7137  1.9115
 1356SOL    HW215528   4.101   3.235  10.856  2.4110  0.9821 -0.2290
 1357SOL     OW15529   4.365   0.089  14.541 -0.1815 -0.0522 -0.7121
 1357SOL    HW115530   4.277   0.116  14.517 -0.6017 -0.5510  0.2793
 1357SOL    HW215531   4.397   0.041  14.464  0.1426  0.7635 -1.0900
 1358SOL     OW15532   1.803   1.603   4.317 -0.3195 -0.2406  0.5106
 1358SOL    HW115533   1.891   1.634   4.296  1.2107 -2.5982  3.4280
 1358SOL    HW215534   1.816   1.509   4.331 -0.8043 -0.7393 -2.2766
 1359SOL     OW15535   0.861   1.776   5.352 -0.3150  0.4115  0.9871
 1359SOL    HW115536   0.798   1.825   5.405 -1.5412 -0.1992  0.1108
 1359SOL    HW215537   0.815   1.781   5.268  0.6343  0.5881  0.4766
 1360SOL     OW15538   3.212   0.219   9.437 -0.3184  0.5180  0.4517
 1360SOL    HW115539   3.304   0.233   9.415 -0.8109  0.1694 -1.8273
 1360SOL    HW215540   3.210   0.162   9.514  1.2516  0.6841  0.6115
 1361SOL     OW15541   2.582   3.214  17.529 -0.3128  0.2078  0.3013
 1361SOL    HW115542   2.524   3.209  17.453  0.2516 -2.6197  0.0601
 1361SOL    HW215543   2.654   3.266  17.493 -1.6115  2.6567  1.2318
 1362SOL     OW15544   4.234   0.484   2.297  0.4537  0.9528  0.2864
 1362SOL    HW115545   4.160   0.432   2.328  0.4881  1.3951  1.1284
 1362SOL    HW215546   4.305   0.421   2.302 -1.2328 -0.8753  1.2232
 1363SOL     OW15547   4.652   3.906   3.928 -0.4925 -0.0533 -0.3852
 1363SOL    HW115548   4.613   3.933   4.011  3.0870  1.7556  0.7393
 1363SOL    HW215549   4.612   3.965   3.865 -2.6897  0.5409  1.5817
 1364SOL     OW15550   4.629   2.463   2.631 -0.0045  0.5317 -0.0119
 1364SOL    HW115551   4.551   2.408   2.627 -0.5576  1.3686 -0.5884
 1364SOL    HW215552   4.684   2.389   2.657  0.6945  0.3105 -2.0767
 1365SOL     OW15553   3.206   0.286   1.370 -0.4536 -0.5307  0.2716
 1365SOL    HW115554   3.178   0.308   1.281  0.4069 -0.6810 -0.0314
 1365SOL    HW215555   3.294   0.249   1.363  0.2019  0.5375  2.9517
 1366SOL     OW15556   0.012   1.305   0.251 -0.3540 -0.2862 -0.3788
 1366SOL    HW115557   0.096   1.260   0.253 -0.1068  0.2345  0.8024
 1366SOL    HW215558   4.725   1.324   0.158  2.8598 -0.3220 -0.8054
 1367SOL     OW15559   4.201   4.323  15.948  0.7583  0.4865  0.4118
 1367SOL    HW115560   4.206   4.373  15.866 -2.5213 -1.8933 -1.2274
 1367SOL    HW215561   4.165   4.395  16.000  0.4803  0.3472  0.4130
 1368SOL     OW15562   0.348   0.815   5.459 -0.8013  0.0165 -1.1529
 1368SOL    HW115563   0.299   0.897   5.468 -2.8034 -1.5591  2.3092
 1368SOL    HW215564   0.289   0.742   5.439 -0.2454 -0.5155 -0.8734
 1369SOL     OW15565   0.392   4.342   1.187  0.0750 -0.0630 -0.2116
 1369SOL    HW115566   0.439   4.261   1.166 -2.5098 -1.1608 -1.6913
 1369SOL    HW215567   0.306   4.315   1.217  1.5514 -0.7489  3.4165
 1370SOL     OW15568   1.534   1.154   1.989  0.1369  0.3417 -0.5987
 1370SOL    HW115569   1.592   1.201   2.048  1.8433 -1.3838 -0.9009
 1370SOL    HW215570   1.596   1.124   1.923 -0.0776  1.5837 -1.3483
 1371SOL     OW15571   4.051   3.618   4.942  0.2113  0.4876  0.1002
 1371SOL    HW115572   4.071   3.615   4.848  2.5939  1.0177  0.5880
 1371SOL    HW215573   3.961   3.647   4.929 -0.6297 -2.1345 -0.0780
 1372SOL     OW15574   1.836   2.874  17.206  0.4674 -0.6051  0.0546
 1372SOL    HW115575   1.747   2.841  17.196 -0.1590  0.8097  0.9468
 1372SOL    HW215576   1.815   2.962  17.239  1.4104 -0.8587  1.3162
 1373SOL     OW15577   1.725   1.073  13.438 -0.1492  1.1302  0.0902
 1373SOL    HW115578   1.669   1.003  13.405  1.5795 -0.5804  0.7577
 1373SOL    HW215579   1.815   1.042  13.423 -0.4582  0.5664 -0.5754
 1374SOL     OW15580   2.200   3.670   7.758  0.5471  0.0031 -0.1614
 1374SOL    HW115581   2.213   3.586   7.801 -0.9227 -0.2438 -0.1886
 1374SOL    HW215582   2.150   3.706   7.831  0.3207  0.0233 -0.3237
 1375SOL     OW15583   3.952   2.533   4.536  0.4392  0.1549 -0.2566
 1375SOL    HW115584   3.968   2.599   4.469  1.7444 -1.0948 -1.1986
 1375SOL    HW215585   3.990   2.572   4.614  2.4241 -2.2578 -0.0179
 1376SOL     OW15586   2.099   4.610   3.553 -0.9518 -0.8505  0.4436
 1376SOL    HW115587   2.090   4.603   3.648  0.1923 -0.6531  0.5619
 1376SOL    HW215588   2.065   4.700   3.551 -1.4395 -1.0230  0.7769
 1377SOL     OW15589   1.063   4.471   7.536 -0.6631  0.1598  0.1759
 1377SOL    HW115590   1.099   4.385   7.557 -1.7170  0.2868  2.4948
 1377SOL    HW215591   1.007   4.488   7.612  0.5322  1.4097  0.7867
 1378SOL     OW15592   2.263   0.714   1.876  0.2866  0.2336  0.0842
 1378SOL    HW115593   2.227   0.687   1.961  0.8664 -1.4169 -0.1970
 1378SOL    HW215594   2.236   0.805   1.861 -2.0755 -0.6593 -1.0866
 1379SOL     OW15595   3.890   1.790  11.151  0.3979  0.0016  0.2211
 1379SOL    HW115596   3.903   1.729  11.223 -3.8088  1.0901  1.8628
 1379SOL    HW215597   3.854   1.723  11.093  1.4665  0.1703 -0.6280
 1380SOL     OW15598   4.089   4.042   2.536 -0.2210  0.3901 -0.7481
 1380SOL    HW115599   4.050   4.100   2.471  0.4770  0.2482 -1.2925
 1380SOL    HW215600   4.155   4.100   2.573  1.1954 -1.2910 -0.6572
 1381SOL     OW15601   4.331   3.526   9.051  0.0456 -0.1412  0.1276
 1381SOL    HW115602   4.418   3.538   9.013  0.2594  2.0779  1.3299
 1381SOL    HW215603   4.297   3.614   9.036  0.2792 -0.3693 -1.7719
 1382SOL     OW15604   2.326   3.990   8.044 -0.3661  0.4265 -0.0762
 1382SOL    HW115605   2.378   3.914   8.018 -1.0221 -0.5688  1.6061
 1382SOL    HW215606   2.378   4.026   8.116 -0.9316 -2.3264  1.6605
 1383SOL     OW15607   2.261   2.917   6.639 -0.2191  0.1339 -0.3997
 1383SOL    HW115608   2.275   2.901   6.732  0.4591 -1.3950 -0.7559
 1383SOL    HW215609   2.296   2.840   6.594 -0.1679  0.1665 -0.4148
 1384SOL     OW15610   2.156   0.639  15.284  0.0680  0.0421 -0.1757
 1384SOL    HW115611   2.216   0.589  15.339 -0.4140 -0.4733 -0.1191
 1384SOL    HW215612   2.212   0.656  15.208 -0.5930  0.2386 -0.6249
 1385SOL     OW15613   0.992   2.520   9.892  0.0812  0.0868 -0.0019
 1385SOL    HW115614   1.038   2.455   9.838  1.0059  0.2977  0.5318
 1385SOL    HW215615   0.908   2.538   9.851  1.3584 -0.0927 -2.7793
 1386SOL     OW15616   1.442   3.778   4.054  0.1215 -0.1635  0.4668
 1386SOL    HW115617   1.465   3.687   4.074 -0.8803 -0.2975  0.9870
 1386SOL    HW215618   1.351   3.774   4.026  0.0998 -1.8359  0.7234
 1387SOL     OW15619   0.364   4.463   4.270 -0.3058  0.3725 -0.1984
 1387SOL    HW115620   0.366   4.377   4.313  1.0899  1.4819  1.9330
 1387SOL    HW215621   0.297   4.449   4.203  1.1724 -0.3378 -1.5545
 1388SOL     OW15622   2.161   2.244   5.088 -0.3207  0.1540  0.8089
 1388SOL    HW115623   2.132   2.163   5.046 -1.7705  0.4103  1.3110
 1388SOL    HW215624   2.245   2.213   5.121  0.1140  1.3777  0.8228
 1389SOL     OW15625   0.748   0.774  12.528  0.0843 -0.1367  0.4922
 1389SOL    HW115626   0.739   0.858  12.482 -0.6831 -0.0759  0.7696
 1389SOL    HW215627   0.737   0.801  12.619 -1.4025  0.5098  0.1092
 1390SOL     OW15628   1.963   2.509   8.162 -0.3531 -0.9734  0.0290
 1390SOL    HW115629   1.907   2.526   8.086 -1.8846  1.8912  1.8193
 1390SOL    HW215630   2.044   2.550   8.133  0.6554 -3.9808 -1.4311
 1391SOL     OW15631   4.012   1.572  11.598  0.6939  0.7466  0.3239
 1391SOL    HW115632   4.069   1.567  11.675 -0.0294  0.9800  0.8645
 1391SOL    HW215633   3.938   1.525  11.635  1.1919 -1.0235 -0.9156
 1392SOL     OW15634   2.022   2.769   6.171  0.0671 -0.1049  0.3553
 1392SOL    HW115635   2.028   2.683   6.212  0.4514 -0.6738 -0.8947
 1392SOL    HW215636   2.110   2.792   6.200  0.0929  0.1741  0.0610
 1393SOL     OW15637   3.067   4.360   0.816 -0.2974  0.2378  0.7344
 1393SOL    HW115638   3.104   4.413   0.886 -0.6528 -2.7509  3.1930
 1393SOL    HW215639   2.979   4.338   0.849  0.0151  2.5005  3.0164
 1394SOL     OW15640   2.802   0.347  14.836  0.6346 -0.0152 -0.4081
 1394SOL    HW115641   2.807   0.437  14.806 -1.1085  0.2950  0.1899
 1394SOL    HW215642   2.707   0.331  14.841  0.7455 -0.4198  0.4264
 1395SOL     OW15643   1.773   4.467   1.270 -0.3217 -0.1940  0.2562
 1395SOL    HW115644   1.714   4.419   1.212 -0.5875  0.7570 -0.2745
 1395SOL    HW215645   1.754   4.559   1.253  0.1261  0.3449  2.6927
 1396SOL     OW15646   2.788   2.804  10.796  0.6776  0.0541 -0.5625
 1396SOL    HW115647   2.880   2.830  10.789  0.5907  1.2576  2.3363
 1396SOL    HW215648   2.789   2.737  10.729  0.7803  0.6055 -1.1175
 1397SOL     OW15649   2.250   1.511   1.453 -0.2329  0.1645  0.2305
 1397SOL    HW115650   2.179   1.447   1.462  0.3076 -0.4699 -0.0322
 1397SOL    HW215651   2.317   1.443   1.462  0.9998  1.3846  0.2978
 1398SOL     OW15652   3.361   2.693   4.681  0.2517  0.1824 -0.1306
 1398SOL    HW115653   3.275   2.657   4.704 -0.0375  1.1529  0.3017
 1398SOL    HW215654   3.340   2.772   4.631 -1.2170 -0.1927 -0.1039
 1399SOL     OW15655   3.244   2.757   1.509  0.5097 -0.5393  0.1569
 1399SOL    HW115656   3.256   2.698   1.434 -1.9969 -0.1304 -0.5574
 1399SOL    HW215657   3.149   2.757   1.522  0.6977 -0.8723  1.4212
 1400SOL     OW15658   0.876   3.327   4.985  0.3288  0.6242 -0.0547
 1400SOL    HW115659   0.909   3.322   4.895 -0.3211  0.3339 -0.2777
 1400SOL    HW215660   0.947   3.373   5.031  0.3677 -0.7070  1.1909
 1401SOL     OW15661   2.206   1.851   0.989  0.0432 -0.0009 -0.5950
 1401SOL    HW115662   2.299   1.870   1.001  0.4736 -3.5539  1.8249
 1401SOL    HW215663   2.189   1.803   1.070  1.0810  0.5485 -0.0412
 1402SOL     OW15664   1.884   4.531  10.488  0.1775  0.0681  0.4533
 1402SOL    HW115665   1.973   4.560  10.509 -0.3253  1.3599  0.8157
 1402SOL    HW215666   1.849   4.612  10.450  3.8117  1.1881 -0.4954
 1403SOL     OW15667   0.339   3.015   6.841  0.3716  0.6733  0.0369
 1403SOL    HW115668   0.268   2.970   6.794  0.9235  0.9205 -1.0460
 1403SOL    HW215669   0.281   3.082   6.877  0.0281 -1.0360  2.6615
 1404SOL     OW15670   1.222   1.359   6.663  0.2440 -0.0393 -0.0651
 1404SOL    HW115671   1.209   1.452   6.680  1.5439  0.2375 -0.5820
 1404SOL    HW215672   1.207   1.353   6.568  0.3670  0.8936 -0.1412
 1405SOL     OW15673   3.658   1.500   8.829  0.1282 -0.2546 -0.2963
 1405SOL    HW115674   3.714   1.425   8.848  2.1205  1.1413 -0.6302
 1405SOL    HW215675   3.727   1.565   8.844  0.6500 -0.5079 -1.5656
 1406SOL     OW15676   0.199   2.807  16.517 -0.7931 -0.1247  0.9570
 1406SOL    HW115677   0.243   2.858  16.585  1.0652 -0.1316 -0.2296
 1406SOL    HW215678   0.268   2.745  16.492 -1.6952 -1.1459  1.0433
 1407SOL     OW15679   4.040   3.892   7.902 -0.2105  0.5988 -0.3456
 1407SOL    HW115680   4.017   3.799   7.897 -1.1197  0.8257 -0.2335
 1407SOL    HW215681   4.131   3.883   7.933  0.3211  1.4874 -1.6597
 1408SOL     OW15682   1.954   3.982  17.123 -0.2516  0.6640  0.1909
 1408SOL    HW115683   2.030   4.022  17.080 -2.2514  3.1352 -1.0248
 1408SOL    HW215684   1.868   4.014  17.096 -0.1481  0.6482 -0.1582
 1409SOL     OW15685   1.555   0.809  11.288  0.3000  0.3421 -0.0431
 1409SOL    HW115686   1.472   0.827  11.244  0.6388 -3.1534 -2.1732
 1409SOL    HW215687   1.524   0.726  11.326 -2.4804  1.3022 -0.2110
 1410SOL     OW15688   0.573   2.916   7.946  0.5415  0.0739 -0.4857
 1410SOL    HW115689   0.574   3.012   7.938  1.5239 -0.0790 -2.1468
 1410SOL    HW215690   0.505   2.905   8.012  0.1387 -1.3543 -1.1505
 1411SOL     OW15691   1.944   2.354   0.296 -0.3794 -0.6349 -0.1587
 1411SOL    HW115692   1.891   2.420   0.251  2.2587  1.6584  0.1601
 1411SOL    HW215693   2.025   2.357   0.246  0.0696 -1.2768  0.5289
 1412SOL     OW15694   3.495   3.769   4.941  0.0884 -0.0718  0.4723
 1412SOL    HW115695   3.409   3.805   4.963 -1.0548 -2.6571  0.2541
 1412SOL    HW215696   3.557   3.832   4.977  1.4780 -0.6636 -0.9111
 1413SOL     OW15697   3.225   1.433   9.374  0.0458 -0.1824 -0.0080
 1413SOL    HW115698   3.225   1.464   9.283 -1.0292 -0.4501 -0.1011
 1413SOL    HW215699   3.317   1.423   9.397  0.8781  2.1320 -2.3851
 1414SOL     OW15700   4.169   3.208   1.669  0.0607 -0.1126 -0.3616
 1414SOL    HW115701   4.095   3.265   1.691 -0.1410 -0.4422 -0.1937
 1414SOL    HW215702   4.138   3.151   1.599 -0.6043 -0.6368  0.3601
 1415SOL     OW15703   1.956   1.630   5.821 -0.1337  0.3021 -0.5948
 1415SOL    HW115704   2.010   1.699   5.859  0.9514 -0.8065 -0.1285
 1415SOL    HW215705   1.980   1.553   5.872  1.5129  0.1598 -1.5687
 1416SOL     OW15706   2.955   1.910  15.688  0.3270  0.0101  0.1351
 1416SOL    HW115707   3.032   1.874  15.643 -0.6599 -2.9242  0.7801
 1416SOL    HW215708   2.934   1.989  15.639 -0.9777  0.0761  0.7807
 1417SOL     OW15709   4.147   1.586   8.303 -0.0250  0.6284  0.1563
 1417SOL    HW115710   4.114   1.533   8.230 -0.0719 -0.4923  0.9831
 1417SOL    HW215711   4.177   1.661   8.251 -0.4170  1.4311  1.0962
 1418SOL     OW15712   3.732   4.049  13.447 -0.3213  0.1957  1.1323
 1418SOL    HW115713   3.815   4.002  13.460 -0.5938 -0.0695  1.9636
 1418SOL    HW215714   3.706   4.009  13.365 -0.1858  0.1698  1.1009
 1419SOL     OW15715   0.514   3.859   3.946 -0.1167 -1.1094 -0.3022
 1419SOL    HW115716   0.429   3.822   3.967  0.8790 -0.1877  5.3864
 1419SOL    HW215717   0.564   3.779   3.963  0.1012 -1.4678 -2.5742
 1420SOL     OW15718   0.984   3.339   7.761 -0.4069 -0.6003 -0.0621
 1420SOL    HW115719   1.046   3.406   7.789 -0.5783 -0.7283  0.6162
 1420SOL    HW215720   0.899   3.371   7.790 -1.4084 -1.2203 -2.2835
 1421SOL     OW15721   3.090   1.042   3.312 -0.0792  0.3420 -0.1686
 1421SOL    HW115722   3.078   1.032   3.406 -2.6148 -0.0906 -0.5393
 1421SOL    HW215723   3.060   0.958   3.277 -2.1461  1.1568 -0.3909
 1422SOL     OW15724   2.938   4.329  17.531  0.4778 -0.1773 -0.6199
 1422SOL    HW115725   2.892   4.312  17.449 -1.6776  0.6795  0.4309
 1422SOL    HW215726   2.976   4.243  17.546  1.4031  0.2715 -0.3697
 1423SOL     OW15727   3.797   2.460   5.134 -0.1315 -0.1074 -0.7915
 1423SOL    HW115728   3.890   2.469   5.154 -1.0617  1.6564  2.7315
 1423SOL    HW215729   3.796   2.403   5.057  0.2854 -1.9986  0.5891
 1424SOL     OW15730   2.643   3.914  16.256  0.1147 -0.4587  0.1665
 1424SOL    HW115731   2.599   3.982  16.305  0.1201  0.8845 -1.6836
 1424SOL    HW215732   2.570   3.863  16.221  1.2999 -1.0550 -1.4308
 1425SOL     OW15733   2.617   3.690   7.185  0.5222  0.1277 -0.1955
 1425SOL    HW115734   2.651   3.747   7.254  1.3720  0.9248 -1.2674
 1425SOL    HW215735   2.523   3.692   7.201  0.4670  3.4021 -1.0522
 1426SOL     OW15736   2.749   3.692   7.971 -0.2902 -0.5444 -0.1720
 1426SOL    HW115737   2.821   3.635   7.999 -0.1968 -1.3230 -1.9832
 1426SOL    HW215738   2.788   3.779   7.970 -0.2251 -0.5849 -1.3061
 1427SOL     OW15739   0.892   0.773  17.199 -0.1253  0.5809  0.1082
 1427SOL    HW115740   0.904   0.868  17.195 -0.5159  0.6092 -0.4780
 1427SOL    HW215741   0.803   0.770  17.233 -0.4855 -1.7101 -1.0056
 1428SOL     OW15742   1.639   4.147   1.352  0.5323 -0.4347 -0.2546
 1428SOL    HW115743   1.633   4.205   1.276 -0.4013  1.4983  1.2762
 1428SOL    HW215744   1.566   4.089   1.331  0.4705 -0.7577  0.8980
 1429SOL     OW15745   2.499   0.169   6.321  0.5846  0.0561  0.2632
 1429SOL    HW115746   2.484   0.259   6.350 -1.5781 -0.2755  0.1884
 1429SOL    HW215747   2.431   0.116   6.362 -0.6177  0.2654 -1.4520
 1430SOL     OW15748   1.239   1.710  12.916  0.1132  0.2167 -0.1515
 1430SOL    HW115749   1.217   1.782  12.975  0.0394  1.3341 -1.5306
 1430SOL    HW215750   1.149   1.682  12.900  0.8608 -2.5634  0.5165
 1431SOL     OW15751   3.273   0.774   9.269 -0.1688 -0.9752 -0.0429
 1431SOL    HW115752   3.194   0.758   9.321 -0.7481 -1.6078 -1.1252
 1431SOL    HW215753   3.342   0.739   9.326 -0.8952 -0.4264  1.1784
 1432SOL     OW15754   2.011   2.274   4.267 -0.1258  0.5254  0.1973
 1432SOL    HW115755   1.934   2.316   4.230  0.2322  0.2625 -0.8469
 1432SOL    HW215756   1.975   2.232   4.345 -0.8033  1.0662  0.1720
 1433SOL     OW15757   1.674   4.028  12.156 -0.0694 -0.2350 -0.1248
 1433SOL    HW115758   1.672   3.962  12.225 -0.7803  0.6318  0.6867
 1433SOL    HW215759   1.763   4.062  12.171  0.7052 -1.2870 -2.3778
 1434SOL     OW15760   4.667   3.469   3.422  0.3952  0.4490 -0.3725
 1434SOL    HW115761   4.591   3.461   3.364 -1.0671 -1.1891  1.7425
 1434SOL    HW215762   4.677   3.564   3.426  0.0409  0.5183 -1.0278
 1435SOL     OW15763   2.016   0.133   4.195 -1.0525 -0.1051 -0.2855
 1435SOL    HW115764   2.029   0.061   4.257 -1.5408  0.0451 -0.0052
 1435SOL    HW215765   1.980   0.197   4.257 -1.9227  2.1003 -3.0463
 1436SOL     OW15766   1.709   1.321   1.043 -0.3417 -0.1849  0.3422
 1436SOL    HW115767   1.648   1.376   1.092  0.4466  1.6859 -0.7998
 1436SOL    HW215768   1.681   1.347   0.955 -1.4533  1.6774  1.2359
 1437SOL     OW15769   4.006   2.824   8.066  0.2864 -0.1985  0.2853
 1437SOL    HW115770   3.978   2.848   7.978 -0.1933  0.2266  0.5519
 1437SOL    HW215771   3.929   2.848   8.118 -1.3850 -2.5766 -1.1209
 1438SOL     OW15772   2.786   1.689  14.486 -0.1483 -0.7369  0.0150
 1438SOL    HW115773   2.781   1.764  14.544 -1.4588 -0.3758 -0.5671
 1438SOL    HW215774   2.818   1.732  14.407  0.8631 -1.0006  0.2841
 1439SOL     OW15775   4.445   0.010   6.778  0.2212 -0.2157 -0.1451
 1439SOL    HW115776   4.402   0.048   6.701 -2.3518 -1.6351  0.5986
 1439SOL    HW215777   4.525   4.702   6.737 -0.2608 -0.4718 -0.8860
 1440SOL     OW15778   3.533   1.252   6.808  0.1624  0.0638  0.2688
 1440SOL    HW115779   3.586   1.305   6.867 -0.7637  0.8757  0.3694
 1440SOL    HW215780   3.480   1.212   6.876 -0.1083 -2.5172 -1.4607
 1441SOL     OW15781   0.442   2.556   9.955 -0.3828  0.1754 -0.3284
 1441SOL    HW115782   0.474   2.557  10.046  0.4247 -0.4808 -0.6059
 1441SOL    HW215783   0.414   2.465   9.951  1.1634 -0.3625  0.9771
 1442SOL     OW15784   3.988   4.318  16.934 -0.4153 -0.1761  0.5987
 1442SOL    HW115785   3.987   4.391  16.996 -1.4026  1.5457 -1.4300
 1442SOL    HW215786   3.896   4.291  16.933  0.0700 -1.7569 -0.1152
 1443SOL     OW15787   1.779   0.389   5.056 -0.9944  0.7671 -0.4600
 1443SOL    HW115788   1.812   0.460   5.001 -1.2417 -0.4283 -2.1478
 1443SOL    HW215789   1.825   0.407   5.138 -1.6345  0.9576 -0.1382
 1444SOL     OW15790   2.172   0.751   2.117  0.0978  0.4848 -0.0143
 1444SOL    HW115791   2.256   0.706   2.119 -0.7771 -1.0954  1.2852
 1444SOL    HW215792   2.196   0.839   2.146 -0.1124  0.3861  0.4527
 1445SOL     OW15793   3.370   2.123   7.393  0.0691 -0.0950  0.0448
 1445SOL    HW115794   3.452   2.162   7.361 -0.8901  2.0028  0.1055
 1445SOL    HW215795   3.355   2.051   7.332 -1.2043 -1.7653  2.3793
 1446SOL     OW15796   1.440   2.212  13.362 -0.2770 -0.0204 -0.1823
 1446SOL    HW115797   1.505   2.282  13.372 -0.3856  0.1488 -0.6893
 1446SOL    HW215798   1.425   2.190  13.454 -0.4936 -3.2757 -1.0112
 1447SOL     OW15799   2.139   3.660  15.038  0.0779  0.4981 -0.3913
 1447SOL    HW115800   2.107   3.612  14.961 -0.9603 -0.8400  0.8770
 1447SOL    HW215801   2.079   3.618  15.100 -0.2643  2.3805  0.5571
 1448SOL     OW15802   2.217   0.352   4.240 -0.3649  0.0885 -0.0082
 1448SOL    HW115803   2.138   0.316   4.280  2.0978 -2.6304  2.3666
 1448SOL    HW215804   2.279   0.321   4.306  1.1660 -2.0251 -2.4239
 1449SOL     OW15805   0.026   4.680  15.165 -0.1102 -0.2619  0.1743
 1449SOL    HW115806   4.679   4.717  15.114 -2.9409 -1.4887  3.2880
 1449SOL    HW215807   0.072   4.634  15.094  2.9927  1.0058  1.3342
 1450SOL     OW15808   4.429   4.191   9.776 -0.1847 -0.4552 -0.2922
 1450SOL    HW115809   4.382   4.112   9.750  0.2818 -0.3398 -1.4697
 1450SOL    HW215810   4.487   4.166   9.848 -1.4130 -0.9075  0.5409
 1451SOL     OW15811   2.456   3.535  10.841  0.1408 -0.3363 -0.6078
 1451SOL    HW115812   2.444   3.440  10.850 -0.4541 -0.4209 -2.3054
 1451SOL    HW215813   2.416   3.572  10.920  0.8898  2.1423 -1.4054
 1452SOL     OW15814   0.603   1.430   6.317 -0.3154 -0.3327 -0.0629
 1452SOL    HW115815   0.649   1.421   6.234 -0.6992  0.0102 -0.3139
 1452SOL    HW215816   0.529   1.373   6.299  0.5142 -0.5892 -2.6248
 1453SOL     OW15817   3.104   3.354   8.735  0.4875 -0.0644  0.0281
 1453SOL    HW115818   3.148   3.383   8.815  1.0136  0.7637 -0.5706
 1453SOL    HW215819   3.074   3.436   8.697 -0.4435 -0.4050  0.0376
 1454SOL     OW15820   0.894   1.050  17.162  0.1456  0.2305  0.4243
 1454SOL    HW115821   0.846   1.053  17.245  0.6942  0.0638  0.7458
 1454SOL    HW215822   0.978   1.089  17.182  0.3424  0.0113  0.0259
 1455SOL     OW15823   4.401   3.532  14.681  0.3957  0.0449 -0.6314
 1455SOL    HW115824   4.354   3.468  14.628  0.3145 -1.2823  1.0409
 1455SOL    HW215825   4.490   3.496  14.681  0.5912  0.5149  2.7982
 1456SOL     OW15826   0.130   3.596   8.627 -0.1060 -0.0349  0.6854
 1456SOL    HW115827   0.050   3.568   8.582 -0.5131 -0.6172  1.7948
 1456SOL    HW215828   0.099   3.629   8.711  1.3660 -0.8141  1.5356
 1457SOL     OW15829   1.849   4.510   2.696  0.2759  0.8313  0.0046
 1457SOL    HW115830   1.829   4.442   2.631 -0.4278 -0.6906  1.7885
 1457SOL    HW215831   1.785   4.581   2.689  0.0705  0.6848  0.3780
 1458SOL     OW15832   0.558   2.302   6.487 -0.0911  0.2537 -0.0341
 1458SOL    HW115833   0.575   2.224   6.539 -0.6380  0.1536 -0.0082
 1458SOL    HW215834   0.480   2.270   6.441  0.0344 -0.4527  0.2479
 1459SOL     OW15835   1.503   3.465  14.592  0.5708  0.8480  0.4866
 1459SOL    HW115836   1.468   3.516  14.665  0.2017 -0.0127  0.9145
 1459SOL    HW215837   1.577   3.422  14.635  0.9217  1.9582  0.9774
 1460SOL     OW15838   0.544   4.655   3.011  0.2972 -0.1525  0.4524
 1460SOL    HW115839   0.638   4.639   2.999  0.1153 -0.9279  0.0689
 1460SOL    HW215840   0.540   0.013   2.964  0.4967 -0.7829 -0.6848
 1461SOL     OW15841   4.374   0.863   1.639 -0.5328  0.0439 -0.2638
 1461SOL    HW115842   4.449   0.922   1.643 -0.4075  0.0391 -2.3074
 1461SOL    HW215843   4.328   0.899   1.563 -0.0537  1.4333  0.1167
 1462SOL     OW15844   0.849   1.227   2.253  0.1517  0.7335 -0.2609
 1462SOL    HW115845   0.790   1.296   2.281 -0.7683  0.6045 -1.8699
 1462SOL    HW215846   0.860   1.250   2.161  1.2351 -0.5832 -0.4621
 1463SOL     OW15847   2.445   1.316  10.809  0.6790 -0.7448  0.2389
 1463SOL    HW115848   2.465   1.237  10.759 -1.2280  0.2716 -2.1465
 1463SOL    HW215849   2.434   1.278  10.896 -0.8377  1.0283  0.8137
 1464SOL     OW15850   2.289   1.556   7.899 -0.4014 -0.0165 -0.6082
 1464SOL    HW115851   2.380   1.572   7.872 -0.4711 -0.2056 -0.9549
 1464SOL    HW215852   2.316   1.469   7.927  0.4120  0.6256  0.6445
 1465SOL     OW15853   4.189   3.005   3.799 -0.2123 -0.4203  0.1487
 1465SOL    HW115854   4.122   3.000   3.731  0.6898 -0.6071 -0.7201
 1465SOL    HW215855   4.252   3.064   3.759 -0.5146  0.5932  1.1392
 1466SOL     OW15856   2.365   4.067  11.233  0.3645  0.2394  0.3229
 1466SOL    HW115857   2.291   4.106  11.279  0.9687  0.3433  1.2249
 1466SOL    HW215858   2.436   4.090  11.294  1.5640 -1.7025 -0.3250
 1467SOL     OW15859   2.800   0.475   9.219  0.5298  0.3751  0.0995
 1467SOL    HW115860   2.780   0.559   9.260  0.1285  1.3515 -2.1005
 1467SOL    HW215861   2.876   0.454   9.273  0.0553  2.7693  1.6915
 1468SOL     OW15862   3.824   2.117  13.678  0.5364 -0.4428  0.0878
 1468SOL    HW115863   3.897   2.178  13.685  0.5290 -0.5191  0.8974
 1468SOL    HW215864   3.743   2.168  13.684 -0.6374 -2.1348 -1.3189
 1469SOL     OW15865   3.382   4.520  13.749 -0.5278 -0.7290 -0.0725
 1469SOL    HW115866   3.385   4.443  13.691 -0.1895 -1.5021  0.9764
 1469SOL    HW215867   3.432   4.578  13.692 -2.5326  0.7719 -0.2656
 1470SOL     OW15868   0.080   0.057   6.794 -0.3990 -0.1996  0.7356
 1470SOL    HW115869   0.016   4.723   6.754  0.6439 -2.0168  1.7814
 1470SOL    HW215870   0.119   0.088   6.713  0.0931 -3.7954 -0.4038
 1471SOL     OW15871   3.542   4.393   8.485 -0.1378 -0.0560  0.5365
 1471SOL    HW115872   3.609   4.413   8.420 -1.7417 -1.3619 -1.5148
 1471SOL    HW215873   3.502   4.310   8.458 -2.3529  0.6597  1.5986
 1472SOL     OW15874   1.225   4.700   5.193  0.9575 -0.2009 -0.1973
 1472SOL    HW115875   1.172   4.707   5.272 -4.4618 -0.5021 -3.8487
 1472SOL    HW215876   1.301   0.025   5.222  0.9878  0.7527 -1.9080
 1473SOL     OW15877   3.316   2.194   1.374 -0.0395 -0.1521 -0.2376
 1473SOL    HW115878   3.382   2.128   1.393  1.4239  1.5319  0.6039
 1473SOL    HW215879   3.331   2.257   1.444 -0.9802 -1.3929  1.0512
 1474SOL     OW15880   3.786   4.102   2.343 -0.6172  0.1482 -0.0884
 1474SOL    HW115881   3.872   4.085   2.307 -0.1530  0.7293  0.7488
 1474SOL    HW215882   3.762   4.186   2.303 -0.2381 -0.0451 -0.7127
 1475SOL     OW15883   3.761   4.149   2.866  0.5320 -0.3804  0.4815
 1475SOL    HW115884   3.766   4.240   2.837 -2.9547 -1.4089 -3.3414
 1475SOL    HW215885   3.771   4.103   2.783  2.1292  1.9244 -0.5930
 1476SOL     OW15886   3.237   1.904   2.537 -0.6413 -0.7928 -0.2978
 1476SOL    HW115887   3.209   1.829   2.485  0.2121 -1.5297  0.3028
 1476SOL    HW215888   3.207   1.872   2.622 -0.5931  1.1260  0.4276
 1477SOL     OW15889   4.070   0.483  16.553  0.0172  0.4286  0.4209
 1477SOL    HW115890   4.020   0.492  16.634  2.3536 -1.0749  2.0412
 1477SOL    HW215891   4.000   0.448  16.497  2.1457 -0.0947 -1.8872
 1478SOL     OW15892   2.606   1.496  11.629  0.4387 -0.0361  0.1165
 1478SOL    HW115893   2.634   1.587  11.629  0.6762 -0.1080  0.3437
 1478SOL    HW215894   2.594   1.481  11.723 -1.1605  1.8863  0.2206
 1479SOL     OW15895   3.457   1.792   2.282  0.4552 -0.0709  0.1797
 1479SOL    HW115896   3.416   1.744   2.209  2.8822 -1.1626 -0.4637
 1479SOL    HW215897   3.430   1.736   2.354  0.3103 -0.4282 -0.1501
 1480SOL     OW15898   1.168   0.143   5.855  0.4733  0.7051 -0.0252
 1480SOL    HW115899   1.190   0.079   5.922  0.4978  0.1538 -0.5596
 1480SOL    HW215900   1.171   0.229   5.897 -1.8521  1.1528 -0.7350
 1481SOL     OW15901   1.529   1.509   9.660  0.1250 -0.2556  0.5292
 1481SOL    HW115902   1.617   1.518   9.695  0.2918 -0.6954  0.2173
 1481SOL    HW215903   1.483   1.575   9.712  0.1644  0.8649 -0.8611
 1482SOL     OW15904   4.149   0.560   4.636 -0.1308 -0.0945  0.3063
 1482SOL    HW115905   4.130   0.473   4.670 -0.6508 -0.1178 -0.0581
 1482SOL    HW215906   4.218   0.541   4.573  1.7325  6.7078  0.2716
 1483SOL     OW15907   1.225   1.684   4.333 -0.0709  0.7075 -0.5364
 1483SOL    HW115908   1.307   1.698   4.286  0.5197 -1.1477 -0.0448
 1483SOL    HW215909   1.252   1.696   4.424 -1.2093  2.1734 -0.3988
 1484SOL     OW15910   3.536   0.557   4.837  0.6373  0.4171 -0.5595
 1484SOL    HW115911   3.620   0.547   4.793  1.3171  0.1287  0.7978
 1484SOL    HW215912   3.531   0.653   4.837 -0.7777  0.3509  1.3631
 1485SOL     OW15913   2.934   2.406  14.754  0.2079 -0.3651 -0.4916
 1485SOL    HW115914   2.993   2.441  14.821  0.5384 -1.5109 -0.1854
 1485SOL    HW215915   2.970   2.443  14.673 -0.3440  2.6524  0.6453
 1486SOL     OW15916   4.667   2.631   2.402  0.0209 -0.2137  0.1081
 1486SOL    HW115917   4.583   2.666   2.370 -0.1073 -1.3354 -0.7958
 1486SOL    HW215918   4.643   2.578   2.478 -0.4482 -0.4534 -0.2020
 1487SOL     OW15919   0.792   3.658  10.089 -0.5525  0.1121  0.1062
 1487SOL    HW115920   0.783   3.572  10.048 -1.2768  0.1335  0.2200
 1487SOL    HW215921   0.845   3.696  10.018  0.1373 -0.9406  0.0642
 1488SOL     OW15922   1.423   0.796   7.753  0.3484  0.5099 -0.1301
 1488SOL    HW115923   1.511   0.775   7.722  0.0286  1.6701 -1.7816
 1488SOL    HW215924   1.375   0.720   7.721 -1.1257  1.1766  0.5214
 1489SOL     OW15925   2.198   3.472  15.923 -0.4835  0.0769 -0.3588
 1489SOL    HW115926   2.248   3.425  15.856  0.7352  0.5791  0.1853
 1489SOL    HW215927   2.183   3.550  15.870  1.5936  0.8495  0.1598
 1490SOL     OW15928   0.017   0.285   3.375 -0.2376  0.2420  0.0570
 1490SOL    HW115929   4.689   0.364   3.380 -0.7277 -0.0418 -0.8362
 1490SOL    HW215930   0.079   0.321   3.311 -0.3128  2.0012  0.9649
 1491SOL     OW15931   3.025   0.793   3.221  0.3810 -0.2046 -0.2908
 1491SOL    HW115932   3.090   0.739   3.266  1.4053  1.6732  0.5184
 1491SOL    HW215933   3.000   0.735   3.149  0.1116  0.5100 -0.7798
 1492SOL     OW15934   2.123   4.719   6.901  0.0114 -0.0198 -0.2061
 1492SOL    HW115935   2.207   0.020   6.937  0.1860  0.9285 -1.3287
 1492SOL    HW215936   2.101   4.643   6.955  1.0130  0.1200  0.4021
 1493SOL     OW15937   4.371   1.454   6.985 -0.0864  0.0427 -0.1677
 1493SOL    HW115938   4.354   1.376   7.038 -0.9689 -1.2530 -2.3515
 1493SOL    HW215939   4.310   1.428   6.916 -0.7172  4.0930 -1.1268
 1494SOL     OW15940   3.298   0.921  13.652  0.7659 -0.0638 -0.4115
 1494SOL    HW115941   3.210   0.885  13.656  0.6642  0.0167 -2.2276
 1494SOL    HW215942   3.274   1.013  13.640  1.6796  0.5570  2.3346
 1495SOL     OW15943   3.661   1.006   7.265 -0.8945 -0.5942 -0.0195
 1495SOL    HW115944   3.571   0.973   7.265 -0.5218 -1.6174  1.3978
 1495SOL    HW215945   3.682   1.023   7.357  0.1844  0.4979 -0.4727
 1496SOL     OW15946   4.701   4.186   4.653  0.5282 -0.1073 -0.2649
 1496SOL    HW115947   4.633   4.154   4.593 -1.4760  1.9071  0.9330
 1496SOL    HW215948   0.049   4.163   4.596  0.1928 -1.0700 -0.2984
 1497SOL     OW15949   1.652   4.517  10.646 -0.4626 -0.1926 -0.8777
 1497SOL    HW115950   1.632   4.608  10.624  1.7663  0.2433 -1.0260
 1497SOL    HW215951   1.739   4.507  10.608 -0.6453  1.3601 -1.6947
 1498SOL     OW15952   0.377   0.995  14.351 -0.2362  0.2179  0.0533
 1498SOL    HW115953   0.287   1.028  14.348  0.4772  2.2363  1.1388
 1498SOL    HW215954   0.423   1.065  14.304 -2.0322  2.8627  2.2211
 1499SOL     OW15955   4.643   4.603   6.646  0.1373  0.4280  0.2200
 1499SOL    HW115956   4.693   4.527   6.676  0.7282  1.7352  2.5884
 1499SOL    HW215957   4.672   4.615   6.555 -2.5102 -0.6855 -0.7698
 1500SOL     OW15958   2.245   2.758  10.202 -0.3352  0.5446  0.1487
 1500SOL    HW115959   2.330   2.767  10.243  0.4833  0.3947 -1.5026
 1500SOL    HW215960   2.196   2.723  10.276 -2.6370  1.2184 -1.0428
 1501SOL     OW15961   2.488   1.399   8.594 -0.5413 -0.1357  0.5208
 1501SOL    HW115962   2.485   1.306   8.615 -2.5284  0.1146  1.3176
 1501SOL    HW215963   2.410   1.410   8.540  0.9757  0.9334 -1.4706
 1502SOL     OW15964   0.159   4.672   3.775 -0.0011 -0.3158 -0.3344
 1502SOL    HW115965   0.194   4.598   3.725  0.4544  0.8999 -1.8414
 1502SOL    HW215966   0.076   4.685   3.728  0.0383  0.2547 -0.2433
 1503SOL     OW15967   1.310   2.141   8.578  0.0678  0.1567  0.1823
 1503SOL    HW115968   1.295   2.089   8.499  2.1591 -0.9444  0.4977
 1503SOL    HW215969   1.230   2.129   8.629 -0.3987  1.0666 -0.3342
 1504SOL     OW15970   1.586   4.234  15.797  0.3073  0.3562 -0.4583
 1504SOL    HW115971   1.639   4.231  15.877 -2.9982 -2.0132  1.6712
 1504SOL    HW215972   1.619   4.172  15.733  0.6024 -1.9603  1.9501
 1505SOL     OW15973   1.988   4.295   1.819 -0.0113 -0.6702  0.3367
 1505SOL    HW115974   1.992   4.206   1.782  1.1281  0.2780 -1.8464
 1505SOL    HW215975   1.996   4.343   1.737 -1.5646 -0.0567  0.5460
 1506SOL     OW15976   0.160   0.040   3.337  0.5397  0.3649 -0.4434
 1506SOL    HW115977   0.109   0.119   3.348 -1.0074 -0.1245 -4.0662
 1506SOL    HW215978   0.230   0.062   3.398 -1.1451 -0.6413  1.8540
 1507SOL     OW15979   2.396   3.074   5.976  0.2849 -0.8765  0.5055
 1507SOL    HW115980   2.462   3.141   5.958  1.2466 -2.2581 -1.0690
 1507SOL    HW215981   2.325   3.099   5.916 -0.0488 -1.1886  0.7644
 1508SOL     OW15982   1.695   0.488   6.427  0.0732  0.0018 -0.0050
 1508SOL    HW115983   1.755   0.414   6.418 -0.7245 -0.6696  0.1087
 1508SOL    HW215984   1.741   0.549   6.370 -0.5843 -1.7170 -2.3754
 1509SOL     OW15985   1.052   2.031   8.671  0.1399 -0.4822  0.7654
 1509SOL    HW115986   1.025   1.962   8.732 -0.3509 -0.3933  0.6478
 1509SOL    HW215987   0.994   2.098   8.708 -0.2643 -0.4565  0.0873
 1510SOL     OW15988   1.448   1.668   0.792 -0.0473 -0.2454  0.5316
 1510SOL    HW115989   1.489   1.693   0.875  1.2485  0.1120 -0.2197
 1510SOL    HW215990   1.463   1.743   0.734  0.8429 -0.8235  0.0156
 1511SOL     OW15991   2.608   0.871   7.992 -0.2319  0.1839 -0.0211
 1511SOL    HW115992   2.664   0.896   7.919 -1.1994  0.6881 -0.5957
 1511SOL    HW215993   2.538   0.936   7.985  0.2031  0.3091 -3.2839
 1512SOL     OW15994   3.699   4.282   6.940  0.1692 -0.0383  0.4834
 1512SOL    HW115995   3.685   4.197   6.899  0.2750  0.7134 -1.1244
 1512SOL    HW215996   3.746   4.321   6.866 -0.2585  0.1953  0.3354
 1513SOL     OW15997   2.838   4.443   4.514 -0.4850  0.3739 -0.6911
 1513SOL    HW115998   2.745   4.430   4.532 -0.3234 -2.5421 -1.8631
 1513SOL    HW215999   2.840   4.433   4.418 -0.4704  0.8120 -0.7362
 1514SOL     OW16000   0.542   1.172  15.247 -0.7031 -0.4155 -0.1755
 1514SOL    HW116001   0.612   1.158  15.182  1.6119  1.5615  1.9082
 1514SOL    HW216002   0.474   1.116  15.208 -0.8873 -0.5829  0.3912
 1515SOL     OW16003   1.200   2.311   4.040 -0.2200  0.4260 -0.2323
 1515SOL    HW116004   1.266   2.276   3.980 -0.8690 -1.6241  0.2670
 1515SOL    HW216005   1.151   2.374   3.986 -1.2181 -0.5133 -0.4136
 1516SOL     OW16006   1.833   4.198   5.889  0.0083 -0.0674 -0.0473
 1516SOL    HW116007   1.860   4.120   5.937  0.6525  0.0855 -0.1649
 1516SOL    HW216008   1.863   4.170   5.802  1.1670 -0.2949  0.4340
 1517SOL     OW16009   0.958   4.296   3.077  0.0454 -1.1084  0.0824
 1517SOL    HW116010   1.010   4.219   3.100  1.3583 -0.1452  0.3097
 1517SOL    HW216011   0.928   4.320   3.165  1.0033  0.1276  0.0720
 1518SOL     OW16012   2.582   1.058   6.304 -0.3680 -0.5227  0.0038
 1518SOL    HW116013   2.543   1.131   6.351 -2.0261 -0.6455 -1.1831
 1518SOL    HW216014   2.654   1.104   6.259 -0.8282 -0.6371 -0.8548
 1519SOL     OW16015   2.141   0.482   5.954  0.5889  0.6998  0.6965
 1519SOL    HW116016   2.072   0.417   5.970 -0.9642  1.6563 -2.1495
 1519SOL    HW216017   2.130   0.505   5.862  1.4642  4.0138  1.4220
 1520SOL     OW16018   1.531   4.373   2.880 -0.3139  0.1649  0.1423
 1520SOL    HW116019   1.486   4.296   2.844 -0.7116  0.1153  0.7447
 1520SOL    HW216020   1.535   4.421   2.797  0.3254 -0.7086 -0.3334
 1521SOL     OW16021   3.330   4.108   6.354  0.0429 -0.5531  0.5283
 1521SOL    HW116022   3.284   4.101   6.437  1.1009  1.1883  1.2749
 1521SOL    HW216023   3.405   4.164   6.375 -0.4863  0.4027 -0.1114
 1522SOL     OW16024   2.492   0.890   1.658 -0.3848 -0.1816  0.3363
 1522SOL    HW116025   2.492   0.837   1.578  0.1136  0.5128 -0.1290
 1522SOL    HW216026   2.552   0.961   1.633 -0.6052 -0.4293 -0.9316
 1523SOL     OW16027   2.389   2.571  15.668  0.1258  0.0788 -0.6783
 1523SOL    HW116028   2.405   2.528  15.583  0.0673  0.4774 -0.8918
 1523SOL    HW216029   2.344   2.654  15.654  0.1273  0.0799 -0.6769
 1524SOL     OW16030   3.340   0.455   6.906 -0.1693 -0.0095  0.2472
 1524SOL    HW116031   3.303   0.417   6.986  0.8906 -0.9986  0.2630
 1524SOL    HW216032   3.260   0.463   6.854 -0.6496 -0.1044  0.9697
 1525SOL     OW16033   0.883   2.814  12.365 -0.5481 -0.3455 -0.0366
 1525SOL    HW116034   0.872   2.909  12.370 -0.3695 -0.2589 -1.4769
 1525SOL    HW216035   0.894   2.797  12.272  0.5137  0.5024 -0.0688
 1526SOL     OW16036   1.108   0.071   5.583  0.6727 -0.2743 -0.2371
 1526SOL    HW116037   1.200   0.075   5.556  1.1366 -0.5319  1.3192
 1526SOL    HW216038   1.117   0.085   5.677 -1.1346 -0.1742 -0.0812
 1527SOL     OW16039   1.057   3.313   5.699 -0.1028 -0.2482 -0.2681
 1527SOL    HW116040   1.074   3.311   5.793  0.6184 -1.7508 -0.4239
 1527SOL    HW216041   1.117   3.384   5.677 -1.9061  0.9811 -1.2738
 1528SOL     OW16042   4.245   1.926  16.395 -0.0540  0.7014  0.2317
 1528SOL    HW116043   4.195   1.945  16.474 -0.7442  0.4528 -0.1417
 1528SOL    HW216044   4.186   1.948  16.322  0.5263 -0.8633 -0.7143
 1529SOL     OW16045   2.958   3.637   1.981  0.0580 -0.8035  0.7969
 1529SOL    HW116046   3.049   3.658   2.004 -0.2738  0.5516  0.8291
 1529SOL    HW216047   2.939   3.573   2.051  3.1104  0.8779  3.1845
 1530SOL     OW16048   0.933   3.967   7.420 -0.1390  0.1791  0.1097
 1530SOL    HW116049   0.843   3.935   7.433 -0.0139 -0.3862 -0.4077
 1530SOL    HW216050   0.921   4.035   7.354 -0.7463 -0.0698 -0.0408
 1531SOL     OW16051   1.582   3.655   7.251  0.7720 -0.1095 -0.0082
 1531SOL    HW116052   1.492   3.627   7.233  2.6178 -5.4764 -0.5444
 1531SOL    HW216053   1.565   3.750   7.248  0.1515 -0.1456  2.2410
 1532SOL     OW16054   3.554   2.397   9.567 -0.6678 -0.3958  0.1658
 1532SOL    HW116055   3.622   2.459   9.592 -0.2554 -0.5593 -0.5631
 1532SOL    HW216056   3.600   2.343   9.503  0.4881  1.8135 -0.8423
 1533SOL     OW16057   4.444   1.055   3.772 -0.0857 -0.0079  0.6521
 1533SOL    HW116058   4.459   1.121   3.705 -2.7459  0.7709  0.8347
 1533SOL    HW216059   4.436   0.979   3.715  1.5702 -0.8331  1.5340
 1534SOL     OW16060   2.083   3.385   3.252  0.7830 -0.5447 -0.2193
 1534SOL    HW116061   2.036   3.452   3.302  1.7051  0.3634 -0.5417
 1534SOL    HW216062   2.085   3.417   3.162 -2.5896 -0.6619 -0.3144
 1535SOL     OW16063   1.202   0.344   2.867  1.2892 -0.3403 -0.0870
 1535SOL    HW116064   1.244   0.429   2.881 -1.0620  0.6602  0.8876
 1535SOL    HW216065   1.254   0.304   2.797  1.3056  0.8844 -0.7835
 1536SOL     OW16066   0.489   3.906   6.744  0.1375  0.3629 -0.3008
 1536SOL    HW116067   0.401   3.870   6.737  0.4096 -0.7748  2.1444
 1536SOL    HW216068   0.497   3.954   6.662  0.9494 -2.2233 -1.7212
 1537SOL     OW16069   4.290   3.910   6.922 -0.1750  0.2431  0.2340
 1537SOL    HW116070   4.263   3.846   6.856 -3.1321  0.7665  0.9404
 1537SOL    HW216071   4.377   3.932   6.889 -0.6164 -0.0098 -1.0821
 1538SOL     OW16072   2.585   2.004   7.027 -0.2402  0.1735 -0.0158
 1538SOL    HW116073   2.664   1.982   7.076 -1.1858  0.6780  1.7591
 1538SOL    HW216074   2.541   2.051   7.099 -0.2905 -2.7159  1.8597
 1539SOL     OW16075   4.195   2.202   4.202 -0.5854 -0.3237  0.1817
 1539SOL    HW116076   4.137   2.240   4.135 -0.0571 -0.3587 -0.2985
 1539SOL    HW216077   4.253   2.143   4.154 -0.4247  0.2485 -0.3417
 1540SOL     OW16078   3.042   0.288  15.153 -0.0653  0.4423  0.4875
 1540SOL    HW116079   2.995   0.234  15.216  1.2642 -1.0842  0.1771
 1540SOL    HW216080   3.130   0.311  15.185 -0.8377  3.0140  0.7162
 1541SOL     OW16081   3.932   0.456   7.353  0.0029 -0.0121  0.4962
 1541SOL    HW116082   3.895   0.392   7.414 -1.5469  2.6547  2.3497
 1541SOL    HW216083   3.867   0.526   7.353  0.2893  0.2594 -0.1078
 1542SOL     OW16084   0.261   3.451   3.859  0.0625 -0.1478  0.4950
 1542SOL    HW116085   0.226   3.461   3.947  0.3104 -2.4407  0.8573
 1542SOL    HW216086   0.227   3.527   3.813  0.9667 -0.6913 -1.0931
 1543SOL     OW16087   4.058   1.323   7.076  0.0172  0.0482  0.1101
 1543SOL    HW116088   4.030   1.413   7.063  0.6632 -0.0404 -1.8422
 1543SOL    HW216089   3.981   1.267   7.073 -0.0930  0.2002  0.1019
 1544SOL     OW16090   4.396   3.233   6.935  0.3185  0.5923 -0.1180
 1544SOL    HW116091   4.439   3.296   6.994  2.4276 -0.3391 -0.6458
 1544SOL    HW216092   4.422   3.261   6.847 -1.8529  0.0408 -0.9178
 1545SOL     OW16093   3.331   2.373  14.473 -0.2160  0.2486  0.5866
 1545SOL    HW116094   3.393   2.300  14.467 -0.1313  0.1665  2.3360
 1545SOL    HW216095   3.390   2.444  14.451 -0.7868  0.1506 -1.2393
 1546SOL     OW16096   3.792   0.679   7.425 -0.0144 -0.1788 -0.2284
 1546SOL    HW116097   3.708   0.654   7.463 -0.1713 -0.3816 -0.7130
 1546SOL    HW216098   3.837   0.725   7.496  0.3538 -1.5411  0.4225
 1547SOL     OW16099   2.272   3.157  16.414  0.1714  0.6122  0.5517
 1547SOL    HW116100   2.277   3.062  16.429 -3.4353  0.1037 -1.3322
 1547SOL    HW216101   2.192   3.185  16.458 -0.4912 -1.3271  0.5954
 1548SOL     OW16102   3.602   4.446   1.838 -0.0190  0.2383 -0.4447
 1548SOL    HW116103   3.514   4.465   1.869  0.0409 -0.3393  0.0805
 1548SOL    HW216104   3.613   4.518   1.776 -1.7039  0.7203 -0.1906
 1549SOL     OW16105   0.229   4.276   5.655  0.0618  0.3351  0.5087
 1549SOL    HW116106   0.266   4.204   5.706  1.1052  1.0445  0.7273
 1549SOL    HW216107   0.251   4.352   5.708 -1.2290  1.5407 -0.6731
 1550SOL     OW16108   2.353   2.686   6.469  0.1439  0.1852 -0.1365
 1550SOL    HW116109   2.432   2.646   6.434  1.5698  2.0847  0.8695
 1550SOL    HW216110   2.321   2.602   6.500 -1.7008  0.3083 -1.6968
 1551SOL     OW16111   3.634   0.405  10.364 -0.6256 -0.0419 -0.1622
 1551SOL    HW116112   3.683   0.442  10.438 -0.3529  0.4704 -0.5990
 1551SOL    HW216113   3.596   0.333  10.415 -0.1461  0.7018  1.2582
 1552SOL     OW16114   0.559   3.538   8.116 -0.4354  0.0762  0.1197
 1552SOL    HW116115   0.640   3.588   8.122 -1.1522  1.2962 -0.3635
 1552SOL    HW216116   0.547   3.527   8.021 -0.7509 -0.3632  0.2091
 1553SOL     OW16117   4.469   1.962   4.343 -0.3492 -0.1439  0.3163
 1553SOL    HW116118   4.516   2.029   4.393 -0.3652 -0.8335  1.2663
 1553SOL    HW216119   4.391   1.951   4.398 -0.7583  0.0888 -0.2209
 1554SOL     OW16120   1.390   4.139   9.171 -0.0133  0.4251  0.0081
 1554SOL    HW116121   1.414   4.098   9.254 -1.1478  2.0517  1.1488
 1554SOL    HW216122   1.371   4.226   9.207  0.1716  0.3548  0.2744
 1555SOL     OW16123   2.348   1.454   2.357 -0.3066 -0.4678 -0.4600
 1555SOL    HW116124   2.260   1.464   2.395  0.8964  2.5247  1.4718
 1555SOL    HW216125   2.381   1.538   2.389 -1.4886  0.4573 -1.6799
 1556SOL     OW16126   1.170   4.373   1.143 -0.3640 -0.6380  0.3983
 1556SOL    HW116127   1.241   4.310   1.153  2.6451  3.1111  2.3972
 1556SOL    HW216128   1.212   4.431   1.079 -1.8182  0.2848  0.2841
 1557SOL     OW16129   3.058   1.193  10.108 -0.1889  0.2267 -0.9995
 1557SOL    HW116130   3.116   1.122  10.136  0.0872  2.0424  3.1270
 1557SOL    HW216131   3.020   1.152  10.031 -2.1698  0.3964 -0.1060
 1558SOL     OW16132   0.005   4.504   0.314  0.0814 -0.1873 -0.1711
 1558SOL    HW116133   4.655   4.472   0.265 -1.3333  0.8760  1.3047
 1558SOL    HW216134   0.079   4.480   0.259 -0.8456  0.7669 -1.8300
 1559SOL     OW16135   2.909   4.498   5.157 -0.0790  0.0885  0.7551
 1559SOL    HW116136   2.998   4.464   5.149 -0.6900 -0.9300 -1.7077
 1559SOL    HW216137   2.866   4.471   5.076 -1.0203  1.9298  0.6386
 1560SOL     OW16138   4.232   1.230   8.574 -0.3436 -0.3401  0.2376
 1560SOL    HW116139   4.182   1.156   8.610  0.3564 -1.6737 -1.5036
 1560SOL    HW216140   4.167   1.289   8.536 -0.0062 -0.0707  0.0865
 1561SOL     OW16141   3.430   3.015   6.968 -0.1032  0.1918  0.4311
 1561SOL    HW116142   3.516   2.975   6.980  0.0423 -0.4642 -2.6990
 1561SOL    HW216143   3.421   3.048   7.058  0.9036  1.4747  0.0624
 1562SOL     OW16144   0.947   1.485   2.696 -1.0131 -0.2334  0.4713
 1562SOL    HW116145   1.035   1.507   2.724 -0.6926  1.6070 -1.9715
 1562SOL    HW216146   0.969   1.429   2.621 -1.0994  0.6496 -0.2181
 1563SOL     OW16147   2.146   3.615   1.746 -0.3150  0.0360 -0.6226
 1563SOL    HW116148   2.124   3.652   1.831  0.3039 -2.0582  0.4410
 1563SOL    HW216149   2.092   3.671   1.689  0.4009  0.5748 -0.7687
 1564SOL     OW16150   1.204   4.622  16.890 -0.3314 -0.2128  0.2105
 1564SOL    HW116151   1.122   4.574  16.898 -0.2970 -0.2557  0.3018
 1564SOL    HW216152   1.241   4.591  16.972 -1.1249 -0.2197  0.5682
 1565SOL     OW16153   3.067   4.448   7.792 -0.1194  0.1710 -0.4374
 1565SOL    HW116154   3.136   4.499   7.750 -0.6631  0.9653 -0.3812
 1565SOL    HW216155   3.093   4.362   7.762 -0.6407 -0.8964  2.1577
 1566SOL     OW16156   2.349   4.035   0.606 -0.6178  0.0266  0.1644
 1566SOL    HW116157   2.283   4.084   0.655  1.0399  0.9337  1.4819
 1566SOL    HW216158   2.366   4.090   0.529 -1.4011  0.6163  0.4149
 1567SOL     OW16159   3.489   0.021  13.321 -0.1099 -0.2354  0.4991
 1567SOL    HW116160   3.394   0.031  13.325 -0.0442  0.2733  0.8438
 1567SOL    HW216161   3.522   0.104  13.287 -1.4833  0.3301  0.5687
 1568SOL     OW16162   4.222   4.177  10.516  0.0742 -0.1544 -0.0118
 1568SOL    HW116163   4.247   4.102  10.570 -0.6867  0.0026  0.5652
 1568SOL    HW216164   4.172   4.223  10.584 -1.3195 -1.7956  0.0842
 1569SOL     OW16165   4.262   0.677   9.745 -0.5376 -0.3838 -0.0228
 1569SOL    HW116166   4.267   0.648   9.836  0.5506  0.4115  0.1729
 1569SOL    HW216167   4.200   0.748   9.731  1.3646  1.2983  0.0031
 1570SOL     OW16168   3.036   0.962   2.303 -0.1297 -0.0535  0.0536
 1570SOL    HW116169   2.973   0.973   2.375  0.9653  2.1225  0.6927
 1570SOL    HW216170   2.988   0.898   2.251  0.4989 -0.1703 -0.3842
 1571SOL     OW16171   0.182   0.676  11.081  0.2278  0.5078  0.4133
 1571SOL    HW116172   0.258   0.712  11.126  1.8721 -1.2098 -0.9639
 1571SOL    HW216173   0.142   0.622  11.150 -1.0009  1.4932  0.4756
 1572SOL     OW16174   2.403   1.070   8.933  0.2206  0.4373  0.0107
 1572SOL    HW116175   2.367   1.157   8.917 -1.8862 -0.2119  1.3021
 1572SOL    HW216176   2.342   1.029   8.993  0.6667 -1.2038 -0.6576
 1573SOL     OW16177   2.899   3.634  16.484 -0.2506  0.3559  0.2798
 1573SOL    HW116178   2.867   3.586  16.408  3.3497 -4.2326  1.5940
 1573SOL    HW216179   2.914   3.726  16.464  0.0864  0.8518  2.7587
 1574SOL     OW16180   2.904   0.706   5.483  0.5068 -0.4116  0.1746
 1574SOL    HW116181   2.897   0.716   5.388  0.9759  0.9050  0.2795
 1574SOL    HW216182   2.944   0.619   5.490 -0.2508 -0.5821  2.4672
 1575SOL     OW16183   3.425   3.854   7.532 -0.3476  0.2707  0.6813
 1575SOL    HW116184   3.487   3.896   7.473 -0.3411 -0.7773 -0.0577
 1575SOL    HW216185   3.375   3.802   7.469  1.2491 -0.4985  0.0430
 1576SOL     OW16186   3.509   0.867  13.160  0.6174  0.2249  0.1656
 1576SOL    HW116187   3.433   0.825  13.199  1.9481 -1.6750  0.6887
 1576SOL    HW216188   3.558   0.789  13.135  0.6437  0.5221 -0.7392
 1577SOL     OW16189   2.758   3.225   3.667 -0.2741  0.2319  0.5925
 1577SOL    HW116190   2.821   3.156   3.648  0.0525  1.0137 -1.0998
 1577SOL    HW216191   2.675   3.180   3.650  0.7968 -1.3877 -0.3322
 1578SOL     OW16192   1.860   0.370  13.042  0.1047  0.1012 -0.0059
 1578SOL    HW116193   1.946   0.398  13.072 -0.0386  1.1081 -0.5193
 1578SOL    HW216194   1.805   0.444  13.066  0.6013  0.9888 -1.5586
 1579SOL     OW16195   3.340   0.226   3.044 -0.4233  0.5836  0.4555
 1579SOL    HW116196   3.297   0.302   3.005  0.4306 -0.2097 -2.0278
 1579SOL    HW216197   3.333   0.165   2.970  0.9172  0.2284  0.6187
 1580SOL     OW16198   2.490   4.034  16.660 -0.4924  0.2784  0.7109
 1580SOL    HW116199   2.426   3.990  16.716 -1.5444  1.0622  0.1348
 1580SOL    HW216200   2.554   3.970  16.630 -1.9376 -2.1619  2.7747
 1581SOL     OW16201   3.341   1.560   8.060  0.1748  0.5231  0.0243
 1581SOL    HW116202   3.278   1.631   8.048 -1.1519 -0.2860  2.1357
 1581SOL    HW216203   3.395   1.581   7.984 -0.8642 -2.4238 -1.4970
 1582SOL     OW16204   1.832   1.442   5.059 -0.6970 -0.3402 -0.3242
 1582SOL    HW116205   1.761   1.495   5.021 -1.9771  0.0451  2.5377
 1582SOL    HW216206   1.896   1.508   5.087 -0.7760  0.0942 -1.1804
 1583SOL     OW16207   4.697   0.261   2.069 -0.1743  0.3836  0.3227
 1583SOL    HW116208   4.640   0.323   2.023 -0.0706 -0.3883 -0.8503
 1583SOL    HW216209   4.692   0.292   2.159 -1.6947  0.4837  0.2007
 1584SOL     OW16210   0.152   0.358   4.100 -0.4171 -0.0854  0.7723
 1584SOL    HW116211   0.232   0.408   4.090 -1.7326  1.8953  0.2181
 1584SOL    HW216212   0.183   0.288   4.042  2.2568  1.9137 -0.1671
 1585SOL     OW16213   4.183   0.233   4.427  0.0481  0.1614  0.0294
 1585SOL    HW116214   4.120   0.285   4.377 -1.5072 -0.4861  1.3395
 1585SOL    HW216215   4.264   0.255   4.380 -0.8306 -0.6112 -1.8227
 1586SOL     OW16216   1.523   1.500  16.785  0.1436  0.1564 -0.0823
 1586SOL    HW116217   1.616   1.496  16.765  0.0975 -1.1599 -0.0310
 1586SOL    HW216218   1.488   1.434  16.724 -2.3615  1.4917 -0.0922
 1587SOL     OW16219   1.932   3.522   8.348 -0.0864  0.1818  0.3137
 1587SOL    HW116220   1.996   3.590   8.369  1.7073 -1.6295  0.7077
 1587SOL    HW216221   1.887   3.538   8.431 -0.8177  1.1973 -0.2711
 1588SOL     OW16222   3.940   0.824   7.607  0.5304  0.4263 -0.2218
 1588SOL    HW116223   3.904   0.806   7.694  0.4025  0.1426 -0.3342
 1588SOL    HW216224   4.033   0.823   7.628  0.8093 -1.0232 -1.5409
 1589SOL     OW16225   2.016   0.687   8.681  0.7472 -0.2169  0.2653
 1589SOL    HW116226   1.946   0.628   8.711 -0.0137  0.1376 -0.8313
 1589SOL    HW216227   2.052   0.724   8.762  3.2872  0.5275 -1.2269
 1590SOL     OW16228   2.375   2.920   2.142 -0.3530 -0.7953  0.0669
 1590SOL    HW116229   2.334   2.834   2.133 -1.5153 -0.2405  0.0280
 1590SOL    HW216230   2.301   2.974   2.171  0.3639  1.2232 -1.8465
 1591SOL     OW16231   3.588   1.975  10.175  0.3777 -0.4203 -0.3641
 1591SOL    HW116232   3.631   1.889  10.171 -1.4792 -1.4634  1.9552
 1591SOL    HW216233   3.528   1.976  10.101 -0.4264 -1.9158  0.2767
 1592SOL     OW16234   2.666   3.869   7.624  0.7445 -0.3842 -0.9577
 1592SOL    HW116235   2.606   3.794   7.628 -1.2695  1.3698  1.3441
 1592SOL    HW216236   2.647   3.889   7.532  0.5124 -1.2520 -1.1018
 1593SOL     OW16237   2.594   2.898   5.764  0.0231 -0.0363 -0.3256
 1593SOL    HW116238   2.546   2.915   5.683 -1.2461 -0.4990  0.3281
 1593SOL    HW216239   2.644   2.820   5.740 -0.1728  0.2055 -1.4991
 1594SOL     OW16240   2.732   0.685   2.851 -0.5940 -0.3955  0.1581
 1594SOL    HW116241   2.706   0.736   2.774 -1.1546  1.5088  1.6173
 1594SOL    HW216242   2.816   0.647   2.824  0.2791  1.2332  0.5468
 1595SOL     OW16243   2.748   4.057   7.783 -0.2904 -0.2684 -0.1230
 1595SOL    HW116244   2.710   4.014   7.707 -2.9992  0.5624  0.7668
 1595SOL    HW216245   2.679   4.115   7.816 -0.9427 -0.9027 -0.4032
 1596SOL     OW16246   1.092   3.776   0.406 -0.0745  0.4183 -0.1461
 1596SOL    HW116247   1.137   3.720   0.470 -1.1179  0.2460  0.4448
 1596SOL    HW216248   1.120   3.730   0.327 -1.1778 -2.7287  1.2923
 1597SOL     OW16249   3.777   3.556   5.604  0.5952  0.0474  0.2935
 1597SOL    HW116250   3.783   3.483   5.665  2.1555  0.3520  0.4954
 1597SOL    HW216251   3.689   3.551   5.565 -0.2272 -0.0612  2.1477
 1598SOL     OW16252   4.558   1.747  12.786  0.0521  0.2462 -0.3716
 1598SOL    HW116253   4.521   1.659  12.791  0.2012  0.2279  0.5055
 1598SOL    HW216254   4.648   1.715  12.782 -0.1546 -0.4276  0.4840
 1599SOL     OW16255   1.671   1.001  14.237 -0.0547  0.3815  0.1304
 1599SOL    HW116256   1.584   1.039  14.248 -0.7564 -1.5187  1.1262
 1599SOL    HW216257   1.702   1.017  14.326  1.1891  0.0404 -0.2359
 1600SOL     OW16258   1.746   1.051  17.263 -0.5764  0.0636 -0.3266
 1600SOL    HW116259   1.727   1.021  17.174 -3.0810  1.4777 -0.2700
 1600SOL    HW216260   1.840   1.060  17.250 -0.8055  1.6510 -0.9060
 1601SOL     OW16261   3.181   4.413   2.744 -0.2161 -0.3030  0.0398
 1601SOL    HW116262   3.221   4.489   2.701 -0.0980  0.2213  1.0827
 1601SOL    HW216263   3.207   4.351   2.677 -0.0721  0.1089 -0.2867
 1602SOL     OW16264   0.937   3.810   9.292 -0.1730 -1.0941 -0.3672
 1602SOL    HW116265   0.989   3.846   9.220  0.2867 -0.4152  0.3023
 1602SOL    HW216266   1.010   3.794   9.352 -1.2282 -0.1305  1.1967
 1603SOL     OW16267   1.443   0.557   6.986 -0.0935  0.6401 -0.2104
 1603SOL    HW116268   1.503   0.513   7.047 -0.2977  1.0767  0.3073
 1603SOL    HW216269   1.366   0.501   6.981  1.2511 -1.2247  0.2494
 1604SOL     OW16270   2.329   2.656  15.303  0.2673  0.2025 -0.4883
 1604SOL    HW116271   2.402   2.600  15.277 -1.4295 -0.8279 -2.9591
 1604SOL    HW216272   2.252   2.602  15.321 -0.2958  1.5099  1.0656
 1605SOL     OW16273   3.938   4.024   9.228 -0.0846 -0.1119  0.1740
 1605SOL    HW116274   3.945   4.076   9.309  3.3053  0.0756 -0.2210
 1605SOL    HW216275   3.888   4.085   9.174 -0.0737 -0.1424  0.1301
 1606SOL     OW16276   4.104   1.468  16.790 -0.5084  0.4403 -0.1842
 1606SOL    HW116277   4.175   1.488  16.730 -1.1206  0.7303 -0.8087
 1606SOL    HW216278   4.066   1.554  16.809 -0.8857  0.7529 -2.3743
 1607SOL     OW16279   3.309   1.628   2.746  0.2631 -0.6092 -0.6386
 1607SOL    HW116280   3.223   1.669   2.734  0.3037  0.1324  1.5540
 1607SOL    HW216281   3.360   1.704   2.775 -0.2992 -0.2556 -0.5691
 1608SOL     OW16282   3.516   0.591   5.943 -0.5597 -0.4462  0.3496
 1608SOL    HW116283   3.463   0.546   5.877  1.3478 -0.5425 -1.1183
 1608SOL    HW216284   3.544   0.673   5.903 -2.1226 -1.5094 -2.9091
 1609SOL     OW16285   0.249   0.310   9.406 -0.4883  0.2943  0.3764
 1609SOL    HW116286   0.226   0.254   9.481  1.0069  0.2911  0.8410
 1609SOL    HW216287   0.219   0.395   9.439  1.2257  0.4786  1.4964
 1610SOL     OW16288   2.964   4.593   2.760 -0.9945  0.0289 -0.2823
 1610SOL    HW116289   3.039   4.537   2.778 -0.3703  0.9624 -0.0466
 1610SOL    HW216290   2.990   4.668   2.813 -1.0604 -2.3792  3.1640
 1611SOL     OW16291   1.559   4.118   6.117 -0.1179  0.6946  0.2091
 1611SOL    HW116292   1.561   4.202   6.071 -1.1482  0.8252  0.4170
 1611SOL    HW216293   1.466   4.096   6.119 -0.0241  0.5840  3.6236
 1612SOL     OW16294   3.342   1.110   9.292  0.5578  0.9096 -0.1161
 1612SOL    HW116295   3.393   1.186   9.320 -0.9738  2.0694 -0.4444
 1612SOL    HW216296   3.294   1.152   9.221  1.3482  0.1369 -1.0984
 1613SOL     OW16297   3.916   1.638   8.841  0.0616 -0.2040  0.4951
 1613SOL    HW116298   3.943   1.725   8.870 -0.8387  0.2267  0.0413
 1613SOL    HW216299   3.996   1.608   8.798  1.3602  1.4061  1.8116
 1614SOL     OW16300   0.392   3.528   3.499  0.4172 -0.3594 -0.2264
 1614SOL    HW116301   0.345   3.594   3.551  0.4062 -1.0855  0.6722
 1614SOL    HW216302   0.442   3.484   3.568  1.5270  0.9845 -0.1517
 1615SOL     OW16303   1.346   1.977  16.339  0.4435  0.4919  0.0560
 1615SOL    HW116304   1.418   1.916  16.356 -0.6056  0.3791  3.9917
 1615SOL    HW216305   1.397   2.052  16.308 -1.4908  1.5768 -0.5443
 1616SOL     OW16306   4.376   3.427   4.995 -0.5038  0.9970  0.3909
 1616SOL    HW116307   4.391   3.502   4.938  1.9334 -0.9926 -1.5671
 1616SOL    HW216308   4.367   3.355   4.932  0.8868  0.2482  1.0399
 1617SOL     OW16309   4.475   4.424   5.617 -0.1064  0.2827 -0.0013
 1617SOL    HW116310   4.443   4.335   5.633  0.8668 -0.0007  0.3872
 1617SOL    HW216311   4.537   4.428   5.690 -2.5897 -0.8362  2.2082
 1618SOL     OW16312   2.593   1.828   1.467 -0.6636  0.0852 -0.7395
 1618SOL    HW116313   2.509   1.815   1.511 -0.6243 -0.7148 -0.9008
 1618SOL    HW216314   2.583   1.743   1.424 -0.5481 -1.0125  1.4285
 1619SOL     OW16315   4.334   1.639  16.677 -0.6957 -0.1038 -0.8521
 1619SOL    HW116316   4.368   1.684  16.600  0.5002  1.1082  0.3813
 1619SOL    HW216317   4.293   1.709  16.728 -0.3186 -1.1229  0.8611
 1620SOL     OW16318   3.812   0.916   2.653  0.0571 -0.5862  0.1054
 1620SOL    HW116319   3.907   0.916   2.670  0.4607 -1.4234 -2.2324
 1620SOL    HW216320   3.807   0.922   2.558  1.7223  0.3004  0.0593
 1621SOL     OW16321   3.544   3.059   5.307 -0.1617 -0.5018 -0.1791
 1621SOL    HW116322   3.570   3.134   5.361 -2.2959  0.0571  0.0551
 1621SOL    HW216323   3.593   3.073   5.226 -0.0937 -1.6674 -0.3468
 1622SOL     OW16324   1.447   0.496   6.337  0.0478 -0.2595  0.4353
 1622SOL    HW116325   1.405   0.496   6.423 -0.3439 -1.3898  0.2449
 1622SOL    HW216326   1.537   0.504   6.368  0.5444 -1.2644 -0.7350
 1623SOL     OW16327   3.194   0.078  11.392 -0.0085  0.4011  0.3016
 1623SOL    HW116328   3.117   0.025  11.413 -1.4798  2.4733  0.2299
 1623SOL    HW216329   3.248   0.010  11.352 -0.7416 -0.6647  1.1287
 1624SOL     OW16330   2.275   2.472   1.194 -0.5776 -0.0110 -0.3353
 1624SOL    HW116331   2.296   2.539   1.129 -0.7775 -1.0879 -1.5021
 1624SOL    HW216332   2.367   2.455   1.217 -1.3904 -0.4008  2.5423
 1625SOL     OW16333   3.994   3.987   6.269  0.3015 -0.2382  0.5975
 1625SOL    HW116334   3.957   3.975   6.356 -1.7300 -0.2316 -0.2557
 1625SOL    HW216335   3.922   4.010   6.210  0.2415  1.1421  1.2000
 1626SOL     OW16336   0.641   0.539  12.094  0.6760  0.6870  0.5360
 1626SOL    HW116337   0.606   0.465  12.143 -0.7710  0.5744 -0.6730
 1626SOL    HW216338   0.565   0.582  12.054  0.1491  0.3505  1.1918
 1627SOL     OW16339   1.886   4.309  15.518  0.5911  0.3469 -0.5364
 1627SOL    HW116340   1.941   4.259  15.579 -2.0954 -3.5788 -1.3640
 1627SOL    HW216341   1.927   4.275  15.439 -1.9172 -0.2927 -1.5613
 1628SOL     OW16342   2.617   1.527   8.103  0.1343  0.1068 -0.3242
 1628SOL    HW116343   2.613   1.440   8.143  0.6783 -0.4572 -1.5118
 1628SOL    HW216344   2.545   1.568   8.151 -1.2123 -2.2117 -0.3744
 1629SOL     OW16345   1.593   0.290   5.503 -0.4865 -0.3087 -0.3997
 1629SOL    HW116346   1.663   0.251   5.450  0.5081  0.4867  0.3166
 1629SOL    HW216347   1.553   0.358   5.450  1.1493  0.7434 -0.3005
 1630SOL     OW16348   2.392   0.661   4.482  0.0867  0.1966  0.1708
 1630SOL    HW116349   2.380   0.682   4.389 -1.6850  0.1266  0.3847
 1630SOL    HW216350   2.338   0.583   4.497 -0.1558 -0.4202 -3.9484
 1631SOL     OW16351   1.060   3.847  13.629 -0.8140  0.5634 -0.0052
 1631SOL    HW116352   0.969   3.864  13.605 -1.6383 -2.8751  0.7016
 1631SOL    HW216353   1.101   3.921  13.584  1.1639 -0.7850 -0.4190
 1632SOL     OW16354   4.400   4.192   6.371 -0.2080 -0.6082  0.0231
 1632SOL    HW116355   4.318   4.184   6.323  0.5675  0.3781 -1.4590
 1632SOL    HW216356   4.451   4.114   6.349 -1.3408 -1.0043 -1.1408
 1633SOL     OW16357   1.241   2.823   1.360 -0.8547 -0.2369  0.1024
 1633SOL    HW116358   1.281   2.800   1.444  1.1700  2.2877 -0.1473
 1633SOL    HW216359   1.172   2.880   1.394  1.5624  1.5185  2.0819
 1634SOL     OW16360   4.273   3.880  12.650 -0.0701 -0.5123  0.5414
 1634SOL    HW116361   4.312   3.865  12.564 -1.3153 -0.7672  0.0226
 1634SOL    HW216362   4.272   3.796  12.696  0.1107  0.5715  2.5361
 1635SOL     OW16363   3.730   2.941  14.276  0.1872 -0.1153 -0.4049
 1635SOL    HW116364   3.811   2.896  14.296 -0.1034  0.1780  1.3821
 1635SOL    HW216365   3.756   3.032  14.290 -2.6418  0.9792 -2.1514
 1636SOL     OW16366   1.334   1.036   9.659 -0.0740  0.3500  0.0011
 1636SOL    HW116367   1.372   1.118   9.691  0.3241  0.5049 -0.8763
 1636SOL    HW216368   1.257   1.033   9.716  0.2069 -0.0390  0.3641
 1637SOL     OW16369   1.381   1.376   4.445 -0.0547  0.1960  0.8446
 1637SOL    HW116370   1.440   1.324   4.390 -0.8138 -0.0895  0.2990
 1637SOL    HW216371   1.420   1.462   4.433 -0.3217 -0.0078 -1.4997
 1638SOL     OW16372   1.151   0.456   8.914 -0.0831 -0.3135 -0.2735
 1638SOL    HW116373   1.137   0.410   8.997  1.2084  1.5513  0.9890
 1638SOL    HW216374   1.246   0.452   8.916 -0.1038 -1.4274 -1.9509
 1639SOL     OW16375   2.157   3.106   6.323  0.1952  0.4800  0.5726
 1639SOL    HW116376   2.152   3.015   6.295 -1.5251  0.5388  0.6935
 1639SOL    HW216377   2.248   3.120   6.351  1.0428 -2.2082 -0.8875
 1640SOL     OW16378   1.845   2.047  16.113 -0.4287  0.0683 -0.0432
 1640SOL    HW116379   1.758   2.040  16.072 -0.3152  3.2086 -0.8065
 1640SOL    HW216380   1.886   2.109  16.052  0.8963 -1.0903 -0.3315
 1641SOL     OW16381   0.898   0.503   3.049  0.1916  0.0857 -0.1436
 1641SOL    HW116382   0.927   0.582   3.003  0.4882  0.8554  1.3593
 1641SOL    HW216383   0.894   0.533   3.140 -2.7076 -1.3050  0.1854
 1642SOL     OW16384   2.017   1.383   4.437 -0.2062 -0.4728  0.5206
 1642SOL    HW116385   1.939   1.350   4.481 -0.2878 -1.9709 -0.7690
 1642SOL    HW216386   2.013   1.350   4.347 -0.6372 -0.4128  0.5171
 1643SOL     OW16387   1.385   4.291   7.333  0.2367 -0.4456 -0.6857
 1643SOL    HW116388   1.439   4.326   7.263  1.4031 -0.0518  0.4040
 1643SOL    HW216389   1.313   4.255   7.282  0.1046 -3.2815  1.4683
 1644SOL     OW16390   2.143   4.120  16.974 -0.2472  0.6001  0.4723
 1644SOL    HW116391   2.237   4.109  16.985 -0.2394  0.3801  0.1641
 1644SOL    HW216392   2.127   4.211  16.948 -2.2713  0.4421  1.1394
 1645SOL     OW16393   0.994   3.347   4.734  0.2995  0.7235 -0.0710
 1645SOL    HW116394   1.087   3.368   4.728 -0.2017  2.5909 -1.4057
 1645SOL    HW216395   0.978   3.301   4.651 -0.1142  0.3021  0.2394
 1646SOL     OW16396   4.648   0.361   4.520 -0.2351 -0.0942 -0.5155
 1646SOL    HW116397   4.580   0.296   4.535 -0.1268 -0.2165 -0.5567
 1646SOL    HW216398   4.627   0.411   4.441  0.0324  2.2456  0.8998
 1647SOL     OW16399   3.483   2.552   7.873 -0.3141  0.0920 -0.1105
 1647SOL    HW116400   3.448   2.582   7.957 -0.8583 -1.3651  0.1779
 1647SOL    HW216401   3.434   2.607   7.812  1.9375  0.7232 -1.3566
 1648SOL     OW16402   1.382   2.619   2.426 -0.3374 -0.5384  0.5721
 1648SOL    HW116403   1.431   2.626   2.344  0.5564 -1.5656  1.0188
 1648SOL    HW216404   1.373   2.711   2.449 -0.9037 -0.1835 -1.0969
 1649SOL     OW16405   0.087   3.692   7.720  0.0508 -0.7629  0.2997
 1649SOL    HW116406   0.160   3.657   7.669 -0.9977 -1.0010 -1.0331
 1649SOL    HW216407   0.010   3.665   7.671 -0.1162  1.0825 -0.4252
 1650SOL     OW16408   3.844   3.900   8.921 -0.5352 -0.0531 -0.0944
 1650SOL    HW116409   3.905   3.948   8.977 -0.6126  1.6615 -1.4880
 1650SOL    HW216410   3.896   3.873   8.845  0.6396  1.8355  0.0520
 1651SOL     OW16411   4.065   0.689   9.546 -0.5590 -0.7575 -0.2801
 1651SOL    HW116412   4.129   0.625   9.516  1.3327  0.7684  0.5048
 1651SOL    HW216413   3.996   0.625   9.566 -1.1237 -0.3831 -1.0280
 1652SOL     OW16414   2.756   1.739  11.733  0.1352  0.4432  0.2387
 1652SOL    HW116415   2.786   1.730  11.824  2.6355 -2.3507 -0.8380
 1652SOL    HW216416   2.836   1.787  11.710 -0.4666  1.1052 -0.4527
 1653SOL     OW16417   4.062   0.185   7.251  0.1186 -0.2219  0.2902
 1653SOL    HW116418   4.149   0.148   7.244 -0.4538 -1.1179 -1.9463
 1653SOL    HW216419   4.063   0.236   7.333  2.1273  0.8487 -0.4025
 1654SOL     OW16420   0.178   1.833   0.919  0.7245 -0.7547 -0.6452
 1654SOL    HW116421   0.212   1.807   0.833 -0.8400 -0.1404 -1.4353
 1654SOL    HW216422   0.086   1.824   0.897  0.4645  1.4955 -0.4188
 1655SOL     OW16423   2.460   2.596   0.624  0.5858 -0.3591  0.4081
 1655SOL    HW116424   2.397   2.549   0.679  0.7833 -2.6727 -1.3437
 1655SOL    HW216425   2.394   2.658   0.594 -0.1342 -1.1753  0.3152
 1656SOL     OW16426   2.362   1.482   3.840  0.4762  0.5682  0.2560
 1656SOL    HW116427   2.449   1.466   3.804 -0.6612  1.1660 -2.6839
 1656SOL    HW216428   2.309   1.414   3.798  0.2094  1.2031 -0.4258
 1657SOL     OW16429   1.064   4.082  17.088 -0.5195 -0.3547  0.3178
 1657SOL    HW116430   1.134   4.132  17.046 -0.6072  0.7129  1.4544
 1657SOL    HW216431   1.092   4.089  17.179 -2.6492 -0.2817  0.9601
 1658SOL     OW16432   1.562   1.814   4.525 -0.2425  0.1997 -0.1211
 1658SOL    HW116433   1.638   1.869   4.545 -0.7611  0.4250  1.2474
 1658SOL    HW216434   1.561   1.753   4.599  2.2177 -1.5361 -1.5376
 1659SOL     OW16435   0.245   0.527   8.767 -0.1567  1.0080 -0.2231
 1659SOL    HW116436   0.200   0.544   8.685  0.7687 -0.1339 -0.9666
 1659SOL    HW216437   0.331   0.567   8.754  0.1050  0.8499  0.9452
 1660SOL     OW16438   3.172   0.583  16.055 -0.3296  0.3695 -0.8230
 1660SOL    HW116439   3.079   0.583  16.081 -0.7875 -2.2478 -2.5130
 1660SOL    HW216440   3.204   0.495  16.077 -0.3765  0.5692  0.0437
 1661SOL     OW16441   0.092   3.702   8.873 -0.9892  0.2057 -0.2782
 1661SOL    HW116442   0.046   3.655   8.942 -0.1501  3.0765  2.2337
 1661SOL    HW216443   0.103   3.793   8.903 -0.1381 -0.0477  0.1683
 1662SOL     OW16444   4.165   3.408  13.622 -0.0915 -0.2510 -0.0762
 1662SOL    HW116445   4.230   3.447  13.682 -1.1402 -0.6637  1.3402
 1662SOL    HW216446   4.086   3.429  13.672 -0.5925 -2.2077 -0.0808
 1663SOL     OW16447   3.092   0.259   2.157 -0.1326  0.1848  0.2215
 1663SOL    HW116448   2.997   0.257   2.145  0.1232  1.9211 -2.0251
 1663SOL    HW216449   3.115   0.174   2.120  0.4543  0.8521 -0.9484
 1664SOL     OW16450   1.182   1.867   2.338  0.2920  0.1471  0.0086
 1664SOL    HW116451   1.121   1.856   2.265 -1.1298 -0.4815  1.3013
 1664SOL    HW216452   1.221   1.780   2.336  0.4585  0.2212  0.0179
 1665SOL     OW16453   1.314   0.341   0.359  0.3941  0.1102  0.3040
 1665SOL    HW116454   1.301   0.352   0.265 -0.1936  1.1398  0.5060
 1665SOL    HW216455   1.372   0.415   0.375  0.6462 -0.2405  1.0011
 1666SOL     OW16456   3.922   0.267   8.968  0.0140 -0.2137 -0.2615
 1666SOL    HW116457   3.989   0.267   8.900  0.6547 -0.6867  0.3692
 1666SOL    HW216458   3.962   0.338   9.018 -3.1140  0.5134  1.2054
 1667SOL     OW16459   3.178   3.227   3.099 -0.3302  0.1199  0.0701
 1667SOL    HW116460   3.267   3.235   3.064 -0.6049  0.3188 -0.5736
 1667SOL    HW216461   3.186   3.224   3.194 -0.4835 -2.1805  0.0077
 1668SOL     OW16462   3.301   3.653   3.695 -0.0078 -0.5790 -0.5801
 1668SOL    HW116463   3.299   3.591   3.622 -0.6123 -0.2323 -0.8513
 1668SOL    HW216464   3.221   3.703   3.681 -1.0145 -1.6161  1.3738
 1669SOL     OW16465   4.493   2.596   0.609  0.3756  0.0418  0.0808
 1669SOL    HW116466   4.412   2.545   0.607  0.3296  0.0951  0.8574
 1669SOL    HW216467   4.476   2.668   0.669  0.1730  0.1878 -0.1521
 1670SOL     OW16468   0.862   1.281   4.390  0.1683  0.3081 -1.0660
 1670SOL    HW116469   0.928   1.212   4.388  0.0897  0.2279 -0.8940
 1670SOL    HW216470   0.780   1.232   4.382 -0.9124  1.8296  0.6318
 1671SOL     OW16471   1.918   4.169   5.105 -0.1603  0.0194 -0.2798
 1671SOL    HW116472   1.844   4.223   5.133 -1.4242 -1.0171 -1.5581
 1671SOL    HW216473   1.897   4.093   5.160  1.1734  0.3432  0.6651
 1672SOL     OW16474   3.830   1.868   9.046  0.7487  0.2525 -0.0004
 1672SOL    HW116475   3.917   1.870   9.007  0.0478 -2.7662 -1.7368
 1672SOL    HW216476   3.842   1.825   9.131  1.8362 -0.5498 -0.5565
 1673SOL     OW16477   3.101   0.105  11.803 -0.2052  0.5147  0.5005
 1673SOL    HW116478   3.187   0.146  11.795  0.0630 -0.2714 -0.6273
 1673SOL    HW216479   3.100   0.026  11.750 -1.0048  1.6618 -1.2221
 1674SOL     OW16480   2.481   3.338  10.075 -0.4681 -0.0943 -0.7717
 1674SOL    HW116481   2.437   3.340  10.160  2.9798  0.9382  0.9810
 1674SOL    HW216482   2.520   3.251  10.073 -2.9181 -1.1977 -0.9234
 1675SOL     OW16483   4.230   1.297  13.688 -0.8657 -0.3566 -0.7895
 1675SOL    HW116484   4.136   1.315  13.694 -0.6000  0.3406  1.1994
 1675SOL    HW216485   4.248   1.351  13.611  0.6908  0.8268  0.4034
 1676SOL     OW16486   2.510   1.081  10.680 -0.5692 -0.1308 -0.1808
 1676SOL    HW116487   2.605   1.078  10.689 -0.6635 -2.1413  0.2011
 1676SOL    HW216488   2.484   1.018  10.748 -1.0756  2.6936  2.2590
 1677SOL     OW16489   4.149   2.368  11.547  0.5243  0.3326 -0.3760
 1677SOL    HW116490   4.155   2.315  11.467 -0.9589 -0.5268  0.0820
 1677SOL    HW216491   4.199   2.444  11.518 -0.1564  1.3032  0.9715
 1678SOL     OW16492   4.720   2.717   8.101 -0.2049 -0.2922 -0.5990
 1678SOL    HW116493   4.636   2.751   8.131  0.0261 -1.2268  1.0630
 1678SOL    HW216494   0.036   2.729   8.186  1.1269  0.5272 -1.3501
 1679SOL     OW16495   3.637   4.257  11.531 -0.1424 -0.1574 -0.2102
 1679SOL    HW116496   3.665   4.317  11.599  0.7263  0.4010 -1.0672
 1679SOL    HW216497   3.613   4.180  11.583 -1.6818 -0.0716 -0.7819
 1680SOL     OW16498   2.401   2.923   1.256  0.5034  0.2459 -0.1578
 1680SOL    HW116499   2.354   2.991   1.304 -1.0042 -1.5890  0.9674
 1680SOL    HW216500   2.338   2.853   1.269 -0.8966  1.4485 -0.4769
 1681SOL     OW16501   3.138   4.400   5.586  0.9161  0.1829 -0.0334
 1681SOL    HW116502   3.220   4.393   5.635 -0.1530 -3.3173  1.2852
 1681SOL    HW216503   3.087   4.447   5.651  1.4830  1.0235 -0.2112
 1682SOL     OW16504   4.603   3.914   7.632  0.9305 -0.1794 -0.1254
 1682SOL    HW116505   4.514   3.946   7.648  0.2501 -2.6059  0.9627
 1682SOL    HW216506   4.616   3.939   7.540  0.4099  0.0726 -0.1337
 1683SOL     OW16507   1.667   4.043   4.814 -0.2249 -0.1801 -0.4574
 1683SOL    HW116508   1.583   4.017   4.777  0.5938 -0.1847 -2.3538
 1683SOL    HW216509   1.642   4.041   4.906  0.2922  1.8506 -0.2771
 1684SOL     OW16510   2.932   1.622   1.308  0.4522  0.4179 -0.5472
 1684SOL    HW116511   2.918   1.702   1.257  1.8556  0.8935 -0.1838
 1684SOL    HW216512   2.986   1.649   1.383 -0.5935  0.9274  0.0184
 1685SOL     OW16513   3.265   2.359   7.820 -0.7970  0.7709  0.3575
 1685SOL    HW116514   3.358   2.370   7.835 -0.6923  2.0461 -1.3128
 1685SOL    HW216515   3.235   2.443   7.856 -0.8099  0.4115  1.1968
 1686SOL     OW16516   0.295   0.630   2.725 -0.1408  0.0857 -0.2560
 1686SOL    HW116517   0.207   0.629   2.687 -0.1504  0.2784 -0.2403
 1686SOL    HW216518   0.335   0.544   2.713  1.6197  0.5742  2.2135
 1687SOL     OW16519   1.213   0.956   7.184  0.2869  0.6897 -0.4525
 1687SOL    HW116520   1.251   1.042   7.166 -0.3231  0.9693 -0.3950
 1687SOL    HW216521   1.188   0.938   7.093 -0.6614  0.0297 -0.0526
 1688SOL     OW16522   0.195   3.524   7.001  0.2946 -0.0760 -0.4910
 1688SOL    HW116523   0.197   3.499   7.093  1.2511 -0.2648 -0.5603
 1688SOL    HW216524   0.288   3.544   6.992  0.4306 -0.2741  0.4691
 1689SOL     OW16525   4.667   3.539   7.251 -0.1829  0.2975  0.2097
 1689SOL    HW116526   4.692   3.625   7.217 -1.2133  0.6374  0.3099
 1689SOL    HW216527   4.572   3.545   7.257 -0.2495 -1.3305  0.7980
 1690SOL     OW16528   1.059   0.896   3.684 -0.1762 -0.3689  0.0437
 1690SOL    HW116529   1.095   0.919   3.598  0.8696  0.6287  0.7494
 1690SOL    HW216530   1.118   0.951   3.736  0.8096 -2.4762  1.1102
 1691SOL     OW16531   2.244   3.874   4.489 -0.2040  0.4881 -0.2686
 1691SOL    HW116532   2.165   3.843   4.444 -3.1628  3.8050  2.5803
 1691SOL    HW216533   2.289   3.794   4.516  0.0963  0.0570 -2.1038
 1692SOL     OW16534   2.053   0.650   6.161 -0.1814  0.1691 -0.2662
 1692SOL    HW116535   2.076   0.592   6.089  1.4194  1.0144 -0.4193
 1692SOL    HW216536   2.120   0.716   6.143  0.4002 -0.3739 -0.0807
 1693SOL     OW16537   4.138   3.168  13.948 -0.0538  0.9039  0.1871
 1693SOL    HW116538   4.179   3.254  13.947 -2.7790  2.2027 -0.6896
 1693SOL    HW216539   4.060   3.191  13.897  0.5327 -1.3284 -1.7061
 1694SOL     OW16540   2.896   2.086   6.616 -0.0525  0.4284  0.2457
 1694SOL    HW116541   2.854   2.033   6.548  0.6212 -0.8753  0.8362
 1694SOL    HW216542   2.855   2.042   6.691  2.0938  0.8867  1.6701
 1695SOL     OW16543   1.623   4.094   6.489 -0.5317 -0.4689 -0.6980
 1695SOL    HW116544   1.666   4.041   6.557 -2.2625 -0.1410  0.6423
 1695SOL    HW216545   1.686   4.086   6.418  1.6800  2.9687  0.8760
 1696SOL     OW16546   1.500   1.254   8.302 -0.0441 -0.9370  0.3312
 1696SOL    HW116547   1.407   1.269   8.283 -0.2407 -0.3100  1.8444
 1696SOL    HW216548   1.533   1.337   8.338 -0.4105  1.3262 -4.4594
 1697SOL     OW16549   2.002   2.993   6.599 -0.5757  0.0773 -0.3454
 1697SOL    HW116550   2.097   2.984   6.600 -0.7003 -1.3827 -2.5510
 1697SOL    HW216551   1.973   2.957   6.515 -0.1286  0.8151 -0.8173
 1698SOL     OW16552   2.807   2.405  10.305 -0.2485 -0.1720  0.3246
 1698SOL    HW116553   2.873   2.452  10.356 -0.5927  0.0686  0.5481
 1698SOL    HW216554   2.738   2.471  10.296 -0.3969 -0.3907 -0.1434
 1699SOL     OW16555   3.855   2.574   7.200 -0.1333  0.2255 -0.1769
 1699SOL    HW116556   3.935   2.523   7.189 -0.1979 -0.2598  1.7365
 1699SOL    HW216557   3.798   2.525   7.258  2.7893 -1.8105  0.9606
 1700SOL     OW16558   1.724   2.693  12.102 -0.0133  0.0026 -0.2165
 1700SOL    HW116559   1.643   2.725  12.141 -0.0641 -0.6519  0.2135
 1700SOL    HW216560   1.750   2.769  12.049 -0.8602 -0.2137 -0.9408
 1701SOL     OW16561   2.803   0.432   3.433  0.1660  0.2609 -0.3089
 1701SOL    HW116562   2.751   0.410   3.510 -1.6088 -0.0817 -1.6022
 1701SOL    HW216563   2.817   0.527   3.437 -1.4279  0.6194 -2.6987
 1702SOL     OW16564   2.427   0.430  16.358  0.0319 -0.2840  0.1432
 1702SOL    HW116565   2.413   0.337  16.379 -0.7782 -0.0889  0.4497
 1702SOL    HW216566   2.439   0.469  16.444  1.7852  0.4616 -0.4400
 1703SOL     OW16567   2.411   2.993  10.112  0.0949 -0.1257 -0.4409
 1703SOL    HW116568   2.320   3.016  10.129  0.2684  0.5044 -0.3575
 1703SOL    HW216569   2.400   2.928  10.043  0.5626 -1.4553  0.7339
 1704SOL     OW16570   3.974   0.026   5.584  0.0977 -0.1096  0.7715
 1704SOL    HW116571   3.978   4.655   5.582 -2.8862 -0.2370  1.8128
 1704SOL    HW216572   3.909   0.044   5.652  0.5585  1.9712  0.6680
 1705SOL     OW16573   4.340   3.597   2.584 -0.6886 -0.1869 -0.1281
 1705SOL    HW116574   4.400   3.589   2.510  0.3231 -1.4783  0.8292
 1705SOL    HW216575   4.271   3.652   2.548  1.7581  1.7644 -1.8530
 1706SOL     OW16576   4.455   2.459   1.968 -0.0949  0.7744  0.2648
 1706SOL    HW116577   4.418   2.512   1.897  1.6890 -0.8973 -1.9174
 1706SOL    HW216578   4.528   2.516   1.990  1.4617 -1.6745  1.3604
 1707SOL     OW16579   3.283   2.960   7.368  0.0666  0.3968 -0.9519
 1707SOL    HW116580   3.326   2.877   7.347  0.7114  0.2665  0.8189
 1707SOL    HW216581   3.193   2.945   7.340 -0.1777  1.3408 -0.6865
 1708SOL     OW16582   0.759   1.392   0.811 -0.0908  0.2637 -0.0956
 1708SOL    HW116583   0.664   1.381   0.806 -0.0526  0.1276 -0.5602
 1708SOL    HW216584   0.762   1.449   0.888 -2.2859  0.1295  0.0682
 1709SOL     OW16585   4.552   4.224  15.795 -0.3252  0.0362  0.0451
 1709SOL    HW116586   4.581   4.298  15.741 -0.9348  0.7598  0.7162
 1709SOL    HW216587   4.594   4.152  15.747  1.2394 -0.0647  1.5736
 1710SOL     OW16588   1.895   1.353  16.016  0.1771 -0.3062 -0.4753
 1710SOL    HW116589   1.970   1.359  15.957  0.7799 -2.2838  0.0940
 1710SOL    HW216590   1.911   1.420  16.083 -0.7142 -1.1098  0.5497
 1711SOL     OW16591   2.412   0.243   4.925 -0.0026 -0.0143  0.0987
 1711SOL    HW116592   2.481   0.200   4.874  0.2512  1.1882 -0.5859
 1711SOL    HW216593   2.349   0.171   4.930  0.6941 -0.4572  2.1795
 1712SOL     OW16594   2.895   4.266   6.652  0.3552  0.0561 -0.4631
 1712SOL    HW116595   2.823   4.328   6.641  0.5472  0.2037 -0.8818
 1712SOL    HW216596   2.960   4.319   6.607  2.1887 -2.0681 -0.3201
 1713SOL     OW16597   3.840   3.769   9.251  0.6542 -0.1579 -0.0757
 1713SOL    HW116598   3.852   3.864   9.251 -0.7578  0.0350 -2.1204
 1713SOL    HW216599   3.930   3.745   9.231  0.4998 -1.6012  1.0243
 1714SOL     OW16600   0.397   3.633   7.598 -0.0617  0.1485 -0.7387
 1714SOL    HW116601   0.486   3.652   7.629 -0.4031 -0.1893  0.4419
 1714SOL    HW216602   0.383   3.543   7.627 -1.5237  1.1745  1.7036
 1715SOL     OW16603   2.668   4.478   7.898  0.0211  0.1362  0.5099
 1715SOL    HW116604   2.690   4.434   7.980 -1.6540  1.2260  1.5408
 1715SOL    HW216605   2.657   4.563   7.939 -0.1453  0.6257 -0.5526
 1716SOL     OW16606   0.478   4.450   0.233 -0.1022 -0.2518 -0.2721
 1716SOL    HW116607   0.511   4.395   0.303  1.0672  1.9168  0.8750
 1716SOL    HW216608   0.506   4.537   0.263  3.2312 -1.8395  1.1897
 1717SOL     OW16609   3.625   2.069   4.005  0.5127  0.0412  0.4591
 1717SOL    HW116610   3.629   2.163   3.990 -0.8127  0.0296 -0.0102
 1717SOL    HW216611   3.717   2.051   4.022  0.9355  1.7965 -0.0050
 1718SOL     OW16612   3.371   1.310   5.775 -0.0114  0.1201 -0.6613
 1718SOL    HW116613   3.344   1.385   5.828 -1.0206 -1.1931  0.7046
 1718SOL    HW216614   3.399   1.340   5.689  1.7572  1.0505  0.2345
 1719SOL     OW16615   0.145   0.217  17.513  0.1750 -0.0415 -0.4941
 1719SOL    HW116616   0.051   0.216  17.498 -0.4817  1.0762  3.6655
 1719SOL    HW216617   0.162   0.147  17.575  0.3596 -0.1445 -0.6590
 1720SOL     OW16618   4.069   2.623   8.254  0.1006 -0.2517 -0.1235
 1720SOL    HW116619   4.050   2.550   8.195 -1.5427 -1.7698  2.2959
 1720SOL    HW216620   4.070   2.698   8.194 -2.4022  1.4166  1.8850
 1721SOL     OW16621   3.050   2.886   3.992 -0.0324 -0.1341 -0.7697
 1721SOL    HW116622   2.962   2.923   3.986 -0.6287 -1.2744  0.9382
 1721SOL    HW216623   3.094   2.947   4.051 -0.6598  0.6808 -1.1412
 1722SOL     OW16624   2.163   3.930  10.680 -0.0529 -0.1669  0.1682
 1722SOL    HW116625   2.115   3.847  10.682 -0.9076  0.3150 -0.4082
 1722SOL    HW216626   2.114   3.966  10.606 -2.8147 -0.9390  1.6217
 1723SOL     OW16627   4.516   0.262  15.988 -0.2955 -0.0266 -0.3192
 1723SOL    HW116628   4.491   0.321  16.060 -0.8808 -0.2820 -0.3167
 1723SOL    HW216629   4.471   0.182  16.013 -0.0609 -0.7215 -2.1865
 1724SOL     OW16630   2.864   2.418   1.972 -0.2629  0.1580  0.5119
 1724SOL    HW116631   2.796   2.436   2.038  1.1389 -0.6169  2.1837
 1724SOL    HW216632   2.833   2.470   1.899 -1.2176 -0.3993  0.5157
 1725SOL     OW16633   4.394   3.946  13.691 -0.0821  0.4497 -0.2295
 1725SOL    HW116634   4.299   3.948  13.693 -0.0638 -0.4984  3.2748
 1725SOL    HW216635   4.399   4.041  13.696  1.3895  0.1772  3.9437
 1726SOL     OW16636   2.197   2.870  16.486 -0.2969  0.2436  0.3977
 1726SOL    HW116637   2.181   2.862  16.580  0.2270 -0.8201  0.4017
 1726SOL    HW216638   2.211   2.776  16.472 -0.1199 -0.0362  2.3605
 1727SOL     OW16639   2.953   1.559   5.810  0.2921  0.0149  0.9249
 1727SOL    HW116640   2.964   1.488   5.748  0.9052  0.7152  0.2263
 1727SOL    HW216641   3.034   1.605   5.785  1.2801 -0.8929  2.4132
 1728SOL     OW16642   1.249   1.310   8.152 -0.0151  0.5476  0.2740
 1728SOL    HW116643   1.275   1.316   8.060  1.7045 -2.4231  0.5776
 1728SOL    HW216644   1.202   1.392   8.165 -0.9296  0.3029 -1.5076
 1729SOL     OW16645   2.284   0.024   5.445  0.5066 -0.7639 -0.3092
 1729SOL    HW116646   2.304   0.039   5.537  0.8316  0.4788 -0.5769
 1729SOL    HW216647   2.205   4.695   5.450 -0.6279  1.0548  1.2805
 1730SOL     OW16648   0.488   1.552   2.565  0.7936  0.5143 -0.2684
 1730SOL    HW116649   0.418   1.613   2.542 -0.7823 -1.2158 -0.1063
 1730SOL    HW216650   0.441   1.470   2.583 -0.6354  1.3413 -0.2198
 1731SOL     OW16651   2.942   3.726   8.929 -0.1762  0.5543  0.4851
 1731SOL    HW116652   2.948   3.645   8.979 -0.3199 -0.7426 -1.5741
 1731SOL    HW216653   2.998   3.783   8.981  0.0034  1.2853 -0.5050
 1732SOL     OW16654   4.707   0.947   6.663 -0.1236  0.2273  0.3013
 1732SOL    HW116655   4.707   0.941   6.759  0.9748 -0.0429  0.2767
 1732SOL    HW216656   4.706   1.043   6.661  1.9550  0.2704  1.4745
 1733SOL     OW16657   4.296   2.581   8.446  0.6533  0.2542 -0.4898
 1733SOL    HW116658   4.341   2.665   8.454  0.3227  0.1732  2.0747
 1733SOL    HW216659   4.239   2.589   8.369 -2.3345 -0.8063  1.5842
 1734SOL     OW16660   3.372   2.614   2.422  0.1900  0.5456  0.2722
 1734SOL    HW116661   3.403   2.525   2.438  3.5798  1.6085 -0.2373
 1734SOL    HW216662   3.321   2.611   2.342  0.8705  2.0000 -0.2112
 1735SOL     OW16663   1.587   0.516   1.217 -0.1341  0.4523 -0.0768
 1735SOL    HW116664   1.527   0.477   1.153  0.6267  0.7171 -0.9582
 1735SOL    HW216665   1.532   0.522   1.295  2.0598 -2.4580  1.6755
 1736SOL     OW16666   4.425   1.316   5.334 -0.3899  0.1015  0.3975
 1736SOL    HW116667   4.467   1.272   5.408 -2.4658 -2.7502 -0.1021
 1736SOL    HW216668   4.424   1.244   5.271  1.6163 -0.5528  1.1096
 1737SOL     OW16669   3.402   2.806   3.460  0.1637 -0.3054 -0.1962
 1737SOL    HW116670   3.323   2.837   3.416  0.3391 -2.0256 -1.6823
 1737SOL    HW216671   3.411   2.874   3.527  1.7831 -1.5933  0.9005
 1738SOL     OW16672   3.993   4.399   5.347 -0.2426 -0.0699  0.2217
 1738SOL    HW116673   3.990   4.417   5.253 -0.9039  3.1670  0.8504
 1738SOL    HW216674   3.900   4.378   5.358 -0.3005  0.8159  1.5124
 1739SOL     OW16675   2.348   0.618   8.409  0.0055 -0.2666  0.0464
 1739SOL    HW116676   2.401   0.539   8.413 -0.8451 -0.8233  0.3321
 1739SOL    HW216677   2.404   0.681   8.363  1.3088  0.0875  2.1313
 1740SOL     OW16678   2.289   0.894   5.758 -0.7122  0.3994  0.3025
 1740SOL    HW116679   2.296   0.815   5.704 -0.1032 -0.5140  1.7157
 1740SOL    HW216680   2.329   0.860   5.838 -0.7288 -2.3453 -0.8222
 1741SOL     OW16681   1.496   3.169   1.491 -0.4808 -0.3228 -0.7641
 1741SOL    HW116682   1.484   3.152   1.585  2.0779 -0.3692 -0.4428
 1741SOL    HW216683   1.406   3.195   1.473 -0.6657 -1.1703 -1.0405
 1742SOL     OW16684   3.911   3.204   7.127  0.1618  0.4634  0.1419
 1742SOL    HW116685   3.906   3.171   7.038  0.5032  1.2732 -0.1790
 1742SOL    HW216686   3.991   3.255   7.113  0.6104 -0.0214  0.9323
 1743SOL     OW16687   0.105   2.047   9.947 -0.2372  0.1568  0.5115
 1743SOL    HW116688   0.060   2.118   9.901  0.4357  0.1610 -0.1418
 1743SOL    HW216689   0.070   2.041  10.036 -0.0101  1.9300  0.7174
 1744SOL     OW16690   0.716   1.930  12.260 -0.1068  0.1837  0.2808
 1744SOL    HW116691   0.810   1.918  12.250  0.0539  0.4731  1.4108
 1744SOL    HW216692   0.706   1.990  12.334  1.4610  3.2837 -2.0701
 1745SOL     OW16693   4.392   4.259   0.816  0.3132 -0.5434 -0.0311
 1745SOL    HW116694   4.369   4.215   0.734 -2.1249 -0.2507  0.4983
 1745SOL    HW216695   4.387   4.183   0.874 -0.2779 -2.2575 -2.3008
 1746SOL     OW16696   4.339   3.361  12.171 -0.0871  0.0891  0.4737
 1746SOL    HW116697   4.256   3.364  12.218 -1.2457 -1.9790 -1.4423
 1746SOL    HW216698   4.378   3.447  12.187  0.9873 -0.5975  1.5141
 1747SOL     OW16699   0.805   2.098   7.536  0.7059 -0.0634  0.8106
 1747SOL    HW116700   0.855   2.047   7.600  1.3347 -0.2583  0.1603
 1747SOL    HW216701   0.812   2.057   7.450 -1.2379 -0.2135  0.7411
 1748SOL     OW16702   2.883   1.048  16.570  0.6112  0.4703 -0.0778
 1748SOL    HW116703   2.888   1.140  16.542 -2.0808  1.2070  1.8540
 1748SOL    HW216704   2.949   1.046  16.639  1.5206 -1.1180 -1.0169
 1749SOL     OW16705   4.376   2.103   6.547 -0.4484 -0.3314 -0.1558
 1749SOL    HW116706   4.304   2.154   6.511  1.3731  1.6678 -0.9381
 1749SOL    HW216707   4.344   2.012   6.545 -1.6760  0.1210 -1.2335
 1750SOL     OW16708   0.485   0.163  14.614  0.3097 -0.2154  0.2560
 1750SOL    HW116709   0.577   0.166  14.642  0.1576 -1.0151  0.8271
 1750SOL    HW216710   0.461   0.075  14.644  2.1053 -0.6704  0.3524
 1751SOL     OW16711   4.018   2.512   6.510  0.4999  0.4541 -0.7905
 1751SOL    HW116712   4.044   2.572   6.440  2.2075 -0.3824 -0.8749
 1751SOL    HW216713   3.992   2.567   6.583 -0.7189 -0.0239 -0.8716
 1752SOL     OW16714   1.155   4.501   4.373  0.0908  0.1885  0.0621
 1752SOL    HW116715   1.101   4.570   4.410 -1.1596 -0.7328 -0.0355
 1752SOL    HW216716   1.109   4.421   4.398 -2.3719  1.7420  0.4861
 1753SOL     OW16717   2.747   0.822   0.356  0.5840 -0.4550  0.1035
 1753SOL    HW116718   2.701   0.746   0.390 -4.3886  1.9631 -1.2642
 1753SOL    HW216719   2.840   0.804   0.372  0.7118  1.5295  1.6519
 1754SOL     OW16720   3.664   0.541   3.256  0.1047 -0.4162 -0.1414
 1754SOL    HW116721   3.597   0.473   3.249 -0.0331 -0.2918 -0.0462
 1754SOL    HW216722   3.733   0.487   3.217 -0.8688 -0.9183 -1.1747
 1755SOL     OW16723   2.689   2.100   4.397 -0.1884 -0.3273 -0.7553
 1755SOL    HW116724   2.778   2.135   4.411 -1.1708  1.6508  0.6273
 1755SOL    HW216725   2.695   2.026   4.457  1.6722 -2.3646 -3.5089
 1756SOL     OW16726   2.673   1.076   4.520  1.0279  0.0446  0.6362
 1756SOL    HW116727   2.696   1.085   4.612  3.3322  1.1006 -0.0431
 1756SOL    HW216728   2.612   1.148   4.502  1.0562  0.2655  1.4595
 1757SOL     OW16729   1.039   0.356   5.487 -0.0867 -0.4831 -0.3889
 1757SOL    HW116730   1.024   0.262   5.491  1.8663 -0.8186 -1.0144
 1757SOL    HW216731   0.993   0.374   5.404  0.0650  0.8788 -0.1763
 1758SOL     OW16732   3.502   3.538   5.492 -0.3581 -0.5492 -0.4053
 1758SOL    HW116733   3.445   3.508   5.563  0.3618 -1.4093 -0.1970
 1758SOL    HW216734   3.506   3.633   5.504  0.8024 -0.9928  2.7426
 1759SOL     OW16735   3.021   0.073   7.220 -0.6670 -0.7079 -0.3225
 1759SOL    HW116736   2.991   4.709   7.203  0.0810 -0.6172 -2.0552
 1759SOL    HW216737   2.946   0.125   7.250 -0.3383 -0.3355 -0.1418
 1760SOL     OW16738   0.623   3.620   4.041  0.0293 -0.1246 -0.0662
 1760SOL    HW116739   0.663   3.655   4.121  0.3852  0.2220 -0.3899
 1760SOL    HW216740   0.606   3.532   4.072  1.0355 -0.3107 -0.0225
 1761SOL     OW16741   0.426   1.392   6.554 -0.2121  0.1158  0.0924
 1761SOL    HW116742   0.482   1.338   6.610  0.4989 -2.2530 -2.9634
 1761SOL    HW216743   0.478   1.472   6.559  1.1928 -0.7074 -1.2974
 1762SOL     OW16744   3.070   2.163   7.840  0.7024 -0.2545 -0.5781
 1762SOL    HW116745   3.125   2.239   7.819  0.1981  0.4168  0.4966
 1762SOL    HW216746   3.065   2.177   7.935 -0.2904  2.3444 -1.0237
 1763SOL     OW16747   2.389   0.415   6.448 -0.6236 -0.1163  0.2708
 1763SOL    HW116748   2.366   0.491   6.395  1.0635  0.6769  0.6624
 1763SOL    HW216749   2.329   0.422   6.522  1.2213 -1.2641  1.8831
 1764SOL     OW16750   4.677   3.957   8.714  0.0381  0.5277  0.4949
 1764SOL    HW116751   0.007   3.994   8.782 -0.4243 -0.8511  1.6120
 1764SOL    HW216752   4.618   3.894   8.755 -2.6790  2.3076 -0.6423
 1765SOL     OW16753   0.134   4.396   6.536 -0.0158 -0.2862 -0.0324
 1765SOL    HW116754   0.200   4.357   6.479  0.1479  0.5147 -0.3923
 1765SOL    HW216755   0.076   4.320   6.537 -0.6792  0.1641 -3.1177
 1766SOL     OW16756   4.648   1.162   4.243 -0.4502 -0.7412  0.4213
 1766SOL    HW116757   4.671   1.069   4.249 -0.3405 -0.7805 -0.7515
 1766SOL    HW216758   4.725   1.204   4.282 -0.1827 -0.7184 -0.1349
 1767SOL     OW16759   1.476   0.997   2.232 -0.1414  0.0270 -0.4447
 1767SOL    HW116760   1.510   1.077   2.192  1.0630  0.0784  0.6993
 1767SOL    HW216761   1.454   0.953   2.150  0.0465 -0.4547 -0.2362
 1768SOL     OW16762   1.832   4.335   7.914  0.1486 -0.3832  0.0424
 1768SOL    HW116763   1.825   4.405   7.979  0.5170 -0.6807  0.4005
 1768SOL    HW216764   1.922   4.344   7.884 -0.5354  1.4592 -1.4397
 1769SOL     OW16765   3.166   1.541  14.663  0.4251 -0.6597  0.0363
 1769SOL    HW116766   3.109   1.617  14.679  0.4030 -0.8057  0.6417
 1769SOL    HW216767   3.248   1.590  14.654  0.2443 -1.0570 -3.7590
 1770SOL     OW16768   3.340   4.003   5.015  0.2429  0.1036  0.2670
 1770SOL    HW116769   3.265   4.027   5.069  1.5888  1.1819  1.6056
 1770SOL    HW216770   3.344   4.081   4.960 -0.9205 -1.4186 -2.0363
 1771SOL     OW16771   0.213   4.543  17.591  0.2043  0.0661 -0.1258
 1771SOL    HW116772   0.237   4.605  17.660  0.7616 -1.5420  1.1179
 1771SOL    HW216773   0.296   4.531  17.545 -0.1055 -1.0970 -0.3751
 1772SOL     OW16774   0.946   4.178   1.301  0.3567 -0.0955 -0.5081
 1772SOL    HW116775   1.031   4.213   1.274 -0.2076  0.1216 -1.9495
 1772SOL    HW216776   0.972   4.101   1.352 -0.0579 -0.1387 -0.3620
 1773SOL     OW16777   0.963   3.057   2.285  0.1968  0.3273 -0.1222
 1773SOL    HW116778   0.950   3.152   2.282  2.8585  0.6747 -0.8926
 1773SOL    HW216779   1.002   3.050   2.197  0.1279 -1.2538 -0.0283
 1774SOL     OW16780   2.266   2.851   6.268 -0.2613 -0.0682 -0.5911
 1774SOL    HW116781   2.282   2.789   6.339 -0.5402  1.2841  0.6601
 1774SOL    HW216782   2.344   2.906   6.264  0.1617 -0.5329  1.6114
 1775SOL     OW16783   4.427   0.415   5.554 -0.5086 -0.3206 -0.3577
 1775SOL    HW116784   4.422   0.346   5.620  0.1984 -1.0158 -1.0345
 1775SOL    HW216785   4.367   0.379   5.488  1.4392 -3.7538 -0.2377
 1776SOL     OW16786   1.441   1.263  16.670  0.1222  0.7002  0.1352
 1776SOL    HW116787   1.348   1.250  16.686  0.2774 -1.3323 -0.5924
 1776SOL    HW216788   1.473   1.227  16.752 -0.6894  0.2177  0.2370
 1777SOL     OW16789   3.057   4.703   8.724 -0.3386  0.2302  0.3406
 1777SOL    HW116790   3.090   4.628   8.674 -1.7536  1.0264 -1.7852
 1777SOL    HW216791   3.128   4.723   8.784 -0.5297  1.8066  0.0423
 1778SOL     OW16792   1.840   1.211   0.151 -0.1537  0.1250 -0.5554
 1778SOL    HW116793   1.916   1.164   0.186 -0.5240  0.9620  1.3590
 1778SOL    HW216794   1.880   1.205   0.064 -0.0174  2.2048 -0.6351
 1779SOL     OW16795   4.304   0.431   0.562  0.1308  0.6164 -0.4538
 1779SOL    HW116796   4.358   0.480   0.624  0.1154  0.6761 -0.4871
 1779SOL    HW216797   4.308   0.500   0.495 -0.8898 -1.2509 -2.4324
 1780SOL     OW16798   0.087   1.764  10.610  0.1278 -0.3574  0.2375
 1780SOL    HW116799   0.003   1.795  10.642  1.4280  1.5277  1.8208
 1780SOL    HW216800   0.153   1.763  10.680 -0.6206  0.1025  0.9385
 1781SOL     OW16801   0.637   3.476   4.996  0.2257 -0.1928  0.4163
 1781SOL    HW116802   0.642   3.571   4.985  3.0584 -0.3148  0.7486
 1781SOL    HW216803   0.715   3.456   5.047 -0.0861  1.3676  1.4966
 1782SOL     OW16804   2.528   1.827   4.463 -0.3205  0.3337  0.1561
 1782SOL    HW116805   2.603   1.857   4.515 -1.0029 -0.9981  1.9055
 1782SOL    HW216806   2.562   1.738   4.454  0.6740  1.0879 -3.6632
 1783SOL     OW16807   0.976   3.673   3.890 -0.0161  0.0880 -0.3991
 1783SOL    HW116808   0.986   3.648   3.798  0.7320  0.2865 -0.3695
 1783SOL    HW216809   0.908   3.612   3.918 -0.4778  0.4468 -0.7338
 1784SOL     OW16810   1.633   0.528   9.134  0.3294 -0.2090 -0.3598
 1784SOL    HW116811   1.697   0.463   9.164  1.4685  1.1048  0.0565
 1784SOL    HW216812   1.683   0.564   9.062 -0.7531  0.1026 -0.9615
 1785SOL     OW16813   2.172   2.549   6.846 -0.4280 -1.3342  0.0368
 1785SOL    HW116814   2.102   2.530   6.908  1.0019  0.1184  2.1024
 1785SOL    HW216815   2.227   2.604   6.902  2.2611 -3.2692 -0.7081
 1786SOL     OW16816   3.722   3.409  15.745  0.3333 -0.6989  0.1901
 1786SOL    HW116817   3.698   3.499  15.770  0.9661 -0.2488 -0.8249
 1786SOL    HW216818   3.673   3.399  15.664 -1.4393  0.6855  1.0995
 1787SOL     OW16819   4.052   1.593   7.071  0.0672 -0.2313 -0.1413
 1787SOL    HW116820   4.098   1.643   7.139 -1.5378 -0.8200  1.3747
 1787SOL    HW216821   3.994   1.665   7.045  0.1912 -0.3119 -0.6488
 1788SOL     OW16822   1.364   4.140   8.908  0.1684  0.7318 -0.0393
 1788SOL    HW116823   1.345   4.147   9.001 -0.7546 -1.5210 -0.0408
 1788SOL    HW216824   1.327   4.058   8.873  0.3199  0.6738 -0.0647
 1789SOL     OW16825   3.207   2.652   4.338  0.0831  0.2746  0.0079
 1789SOL    HW116826   3.243   2.694   4.260  0.6155  0.4392  0.3426
 1789SOL    HW216827   3.216   2.722   4.402 -0.1367 -0.3029  0.6594
 1790SOL     OW16828   4.156   4.213   6.263  0.4637  0.5231 -0.2663
 1790SOL    HW116829   4.097   4.138   6.259  0.4721  0.5891 -1.9802
 1790SOL    HW216830   4.081   4.272   6.273  0.9098  0.6323  2.4299
 1791SOL     OW16831   1.608   0.966   2.481 -0.0403  0.2892 -0.2605
 1791SOL    HW116832   1.560   0.979   2.399 -1.4467 -1.2915  0.3127
 1791SOL    HW216833   1.559   0.891   2.515  2.1465 -1.3202 -0.6551
 1792SOL     OW16834   1.553   2.349   4.344  0.8119 -0.3308 -0.6247
 1792SOL    HW116835   1.630   2.403   4.359 -1.7162  3.6824 -1.8431
 1792SOL    HW216836   1.538   2.356   4.249 -1.7628 -0.7635 -0.2483
 1793SOL     OW16837   1.539   4.457   5.136  0.1490 -0.0330  0.5780
 1793SOL    HW116838   1.499   4.479   5.220  0.3120 -1.9540  1.1593
 1793SOL    HW216839   1.609   4.399   5.167  0.2484 -0.6518 -0.7654
 1794SOL     OW16840   4.642   2.479   5.024 -0.0322  0.2294 -0.2480
 1794SOL    HW116841   4.673   2.564   5.055  0.1534  0.3416 -0.7534
 1794SOL    HW216842   4.701   2.423   5.074 -1.8643 -2.4834 -1.1363
 1795SOL     OW16843   3.171   3.400   4.962 -0.6281  0.3203  0.1905
 1795SOL    HW116844   3.140   3.320   4.918  0.4099  0.3642 -0.6473
 1795SOL    HW216845   3.118   3.386   5.040 -1.9807  0.4195 -0.7103
 1796SOL     OW16846   3.244   0.343   7.884 -0.3549  0.1948  0.0350
 1796SOL    HW116847   3.150   0.355   7.902 -0.0794 -0.2079  1.7540
 1796SOL    HW216848   3.283   0.354   7.971  2.6460  0.6253 -1.3684
 1797SOL     OW16849   2.932   4.649  12.589  0.1462  0.3911 -0.1830
 1797SOL    HW116850   2.962   4.656  12.498 -3.5652  0.7588 -1.4133
 1797SOL    HW216851   2.952   0.010  12.626  0.7636  0.2530 -0.2048
 1798SOL     OW16852   2.282   2.817   3.421  0.9525 -0.1008  0.1245
 1798SOL    HW116853   2.221   2.747   3.399 -0.7214  1.2578  0.4304
 1798SOL    HW216854   2.312   2.845   3.335  0.3056  0.6416  0.1335
 1799SOL     OW16855   1.804   0.638   1.154 -0.1531  0.6679 -0.0956
 1799SOL    HW116856   1.853   0.665   1.231  1.2637  2.1002 -1.4906
 1799SOL    HW216857   1.726   0.603   1.196 -0.4110 -1.4332 -2.2875
 1800SOL     OW16858   1.465   2.451   2.651 -0.3001 -0.1979  0.5475
 1800SOL    HW116859   1.443   2.489   2.565 -1.9655 -1.2059  0.5265
 1800SOL    HW216860   1.531   2.508   2.690 -1.0428  0.3290  1.0339
 1801SOL     OW16861   3.139   4.556  17.540  0.2739 -0.1493  0.3000
 1801SOL    HW116862   3.056   4.509  17.539  0.8064 -1.0338 -1.7892
 1801SOL    HW216863   3.190   4.479  17.563  1.0405  1.0085  2.4396
 1802SOL     OW16864   4.425   0.767  16.437 -0.0502 -0.4140  0.1489
 1802SOL    HW116865   4.418   0.673  16.459 -1.3194 -0.5338 -0.7568
 1802SOL    HW216866   4.338   0.795  16.468  0.5818  1.1234  0.5145
 1803SOL     OW16867   4.682   1.511   9.066 -0.7927 -0.0458 -0.4651
 1803SOL    HW116868   0.032   1.490   9.011 -1.3832 -0.9314 -0.9438
 1803SOL    HW216869   4.617   1.498   8.997 -0.5420  0.5611 -0.8086
 1804SOL     OW16870   2.528   0.645   5.464  0.4747 -0.1808 -0.1351
 1804SOL    HW116871   2.554   0.737   5.463 -0.3072  0.0568  3.2905
 1804SOL    HW216872   2.581   0.615   5.390  0.5602  1.2906 -0.6805
 1805SOL     OW16873   1.520   0.822   6.963 -0.0368 -0.1147  0.2369
 1805SOL    HW116874   1.548   0.806   6.873 -1.1854  0.3285 -0.1938
 1805SOL    HW216875   1.475   0.740   6.984 -1.7806  1.2008  1.6116
 1806SOL     OW16876   3.358   1.247   1.396 -0.4134  0.0538  0.2339
 1806SOL    HW116877   3.281   1.280   1.351  0.0991  0.6069 -0.2488
 1806SOL    HW216878   3.318   1.186   1.458 -0.4858  0.1383  0.2712
 1807SOL     OW16879   3.598   1.553   2.787  0.8026 -0.1400  0.6551
 1807SOL    HW116880   3.611   1.485   2.721 -2.0944  0.0950 -0.1576
 1807SOL    HW216881   3.561   1.622   2.733  1.8906  0.1714  0.3044
 1808SOL     OW16882   0.012   3.973   4.454  0.0060  0.0575 -0.0165
 1808SOL    HW116883   4.704   3.966   4.543 -2.4947 -1.0917 -1.0534
 1808SOL    HW216884   0.068   3.896   4.464  1.5484  1.2139  0.2986
 1809SOL     OW16885   0.817   0.878   4.900 -0.0412  0.4664  0.5575
 1809SOL    HW116886   0.849   0.968   4.901  1.2812 -0.0251  2.3033
 1809SOL    HW216887   0.807   0.864   4.994 -0.2492 -0.6856  0.3594
 1810SOL     OW16888   4.351   4.408   4.254 -0.1690  0.1902 -0.2407
 1810SOL    HW116889   4.427   4.433   4.305 -0.4614  0.6670 -0.0350
 1810SOL    HW216890   4.373   4.407   4.161 -0.7855 -2.2082 -0.3579
 1811SOL     OW16891   1.699   3.077   5.679  0.2517  0.5404  0.2316
 1811SOL    HW116892   1.677   3.088   5.772 -2.8339  2.8839 -0.7915
 1811SOL    HW216893   1.790   3.047   5.683  0.9590  2.5328 -0.9847
 1812SOL     OW16894   3.588   1.168   3.453  0.3653 -0.1254 -0.0003
 1812SOL    HW116895   3.668   1.139   3.497 -0.2392 -0.9748  0.5443
 1812SOL    HW216896   3.620   1.250   3.416  1.3523 -0.1612  0.7778
 1813SOL     OW16897   0.491   1.869  17.086 -0.1181  0.3384 -0.6866
 1813SOL    HW116898   0.564   1.932  17.083  0.0213  0.2591  1.2499
 1813SOL    HW216899   0.494   1.834  16.997 -1.2784 -1.3480 -0.0640
 1814SOL     OW16900   1.091   1.417  13.232 -0.3231 -0.4586 -0.6250
 1814SOL    HW116901   1.175   1.433  13.189  0.5353 -0.1309  1.1958
 1814SOL    HW216902   1.038   1.405  13.153 -0.6713  0.9588 -0.6012
 1815SOL     OW16903   0.625   1.057   3.038  0.0072 -0.0649  0.0984
 1815SOL    HW116904   0.534   1.070   3.012 -0.0299  1.6651  1.0973
 1815SOL    HW216905   0.612   0.969   3.072 -0.5056  0.3577  0.9803
 1816SOL     OW16906   4.114   1.919   1.513  0.7684 -0.0099 -0.2922
 1816SOL    HW116907   4.191   1.976   1.507 -0.5053  1.6640 -0.8090
 1816SOL    HW216908   4.130   1.884   1.425  0.0331 -0.7156 -0.1423
 1817SOL     OW16909   2.125   4.335   5.272  0.1214  0.3564 -0.1281
 1817SOL    HW116910   2.079   4.286   5.205  1.7598 -2.2085  0.6467
 1817SOL    HW216911   2.120   4.280   5.350 -1.4020  0.9525  0.2047
 1818SOL     OW16912   4.586   2.149   4.070 -0.4884 -0.3917 -0.4463
 1818SOL    HW116913   4.643   2.078   4.039 -0.3767 -0.3650 -0.2995
 1818SOL    HW216914   4.501   2.116   4.042 -0.7563  1.0297 -1.2966
 1819SOL     OW16915   1.622   0.207   3.871 -0.2089  0.0027 -0.2371
 1819SOL    HW116916   1.694   0.205   3.808 -0.1966 -0.1432 -0.2185
 1819SOL    HW216917   1.669   0.181   3.950 -0.3458 -0.3911 -0.2884
 1820SOL     OW16918   4.571   4.431  16.747  0.2414  0.1548 -0.3441
 1820SOL    HW116919   4.621   4.371  16.803 -1.4053  1.2808  2.3360
 1820SOL    HW216920   4.586   4.393  16.660 -0.4584 -0.6100 -0.1329
 1821SOL     OW16921   2.093   4.655   4.329 -0.7890 -0.1294  0.0068
 1821SOL    HW116922   2.007   4.622   4.354 -0.1790 -0.9499  1.0635
 1821SOL    HW216923   2.132   4.583   4.281 -0.9143 -0.6223  0.6407
 1822SOL     OW16924   4.269   4.521   3.280 -0.2763  0.2152 -0.3677
 1822SOL    HW116925   4.271   4.508   3.186  1.1204 -2.3964  0.0247
 1822SOL    HW216926   4.347   4.475   3.313 -1.1583 -0.2322  1.1396
 1823SOL     OW16927   3.166   3.901   9.279 -0.4468  0.4991 -0.1492
 1823SOL    HW116928   3.177   3.828   9.340 -0.7879 -1.4172 -2.3646
 1823SOL    HW216929   3.258   3.925   9.274 -0.0086 -0.9456  1.0191
 1824SOL     OW16930   0.748   3.281  13.293 -0.2880 -0.1887 -0.3145
 1824SOL    HW116931   0.670   3.239  13.257  0.5343 -0.0454 -2.3138
 1824SOL    HW216932   0.741   3.367  13.251 -1.0158  1.4757  3.3044
 1825SOL     OW16933   3.526   4.269   5.517 -0.0377 -0.6277 -0.3740
 1825SOL    HW116934   3.464   4.319   5.569  0.0397 -1.0241  0.0885
 1825SOL    HW216935   3.523   4.178   5.546  0.1266  0.5861  3.4456
 1826SOL     OW16936   3.381   3.510   7.482 -0.5401 -0.5193 -0.2165
 1826SOL    HW116937   3.442   3.546   7.547 -1.4174 -0.3416  0.5072
 1826SOL    HW216938   3.442   3.440   7.456  0.7209  0.0416  1.1969
 1827SOL     OW16939   3.863   0.921   4.748  0.1132  0.3369  0.1329
 1827SOL    HW116940   3.860   0.990   4.682 -0.1309  0.3762  0.1850
 1827SOL    HW216941   3.878   0.839   4.700  0.5578 -0.1281  1.0665
 1828SOL     OW16942   0.447   2.881   7.398 -0.4981  0.3615  0.3617
 1828SOL    HW116943   0.427   2.903   7.307 -2.7200  2.9582  1.4513
 1828SOL    HW216944   0.527   2.932   7.408 -0.7676  0.9781 -0.6015
 1829SOL     OW16945   1.068   0.562   8.394 -0.1057  0.2397  0.0937
 1829SOL    HW116946   1.157   0.591   8.413  1.1397 -2.0188 -2.3278
 1829SOL    HW216947   1.086   0.495   8.328  0.6581  0.9088 -0.3731
 1830SOL     OW16948   0.129   4.401   5.281 -0.5113  0.3265  0.3377
 1830SOL    HW116949   0.172   4.484   5.301 -0.2369  0.2088  0.2294
 1830SOL    HW216950   0.036   4.425   5.284 -1.0427 -1.8682  1.3560
 1831SOL     OW16951   1.156   1.954  15.435 -0.1454 -0.1764 -0.2743
 1831SOL    HW116952   1.155   1.953  15.339 -0.2545 -1.5077 -0.2585
 1831SOL    HW216953   1.250   1.962  15.453 -0.3401  1.3530 -0.0037
 1832SOL     OW16954   0.900   2.548   2.304 -0.7897  0.3108 -0.4033
 1832SOL    HW116955   0.903   2.601   2.384  0.8222  0.0335 -0.2749
 1832SOL    HW216956   0.814   2.568   2.269 -2.0538  2.4939  3.9302
 1833SOL     OW16957   3.592   4.065   4.011 -0.1155  0.1996 -0.0227
 1833SOL    HW116958   3.601   4.061   4.107  1.4073 -0.8156 -0.1995
 1833SOL    HW216959   3.525   3.999   3.996 -0.2268  0.4865 -0.7806
 1834SOL     OW16960   0.094   1.694   3.241  0.0402 -0.0533  0.8519
 1834SOL    HW116961   0.123   1.776   3.282  4.4277 -1.0117 -0.3398
 1834SOL    HW216962   0.093   1.634   3.315  0.1617 -1.4476 -0.2865
 1835SOL     OW16963   1.081   2.463   5.284  0.3632  0.3116 -0.0584
 1835SOL    HW116964   1.036   2.536   5.241 -2.2056 -2.0429 -1.3653
 1835SOL    HW216965   1.162   2.460   5.233  0.3225  2.0628 -0.2478
 1836SOL     OW16966   2.058   0.685  15.992 -0.6971 -0.5914 -0.6157
 1836SOL    HW116967   2.129   0.651  15.939 -0.4645 -1.5028  0.2790
 1836SOL    HW216968   2.074   0.780  15.999  0.1429 -0.8573  1.0495
 1837SOL     OW16969   4.234   0.034   2.520 -0.0633 -0.1185 -0.6630
 1837SOL    HW116970   4.172   0.026   2.592  1.2681  1.6797  0.6582
 1837SOL    HW216971   4.297   0.101   2.544 -1.1007  0.5251  0.2277
 1838SOL     OW16972   1.842   1.331   7.938 -0.0412  0.3759  0.2252
 1838SOL    HW116973   1.917   1.366   7.891 -0.7945  1.3554 -0.2590
 1838SOL    HW216974   1.774   1.328   7.871  1.5719 -0.7142 -1.3346
 1839SOL     OW16975   3.299   2.798   0.012  0.6244  0.6386  0.4645
 1839SOL    HW116976   3.311   2.891  17.692  1.1020 -0.1380 -2.6532
 1839SOL    HW216977   3.254   2.758  17.639  0.4250  0.8024  0.4966
 1840SOL     OW16978   2.533   1.511   2.960  0.6717 -0.2470 -0.2965
 1840SOL    HW116979   2.560   1.554   2.879  1.0951  0.4049  0.1896
 1840SOL    HW216980   2.581   1.429   2.949  1.3146  0.2245 -0.9530
 1841SOL     OW16981   0.520   2.118  17.225 -0.4910 -0.2315 -0.0267
 1841SOL    HW116982   0.599   2.083  17.268  1.4079 -0.4645 -3.7288
 1841SOL    HW216983   0.570   2.162  17.157 -1.2932  0.5255 -0.1122
 1842SOL     OW16984   1.290   2.508   2.903  0.0907 -0.3886  0.1299
 1842SOL    HW116985   1.221   2.507   2.836 -1.2091  1.6356  1.4498
 1842SOL    HW216986   1.360   2.460   2.859 -0.1769 -0.1340 -0.5660
 1843SOL     OW16987   0.740   0.015   4.270  0.5225  0.6061 -0.2732
 1843SOL    HW116988   0.739   4.689   4.351  0.5593 -0.3601 -0.8728
 1843SOL    HW216989   0.771   0.098   4.306 -2.1437 -0.2063  3.8049
 1844SOL     OW16990   3.147   1.658   8.812  0.5845 -0.0363 -0.1165
 1844SOL    HW116991   3.237   1.634   8.790 -0.2868 -0.5282 -3.1343
 1844SOL    HW216992   3.163   1.742   8.856  0.5713 -0.7093  1.1865
 1845SOL     OW16993   0.074   4.056   7.761 -0.2837 -0.3881 -0.3912
 1845SOL    HW116994   0.010   3.994   7.725 -0.6089 -0.3607  0.1464
 1845SOL    HW216995   0.039   4.051   7.850 -0.3425  0.6918 -0.3515
 1846SOL     OW16996   4.695   3.011   5.409 -0.0786 -0.5166  0.2110
 1846SOL    HW116997   4.601   3.003   5.424 -0.0922 -0.1497  0.3193
 1846SOL    HW216998   4.722   3.037   5.497 -0.1233  1.7031 -0.4336
 1847SOL     OW16999   2.102   1.275  17.015  0.2113  0.0174 -0.0349
 1847SOL    HW117000   2.078   1.262  16.923  1.1390 -0.1270 -0.2495
 1847SOL    HW217001   2.153   1.356  17.015  1.0877 -0.5410  0.2797
 1848SOL     OW17002   2.728   3.755  14.193  0.2337  0.3203 -0.1592
 1848SOL    HW117003   2.693   3.729  14.279 -0.0721  2.9376  0.5103
 1848SOL    HW217004   2.786   3.829  14.209  0.8403  0.6380 -3.9082
 1849SOL     OW17005   0.547   3.907   9.600 -0.0916 -0.1576  0.2248
 1849SOL    HW117006   0.584   3.868   9.520  0.9997  2.1096 -0.3656
 1849SOL    HW217007   0.455   3.909   9.573  0.5979  0.0311 -2.1218
 1850SOL     OW17008   1.908   1.295   1.242  0.0976  0.0896 -0.7898
 1850SOL    HW117009   1.837   1.304   1.179 -1.7234  0.7765  1.3469
 1850SOL    HW217010   1.953   1.379   1.228  1.3109 -0.3425  0.5049
 1851SOL     OW17011   3.836   1.069   8.497 -0.1777 -0.8312  0.5280
 1851SOL    HW117012   3.801   1.000   8.553 -0.6101 -0.2967  0.9150
 1851SOL    HW217013   3.929   1.049   8.491  0.5063  3.1675 -2.1726
 1852SOL     OW17014   3.298   2.572   6.719 -0.2166 -0.6740  0.4161
 1852SOL    HW117015   3.224   2.630   6.699  1.1415  1.6434  2.0735
 1852SOL    HW217016   3.374   2.630   6.717 -0.9654  0.2765 -0.7236
 1853SOL     OW17017   2.195   2.548  10.672  0.4278 -0.6196  0.0338
 1853SOL    HW117018   2.289   2.563  10.662  0.2930  0.3314  0.1779
 1853SOL    HW217019   2.193   2.463  10.717 -0.3208  0.6674  2.4206
 1854SOL     OW17020   1.289   3.606   5.123  0.4822  0.0316  0.2806
 1854SOL    HW117021   1.373   3.567   5.102 -1.0048 -3.2139  0.3889
 1854SOL    HW217022   1.311   3.699   5.127  1.9548 -0.3402  0.6462
 1855SOL     OW17023   0.481   4.104   2.357 -0.1165  0.6978  0.1568
 1855SOL    HW117024   0.566   4.067   2.334  1.5251  2.3980  3.4494
 1855SOL    HW217025   0.503   4.197   2.359  2.7855 -0.0192  2.7921
 1856SOL     OW17026   0.132   3.394   2.007  0.5378 -0.0279 -0.1962
 1856SOL    HW117027   0.064   3.436   2.060 -0.1968 -1.9429  0.3639
 1856SOL    HW217028   0.098   3.393   1.917  2.9790  1.2075 -1.1286
 1857SOL     OW17029   3.761   3.491   6.298 -0.5390  0.4602 -0.0882
 1857SOL    HW117030   3.755   3.585   6.315 -2.0815 -0.1677  3.0034
 1857SOL    HW217031   3.696   3.455   6.359 -0.4771  0.4223 -0.0442
 1858SOL     OW17032   2.718   3.863   6.243 -0.1453  0.0323 -0.5295
 1858SOL    HW117033   2.625   3.857   6.263 -0.3487  0.6403 -1.2845
 1858SOL    HW217034   2.739   3.938   6.298  2.2186 -0.4076 -0.8181
 1859SOL     OW17035   3.228   1.202   7.723  0.2438  0.0823 -0.1473
 1859SOL    HW117036   3.324   1.212   7.728  0.3133 -1.8226  1.9385
 1859SOL    HW217037   3.199   1.280   7.770 -0.9647 -0.4706  0.0040
 1860SOL     OW17038   0.192   4.218  16.324 -0.0363  0.3351  0.5001
 1860SOL    HW117039   0.142   4.136  16.319 -0.6756  0.6285  2.0741
 1860SOL    HW217040   0.142   4.278  16.270  0.2988  0.9985  0.9299
 1861SOL     OW17041   0.343   0.661   6.289 -0.1724  0.0029 -0.5884
 1861SOL    HW117042   0.319   0.652   6.381 -1.3003  0.8291 -0.7907
 1861SOL    HW217043   0.256   0.670   6.249 -0.6821 -0.7194  0.3556
 1862SOL     OW17044   3.967   2.379   8.772 -0.3449  0.4528  0.6266
 1862SOL    HW117045   3.871   2.379   8.780 -0.3136  1.1208  1.0016
 1862SOL    HW217046   3.974   2.400   8.678  0.6498 -2.4393  0.0608
 1863SOL     OW17047   0.522   0.305   3.756  0.5374 -0.2300  0.5271
 1863SOL    HW117048   0.477   0.240   3.809 -1.4521 -0.6306 -1.6715
 1863SOL    HW217049   0.589   0.242   3.728 -0.6773 -0.8024 -1.0322
 1864SOL     OW17050   0.854   0.421   1.224  0.2629  0.2492  0.8194
 1864SOL    HW117051   0.792   0.397   1.155  0.0695 -0.8018  1.3676
 1864SOL    HW217052   0.935   0.397   1.178  0.2346 -0.0057  0.9049
 1865SOL     OW17053   3.403   1.819  11.721  0.1215  0.2242  0.0472
 1865SOL    HW117054   3.422   1.735  11.678  0.6900  0.3036  0.1326
 1865SOL    HW217055   3.397   1.783  11.809  0.9618 -1.9875 -0.8042
 1866SOL     OW17056   0.408   1.244   8.667 -0.7728 -0.3809 -0.1712
 1866SOL    HW117057   0.331   1.203   8.626 -0.1271 -2.4822  0.7162
 1866SOL    HW217058   0.396   1.212   8.756  0.2844  0.1743  0.1744
 1867SOL     OW17059   0.738   3.300   5.825 -0.5432  0.1638  0.3332
 1867SOL    HW117060   0.805   3.329   5.886 -0.9489  1.2537  0.2535
 1867SOL    HW217061   0.754   3.206   5.833  0.8513  0.7348  4.2031
 1868SOL     OW17062   4.716   0.268   7.790  0.1885 -0.4968  0.2900
 1868SOL    HW117063   4.660   0.198   7.757  1.6933 -1.3297 -0.5469
 1868SOL    HW217064   4.695   0.263   7.883  2.0881 -0.7617  0.7017
 1869SOL     OW17065   0.625   2.492  10.437 -0.0116 -0.1775 -0.2837
 1869SOL    HW117066   0.581   2.577  10.445 -1.5982 -0.9485 -0.6643
 1869SOL    HW217067   0.585   2.466  10.354 -0.5858  4.2692 -1.4022
 1870SOL     OW17068   4.617   3.909   6.853  0.3916  0.1121 -0.4129
 1870SOL    HW117069   4.679   3.978   6.878  0.9714 -1.1478  1.6787
 1870SOL    HW217070   4.675   3.836   6.833  0.4241 -0.0664  0.3100
 1871SOL     OW17071   3.009   3.305   7.922 -0.2542 -0.5207 -0.1874
 1871SOL    HW117072   2.937   3.250   7.894  1.0603 -2.0829 -0.5091
 1871SOL    HW217073   3.082   3.243   7.920  0.6455  0.5738 -1.4209
 1872SOL     OW17074   4.183   3.927   1.013 -0.3510  0.2540 -0.0474
 1872SOL    HW117075   4.126   3.992   1.054  0.2144  0.4738  0.3859
 1872SOL    HW217076   4.169   3.855   1.075 -2.1082 -1.2375 -2.2138
 1873SOL     OW17077   4.122   0.804  13.192  0.2261 -0.0537  0.7452
 1873SOL    HW117078   4.067   0.853  13.254 -1.2996 -1.6379  0.6445
 1873SOL    HW217079   4.130   0.718  13.232  1.0988 -2.2767 -4.2981
 1874SOL     OW17080   0.417   1.304   4.174  0.4316 -0.3973  0.1006
 1874SOL    HW117081   0.480   1.237   4.147  0.3614 -0.1899 -0.5841
 1874SOL    HW217082   0.456   1.389   4.151  0.2645 -0.6236 -1.0090
 1875SOL     OW17083   4.110   4.387   7.815 -0.4578 -0.3751  0.0760
 1875SOL    HW117084   4.149   4.309   7.855 -2.0072 -0.6542  1.0682
 1875SOL    HW217085   4.020   4.352   7.820  0.0391 -1.7239 -0.3886
 1876SOL     OW17086   2.655   2.835   3.354 -0.2580  0.3775 -0.1011
 1876SOL    HW117087   2.741   2.803   3.381 -0.3770  0.8711  0.8485
 1876SOL    HW217088   2.619   2.754   3.317  0.9595 -0.2794  0.1456
 1877SOL     OW17089   0.767   4.148  10.518 -0.2513  0.2419 -0.0421
 1877SOL    HW117090   0.833   4.080  10.503 -1.2602 -1.1636  1.8927
 1877SOL    HW217091   0.698   4.131  10.454  1.8912 -2.7111 -1.5619
 1878SOL     OW17092   1.423   1.514   9.988  0.2871  0.5870  0.1201
 1878SOL    HW117093   1.374   1.443  10.030  1.4995 -0.5727 -0.4088
 1878SOL    HW217094   1.500   1.511  10.045  0.4099  0.4069 -0.0545
 1879SOL     OW17095   2.078   2.369  13.707 -0.2192 -0.1249 -0.0583
 1879SOL    HW117096   2.015   2.370  13.780 -1.2643 -1.4707 -0.9524
 1879SOL    HW217097   2.153   2.411  13.749  1.2858 -2.6218 -0.2349
 1880SOL     OW17098   1.924   2.952   5.083  0.0781 -0.0039 -0.1198
 1880SOL    HW117099   1.829   2.958   5.094  0.3368 -0.0062  2.1274
 1880SOL    HW217100   1.935   2.859   5.061  0.0089  0.0092 -0.2075
 1881SOL     OW17101   1.910   0.933   6.367  1.0414 -0.6431  0.1105
 1881SOL    HW117102   1.994   0.943   6.412  0.8953 -0.7992  0.4242
 1881SOL    HW217103   1.932   0.996   6.299  2.1510  0.2642  1.2951
 1882SOL     OW17104   0.012   0.062   8.170  0.1250 -0.4464 -0.3167
 1882SOL    HW117105   0.024   0.142   8.119  2.1731  0.0031  0.8581
 1882SOL    HW217106   4.656   0.026   8.133 -0.2917 -1.0057  1.1557
 1883SOL     OW17107   0.332   0.596   4.810  0.2268 -0.2705  0.3498
 1883SOL    HW117108   0.262   0.632   4.864  0.3615 -0.7700  0.8498
 1883SOL    HW217109   0.411   0.617   4.858  0.6933 -1.3983  0.0804
 1884SOL     OW17110   4.485   2.680  12.008 -0.0474 -0.2592  0.0830
 1884SOL    HW117111   4.472   2.586  12.026  0.2569 -0.3102  0.0306
 1884SOL    HW217112   4.576   2.688  12.035 -0.8496 -2.3973  3.3649
 1885SOL     OW17113   2.075   1.865  12.748 -0.2681 -0.2897 -0.0067
 1885SOL    HW117114   2.043   1.923  12.679  0.8196 -0.5656 -0.7376
 1885SOL    HW217115   2.137   1.811  12.700  2.3886  0.5639  2.4246
 1886SOL     OW17116   3.328   3.700   8.744  0.3308 -0.4533  0.3699
 1886SOL    HW117117   3.276   3.631   8.784  0.4324 -1.2516 -0.8591
 1886SOL    HW217118   3.277   3.781   8.750  3.1669  1.2177  1.9150
 1887SOL     OW17119   3.090   0.011  13.671  0.4627  1.0008  0.2421
 1887SOL    HW117120   3.066   4.662  13.727 -2.0919  0.7299 -1.2113
 1887SOL    HW217121   3.184   0.006  13.688  0.2355 -0.6056  1.0886
 1888SOL     OW17122   0.103   3.250   4.301  0.0910 -0.1968  0.1403
 1888SOL    HW117123   0.155   3.197   4.360 -1.4713 -0.4925  1.2572
 1888SOL    HW217124   0.082   3.188   4.231 -0.0587  0.7192 -0.6427
 1889SOL     OW17125   2.433   0.606   2.137 -0.1919  0.1606  0.1170
 1889SOL    HW117126   2.469   0.519   2.120  0.8517  0.8476 -1.1741
 1889SOL    HW217127   2.423   0.593   2.231  2.1408 -0.9189  0.2215
 1890SOL     OW17128   0.331   1.463   2.967  0.0432 -0.3994  0.4120
 1890SOL    HW117129   0.359   1.527   3.032 -0.2343 -0.7042  0.8364
 1890SOL    HW217130   0.415   1.432   2.934 -0.5945 -0.4855 -1.1121
 1891SOL     OW17131   3.191   4.198   5.798 -0.1875 -0.2322  0.5127
 1891SOL    HW117132   3.142   4.271   5.761  0.6154 -0.6044 -1.2510
 1891SOL    HW217133   3.131   4.124   5.788 -0.4565  0.0948 -0.2127
 1892SOL     OW17134   1.336   0.213   7.038  0.8179  0.4719  0.7827
 1892SOL    HW117135   1.370   0.141   7.090 -2.7665 -0.7615  1.4071
 1892SOL    HW217136   1.401   0.222   6.968 -1.0177  0.0287 -0.9852
 1893SOL     OW17137   1.391   2.341  11.046 -0.3731  0.4805  0.2050
 1893SOL    HW117138   1.450   2.407  11.010 -0.3319  0.7072  0.6905
 1893SOL    HW217139   1.452   2.269  11.059  0.3020  0.8099 -1.1036
 1894SOL     OW17140   3.107   4.412  12.446  0.8183  0.5467  0.0599
 1894SOL    HW117141   3.020   4.381  12.473  0.9900 -0.9931 -1.1917
 1894SOL    HW217142   3.087   4.473  12.375 -0.1836  1.5953  1.2425
 1895SOL     OW17143   1.630   4.543   4.294  0.4180  0.0097  0.3401
 1895SOL    HW117144   1.581   4.466   4.322  1.2109 -1.5827 -2.6517
 1895SOL    HW217145   1.618   4.584   4.379 -0.3173 -0.4108  0.4394
 1896SOL     OW17146   2.127   4.719   2.182 -0.3936  0.2666  0.0322
 1896SOL    HW117147   2.165   4.635   2.206  0.6511  0.6490 -0.2607
 1896SOL    HW217148   2.113   4.707   2.088  0.9442  1.2133 -0.2928
 1897SOL     OW17149   4.218   0.467   9.496  1.0121 -0.0292  0.8551
 1897SOL    HW117150   4.288   0.524   9.465  0.1998  0.4799 -0.0697
 1897SOL    HW217151   4.250   0.448   9.584  5.4653  2.1998 -0.3189
 1898SOL     OW17152   2.380   4.303   9.394  0.0589 -0.1113 -0.5233
 1898SOL    HW117153   2.321   4.229   9.409 -1.0000  0.9298  0.4517
 1898SOL    HW217154   2.466   4.260   9.396  1.0649  1.7324 -3.2125
 1899SOL     OW17155   1.367   0.499   6.596  0.0333  0.2790  0.3366
 1899SOL    HW117156   1.422   0.567   6.633 -0.2076  0.8584 -0.3521
 1899SOL    HW217157   1.280   0.520   6.629  0.4763 -0.5937  2.0413
 1900SOL     OW17158   1.956   4.596   4.770  0.2573 -0.1108  0.1045
 1900SOL    HW117159   1.937   4.520   4.825  1.5816  0.6565  1.6515
 1900SOL    HW217160   1.983   4.550   4.691  0.3643 -0.6855  0.4759
 1901SOL     OW17161   4.274   0.853  15.095 -0.0490  0.5057 -0.0005
 1901SOL    HW117162   4.258   0.761  15.115  0.6408  0.9512  2.5517
 1901SOL    HW217163   4.251   0.886  15.182  1.3866  2.7326 -0.4627
 1902SOL     OW17164   2.154   0.466   8.537  0.3361 -0.2275 -0.1718
 1902SOL    HW117165   2.210   0.519   8.480  1.5733 -0.5050  0.7850
 1902SOL    HW217166   2.079   0.526   8.538  0.6602  0.1799 -0.0587
 1903SOL     OW17167   2.612   0.784   0.083  0.2856  0.3887 -0.1533
 1903SOL    HW117168   2.596   0.825   0.168  0.5243 -1.3407  0.7148
 1903SOL    HW217169   2.649   0.859   0.036  0.3723  0.5871  0.2307
 1904SOL     OW17170   3.642   3.108   5.063  0.2283 -0.3109 -0.0625
 1904SOL    HW117171   3.675   3.193   5.035 -1.5897  0.5086  0.2568
 1904SOL    HW217172   3.571   3.104   4.998 -1.1755  1.4409  1.3396
 1905SOL     OW17173   4.345   2.646  15.591  0.1295  0.4044  0.1682
 1905SOL    HW117174   4.412   2.623  15.526 -0.4966  0.2686 -0.4175
 1905SOL    HW217175   4.387   2.596  15.662 -1.0287 -0.0081  0.5529
 1906SOL     OW17176   2.981   3.347   3.733 -0.0573 -0.2902  0.6468
 1906SOL    HW117177   2.901   3.295   3.728  0.7245 -1.4516  0.2903
 1906SOL    HW217178   2.946   3.433   3.708 -1.1209 -0.2807  2.1744
 1907SOL     OW17179   4.273   4.365   1.801 -0.3868  0.5085  0.0015
 1907SOL    HW117180   4.293   4.271   1.796  0.0655  0.7704 -3.5018
 1907SOL    HW217181   4.276   4.368   1.896  1.5540 -0.7269 -0.0215
 1908SOL     OW17182   1.230   4.540  17.149 -0.1837  0.1389 -0.3953
 1908SOL    HW117183   1.135   4.548  17.161 -0.3377  0.4091 -1.7732
 1908SOL    HW217184   1.249   4.531  17.242 -0.0211 -0.0379 -0.4453
 1909SOL     OW17185   4.615   1.870   8.042  0.7237 -0.5021 -0.3619
 1909SOL    HW117186   4.631   1.935   7.974  0.3461  1.1294  1.1157
 1909SOL    HW217187   4.679   1.882   8.112 -1.1398  1.0676  1.1029
 1910SOL     OW17188   2.288   3.137   1.425  0.0248  0.2701  0.1197
 1910SOL    HW117189   2.306   3.230   1.439 -0.3650  0.5067 -0.9587
 1910SOL    HW217190   2.305   3.093   1.508  0.2174  0.2528  0.0690
 1911SOL     OW17191   0.152   3.355   7.643 -0.3966 -0.3065  0.2988
 1911SOL    HW117192   0.172   3.313   7.560 -0.6383 -0.4927  0.3335
 1911SOL    HW217193   0.071   3.401   7.620  0.0298  1.4979  2.3463
 1912SOL     OW17194   2.098   4.487   7.045  0.1308 -0.1508  0.5396
 1912SOL    HW117195   2.142   4.470   7.128 -0.3725 -1.9304  0.4240
 1912SOL    HW217196   2.102   4.401   7.005  1.8415  0.4807 -0.6483
 1913SOL     OW17197   1.038   4.513   2.946  0.4839  0.1464  0.0099
 1913SOL    HW117198   1.016   4.435   2.996 -0.4331 -0.1772 -0.9127
 1913SOL    HW217199   1.125   4.528   2.984  0.6459  0.4281 -0.4714
 1914SOL     OW17200   1.364   4.655   9.263 -0.0189 -0.1946 -0.3103
 1914SOL    HW117201   1.298   4.627   9.326  0.6283 -1.5468 -0.2448
 1914SOL    HW217202   1.410   4.574   9.243 -0.9571 -0.8859  0.3702
 1915SOL     OW17203   2.048   4.184   2.695 -0.4778 -0.4541 -0.2078
 1915SOL    HW117204   2.035   4.183   2.600  0.1467 -0.5799 -0.2903
 1915SOL    HW217205   1.960   4.169   2.731 -0.9607 -0.3806 -1.3266
 1916SOL     OW17206   3.704   3.801   3.561 -0.2912 -0.4302 -0.0037
 1916SOL    HW117207   3.658   3.758   3.633  0.0328  2.5853  2.0078
 1916SOL    HW217208   3.670   3.754   3.484 -1.6251 -0.4755  0.6144
 1917SOL     OW17209   2.867   4.076   4.538 -0.0294  0.1131  0.2785
 1917SOL    HW117210   2.772   4.063   4.541  0.1752 -1.3720  0.6619
 1917SOL    HW217211   2.894   4.017   4.468 -1.9672 -0.2385 -0.1778
 1918SOL     OW17212   1.031   2.970   1.473  0.7025  0.3425 -0.1374
 1918SOL    HW117213   0.982   3.029   1.415 -0.8151 -2.3699 -1.6435
 1918SOL    HW217214   0.976   2.984   1.550 -0.4036 -1.8788 -0.5137
 1919SOL     OW17215   3.333   4.088   8.274  0.0819 -0.0914 -0.1982
 1919SOL    HW117216   3.337   4.044   8.189  0.6277 -2.5648  1.1035
 1919SOL    HW217217   3.248   4.131   8.269  0.9773  1.9440  2.1105
 1920SOL     OW17218   2.167   1.876   2.828 -0.1285  0.0295  0.4234
 1920SOL    HW117219   2.167   1.925   2.746 -0.5443  0.0825  0.4514
 1920SOL    HW217220   2.260   1.855   2.836 -0.3347 -0.4972  1.4897
 1921SOL     OW17221   2.463   3.105   0.320 -0.4290 -0.2256  0.2290
 1921SOL    HW117222   2.404   3.039   0.283  1.5119 -1.9597  0.2587
 1921SOL    HW217223   2.543   3.084   0.272 -0.3940  1.1787 -0.3353
 1922SOL     OW17224   0.856   4.022   0.601 -0.2253  0.0930  0.1177
 1922SOL    HW117225   0.826   4.093   0.657 -2.6402 -0.6733 -0.1898
 1922SOL    HW217226   0.773   3.977   0.587 -1.3392  2.4074 -0.6745
 1923SOL     OW17227   1.554   0.784  14.753 -0.2855 -0.4424  0.6337
 1923SOL    HW117228   1.460   0.767  14.765 -0.4057  0.5094  1.0876
 1923SOL    HW217229   1.587   0.700  14.786  2.1853 -0.8780 -3.0508
 1924SOL     OW17230   3.866   4.064   4.987 -0.0811  0.5221  0.2777
 1924SOL    HW117231   3.801   4.126   4.953  1.4367  1.5785 -0.7046
 1924SOL    HW217232   3.899   4.024   4.906 -1.9149 -1.3327  0.4512
 1925SOL     OW17233   0.245   3.508   9.011 -0.4271 -0.0734 -0.5611
 1925SOL    HW117234   0.256   3.559   8.931 -0.9675  3.3209  1.5629
 1925SOL    HW217235   0.279   3.556   9.086  0.0138 -0.1529 -0.7074
 1926SOL     OW17236   2.107   4.545  13.422 -0.0373  0.0160  0.2455
 1926SOL    HW117237   2.144   4.515  13.505  1.9968  0.2911 -0.5624
 1926SOL    HW217238   2.161   4.495  13.361 -1.0234  1.5969 -1.9301
 1927SOL     OW17239   2.598   1.847  14.139  0.2927 -0.0505  0.1121
 1927SOL    HW117240   2.647   1.832  14.058  0.2859  0.4816  0.0094
 1927SOL    HW217241   2.568   1.937  14.128  1.0824  0.3172  0.9617
 1928SOL     OW17242   3.812   1.226   9.316  0.4023  0.1213  0.7938
 1928SOL    HW117243   3.843   1.153   9.263 -0.3598  0.4601 -0.1191
 1928SOL    HW217244   3.876   1.245   9.385 -1.0167  1.1931  1.8208
 1929SOL     OW17245   1.250   0.172   9.316 -0.2514  0.5523 -0.0646
 1929SOL    HW117246   1.284   0.083   9.306 -1.3664  0.4240 -2.8050
 1929SOL    HW217247   1.215   0.174   9.227 -1.6711 -0.2749  0.4731
 1930SOL     OW17248   4.033   4.624   0.344 -0.7081 -0.7443  0.8914
 1930SOL    HW117249   3.981   4.566   0.400 -1.8361 -1.8738 -1.3352
 1930SOL    HW217250   4.039   4.706   0.393 -1.9727  0.6925 -1.3338
 1931SOL     OW17251   3.997   2.159  16.108  0.2344  0.0239  0.2143
 1931SOL    HW117252   3.923   2.167  16.047 -1.0676 -2.4497  1.4646
 1931SOL    HW217253   3.967   2.213  16.181 -1.2019  2.0380 -1.8717
 1932SOL     OW17254   0.783   0.709   4.691 -0.0178 -0.1480 -0.6291
 1932SOL    HW117255   0.812   0.735   4.778 -1.0034 -2.4830  0.3971
 1932SOL    HW217256   0.704   0.758   4.671  0.4351  2.3447  3.9274
 1933SOL     OW17257   2.645   1.089   0.792 -0.4684 -0.3214  0.4262
 1933SOL    HW117258   2.614   1.006   0.758 -1.3624  0.6126 -1.0341
 1933SOL    HW217259   2.605   1.154   0.734 -1.7516 -1.5016 -0.0067
 1934SOL     OW17260   0.984   2.908   7.945  0.0047  0.0731  0.2977
 1934SOL    HW117261   0.963   2.988   7.992  1.1173  0.1588  0.6561
 1934SOL    HW217262   1.001   2.947   7.859  0.5095  2.1160  1.3489
 1935SOL     OW17263   2.226   4.470   2.322  0.3426  0.4136  0.4655
 1935SOL    HW117264   2.289   4.493   2.390  0.4786 -1.7736  1.0692
 1935SOL    HW217265   2.144   4.484   2.370  0.4536  0.6902  0.5769
 1936SOL     OW17266   0.554   0.734   4.570  0.5111  0.1426 -0.7089
 1936SOL    HW117267   0.587   0.712   4.483 -1.7894 -3.9239 -0.5311
 1936SOL    HW217268   0.461   0.738   4.547 -0.5607  1.2757  3.8500
 1937SOL     OW17269   4.202   1.438   9.397  0.3386  0.3922 -0.3842
 1937SOL    HW117270   4.290   1.400   9.396 -0.0089 -0.4055 -0.9513
 1937SOL    HW217271   4.180   1.488   9.319 -0.3305  1.5877  0.5620
 1938SOL     OW17272   0.650   2.027   7.993  0.4701  0.4224 -0.2478
 1938SOL    HW117273   0.618   1.996   8.077  1.4286 -1.5350 -0.6066
 1938SOL    HW217274   0.569   2.012   7.944 -0.1813  0.7512  0.7464
 1939SOL     OW17275   0.883   2.413   8.169  0.0601 -0.1233 -0.3398
 1939SOL    HW117276   0.845   2.379   8.088  0.8719 -0.2522 -0.6680
 1939SOL    HW217277   0.894   2.504   8.143 -1.3602 -0.4352 -1.9721
 1940SOL     OW17278   2.054   1.553   6.781 -0.0147 -0.0222  0.7149
 1940SOL    HW117279   2.052   1.625   6.844 -3.4348 -0.2624  0.8382
 1940SOL    HW217280   1.976   1.501   6.799 -0.1664 -0.5014 -1.3186
 1941SOL     OW17281   1.457   0.530  16.770  0.2134 -0.3335  0.3398
 1941SOL    HW117282   1.373   0.525  16.724 -0.6190 -0.3941  1.8917
 1941SOL    HW217283   1.516   0.551  16.698  0.6370 -0.8652  0.5383
 1942SOL     OW17284   2.093   2.632  10.377 -0.4061  0.1762  0.2012
 1942SOL    HW117285   2.145   2.558  10.409 -4.3265 -2.6522  0.1329
 1942SOL    HW217286   2.015   2.580  10.355  0.8501 -0.3942 -2.9462
 1943SOL     OW17287   0.858   2.726   3.993 -0.3096  0.0682  0.3325
 1943SOL    HW117288   0.822   2.730   4.082  0.9748  1.1011  0.7967
 1943SOL    HW217289   0.776   2.734   3.943  1.2148  0.3026 -2.1120
 1944SOL     OW17290   2.817   0.556   4.034 -0.3351  0.5238  0.1352
 1944SOL    HW117291   2.881   0.486   4.049  1.0157  1.8982  0.7873
 1944SOL    HW217292   2.791   0.546   3.943 -1.8571  1.3904  0.4687
 1945SOL     OW17293   4.478   2.129   1.154  0.3705  0.2789 -0.8157
 1945SOL    HW117294   4.427   2.079   1.090 -1.4757 -0.2079  1.0037
 1945SOL    HW217295   4.408   2.180   1.195 -1.9923 -3.6903  0.1862
 1946SOL     OW17296   2.863   2.708   9.463  0.5555  0.1782 -0.7869
 1946SOL    HW117297   2.895   2.618   9.455  0.5412  0.3714 -2.8866
 1946SOL    HW217298   2.939   2.767   9.462  1.5708 -1.1261 -1.4862
 1947SOL     OW17299   1.173   2.030   9.014 -0.5174 -0.7095  0.3138
 1947SOL    HW117300   1.168   1.978   9.094  1.1643  1.8511  2.0768
 1947SOL    HW217301   1.127   2.111   9.035  1.3184  0.6058 -0.7163
 1948SOL     OW17302   0.852   4.544  13.141 -0.7659  0.5125 -0.5674
 1948SOL    HW117303   0.798   4.593  13.079  0.2595  1.8327 -0.4321
 1948SOL    HW217304   0.939   4.546  13.102  0.2390 -1.0534  1.6194
 1949SOL     OW17305   4.440   4.010   5.326  0.3396  0.1768  0.1745
 1949SOL    HW117306   4.514   4.004   5.387  0.7880  0.4562 -0.3324
 1949SOL    HW217307   4.458   4.101   5.301  0.9743 -0.2104 -0.7758
 1950SOL     OW17308   1.792   3.009   7.554 -0.8104  0.1998  0.4058
 1950SOL    HW117309   1.740   2.969   7.623  0.9712  1.5519  2.5213
 1950SOL    HW217310   1.874   3.010   7.604  1.9145 -1.8252 -3.9774
 1951SOL     OW17311   0.697   3.793   4.283 -0.1346 -0.0455  0.0542
 1951SOL    HW117312   0.717   3.871   4.231  1.1054  0.7014  1.6582
 1951SOL    HW217313   0.707   3.832   4.370  2.7690  2.2743 -1.3073
 1952SOL     OW17314   2.964   1.053  14.340  0.1372 -0.2656  0.5185
 1952SOL    HW117315   2.983   1.144  14.317 -1.4202 -0.0396  0.1457
 1952SOL    HW217316   2.944   1.014  14.255 -0.8438  0.4975  0.3949
 1953SOL     OW17317   4.012   2.725  14.030 -0.1732  0.3852  0.2482
 1953SOL    HW117318   4.002   2.662  13.958 -2.4238  0.5995  0.3632
 1953SOL    HW217319   4.097   2.768  14.020  0.6081 -1.6784 -1.9891
 1954SOL     OW17320   0.818   3.777   6.061 -0.3840 -0.2025 -0.2174
 1954SOL    HW117321   0.901   3.781   6.013 -0.3887 -1.8450 -0.3465
 1954SOL    HW217322   0.818   3.690   6.099  2.4468  0.4442  1.3457
 1955SOL     OW17323   1.098   0.596  16.701 -0.1150 -0.4895 -0.0634
 1955SOL    HW117324   1.016   0.575  16.657 -0.6277 -0.4157  0.8655
 1955SOL    HW217325   1.162   0.558  16.641  0.3779  1.3138 -0.6974
 1956SOL     OW17326   3.659   1.476   5.865  0.3654  0.2906 -0.3674
 1956SOL    HW117327   3.674   1.548   5.926  1.2002  0.4286 -0.7484
 1956SOL    HW217328   3.563   1.475   5.873  0.5375  4.6574  2.0152
 1957SOL     OW17329   2.838   3.694  12.221  0.1026 -0.1633  0.2820
 1957SOL    HW117330   2.816   3.779  12.183  0.4283 -0.0887  0.2635
 1957SOL    HW217331   2.908   3.656  12.167 -0.1146  0.4846 -0.4461
 1958SOL     OW17332   2.207   2.704  11.152 -0.2430  0.3500 -0.0100
 1958SOL    HW117333   2.182   2.791  11.182 -0.3491  1.1897 -2.4608
 1958SOL    HW217334   2.298   2.713  11.123  0.3336 -0.1364  1.7065
 1959SOL     OW17335   3.381   2.394   5.574  0.1881  0.6939 -0.3156
 1959SOL    HW117336   3.306   2.454   5.567 -0.8408 -0.6970 -1.3085
 1959SOL    HW217337   3.433   2.442   5.509 -0.3598  1.4151 -0.2267
 1960SOL     OW17338   4.095   4.576   4.915  0.1241  0.5185 -0.2367
 1960SOL    HW117339   4.116   4.499   4.862  0.6430 -1.3051  2.5858
 1960SOL    HW217340   4.036   4.529   4.973  2.3157 -1.4689  0.3760
 1961SOL     OW17341   1.483   0.807   2.006 -0.7104  0.2800 -0.1223
 1961SOL    HW117342   1.577   0.790   2.014 -0.2364  3.0973  0.3824
 1961SOL    HW217343   1.445   0.747   1.941  0.3008  1.5095 -1.8638
 1962SOL     OW17344   1.142   2.641   2.244  0.4059  0.0654  0.6695
 1962SOL    HW117345   1.057   2.604   2.266 -0.3819  0.2950 -2.0595
 1962SOL    HW217346   1.187   2.650   2.328  0.9182 -4.3729  0.8912
 1963SOL     OW17347   3.257   4.061   0.414 -0.3033 -0.4505 -0.6552
 1963SOL    HW117348   3.231   4.135   0.468 -0.6795 -0.3557 -0.9666
 1963SOL    HW217349   3.222   3.987   0.464  0.3589 -0.7845 -0.6871
 1964SOL     OW17350   4.184   0.737   4.854 -0.2038  0.3046  0.3148
 1964SOL    HW117351   4.176   0.679   4.778 -2.1006  0.5254  0.3409
 1964SOL    HW217352   4.203   0.675   4.925  1.0575 -0.2039 -0.4769
 1965SOL     OW17353   1.160   3.184   3.084 -0.8655 -0.0971 -0.5032
 1965SOL    HW117354   1.080   3.167   3.034 -0.5061  0.3606 -1.2387
 1965SOL    HW217355   1.230   3.149   3.029 -0.4269  0.1727 -0.1124
 1966SOL     OW17356   2.633   2.134   7.987 -0.3560  0.1502 -0.0183
 1966SOL    HW117357   2.550   2.106   8.027 -0.0116 -0.5031  0.2277
 1966SOL    HW217358   2.649   2.083   7.908  2.4716  2.2867 -0.8216
 1967SOL     OW17359   0.466   3.280  14.354 -0.9194 -0.1065 -0.3661
 1967SOL    HW117360   0.513   3.277  14.271  0.5530  3.4319  0.2994
 1967SOL    HW217361   0.533   3.325  14.407  0.7487 -1.6389 -1.1810
 1968SOL     OW17362   3.894   2.971  12.032  0.4633 -0.0767  0.2187
 1968SOL    HW117363   3.801   2.952  12.046  1.0018 -0.3248  3.3132
 1968SOL    HW217364   3.914   2.965  12.125  0.2210  0.0849  0.2807
 1969SOL     OW17365   2.544   1.697   7.044  0.0382  0.4007  0.2598
 1969SOL    HW117366   2.605   1.740   6.984 -0.3663 -1.6963 -1.6583
 1969SOL    HW217367   2.467   1.697   6.987 -0.8528 -2.2696  1.4695
 1970SOL     OW17368   4.458   0.800   8.448 -0.2343 -0.2846 -0.0277
 1970SOL    HW117369   4.374   0.841   8.470  0.5491  1.9142 -1.1518
 1970SOL    HW217370   4.455   0.723   8.505  1.3156  0.3034  0.8634
 1971SOL     OW17371   2.113   3.640   3.768  0.2276 -0.7340  0.1305
 1971SOL    HW117372   2.196   3.660   3.725 -0.8527 -0.3474 -1.7516
 1971SOL    HW217373   2.051   3.660   3.698  1.9953 -1.4345 -1.6387
 1972SOL     OW17374   3.530   1.702   4.855 -0.4759  0.3509 -0.2668
 1972SOL    HW117375   3.621   1.707   4.884 -0.2457 -1.0547 -0.7572
 1972SOL    HW217376   3.477   1.710   4.934  0.2083  1.5475  0.0695
 1973SOL     OW17377   2.798   0.374   5.479 -0.1097 -0.1379 -0.1185
 1973SOL    HW117378   2.894   0.377   5.480 -0.1289  0.4931 -0.5915
 1973SOL    HW217379   2.783   0.348   5.389 -4.2656  0.8427  0.2812
 1974SOL     OW17380   1.836   1.748   6.387  0.0509 -0.1019  0.3234
 1974SOL    HW117381   1.805   1.724   6.299  1.1764 -1.2296  0.2242
 1974SOL    HW217382   1.930   1.733   6.377  0.1537 -0.6201  2.1575
 1975SOL     OW17383   3.179   0.313  11.212 -0.4485  0.8007 -0.0403
 1975SOL    HW117384   3.196   0.229  11.255  0.9152  0.4542 -1.2458
 1975SOL    HW217385   3.140   0.283  11.130  0.1234 -0.7609  0.2496
 1976SOL     OW17386   1.275   1.005   7.759 -0.4091  0.3151 -0.6360
 1976SOL    HW117387   1.343   0.937   7.763 -1.8555 -1.1183 -0.4630
 1976SOL    HW217388   1.307   1.061   7.689 -2.0982 -0.1898 -1.7977
 1977SOL     OW17389   4.617   3.755   2.144  0.0873  0.4001 -0.4608
 1977SOL    HW117390   4.522   3.764   2.154 -0.4686 -2.2924 -3.3919
 1977SOL    HW217391   4.621   3.666   2.110 -0.3060  0.5988 -1.0213
 1978SOL     OW17392   0.628   1.010  13.671  0.5640  0.9652  0.0538
 1978SOL    HW117393   0.605   0.939  13.730 -0.9323  0.1124 -1.5439
 1978SOL    HW217394   0.723   1.010  13.681  0.7505 -1.6343 -1.7255
 1979SOL     OW17395   1.686   4.491  11.932  0.3490  0.1637  0.3455
 1979SOL    HW117396   1.614   4.535  11.977 -2.4856 -2.9460 -1.1209
 1979SOL    HW217397   1.648   4.404  11.919 -2.5941  1.4443  0.5213
 1980SOL     OW17398   0.873   0.092   1.519 -0.8793  0.3250  0.0657
 1980SOL    HW117399   0.787   0.132   1.515 -0.9941 -0.1838 -2.4823
 1980SOL    HW217400   0.846   0.015   1.569 -0.4348 -1.3656 -2.2895
 1981SOL     OW17401   3.248   2.577   8.480  0.1569 -0.0227 -0.3651
 1981SOL    HW117402   3.277   2.644   8.541  0.4528 -0.0744 -0.4517
 1981SOL    HW217403   3.222   2.630   8.404 -2.2982 -1.5739 -0.6055
 1982SOL     OW17404   0.767   2.262   7.970  0.8215  0.0836 -0.8205
 1982SOL    HW117405   0.704   2.195   7.994 -0.3801  1.2362 -0.7293
 1982SOL    HW217406   0.814   2.218   7.900  1.2826 -0.4754 -0.1568
 1983SOL     OW17407   2.304   4.366   4.448 -0.5974  0.1447  0.0918
 1983SOL    HW117408   2.255   4.339   4.371 -2.0625 -0.6355  1.2991
 1983SOL    HW217409   2.393   4.340   4.424 -0.0846  0.6199  1.5059
 1984SOL     OW17410   2.367   2.274  13.298 -0.2342  0.1103 -0.7019
 1984SOL    HW117411   2.400   2.293  13.210 -0.5643  1.2735 -0.5793
 1984SOL    HW217412   2.334   2.186  13.280  2.7352 -0.9626 -0.9557
 1985SOL     OW17413   3.527   0.533   4.313 -0.0878  0.1551  0.5108
 1985SOL    HW117414   3.527   0.504   4.404  0.2303 -2.2937 -0.2804
 1985SOL    HW217415   3.552   0.622   4.335  0.6106  0.3540 -1.0686
 1986SOL     OW17416   3.694   1.648  15.289 -0.2384 -0.3423 -0.6359
 1986SOL    HW117417   3.643   1.727  15.272 -0.8166 -0.9073 -1.5118
 1986SOL    HW217418   3.713   1.664  15.381  1.8765  0.2816 -1.1766
 1987SOL     OW17419   1.887   0.244   8.644  0.1095  0.3318  1.0990
 1987SOL    HW117420   1.833   0.183   8.693 -1.1941  0.1976 -0.5018
 1987SOL    HW217421   1.829   0.317   8.621  1.4111  1.1937  0.5267
 1988SOL     OW17422   0.767   4.652  13.967 -0.8628 -0.0306 -0.2726
 1988SOL    HW117423   0.833   4.655  14.036 -1.6676  2.2447  0.4112
 1988SOL    HW217424   0.717   0.007  13.986 -0.5396  0.3155 -0.8783
 1989SOL     OW17425   2.275   3.111  14.014 -0.2446 -0.0944  0.4192
 1989SOL    HW117426   2.248   3.144  14.099 -1.2418 -1.5633  0.6820
 1989SOL    HW217427   2.368   3.128  14.005 -0.7454  4.3780  4.2575
 1990SOL     OW17428   2.221   0.228   5.253  0.0574  0.8297 -0.4718
 1990SOL    HW117429   2.228   0.174   5.331 -0.3642 -0.9938 -1.6990
 1990SOL    HW217430   2.270   0.306   5.280  1.3027 -0.9296  2.3624
 1991SOL     OW17431   4.699   0.537   3.839 -0.2054  0.0746 -0.1849
 1991SOL    HW117432   0.008   0.448   3.826 -2.2603 -0.9845  1.6787
 1991SOL    HW217433   4.680   0.550   3.746 -0.1657  1.2159 -0.0363
 1992SOL     OW17434   3.768   0.214  12.941 -0.0002 -0.2316  0.3497
 1992SOL    HW117435   3.679   0.184  12.920  0.4848 -1.8564  0.6284
 1992SOL    HW217436   3.766   0.297  12.989  1.5174  0.7151 -1.2174
 1993SOL     OW17437   1.682   2.589   8.730 -0.1310  0.0649  0.0493
 1993SOL    HW117438   1.593   2.625   8.728 -0.0361  0.3094  0.1215
 1993SOL    HW217439   1.725   2.670   8.759 -0.1267  1.2570 -3.3163
 1994SOL     OW17440   0.195   3.405   5.997  0.7602 -0.1807  0.1872
 1994SOL    HW117441   0.226   3.489   5.962 -0.4288  0.3731  0.4290
 1994SOL    HW217442   0.219   3.343   5.928  3.7583  0.9080  0.2526
 1995SOL     OW17443   2.309   4.272   8.943  0.0070 -0.4540 -0.1347
 1995SOL    HW117444   2.277   4.205   9.003  0.2532  0.0692  0.5846
 1995SOL    HW217445   2.347   4.337   9.002 -1.1552  1.1421 -1.1793
 1996SOL     OW17446   4.125   2.026  15.229 -0.0783 -0.1293 -0.1302
 1996SOL    HW117447   4.185   2.065  15.166  1.0894 -0.8684  0.5015
 1996SOL    HW217448   4.064   1.981  15.171 -1.1300  1.6103 -0.3693
 1997SOL     OW17449   2.465   0.241   6.822  0.4986 -0.0853 -0.1960
 1997SOL    HW117450   2.514   0.185   6.762  0.2401 -1.6105  1.0214
 1997SOL    HW217451   2.434   0.174   6.883  1.0527  1.2208  1.5247
 1998SOL     OW17452   3.700   1.086   5.957 -0.0849  0.2719 -0.6068
 1998SOL    HW117453   3.752   1.102   5.879  0.1758 -0.0412 -0.4981
 1998SOL    HW217454   3.767   1.103   6.023 -0.0939  0.6190 -0.6879
 1999SOL     OW17455   3.428   1.815   6.929  0.7910  0.3975 -0.3474
 1999SOL    HW117456   3.372   1.872   6.876  0.0725 -0.4720 -0.5270
 1999SOL    HW217457   3.417   1.731   6.884 -0.0203 -0.3593  1.2667
 2000SOL     OW17458   1.301   4.509  17.420  0.4205  0.6182 -0.3956
 2000SOL    HW117459   1.366   4.446  17.452 -1.6132 -1.5331 -0.5516
 2000SOL    HW217460   1.256   4.539  17.500  3.3090 -1.5047  2.0354
 2001SOL     OW17461   1.782   4.116   2.789 -0.0262  1.1135 -0.2331
 2001SOL    HW117462   1.736   4.095   2.708 -1.2285  1.0712  0.4633
 2001SOL    HW217463   1.700   4.140   2.833 -0.5122 -2.0042  0.5640
 2002SOL     OW17464   2.238   2.133   1.006 -0.5627  0.0699 -0.4071
 2002SOL    HW117465   2.194   2.175   1.080  2.1186 -0.4732  1.5090
 2002SOL    HW217466   2.219   2.040   1.018  0.9477  0.2364  3.2567
 2003SOL     OW17467   2.485   1.636  15.487 -0.0828  0.0690 -0.3481
 2003SOL    HW117468   2.513   1.549  15.460  0.4478 -0.1159  0.8116
 2003SOL    HW217469   2.490   1.630  15.582 -0.2480 -0.4457 -0.3754
 2004SOL     OW17470   4.375   3.267   8.581 -0.3968 -0.5968 -0.2457
 2004SOL    HW117471   4.425   3.339   8.618 -1.3758 -0.0780  0.0591
 2004SOL    HW217472   4.301   3.262   8.641  0.0085 -0.9815  0.2205
 2005SOL     OW17473   3.196   2.347   6.836  0.3433 -0.3814 -0.2100
 2005SOL    HW117474   3.231   2.423   6.791  2.7613 -1.6767 -0.4978
 2005SOL    HW217475   3.232   2.357   6.924  1.5203 -1.2246 -0.6031
 2006SOL     OW17476   1.407   0.128  17.582 -0.0589 -0.4947 -0.2639
 2006SOL    HW117477   1.381   0.095  17.669  1.6156 -2.4787 -0.5035
 2006SOL    HW217478   1.484   0.183  17.593  1.5153 -2.8695  0.7091
 2007SOL     OW17479   2.221   3.505  12.907 -0.3811 -0.2049  0.2953
 2007SOL    HW117480   2.161   3.480  12.977 -1.2085 -0.9425 -0.6748
 2007SOL    HW217481   2.256   3.426  12.866  2.2814  0.9474  0.3649
 2008SOL     OW17482   4.496   2.026   4.717 -0.5038  0.6996  0.3263
 2008SOL    HW117483   4.521   2.094   4.654 -0.3550 -0.4164 -0.8127
 2008SOL    HW217484   4.485   2.086   4.791 -0.5269 -0.5628  1.3381
 2009SOL     OW17485   1.387   3.824   7.516 -0.3127  0.0949  0.3974
 2009SOL    HW117486   1.473   3.863   7.504 -0.0206 -0.5826  0.3288
 2009SOL    HW217487   1.409   3.731   7.520 -0.4668  0.1213  1.8556
 2010SOL     OW17488   0.426   3.865   5.243 -0.0846  0.4776  0.0398
 2010SOL    HW117489   0.357   3.875   5.177  0.3040  1.1799 -0.2542
 2010SOL    HW217490   0.443   3.957   5.263  0.8048  0.2488  0.3057
 2011SOL     OW17491   0.533   3.180   2.413  0.0700  0.0771 -0.2588
 2011SOL    HW117492   0.530   3.107   2.351 -3.6161  1.3654 -1.5565
 2011SOL    HW217493   0.445   3.217   2.406  1.8304  3.8952 -2.1483
 2012SOL     OW17494   4.545   1.047   5.098 -0.4157  0.4219  0.0687
 2012SOL    HW117495   4.614   1.053   5.032 -1.1041 -2.6525 -0.9248
 2012SOL    HW217496   4.589   0.999   5.169  2.4805  1.0234 -1.3128
 2013SOL     OW17497   1.480   2.198   1.686 -0.0062  0.3463  0.1009
 2013SOL    HW117498   1.412   2.247   1.639  0.1940  0.3128 -0.2266
 2013SOL    HW217499   1.449   2.196   1.776  1.4822 -1.2537  0.5948
 2014SOL     OW17500   0.977   2.251   3.798 -0.2135  0.1939  0.5207
 2014SOL    HW117501   0.963   2.269   3.705  1.0682  1.4209  0.5609
 2014SOL    HW217502   1.071   2.235   3.803 -0.1177  0.1573 -1.4936
 2015SOL     OW17503   0.860   2.348   8.419 -0.1962 -0.1760  0.2409
 2015SOL    HW117504   0.869   2.379   8.329 -1.1833  0.9266  0.5364
 2015SOL    HW217505   0.904   2.262   8.416 -0.7855 -0.5242  1.5850
 2016SOL     OW17506   3.114   1.058   5.147  0.2246 -0.4008 -0.1346
 2016SOL    HW117507   3.201   1.056   5.107  1.5508  4.1210  2.4548
 2016SOL    HW217508   3.079   1.146   5.132  1.6231  0.0417 -0.7977
 2017SOL     OW17509   0.937   0.510   4.886 -0.3088 -0.5150  0.1522
 2017SOL    HW117510   0.967   0.454   4.815  1.9208  2.0199 -0.9116
 2017SOL    HW217511   0.863   0.460   4.922 -0.7729 -0.2786 -0.4632
 2018SOL     OW17512   3.468   3.434   4.940 -0.0684  0.8395 -0.3599
 2018SOL    HW117513   3.464   3.506   5.003  1.4013 -1.6717  2.5758
 2018SOL    HW217514   3.377   3.409   4.922 -0.1360  0.8308  0.0064
 2019SOL     OW17515   4.351   0.181   0.861  0.2807 -0.0272 -0.2522
 2019SOL    HW117516   4.430   0.128   0.851 -2.3779 -3.4918 -2.6754
 2019SOL    HW217517   4.385   0.270   0.869  2.4208 -0.9230  0.4320
 2020SOL     OW17518   1.436   4.558   7.009  0.4362 -0.8279  0.1285
 2020SOL    HW117519   1.524   4.585   7.038 -0.3581 -0.1866  1.9410
 2020SOL    HW217520   1.389   4.617   7.068  3.2347 -0.1339  1.7078
 2021SOL     OW17521   3.057   1.154   8.082 -0.1212 -0.2961 -0.1348
 2021SOL    HW117522   3.067   1.162   8.177  2.1643 -0.8613 -0.3123
 2021SOL    HW217523   3.135   1.204   8.056 -1.3704  0.4731 -2.3480
 2022SOL     OW17524   1.060   2.215  15.343 -0.1293  0.2461  0.1447
 2022SOL    HW117525   1.131   2.169  15.298 -0.3141 -0.8577  0.9659
 2022SOL    HW217526   1.078   2.212  15.437  1.4923  1.6163 -0.1124
 2023SOL     OW17527   3.540   0.691  14.343  0.5954 -0.2109 -0.0896
 2023SOL    HW117528   3.459   0.642  14.355  1.6942 -1.8930  0.5568
 2023SOL    HW217529   3.514   0.752  14.274 -0.2846 -0.8868 -0.3560
 2024SOL     OW17530   1.921   3.782   3.395  0.6393 -0.3214  0.7577
 2024SOL    HW117531   1.914   3.835   3.475  1.7967  0.6264  0.2254
 2024SOL    HW217532   2.006   3.741   3.411  1.3409  0.4808 -1.0358
 2025SOL     OW17533   2.284   3.510   4.768  0.0635 -0.1772  0.2515
 2025SOL    HW117534   2.218   3.521   4.699  1.8915  0.8590 -1.3311
 2025SOL    HW217535   2.264   3.574   4.837  0.1166  1.5163 -1.2995
 2026SOL     OW17536   2.020   3.370   5.172  0.0480 -0.2251 -0.0480
 2026SOL    HW117537   1.949   3.368   5.236  0.2238  1.7243  0.2032
 2026SOL    HW217538   1.976   3.344   5.091  0.5340 -0.6050 -0.1885
 2027SOL     OW17539   0.142   1.797  16.058 -0.3434 -0.5292 -0.5037
 2027SOL    HW117540   0.207   1.745  16.106  0.0396 -0.5252 -1.0179
 2027SOL    HW217541   0.112   1.730  15.997  1.9561  0.4346 -2.7208
 2028SOL     OW17542   0.829   2.887  13.111  0.1338  0.5423 -0.1454
 2028SOL    HW117543   0.826   2.980  13.089 -1.6076  0.2735 -1.0719
 2028SOL    HW217544   0.920   2.874  13.084  0.1480 -0.8287  0.5697
 2029SOL     OW17545   3.230   3.281  11.970 -0.8122 -0.3026  0.3649
 2029SOL    HW117546   3.210   3.321  12.054  1.4833  0.8801  0.3567
 2029SOL    HW217547   3.192   3.196  11.992 -1.8421 -0.1329 -0.7198
 2030SOL     OW17548   3.289   0.553   1.995 -0.2306  0.3197 -0.3965
 2030SOL    HW117549   3.277   0.568   1.901  0.9173  2.3482 -0.2333
 2030SOL    HW217550   3.205   0.518   2.024  0.1456 -0.4110 -0.1769
 2031SOL     OW17551   0.315   2.502   5.460 -0.4992 -0.4642 -0.0817
 2031SOL    HW117552   0.407   2.531   5.457  0.0747 -2.1564  0.9658
 2031SOL    HW217553   0.332   2.434   5.526  0.3070 -0.3468 -0.1603
 2032SOL     OW17554   2.201   1.657   2.477  0.0964  0.0317  0.1909
 2032SOL    HW117555   2.194   1.589   2.545  0.4517  0.1619  0.3571
 2032SOL    HW217556   2.126   1.715   2.484  0.2035  0.0925  0.8480
 2033SOL     OW17557   2.283   1.915   7.425 -0.3121 -0.1556  0.0434
 2033SOL    HW117558   2.324   1.980   7.483  2.6103 -3.2685  1.4642
 2033SOL    HW217559   2.244   1.847   7.480  0.4372  0.5900  1.5155
 2034SOL     OW17560   3.794   2.812  15.291 -0.1086 -0.6215  0.0936
 2034SOL    HW117561   3.823   2.881  15.351  1.2308 -1.2150  0.1305
 2034SOL    HW217562   3.745   2.756  15.352  2.2790 -2.3822  0.3955
 2035SOL     OW17563   2.192   2.329   3.781 -0.0922  0.3296 -0.4854
 2035SOL    HW117564   2.119   2.383   3.753 -0.9039 -0.4878  0.0322
 2035SOL    HW217565   2.195   2.339   3.876  0.4044 -0.1534 -0.4449
 2036SOL     OW17566   2.840   1.458  15.070 -0.7150 -0.6529  0.3016
 2036SOL    HW117567   2.903   1.431  15.003 -2.3616  1.1269 -1.9858
 2036SOL    HW217568   2.761   1.418  15.033 -0.2828 -1.6711  0.4726
 2037SOL     OW17569   3.755   3.129  10.410 -0.0325 -0.3539  0.7419
 2037SOL    HW117570   3.839   3.097  10.376  0.1994 -1.2763  2.2063
 2037SOL    HW217571   3.739   3.070  10.484 -1.3050 -0.8437  0.0805
 2038SOL     OW17572   3.285   2.975   7.647  0.4081  0.4917  0.6796
 2038SOL    HW117573   3.309   2.967   7.555 -2.3724  0.7083 -0.0478
 2038SOL    HW217574   3.192   2.993   7.633  0.8380  2.2124  0.1028
 2039SOL     OW17575   3.756   1.064  15.387  0.8644 -0.6030  0.4893
 2039SOL    HW117576   3.827   1.001  15.398  0.7054 -0.7306  0.7874
 2039SOL    HW217577   3.730   1.037  15.300 -0.2592 -2.2150  1.3297
 2040SOL     OW17578   2.344   4.495   6.854 -0.2917  0.6484 -0.1083
 2040SOL    HW117579   2.291   4.573   6.834  0.5977  1.1302 -0.5820
 2040SOL    HW217580   2.311   4.431   6.791  0.6683 -0.6898  0.7356
 2041SOL     OW17581   1.836   1.013   3.633  0.3243  0.0380 -0.4650
 2041SOL    HW117582   1.901   1.062   3.583 -0.2109  1.2026 -0.0223
 2041SOL    HW217583   1.897   0.949   3.670  0.0383  1.0703  1.8057
 2042SOL     OW17584   2.281   2.138   3.583  0.1932  0.4577 -0.2547
 2042SOL    HW117585   2.260   2.070   3.647  1.6423  0.4831  0.2571
 2042SOL    HW217586   2.257   2.213   3.637  2.7864  1.7516 -0.9164
 2043SOL     OW17587   1.556   1.338   7.750 -0.0734  0.0341  0.2375
 2043SOL    HW117588   1.547   1.302   7.661  0.7135 -1.0273  0.5851
 2043SOL    HW217589   1.543   1.430   7.727 -0.9262 -0.0118  0.5188
 2044SOL     OW17590   0.656   1.123   4.874 -0.9239 -0.1100  0.4662
 2044SOL    HW117591   0.580   1.111   4.931 -0.4248  0.9210  1.3333
 2044SOL    HW217592   0.631   1.111   4.782  1.1745 -0.1528 -0.1016
 2045SOL     OW17593   2.194   3.597   5.788 -0.0106 -0.4778  0.0392
 2045SOL    HW117594   2.176   3.602   5.694 -0.4643  0.9398  0.1999
 2045SOL    HW217595   2.286   3.571   5.782  0.2438  0.6034 -0.8685
 2046SOL     OW17596   3.797   3.002   1.137 -0.3732 -0.1466  0.2236
 2046SOL    HW117597   3.752   2.994   1.053 -0.0859 -0.9535  0.1441
 2046SOL    HW217598   3.776   3.094   1.155  0.3038  0.2013 -0.7461
 2047SOL     OW17599   2.432   4.692   3.880  0.0938 -0.0045  0.3194
 2047SOL    HW117600   2.515   4.714   3.837 -0.6485 -0.5832 -1.4098
 2047SOL    HW217601   2.440   0.034   3.947  1.0671  0.2036 -0.0033
 2048SOL     OW17602   2.455   1.829   8.384 -0.1554 -0.4600  0.4212
 2048SOL    HW117603   2.390   1.761   8.402 -0.3704 -0.5758 -0.7838
 2048SOL    HW217604   2.442   1.883   8.462 -0.1771  0.1525  0.0012
 2049SOL     OW17605   2.054   4.261  13.109  0.6471  0.5333 -0.0199
 2049SOL    HW117606   2.092   4.175  13.127  2.3330  0.5052 -3.5744
 2049SOL    HW217607   2.040   4.249  13.015 -1.3258  0.2547  0.3238
 2050SOL     OW17608   0.197   3.207   7.430 -0.1869 -0.0125  0.7981
 2050SOL    HW117609   0.205   3.112   7.435 -1.2302 -0.1090  0.6846
 2050SOL    HW217610   0.284   3.233   7.399 -0.4670 -2.2411 -1.8117
 2051SOL     OW17611   0.163   2.589   7.918  0.0930 -0.2958 -0.1223
 2051SOL    HW117612   0.113   2.615   7.996  0.7389  1.2834 -0.2259
 2051SOL    HW217613   0.144   2.497   7.903 -1.5727  0.2363 -1.4655
 2052SOL     OW17614   2.323   3.214   7.319 -0.2457 -0.2721 -0.1278
 2052SOL    HW117615   2.321   3.291   7.376 -1.4665 -2.6892  3.0939
 2052SOL    HW217616   2.402   3.234   7.270  0.0518  0.3286  0.6007
 2053SOL     OW17617   1.599   0.204  10.347  0.2322  0.2434 -0.3001
 2053SOL    HW117618   1.586   0.293  10.378 -2.2672 -0.0970 -0.3770
 2053SOL    HW217619   1.603   0.215  10.252 -2.4169  2.7629 -0.0941
 2054SOL     OW17620   0.254   3.450   8.063  0.6959  0.2539 -0.2513
 2054SOL    HW117621   0.263   3.515   8.132  0.2479 -0.2837  0.3207
 2054SOL    HW217622   0.183   3.480   8.006  1.2756 -1.0726 -1.6541
 2055SOL     OW17623   0.861   2.168   8.840 -0.2766  0.4276  0.3213
 2055SOL    HW117624   0.920   2.200   8.908 -0.8079  0.6840  0.6621
 2055SOL    HW217625   0.781   2.214   8.864 -1.3042 -0.2286 -1.8604
 2056SOL     OW17626   2.619   3.732   6.571 -0.0917 -0.3262  0.0661
 2056SOL    HW117627   2.604   3.642   6.544  2.1340 -0.7289  0.1574
 2056SOL    HW217628   2.710   3.739   6.543 -0.5027  0.7850 -1.0078
 2057SOL     OW17629   1.340   0.255   8.705 -0.1041  0.3449  0.6123
 2057SOL    HW117630   1.253   0.285   8.679  0.0468  0.5770  0.3697
 2057SOL    HW217631   1.332   0.162   8.723  0.4218  0.3104  0.6809
 2058SOL     OW17632   4.690   3.213   3.327 -0.6660  0.3604 -0.6485
 2058SOL    HW117633   0.053   3.181   3.312 -0.6773 -0.3929  0.9284
 2058SOL    HW217634   4.701   3.276   3.397 -0.1457  0.3524 -0.7229
 2059SOL     OW17635   0.920   3.715  10.321 -0.2148 -0.7214 -0.4443
 2059SOL    HW117636   1.000   3.702  10.271  0.4977  1.0572  0.2355
 2059SOL    HW217637   0.860   3.676  10.257  0.8691 -1.4874 -0.9917
 2060SOL     OW17638   2.788   0.282  10.952  0.1399 -0.1144 -0.6177
 2060SOL    HW117639   2.761   0.258  10.863  0.8190  0.7294 -1.0609
 2060SOL    HW217640   2.705   0.277  10.998 -1.0980 -0.7398 -2.9125
 2061SOL     OW17641   2.209   3.304  11.034  0.2505  0.3656 -0.1326
 2061SOL    HW117642   2.165   3.288  11.118  0.2695  3.7999  0.5182
 2061SOL    HW217643   2.301   3.309  11.062  0.1675  1.3281 -0.0502
 2062SOL     OW17644   0.165   2.776   4.243  0.7804 -0.2455 -0.2520
 2062SOL    HW117645   0.258   2.798   4.251  0.3409  1.4493  0.0283
 2062SOL    HW217646   0.118   2.835   4.302  0.5604  1.5142 -2.1972
 2063SOL     OW17647   2.447   0.933   6.624 -0.0185 -0.1260 -0.1282
 2063SOL    HW117648   2.490   1.008   6.666 -0.5398 -0.5803  1.2119
 2063SOL    HW217649   2.357   0.962   6.633  0.5335  1.9635 -1.1985
 2064SOL     OW17650   4.553   1.365   6.359  0.4942 -0.0647  0.2270
 2064SOL    HW117651   4.464   1.354   6.325  1.0911  1.3443 -1.8253
 2064SOL    HW217652   4.535   1.454   6.392  1.4176  0.1322  0.1874
 2065SOL     OW17653   4.367   4.001   7.770 -0.4759  0.1118 -0.5528
 2065SOL    HW117654   4.348   3.952   7.850  0.1550 -0.6006 -0.8431
 2065SOL    HW217655   4.360   4.095   7.787  3.7121 -0.2681  3.2939
 2066SOL     OW17656   3.143   0.835   9.034 -0.2358 -0.2605 -0.5183
 2066SOL    HW117657   3.204   0.829   9.107  0.2224 -0.2081 -0.8926
 2066SOL    HW217658   3.101   0.918   9.057 -0.2734 -0.0209 -1.4347
 2067SOL     OW17659   1.747   3.066  15.892  0.4973 -0.5951  0.8628
 2067SOL    HW117660   1.723   3.148  15.936  0.1988 -1.3439  2.1153
 2067SOL    HW217661   1.767   3.006  15.964  1.5638 -1.4396 -0.1387
 2068SOL     OW17662   3.477   3.823   2.206  0.5549  0.0054  0.0558
 2068SOL    HW117663   3.481   3.911   2.243  2.2239 -0.2529  0.4796
 2068SOL    HW217664   3.417   3.786   2.271  0.0293 -0.4797 -0.7065
 2069SOL     OW17665   2.522   1.269  11.283  0.1138 -0.0515 -0.1625
 2069SOL    HW117666   2.493   1.356  11.308 -0.1867 -0.3884  0.6432
 2069SOL    HW217667   2.599   1.252  11.337  0.0780 -0.2260 -0.1660
 2070SOL     OW17668   0.873   3.189  13.509  0.0326  0.2107  0.5855
 2070SOL    HW117669   0.841   3.236  13.432 -2.3139 -0.0159  1.4269
 2070SOL    HW217670   0.799   3.138  13.541  0.8026 -0.6316  0.9895
 2071SOL     OW17671   1.266   3.446   4.825 -0.0981  0.4269  0.3525
 2071SOL    HW117672   1.269   3.368   4.769  2.5420  0.1608  0.8648
 2071SOL    HW217673   1.359   3.471   4.832  0.2454 -0.8979  0.4638
 2072SOL     OW17674   2.518   1.144   6.755 -0.0424  0.1615  0.3572
 2072SOL    HW117675   2.525   1.239   6.767  0.5985 -0.0037  1.2984
 2072SOL    HW217676   2.593   1.134   6.813 -0.7486  3.1619  1.8182
 2073SOL     OW17677   1.083   0.715   6.986 -0.3564 -0.2866 -0.1914
 2073SOL    HW117678   1.156   0.772   6.963 -0.4665 -0.7683 -1.7494
 2073SOL    HW217679   1.120   0.627   6.981  0.5046  0.0310  0.5746
 2074SOL     OW17680   0.368   3.771   0.666 -1.0931 -1.1518 -0.5473
 2074SOL    HW117681   0.454   3.812   0.655 -1.4103 -0.5429 -0.7646
 2074SOL    HW217682   0.384   3.684   0.628  1.0475 -0.2749 -1.6929
 2075SOL     OW17683   0.350   4.152  10.006 -0.6931 -0.4462  0.4244
 2075SOL    HW117684   0.442   4.129  10.017 -0.5061 -1.0429 -2.2888
 2075SOL    HW217685   0.311   4.067  10.024 -2.9933  0.4434 -0.2735
 2076SOL     OW17686   4.245   0.680   0.095 -0.6577  0.1077 -0.4229
 2076SOL    HW117687   4.257   0.772   0.071  1.7441 -0.3651 -1.0035
 2076SOL    HW217688   4.150   0.671   0.094 -0.5029 -1.6258  0.0334
 2077SOL     OW17689   0.515   1.349   3.180  0.3868 -0.1006 -0.1146
 2077SOL    HW117690   0.526   1.402   3.259 -0.1301  1.1902 -0.9082
 2077SOL    HW217691   0.445   1.287   3.203 -1.6824  1.6761 -1.5772
 2078SOL     OW17692   0.430   0.223   0.795  0.8713  0.2699  0.1206
 2078SOL    HW117693   0.407   0.254   0.883 -0.5069  0.1648 -0.2030
 2078SOL    HW217694   0.371   0.273   0.739 -0.6429 -1.6479  0.0068
 2079SOL     OW17695   3.036   2.920  14.749  0.4878 -0.4908 -0.8005
 2079SOL    HW117696   2.958   2.867  14.768  0.3362 -0.1518 -0.4802
 2079SOL    HW217697   3.107   2.856  14.741  0.0792 -0.9298 -0.9044
 2080SOL     OW17698   2.360   2.443   8.262 -0.0826 -0.2947  0.4546
 2080SOL    HW117699   2.328   2.513   8.319  0.0772  0.5675 -0.5138
 2080SOL    HW217700   2.287   2.381   8.260 -0.9184  0.6260  1.9623
 2081SOL     OW17701   1.272   3.182   5.389  0.2865 -0.0018  0.5333
 2081SOL    HW117702   1.293   3.146   5.303  0.2688 -0.8557  0.8855
 2081SOL    HW217703   1.246   3.267   5.356 -1.0429  0.6375  3.2029
 2082SOL     OW17704   3.532   4.051   9.689  0.4198  0.4045  0.2810
 2082SOL    HW117705   3.455   4.007   9.724  0.2685  0.1181 -0.4207
 2082SOL    HW217706   3.583   3.971   9.679 -0.1140  0.2619 -1.2528
 2083SOL     OW17707   1.099   1.647   9.079 -0.5938  0.8218 -0.2402
 2083SOL    HW117708   1.185   1.686   9.092 -0.6830  1.1929 -0.7681
 2083SOL    HW217709   1.064   1.676   9.164 -1.4443 -0.6824 -0.0745
 2084SOL     OW17710   3.704   2.167   2.767  0.6531 -0.4696 -0.2325
 2084SOL    HW117711   3.744   2.083   2.746  0.2801 -1.1327  1.6473
 2084SOL    HW217712   3.733   2.209   2.686  0.5028 -0.9098 -0.5150
 2085SOL     OW17713   0.829   2.398  15.295 -0.0485  0.3389  0.1574
 2085SOL    HW117714   0.887   2.463  15.254 -0.8807  0.0486 -1.4993
 2085SOL    HW217715   0.878   2.317  15.281  1.0578  0.8460  1.0822
 2086SOL     OW17716   1.497   2.973   3.087  0.0714  0.0592  0.1601
 2086SOL    HW117717   1.423   3.026   3.059  1.0244  0.8892 -0.7850
 2086SOL    HW217718   1.468   2.890   3.050 -2.0363  0.0501  1.8649
 2087SOL     OW17719   2.714   0.459   4.279 -0.0862  0.1805 -0.1123
 2087SOL    HW117720   2.620   0.455   4.262 -0.1265  0.0324  0.1449
 2087SOL    HW217721   2.722   0.496   4.191  3.1154  1.0366  0.5039
 2088SOL     OW17722   1.839   3.450   6.818  0.0051 -0.1938  0.1043
 2088SOL    HW117723   1.778   3.376   6.809 -1.7282  1.4359 -1.3522
 2088SOL    HW217724   1.853   3.456   6.913 -2.7049 -0.8962  0.5560
 2089SOL     OW17725   1.103   2.455   6.559 -0.0595  0.3755  0.4950
 2089SOL    HW117726   1.100   2.485   6.468  0.6434  0.4691  0.5033
 2089SOL    HW217727   1.105   2.360   6.549 -0.9043  0.4738 -0.5747
 2090SOL     OW17728   1.426   2.008   2.314 -0.0206  0.8684 -0.0814
 2090SOL    HW117729   1.342   2.001   2.360  1.7310  1.2523  3.2100
 2090SOL    HW217730   1.447   2.102   2.322  2.3235  0.4293 -1.1890
 2091SOL     OW17731   2.313   3.944   7.374 -0.1860  0.2985  0.1036
 2091SOL    HW117732   2.277   3.865   7.414  0.2537  0.4031  0.7033
 2091SOL    HW217733   2.319   4.008   7.445 -0.2276 -0.2225  0.5778
 2092SOL     OW17734   0.992   0.058   2.339 -0.2316  0.0159  0.5966
 2092SOL    HW117735   0.983   4.714   2.404 -1.6329 -0.1401  0.2298
 2092SOL    HW217736   1.088   0.056   2.329 -0.6367  1.7063 -3.7406
 2093SOL     OW17737   2.639   2.527   7.147  0.4235 -0.1181 -0.0352
 2093SOL    HW117738   2.632   2.579   7.066 -3.8180 -1.2909 -0.4254
 2093SOL    HW217739   2.552   2.487   7.137 -0.3285  1.6828 -0.8839
 2094SOL     OW17740   1.491   1.705   6.496  0.0864 -0.1783 -0.1647
 2094SOL    HW117741   1.519   1.686   6.585 -1.0313 -1.0909  0.0053
 2094SOL    HW217742   1.506   1.798   6.485  0.8005 -0.0703  1.8477
 2095SOL     OW17743   3.811   1.701  14.876 -0.2363 -0.2888 -0.2067
 2095SOL    HW117744   3.891   1.721  14.926 -1.2628  1.4884  0.7086
 2095SOL    HW217745   3.796   1.769  14.811  0.0233 -1.2870 -1.3029
 2096SOL     OW17746   2.658   1.300   1.017  0.3884  0.5657 -0.0969
 2096SOL    HW117747   2.571   1.271   0.989  0.3327  2.1971 -1.5705
 2096SOL    HW217748   2.715   1.247   0.961  0.3368  0.9262 -0.4924
 2097SOL     OW17749   4.032   4.256   3.608 -0.1867  0.1598 -0.2997
 2097SOL    HW117750   3.937   4.255   3.617 -0.2400 -1.1692 -0.9322
 2097SOL    HW217751   4.048   4.166   3.578  1.2707  1.0140 -2.0738
 2098SOL     OW17752   3.817   2.947  15.555  0.3621  0.2784  0.7692
 2098SOL    HW117753   3.887   3.010  15.575  0.3510  1.1951 -2.0613
 2098SOL    HW217754   3.745   2.988  15.604 -0.9895 -2.0757  0.7465
 2099SOL     OW17755   1.521   4.048   5.741  0.8180  0.5547  0.0166
 2099SOL    HW117756   1.564   4.004   5.815 -0.4971  1.7047  1.4736
 2099SOL    HW217757   1.432   4.064   5.771  0.1483 -0.5944 -1.3768
 2100SOL     OW17758   4.251   1.246   8.030  0.1676 -0.4562  0.1949
 2100SOL    HW117759   4.276   1.227   7.939 -0.8837  0.5908 -0.3052
 2100SOL    HW217760   4.275   1.164   8.075  2.5117  0.1658  0.1044
 2101SOL     OW17761   3.743   2.424   5.843  0.2884  0.1458 -0.0085
 2101SOL    HW117762   3.684   2.393   5.775  1.5659  1.8511 -1.8960
 2101SOL    HW217763   3.676   2.420   5.911  0.2835 -2.2511 -0.1450
 2102SOL     OW17764   0.086   0.912   5.568 -0.3159  0.1923  0.5100
 2102SOL    HW117765   0.105   0.940   5.657  0.6414  3.3602 -0.7095
 2102SOL    HW217766   4.715   0.911   5.563 -0.2444 -3.9591 -0.1310
 2103SOL     OW17767   0.780   2.841  13.407  0.0342 -0.0223 -0.2379
 2103SOL    HW117768   0.807   2.861  13.318  0.2253 -0.7167 -0.3324
 2103SOL    HW217769   0.726   2.916  13.431  1.3120  1.1651 -1.0483
 2104SOL     OW17770   3.824   0.271   7.540  0.1527  0.1199 -0.3324
 2104SOL    HW117771   3.830   0.309   7.628 -1.4037  0.7303 -0.4893
 2104SOL    HW217772   3.731   0.246   7.548 -0.3395  1.3857 -2.0916
 2105SOL     OW17773   0.576   2.824   2.775 -0.3657  0.0483  0.4611
 2105SOL    HW117774   0.666   2.810   2.746 -0.8193  0.5896 -1.1846
 2105SOL    HW217775   0.566   2.911   2.737 -0.1431  0.1284  0.5840
 2106SOL     OW17776   0.289   2.322   7.965 -0.0452  0.2478  0.3905
 2106SOL    HW117777   0.351   2.256   7.934  0.4532  0.9921 -0.1810
 2106SOL    HW217778   0.340   2.400   7.947  0.9482 -0.5767 -0.3611
 2107SOL     OW17779   4.123   3.010   8.324  0.2837  0.4787 -0.1162
 2107SOL    HW117780   4.173   3.031   8.245  2.9444  0.8753  1.6487
 2107SOL    HW217781   4.037   3.043   8.301  0.2171  0.6777  0.4267
 2108SOL     OW17782   1.389   3.467  13.007 -0.5623  0.4018  0.0784
 2108SOL    HW117783   1.463   3.409  13.019 -0.4899  0.1033 -1.7878
 2108SOL    HW217784   1.340   3.441  13.085  0.7445  0.4113  0.9054
 2109SOL     OW17785   0.974   1.112  13.000 -0.7155 -0.2279 -0.6218
 2109SOL    HW117786   1.045   1.052  13.022 -1.2848 -0.8630 -0.5240
 2109SOL    HW217787   0.910   1.082  13.064 -0.8545  0.1008 -0.6043
 2110SOL     OW17788   4.210   1.240   4.828 -0.4772 -0.0933  0.1096
 2110SOL    HW117789   4.165   1.270   4.749 -0.0062  0.0294 -0.1108
 2110SOL    HW217790   4.207   1.146   4.809 -0.6224 -0.1600  0.4763
 2111SOL     OW17791   2.396   3.016   7.902  0.2749 -0.3532 -0.2513
 2111SOL    HW117792   2.383   2.957   7.975  1.3464 -2.2109 -1.5633
 2111SOL    HW217793   2.304   3.042   7.894 -0.5343 -2.7054  1.6914
 2112SOL     OW17794   0.369   0.913   0.224  0.0322 -0.0131 -0.0550
 2112SOL    HW117795   0.427   0.843   0.194  0.8253 -0.2887  2.1504
 2112SOL    HW217796   0.416   0.986   0.184 -0.7833 -0.0115 -1.0067
 2113SOL     OW17797   0.863   1.307   8.796  0.2501  0.1247  0.0777
 2113SOL    HW117798   0.798   1.345   8.856  0.7741  2.2085 -0.6851
 2113SOL    HW217799   0.948   1.312   8.839 -0.1093 -0.2765  0.8448
 2114SOL     OW17800   3.331   0.057   8.220  0.0409  0.0088  0.3870
 2114SOL    HW117801   3.386   0.129   8.187  0.4266 -0.3918  0.1540
 2114SOL    HW217802   3.381   0.025   8.294  3.0362  2.1568 -0.7099
 2115SOL     OW17803   0.100   1.871   0.561 -0.0631 -0.4736  0.6155
 2115SOL    HW117804   0.108   1.805   0.492 -2.4832 -0.2491  0.1345
 2115SOL    HW217805   0.179   1.840   0.607 -0.1304 -0.4419  0.7513
 2116SOL     OW17806   2.778   1.494   1.520 -0.2554  0.7772 -0.9546
 2116SOL    HW117807   2.714   1.556   1.554 -1.5522 -1.3670  0.4722
 2116SOL    HW217808   2.816   1.543   1.446 -1.4477 -0.5676 -2.4511
 2117SOL     OW17809   2.329   1.620   5.902  0.0752 -0.6547 -0.0406
 2117SOL    HW117810   2.393   1.644   5.835 -0.8588 -3.0556 -1.7919
 2117SOL    HW217811   2.270   1.695   5.906  0.1621 -0.5519 -0.6868
 2118SOL     OW17812   0.800   2.097   0.397  0.7744  0.1416  0.2287
 2118SOL    HW117813   0.777   2.169   0.338 -2.3347  0.2280  1.5726
 2118SOL    HW217814   0.778   2.028   0.335  0.4840  1.3985 -1.0574
 2119SOL     OW17815   1.134   1.921   3.748 -0.2586 -0.6975  0.2202
 2119SOL    HW117816   1.204   1.883   3.694  0.3278 -0.0231  0.5043
 2119SOL    HW217817   1.053   1.882   3.716  0.7909 -1.1626 -1.9090
 2120SOL     OW17818   3.229   1.774   7.955  0.0857  0.2613  0.4738
 2120SOL    HW117819   3.294   1.836   7.987  2.2472 -1.2155 -1.0508
 2120SOL    HW217820   3.149   1.821   7.978 -1.5729 -1.7044 -1.2756
 2121SOL     OW17821   0.172   4.641  14.931  0.4887 -0.2667 -0.1188
 2121SOL    HW117822   0.214   4.702  14.991 -0.5487  1.5377 -1.2142
 2121SOL    HW217823   0.223   4.564  14.957  1.3534  0.8722  1.5435
 2122SOL     OW17824   0.634   2.387   9.665  0.0869 -0.4068  0.1196
 2122SOL    HW117825   0.553   2.335   9.660 -1.1914  1.5847  0.2171
 2122SOL    HW217826   0.687   2.319   9.707  0.5673  0.0189  0.1922
 2123SOL     OW17827   2.996   1.042   1.320  0.1899 -0.1788  0.2739
 2123SOL    HW117828   3.091   1.056   1.317  0.2238 -0.7919 -1.5001
 2123SOL    HW217829   2.968   1.134   1.319 -0.6357 -0.4392 -0.1055
 2124SOL     OW17830   2.804   3.991   3.336 -0.2987  0.4211  0.5690
 2124SOL    HW117831   2.780   3.999   3.428 -0.6753  1.5963  0.3703
 2124SOL    HW217832   2.893   3.957   3.345 -0.4864 -0.1064  0.3866
 2125SOL     OW17833   2.688   0.260   1.462 -0.5074 -0.3204  0.2134
 2125SOL    HW117834   2.702   0.184   1.519 -1.7956 -0.9756 -0.3300
 2125SOL    HW217835   2.624   0.308   1.516 -0.2205 -0.5806  0.7780
 2126SOL     OW17836   0.027   1.676   4.531  0.0885  0.6984  0.3146
 2126SOL    HW117837   0.001   1.647   4.443 -0.7937 -0.7328  1.0478
 2126SOL    HW217838   0.111   1.709   4.498  0.6343 -0.6377  0.3586
 2127SOL     OW17839   2.989   1.276   6.597  0.0421  0.2726  0.0175
 2127SOL    HW117840   2.952   1.270   6.509  0.0281 -2.2737  0.1987
 2127SOL    HW217841   2.916   1.325   6.636 -1.7350 -1.0766 -1.6065
 2128SOL     OW17842   2.591   2.673   5.002 -0.0972  0.1151 -0.1675
 2128SOL    HW117843   2.576   2.682   4.908  1.6125 -0.1711 -0.4613
 2128SOL    HW217844   2.679   2.710   5.010 -0.6592  1.7794 -1.5640
 2129SOL     OW17845   1.342   2.391   7.057 -0.2471  0.0800  0.2904
 2129SOL    HW117846   1.401   2.322   7.027 -0.9496 -1.4767  2.5254
 2129SOL    HW217847   1.292   2.359   7.132 -0.8763 -0.8339 -0.5150
 2130SOL     OW17848   1.634   4.603  10.198 -0.0998 -0.3246  0.0425
 2130SOL    HW117849   1.684   4.537  10.149  0.3363 -0.4455  0.6351
 2130SOL    HW217850   1.710   4.646  10.239  0.2175 -0.2521 -0.6190
 2131SOL     OW17851   0.833   2.194   6.116 -0.3481 -0.5074  0.5078
 2131SOL    HW117852   0.892   2.267   6.136  1.5347 -2.0674  0.6025
 2131SOL    HW217853   0.846   2.187   6.021 -0.0447  0.8111  0.4540
 2132SOL     OW17854   4.397   3.010   4.932  0.1853 -0.0794  0.4990
 2132SOL    HW117855   4.441   2.931   4.901 -1.1048 -0.0522 -1.4524
 2132SOL    HW217856   4.384   2.991   5.025  1.3623 -3.4361 -0.0022
 2133SOL     OW17857   3.371   2.712   5.067  0.4530  0.1759 -0.2380
 2133SOL    HW117858   3.464   2.696   5.050  1.3395  3.4081  1.6264
 2133SOL    HW217859   3.345   2.623   5.047  0.2245  0.6923 -2.2845
 2134SOL     OW17860   0.686   2.430  13.451  0.5658 -0.4061  0.0942
 2134SOL    HW117861   0.745   2.406  13.523  1.3007  0.5317 -0.1876
 2134SOL    HW217862   0.726   2.383  13.378 -0.2963 -1.0421  0.0301
 2135SOL     OW17863   0.130   3.576  15.228 -0.0713  0.3148  0.4718
 2135SOL    HW117864   0.125   3.668  15.255  2.0406  0.5816 -0.0880
 2135SOL    HW217865   0.046   3.531  15.234  0.2026 -0.4661 -1.8096
 2136SOL     OW17866   3.931   3.946   3.248  0.4952 -0.6690 -0.5358
 2136SOL    HW117867   3.960   3.938   3.157  1.6457  0.3362 -0.2517
 2136SOL    HW217868   3.852   3.892   3.249 -1.0964  1.6928  0.1079
 2137SOL     OW17869   1.736   3.115  16.975  0.1838  0.3372 -0.3585
 2137SOL    HW117870   1.752   3.147  17.063 -1.3756  2.2454 -0.7715
 2137SOL    HW217871   1.819   3.077  16.946 -0.7015 -0.2737 -2.1511
 2138SOL     OW17872   2.337   1.155   5.953 -0.0363 -0.3237  0.4247
 2138SOL    HW117873   2.424   1.117   5.962 -1.3206 -3.5247 -0.3826
 2138SOL    HW217874   2.363   1.246   5.967  0.7712 -0.3138 -1.1736
 2139SOL     OW17875   2.736   0.547   4.900  0.5836  0.8286  0.6203
 2139SOL    HW117876   2.782   0.568   4.982  0.4790 -0.4319  1.0123
 2139SOL    HW217877   2.775   0.462   4.878  3.4395  2.0845  0.8933
 2140SOL     OW17878   4.141   1.123  14.056  0.2428 -0.5334  0.0759
 2140SOL    HW117879   4.214   1.112  13.995 -0.0291 -2.3741  0.0605
 2140SOL    HW217880   4.177   1.184  14.120 -0.3385 -1.2482  1.1002
 2141SOL     OW17881   3.633   2.042   9.218  0.1772 -0.3551 -0.0259
 2141SOL    HW117882   3.690   2.050   9.141  1.0131  0.5702  0.6992
 2141SOL    HW217883   3.602   1.951   9.220  1.7506 -0.7499  4.5467
 2142SOL     OW17884   3.437   0.332  12.532 -0.2431  0.3072  0.4814
 2142SOL    HW117885   3.479   0.396  12.474  0.8917  2.3420  3.5905
 2142SOL    HW217886   3.388   0.387  12.593 -0.3901  0.4748  0.2148
 2143SOL     OW17887   2.538   2.512  14.565  0.6580 -0.1841  0.1741
 2143SOL    HW117888   2.592   2.433  14.575 -0.3559 -0.6588  1.8097
 2143SOL    HW217889   2.472   2.497  14.632 -2.1486  1.9512 -2.1359
 2144SOL     OW17890   0.885   2.978   1.706  0.0134  0.3955 -0.3834
 2144SOL    HW117891   0.844   3.064   1.697 -0.5372  0.1451 -0.3183
 2144SOL    HW217892   0.836   2.934   1.776 -1.0373  0.4402 -1.0776
 2145SOL     OW17893   2.621   0.641   3.542  0.4513  0.2291 -0.8485
 2145SOL    HW117894   2.528   0.635   3.568  1.3207  0.0708  2.2761
 2145SOL    HW217895   2.611   0.663   3.450  3.3557  0.9814 -0.9657
 2146SOL     OW17896   0.121   2.160   5.517 -0.4527  0.3225  0.8667
 2146SOL    HW117897   0.153   2.099   5.584 -1.1712  0.2702  1.1580
 2146SOL    HW217898   0.134   2.243   5.563  2.1847  0.9613 -1.0313
 2147SOL     OW17899   2.334   3.558   1.261 -0.2254  0.1084 -0.0308
 2147SOL    HW117900   2.376   3.537   1.178 -1.9402  2.2184 -1.4451
 2147SOL    HW217901   2.248   3.577   1.223 -0.6748  1.5034  1.6470
 2148SOL     OW17902   1.407   0.498   9.013  0.4247 -0.0265 -0.8862
 2148SOL    HW117903   1.355   0.468   9.088  2.0463 -1.3668 -0.2949
 2148SOL    HW217904   1.475   0.529   9.072  1.4849  0.1186 -2.1915
 2149SOL     OW17905   3.773   1.008   3.623 -0.2024 -0.2081  0.2578
 2149SOL    HW117906   3.833   0.934   3.616  0.5028  0.3790  0.0129
 2149SOL    HW217907   3.767   1.037   3.714 -1.8295  3.8984 -1.1669
 2150SOL     OW17908   4.152   0.584   7.225  0.0207 -0.5989 -0.9396
 2150SOL    HW117909   4.091   0.533   7.279  0.1404 -2.5228 -2.6312
 2150SOL    HW217910   4.109   0.563   7.142  2.8821  0.4942 -2.6617
 2151SOL     OW17911   3.771   1.362   9.857 -0.0188 -0.1428  0.5487
 2151SOL    HW117912   3.774   1.413   9.776  0.7356 -2.6218 -1.0095
 2151SOL    HW217913   3.680   1.336   9.868 -0.5281  1.7542  0.7789
 2152SOL     OW17914   1.738   0.950   4.809 -0.0449  0.4434  0.1520
 2152SOL    HW117915   1.717   1.012   4.739 -2.2515 -1.6794 -1.0467
 2152SOL    HW217916   1.831   0.941   4.790  0.3757  1.6641  1.5739
 2153SOL     OW17917   3.563   3.089   6.411 -0.3834  0.1300  0.3257
 2153SOL    HW117918   3.627   3.128   6.470 -2.3211  1.7320  1.4215
 2153SOL    HW217919   3.523   3.175   6.392 -0.9160 -0.4533 -1.2216
 2154SOL     OW17920   1.746   0.653   7.422  0.7833  0.1181  0.1449
 2154SOL    HW117921   1.727   0.683   7.333 -0.4742 -0.7069  0.1262
 2154SOL    HW217922   1.757   0.562   7.395 -0.8795  0.0215 -0.2001
 2155SOL     OW17923   1.888   0.320   5.980  0.1336  0.2285 -0.0320
 2155SOL    HW117924   1.916   0.231   6.001  1.2909  0.7099  0.4290
 2155SOL    HW217925   1.792   0.322   5.987 -0.0341  0.8556 -2.3132
 2156SOL     OW17926   3.188   2.367  13.775  0.6376  0.5031 -0.3850
 2156SOL    HW117927   3.219   2.301  13.713  0.3070 -0.0790  0.0673
 2156SOL    HW217928   3.166   2.441  13.720 -0.3405 -0.3724 -1.1706
 2157SOL     OW17929   1.434   1.932   8.738 -0.1648  0.3093  0.2198
 2157SOL    HW117930   1.453   1.985   8.815  2.1301  2.4056 -1.8043
 2157SOL    HW217931   1.418   1.997   8.670 -2.1270  0.0490  0.4326
 2158SOL     OW17932   3.179   2.034   7.029 -0.4165 -0.3877 -0.0214
 2158SOL    HW117933   3.194   2.017   7.122 -0.4430 -0.9055 -0.1132
 2158SOL    HW217934   3.197   2.128   7.028 -1.0694 -0.2548  1.7109
 2159SOL     OW17935   0.194   0.855   0.410 -0.0586 -0.3162  0.4628
 2159SOL    HW117936   0.170   0.944   0.434  1.5230  0.6326 -1.5665
 2159SOL    HW217937   0.257   0.872   0.340 -0.7189  0.2396 -0.0023
 2160SOL     OW17938   0.676   3.701  10.491 -0.2763  0.1563 -0.0892
 2160SOL    HW117939   0.766   3.670  10.488  0.4979  2.4680 -0.1716
 2160SOL    HW217940   0.631   3.618  10.475 -2.2658  0.7662  2.1536
 2161SOL     OW17941   0.162   0.203  11.338  0.1320  0.1455  0.0657
 2161SOL    HW117942   0.156   0.255  11.418  3.5999 -0.1991  0.5294
 2161SOL    HW217943   0.255   0.211  11.319 -0.0784  1.5511 -0.3448
 2162SOL     OW17944   2.563   3.908  15.717  0.3009  0.3722  0.0312
 2162SOL    HW117945   2.491   3.886  15.658  2.2735 -0.8921 -1.8967
 2162SOL    HW217946   2.528   3.976  15.774 -0.6154  0.6204 -0.8199
 2163SOL     OW17947   4.386   0.858   3.602 -0.0708 -0.3668 -0.0956
 2163SOL    HW117948   4.312   0.870   3.541  0.0020  3.0532  0.5290
 2163SOL    HW217949   4.441   0.797   3.552 -0.6598 -1.3780  0.4808
 2164SOL     OW17950   2.408   3.750   3.677  0.0676 -0.6815 -0.4349
 2164SOL    HW117951   2.432   3.792   3.594  0.1295 -1.2110 -0.6812
 2164SOL    HW217952   2.351   3.818   3.714 -0.4151  0.1318 -2.6812
 2165SOL     OW17953   0.852   4.328   4.518 -0.0033  0.5427  0.6244
 2165SOL    HW117954   0.851   4.320   4.613  2.1264 -0.7649  0.5437
 2165SOL    HW217955   0.766   4.294   4.493 -0.1742  0.6422  1.0921
 2166SOL     OW17956   2.158   3.768   2.814  0.1562 -0.3805 -0.0196
 2166SOL    HW117957   2.197   3.720   2.740 -0.2001 -1.2558  0.3555
 2166SOL    HW217958   2.077   3.811   2.788 -0.4667 -0.7426  1.3242
 2167SOL     OW17959   1.191   0.720   4.147  0.3436  0.5875 -0.1114
 2167SOL    HW117960   1.241   0.717   4.229  1.3420  0.1562 -0.7197
 2167SOL    HW217961   1.166   0.811   4.136 -1.7571 -0.0494 -0.5888
 2168SOL     OW17962   1.896   4.499   4.203 -0.1236  0.2984 -0.1339
 2168SOL    HW117963   1.802   4.515   4.213 -0.7028 -2.1115 -1.8190
 2168SOL    HW217964   1.887   4.422   4.146 -0.1723  0.2212 -0.0214
 2169SOL     OW17965   0.361   3.518   5.115  0.2263 -0.6607 -0.3507
 2169SOL    HW117966   0.440   3.523   5.061 -2.5755 -0.4787 -4.4349
 2169SOL    HW217967   0.316   3.449   5.066 -2.3407 -1.0875  2.5942
 2170SOL     OW17968   4.084   0.332   2.692 -0.0828 -0.7061 -0.2715
 2170SOL    HW117969   4.107   0.253   2.741 -0.4234 -0.2045  0.6940
 2170SOL    HW217970   4.106   0.315   2.600  2.1779 -1.2241  0.3519
 2171SOL     OW17971   4.353   1.957   6.839  0.3362  0.2129 -0.4731
 2171SOL    HW117972   4.283   1.924   6.895  1.5043 -0.2190  0.7135
 2171SOL    HW217973   4.370   2.045   6.872  1.7780  0.3383 -1.5655
 2172SOL     OW17974   3.549   2.085   4.720  0.0622 -0.9729  0.1019
 2172SOL    HW117975   3.504   2.063   4.801 -2.8236 -0.8002 -1.4344
 2172SOL    HW217976   3.496   2.157   4.686  4.0112  2.9692  2.3727
 2173SOL     OW17977   4.136   1.009   8.722 -0.0726  0.1792 -0.5308
 2173SOL    HW117978   4.190   0.992   8.799  0.5016  0.6797 -0.8227
 2173SOL    HW217979   4.049   1.009   8.763  0.6371  0.3027  0.9719
 2174SOL     OW17980   4.032   3.802   8.726 -0.1354 -0.2413  0.1331
 2174SOL    HW117981   4.022   3.849   8.644 -1.9881 -2.2503 -0.7592
 2174SOL    HW217982   4.012   3.711   8.703 -1.7238  0.4759 -1.2669
 2175SOL     OW17983   1.365   0.581   7.324 -0.1241  0.3878 -0.0330
 2175SOL    HW117984   1.301   0.537   7.268 -0.2185  0.1152  0.2910
 2175SOL    HW217985   1.442   0.541   7.282 -0.6723  0.9019 -1.5172
 2176SOL     OW17986   3.956   4.498  15.825  0.1463  0.3284 -0.0822
 2176SOL    HW117987   4.012   4.535  15.893 -1.1839 -0.7984  1.6323
 2176SOL    HW217988   3.869   4.526  15.851  0.8661  2.9345 -0.5372
 2177SOL     OW17989   2.983   2.070  13.584  0.4731  0.2068 -0.1530
 2177SOL    HW117990   3.051   2.130  13.615 -1.7313  2.1333  0.9987
 2177SOL    HW217991   3.027   2.036  13.506 -0.3427 -1.8085  0.2479
 2178SOL     OW17992   3.103   1.723  13.330  0.2198 -0.1857  0.6599
 2178SOL    HW117993   3.015   1.743  13.299 -0.2725 -2.3543  0.6411
 2178SOL    HW217994   3.096   1.627  13.325  3.8569 -0.4528  0.6287
 2179SOL     OW17995   4.360   0.936   6.252  0.2266  0.1944  0.5964
 2179SOL    HW117996   4.295   0.866   6.243  1.9464 -0.9227 -3.2822
 2179SOL    HW217997   4.311   1.002   6.204  0.8836  0.1545 -0.1395
 2180SOL     OW17998   1.174   4.332  14.807 -0.7055  0.4383  0.3872
 2180SOL    HW117999   1.234   4.356  14.736 -2.4673  0.2146 -1.1858
 2180SOL    HW218000   1.144   4.247  14.774  1.5870 -1.1598  2.4492
 2181SOL     OW18001   3.988   3.947   4.730  0.1863  0.4846 -0.2817
 2181SOL    HW118002   3.896   3.921   4.720  0.4489 -0.3583 -0.5447
 2181SOL    HW218003   4.018   3.924   4.642 -2.3496 -0.2910 -0.9718
 2182SOL     OW18004   2.841   0.311   0.372  0.0806  0.8107  0.8692
 2182SOL    HW118005   2.816   0.312   0.279  0.2796 -2.4896  0.8094
 2182SOL    HW218006   2.775   0.251   0.407  1.3796 -1.7382 -1.0431
 2183SOL     OW18007   1.559   2.075   6.819 -0.3460 -0.4389 -0.5313
 2183SOL    HW118008   1.509   1.997   6.843 -0.9880 -0.4248 -1.8328
 2183SOL    HW218009   1.578   2.122   6.900 -1.8754  2.3091 -1.7567
 2184SOL     OW18010   1.212   3.679   6.204 -0.1939  0.4648 -0.5676
 2184SOL    HW118011   1.291   3.625   6.214 -1.0915 -0.4475  1.5492
 2184SOL    HW218012   1.156   3.643   6.272  0.2981  1.3471  0.2952
 2185SOL     OW18013   2.744   2.567   1.786 -0.6445 -0.1717  0.6027
 2185SOL    HW118014   2.808   2.604   1.725 -1.4243 -1.1623 -0.8315
 2185SOL    HW218015   2.683   2.530   1.722  3.0845 -0.2570 -2.9053
 2186SOL     OW18016   1.713   4.695   5.490 -0.6100 -0.6080 -0.4330
 2186SOL    HW118017   1.773   0.013   5.429 -3.4704 -0.3755 -3.0971
 2186SOL    HW218018   1.771   4.686   5.565 -0.3019  0.6607 -0.5270
 2187SOL     OW18019   0.533   2.524   4.041  0.0453 -0.2063 -0.1898
 2187SOL    HW118020   0.455   2.578   4.054  0.5120  0.6596 -1.0611
 2187SOL    HW218021   0.594   2.588   4.006  1.6747 -1.2013  0.7998
 2188SOL     OW18022   3.553   0.184  10.535 -0.4890  0.0895 -0.1034
 2188SOL    HW118023   3.570   0.113  10.472 -0.8162 -1.1273  1.1815
 2188SOL    HW218024   3.509   0.139  10.607  0.2766 -0.2578  0.1425
 2189SOL     OW18025   0.330   0.306   1.033 -0.0312  0.2573 -0.2496
 2189SOL    HW118026   0.369   0.339   1.114 -1.2062 -0.1480  0.4828
 2189SOL    HW218027   0.237   0.326   1.041  0.2029  1.4033 -0.3033
 2190SOL     OW18028   0.089   0.732   6.192  0.2627 -0.5339 -0.2486
 2190SOL    HW118029   0.091   0.824   6.217 -3.3204 -0.3720 -0.4966
 2190SOL    HW218030   0.006   0.696   6.223 -0.5112  0.0547 -1.6285
 2191SOL     OW18031   0.070   3.320   4.962  0.1060  0.4721 -0.0547
 2191SOL    HW118032   0.123   3.288   5.035  1.2461  1.9792 -0.1980
 2191SOL    HW218033   4.707   3.295   4.990  0.6169 -0.8119  0.3962
 2192SOL     OW18034   3.378   4.022   5.462  0.3458 -0.5670  0.3606
 2192SOL    HW118035   3.374   3.941   5.411 -0.0263 -1.5626  1.9762
 2192SOL    HW218036   3.300   4.071   5.437  2.3121  2.8195  0.8267
 2193SOL     OW18037   4.033   1.078   3.950 -0.3603  0.0021 -0.0422
 2193SOL    HW118038   4.119   1.117   3.964  0.4928 -1.6652 -0.7047
 2193SOL    HW218039   4.043   0.984   3.967  1.1527  0.0168 -0.8661
 2194SOL     OW18040   2.276   3.899  16.421 -0.0442  0.5720  0.2239
 2194SOL    HW118041   2.321   3.834  16.475 -0.2907 -0.7136 -1.0938
 2194SOL    HW218042   2.209   3.839  16.387  0.3056  2.2212 -3.3454
 2195SOL     OW18043   4.440   4.275  13.692 -0.3359 -0.3345  0.4253
 2195SOL    HW118044   4.359   4.324  13.708 -0.5436  0.2067 -2.2007
 2195SOL    HW218045   4.506   4.342  13.712 -0.4938 -0.1854  0.4536
 2196SOL     OW18046   0.480   4.620   4.465 -0.0694 -0.2019 -0.5575
 2196SOL    HW118047   0.476   4.562   4.389 -2.4986  1.5162 -1.7532
 2196SOL    HW218048   0.563   4.597   4.506 -0.0712  0.3424 -0.2437
 2197SOL     OW18049   1.488   4.378   4.692  0.2278  0.5393  0.0367
 2197SOL    HW118050   1.454   4.383   4.781 -1.8157 -1.1268 -0.6434
 2197SOL    HW218051   1.421   4.322   4.652  1.7446  0.0619 -1.8534
 2198SOL     OW18052   1.893   4.698   3.031 -0.0188 -0.3875 -0.8892
 2198SOL    HW118053   1.897   4.611   3.071  1.4881  0.8738  1.7252
 2198SOL    HW218054   1.955   0.021   3.084 -0.3301  0.7082 -1.5223
 2199SOL     OW18055   4.483   4.591   4.733  0.2213 -0.8890 -0.2638
 2199SOL    HW118056   4.446   4.503   4.740  2.3696 -1.8323 -0.8174
 2199SOL    HW218057   4.570   4.579   4.696  0.9516 -1.2121  1.5893
 2200SOL     OW18058   4.512   0.456  12.174  0.5800  0.9330  0.0433
 2200SOL    HW118059   4.558   0.493  12.250  0.9642 -0.8972  0.7044
 2200SOL    HW218060   4.422   0.462  12.205  0.4622 -1.7730  0.2417
 2201SOL     OW18061   3.306   3.596   3.022 -0.0203  0.2039  0.4778
 2201SOL    HW118062   3.278   3.687   3.032 -0.9295  0.0077 -0.2216
 2201SOL    HW218063   3.217   3.561   3.033  1.1292 -2.1240  2.5061
 2202SOL     OW18064   4.247   0.349   0.188  0.6382 -0.1380  0.4142
 2202SOL    HW118065   4.175   0.348   0.250 -0.0493 -0.5492 -0.3949
 2202SOL    HW218066   4.325   0.348   0.243  1.6255 -0.8178 -0.9706
 2203SOL     OW18067   4.021   2.960   7.608 -0.2044  0.2655 -0.1967
 2203SOL    HW118068   4.023   3.011   7.528 -2.2944 -1.3728 -1.3104
 2203SOL    HW218069   4.112   2.968   7.634  0.0215 -2.0299 -0.2899
 2204SOL     OW18070   4.671   1.587  12.184 -0.2422  0.1176  0.5855
 2204SOL    HW118071   4.619   1.592  12.264  0.1154 -0.8066  0.8803
 2204SOL    HW218072   4.710   1.500  12.194 -0.5590 -0.2316 -1.1409
 2205SOL     OW18073   3.641   1.741   4.601 -0.4580  0.1751 -0.5146
 2205SOL    HW118074   3.585   1.692   4.540 -1.2479 -0.8692  1.0509
 2205SOL    HW218075   3.592   1.739   4.683 -0.7920  1.1162 -0.6905
 2206SOL     OW18076   4.282   4.585   2.319  0.6011 -0.2572  0.1925
 2206SOL    HW118077   4.280   4.652   2.251 -1.8494 -0.0204  0.5165
 2206SOL    HW218078   4.246   4.626   2.398  0.3507  0.7575 -0.4595
 2207SOL     OW18079   1.275   0.219  16.598 -0.7395  1.0172  0.2160
 2207SOL    HW118080   1.207   0.152  16.608 -0.4946  0.5471 -1.3004
 2207SOL    HW218081   1.300   0.245  16.687  1.6649 -0.4038 -0.0401
 2208SOL     OW18082   2.431   0.799  12.347 -0.1033 -0.5952 -0.5496
 2208SOL    HW118083   2.420   0.802  12.253 -0.9827  1.5043 -0.3747
 2208SOL    HW218084   2.406   0.889  12.368 -0.9861 -0.3976 -2.5140
 2209SOL     OW18085   0.571   3.047   1.393  0.5485  0.2365  0.0757
 2209SOL    HW118086   0.519   3.078   1.467  1.9298 -2.1914  2.0415
 2209SOL    HW218087   0.533   2.960   1.384 -0.3529  0.6972 -0.4847
 2210SOL     OW18088   4.695   1.086   9.871  0.4763  0.1720 -0.2788
 2210SOL    HW118089   0.064   1.104   9.877  0.9275 -1.9914 -0.8794
 2210SOL    HW218090   4.676   1.095   9.965 -0.5182  1.0530 -0.5725
 2211SOL     OW18091   4.580   1.317   2.692  0.5172 -0.8577 -0.2123
 2211SOL    HW118092   4.675   1.325   2.697  0.2652  1.4863  1.3739
 2211SOL    HW218093   4.562   1.411   2.692  1.2206 -0.6950  3.7509
 2212SOL     OW18094   1.574   0.765   1.438  0.1424  0.1672 -0.0152
 2212SOL    HW118095   1.480   0.756   1.447 -0.0426  1.2897 -0.7520
 2212SOL    HW218096   1.575   0.832   1.370 -0.5017 -0.9076 -1.0923
 2213SOL     OW18097   1.987   0.795   8.438  0.0200  0.2940 -0.5447
 2213SOL    HW118098   2.061   0.851   8.412  0.9114  0.1211  1.6318
 2213SOL    HW218099   2.005   0.778   8.531  0.0499  0.1200 -0.5827
 2214SOL     OW18100   3.401   0.156  13.838 -0.2321  0.0143  0.3592
 2214SOL    HW118101   3.412   0.106  13.757 -0.5453  1.3471 -0.4981
 2214SOL    HW218102   3.438   0.240  13.813 -0.1733  0.2817  1.3494
 2215SOL     OW18103   4.109   3.097  13.576  0.5654 -0.5498 -0.6164
 2215SOL    HW118104   4.130   3.189  13.563 -0.2301 -0.2462  0.2532
 2215SOL    HW218105   4.200   3.067  13.583  1.1124  1.0138 -1.0100
 2216SOL     OW18106   4.704   3.822   7.163 -0.2184  0.4177  0.1062
 2216SOL    HW118107   0.013   3.868   7.086  2.1493 -0.0503  0.8893
 2216SOL    HW218108   0.022   3.880   7.226 -0.1890 -1.7482  2.0703
 2217SOL     OW18109   0.514   1.280   5.906  0.0937 -0.2316 -0.0730
 2217SOL    HW118110   0.559   1.338   5.966 -2.1319  0.9056  0.4859
 2217SOL    HW218111   0.581   1.239   5.852  0.2931 -0.2805  0.2140
 2218SOL     OW18112   2.598   0.921   9.366 -0.8250  0.1967 -0.4480
 2218SOL    HW118113   2.553   0.995   9.323 -0.6219 -0.6144 -2.0798
 2218SOL    HW218114   2.533   0.851   9.356  0.7838 -1.3795  0.1233
 2219SOL     OW18115   1.813   0.211  11.310 -0.4827 -0.1624  0.3059
 2219SOL    HW118116   1.817   0.301  11.343 -0.9111 -0.7637  1.9880
 2219SOL    HW218117   1.721   0.196  11.287  0.0396 -1.9350 -0.5954
 2220SOL     OW18118   2.151   1.315   3.723  0.3018 -0.3631 -0.1596
 2220SOL    HW118119   2.072   1.356   3.688  1.8989  4.6978  2.1154
 2220SOL    HW218120   2.212   1.327   3.649 -0.1888  0.3561 -0.4477
 2221SOL     OW18121   2.428   2.954   0.999 -0.1888  0.1030  0.2283
 2221SOL    HW118122   2.521   2.974   0.988 -0.6486 -0.3116 -4.2211
 2221SOL    HW218123   2.426   2.939   1.094 -0.6573 -1.3943 -0.0209
 2222SOL     OW18124   0.095   1.161   7.587  0.5413 -0.3436  0.1766
 2222SOL    HW118125   0.113   1.196   7.500 -2.3999  1.1187  0.1583
 2222SOL    HW218126   0.183   1.126   7.599  1.8863  2.1625 -2.3764
 2223SOL     OW18127   4.359   0.138   8.406  0.4305 -0.0113 -0.3362
 2223SOL    HW118128   4.349   0.151   8.311  2.1886  1.8472 -0.2648
 2223SOL    HW218129   4.327   0.047   8.411 -0.7301  0.5503  2.2780
 2224SOL     OW18130   3.060   0.169   4.721 -0.4985  0.0162 -0.1807
 2224SOL    HW118131   3.097   0.217   4.646 -0.1967  1.5573  0.9527
 2224SOL    HW218132   2.988   0.121   4.682 -1.8204  1.7256  0.1641
 2225SOL     OW18133   1.052   3.606   4.402  0.3714  0.1057  0.4287
 2225SOL    HW118134   1.023   3.592   4.492  0.5861  1.2920  0.6838
 2225SOL    HW218135   0.995   3.549   4.351 -1.5014  1.0539  1.4722
 2226SOL     OW18136   4.414   1.726   5.914 -0.1700  0.2907 -0.5098
 2226SOL    HW118137   4.341   1.763   5.865 -0.6602  2.3775  1.7908
 2226SOL    HW218138   4.477   1.794   5.888  0.7397 -0.4652 -0.2949
 2227SOL     OW18139   0.115   2.902  16.288 -0.0785 -0.1386 -0.0521
 2227SOL    HW118140   0.131   2.899  16.383 -1.3738  1.3239  0.2051
 2227SOL    HW218141   0.145   2.812  16.274  0.7059  0.1379 -0.1509
 2228SOL     OW18142   2.969   4.605   9.556 -0.0821 -0.4522 -0.2128
 2228SOL    HW118143   3.064   4.609   9.550  0.0115  0.7500  1.9735
 2228SOL    HW218144   2.951   4.699   9.546 -1.6576 -0.8918 -1.4672
 2229SOL     OW18145   0.767   4.311   4.774  0.2349 -0.3428  0.6313
 2229SOL    HW118146   0.751   4.242   4.838  1.5547 -0.3202  0.9942
 2229SOL    HW218147   0.856   4.332   4.801 -0.4743  1.7315  1.3643
 2230SOL     OW18148   3.329   2.365   9.873  0.0868 -0.3603 -0.0996
 2230SOL    HW118149   3.284   2.296   9.922 -1.2322 -0.6225 -1.6769
 2230SOL    HW218150   3.367   2.418   9.943  0.1942 -2.8652  1.7445
 2231SOL     OW18151   0.071   3.050   5.660  0.6438 -0.4940 -0.0482
 2231SOL    HW118152   0.032   3.082   5.742 -1.8469 -1.6356 -0.8012
 2231SOL    HW218153   0.149   3.106   5.667  0.2670 -0.3206  2.7934
 2232SOL     OW18154   1.224   0.590   3.695  0.0097  0.6500  0.3664
 2232SOL    HW118155   1.143   0.565   3.739  0.1032 -0.5005 -0.1263
 2232SOL    HW218156   1.251   0.659   3.755  1.5490 -0.0420  0.4629
 2233SOL     OW18157   2.430   1.285   6.444  0.0751  0.4609 -0.1075
 2233SOL    HW118158   2.434   1.243   6.529 -0.5386 -0.1797 -0.3995
 2233SOL    HW218159   2.339   1.315   6.445 -1.0850 -3.0578 -0.9359
 2234SOL     OW18160   3.919   1.568   3.648  0.1557  0.1275 -0.3302
 2234SOL    HW118161   3.978   1.566   3.723 -2.6973  0.7881  1.9269
 2234SOL    HW218162   3.956   1.504   3.587 -1.9998 -0.7244 -0.7392
 2235SOL     OW18163   1.658   4.378  12.568 -0.4169 -0.0691 -1.0503
 2235SOL    HW118164   1.639   4.359  12.660 -2.5132 -0.3249 -1.5287
 2235SOL    HW218165   1.754   4.378  12.572 -0.4361  1.5255 -0.5979
 2236SOL     OW18166   0.563   4.234   3.033 -0.0119 -0.0261  0.3696
 2236SOL    HW118167   0.488   4.294   3.027 -0.5520 -0.6626  0.8175
 2236SOL    HW218168   0.569   4.228   2.937  1.6523  0.0863  0.4635
 2237SOL     OW18169   2.241   2.641   4.855  0.1675 -0.3776  0.2281
 2237SOL    HW118170   2.299   2.664   4.782  0.1391 -3.3498 -0.7578
 2237SOL    HW218171   2.277   2.695   4.924  0.1786  0.3417 -0.3428
 2238SOL     OW18172   2.373   1.506   9.044  0.5465  0.5640  0.7230
 2238SOL    HW118173   2.321   1.520   8.965  0.8649 -0.3359  0.3478
 2238SOL    HW218174   2.344   1.423   9.082 -1.3840  0.7340 -0.3793
 2239SOL     OW18175   3.180   3.086   2.186  0.1172 -0.2766  0.0524
 2239SOL    HW118176   3.095   3.057   2.152  0.1965 -0.2485 -0.1688
 2239SOL    HW218177   3.235   3.015   2.152  0.4267 -0.3357  0.6765
 2240SOL     OW18178   4.623   3.434  15.300  0.0984 -0.7675  0.4740
 2240SOL    HW118179   4.565   3.500  15.338 -2.3923 -2.7475  0.1585
 2240SOL    HW218180   4.564   3.359  15.308 -0.3425 -0.2973  1.6071
 2241SOL     OW18181   4.269   2.003  11.847 -0.0540  0.3571  0.8986
 2241SOL    HW118182   4.319   1.923  11.830 -1.0395 -0.1529  0.4426
 2241SOL    HW218183   4.314   2.073  11.800 -0.6289  0.1883  0.0942
 2242SOL     OW18184   0.014   0.488   7.619 -0.2855 -0.2834  0.1488
 2242SOL    HW118185   4.682   0.530   7.683 -0.4849  0.4005 -0.4883
 2242SOL    HW218186   0.034   0.414   7.677  1.0603  0.2678  0.3666
 2243SOL     OW18187   2.416   4.443   9.136  0.1405 -0.2795  0.0819
 2243SOL    HW118188   2.394   4.418   9.226 -1.0612 -0.6084 -0.3056
 2243SOL    HW218189   2.485   4.509   9.147 -0.4889  0.3431  0.3090
 2244SOL     OW18190   0.439   2.566   7.883 -0.0341 -0.0805 -0.2401
 2244SOL    HW118191   0.360   2.605   7.922  0.2361 -0.0965  0.3353
 2244SOL    HW218192   0.434   2.596   7.792  0.4329  1.0796  0.1083
 2245SOL     OW18193   0.889   3.726   4.679 -0.7139  0.3013 -0.6202
 2245SOL    HW118194   0.827   3.656   4.699  2.7173 -3.2826 -2.4923
 2245SOL    HW218195   0.961   3.704   4.739 -0.7870  1.2509 -0.1863
 2246SOL     OW18196   1.643   4.165   3.928  0.3697  0.1689  0.3757
 2246SOL    HW118197   1.613   4.120   4.007 -0.6911  0.0942 -0.0694
 2246SOL    HW218198   1.603   4.099   3.871  0.6652  0.7449 -0.4923
 2247SOL     OW18199   0.245   3.844   8.572  0.2080 -0.0742  0.1943
 2247SOL    HW118200   0.184   3.771   8.581  0.0170 -0.5936 -5.2187
 2247SOL    HW218201   0.196   3.915   8.529  0.8119 -1.7928 -3.3099
 2248SOL     OW18202   0.573   0.779   1.908  0.0275 -0.2373 -0.1937
 2248SOL    HW118203   0.633   0.716   1.947 -0.6642 -0.2746  0.7902
 2248SOL    HW218204   0.587   0.756   1.816  2.9503  1.1003 -0.0812
 2249SOL     OW18205   4.238   3.180   5.921 -0.0461 -0.2337 -0.0594
 2249SOL    HW118206   4.144   3.185   5.902 -0.5769 -2.6703  1.8833
 2249SOL    HW218207   4.249   3.274   5.908 -2.8086  0.1312  0.0741
 2250SOL     OW18208   2.642   4.455   6.299 -0.4528 -0.2743  0.1563
 2250SOL    HW118209   2.620   4.535   6.252  0.5041  0.5578  1.1313
 2250SOL    HW218210   2.572   4.399   6.266 -2.1969  1.0896  1.5406
 2251SOL     OW18211   2.768   1.388   7.062  0.1476  0.4527  0.8313
 2251SOL    HW118212   2.701   1.427   7.119  1.2277  1.2267  1.5683
 2251SOL    HW218213   2.812   1.472   7.046 -0.1309  0.4891  0.2572
 2252SOL     OW18214   2.083   4.154   9.616  0.7756 -0.3146 -0.1699
 2252SOL    HW118215   2.020   4.225   9.627 -0.1461 -1.1900  0.2313
 2252SOL    HW218216   2.119   4.148   9.704 -0.1180  0.4046  0.2479
 2253SOL     OW18217   1.353   4.026  15.913  0.2584 -0.8410 -0.5363
 2253SOL    HW118218   1.394   3.964  15.853  0.2657 -0.3453 -1.0404
 2253SOL    HW218219   1.422   4.018  15.979  0.1490 -1.8226 -0.5431
 2254SOL     OW18220   2.271   2.148   2.468 -0.0751 -0.0751 -0.4190
 2254SOL    HW118221   2.213   2.173   2.396 -0.9072  0.4396  0.4283
 2254SOL    HW218222   2.350   2.113   2.427  0.7334  1.2508  0.0000
 2255SOL     OW18223   2.875   1.153  11.634 -0.2575 -0.5496  0.0653
 2255SOL    HW118224   2.903   1.232  11.680  2.5240 -0.8009 -1.2454
 2255SOL    HW218225   2.948   1.093  11.645 -0.0149 -0.7010 -2.3154
 2256SOL     OW18226   1.326   2.780   9.193 -0.5333  0.3892 -0.0726
 2256SOL    HW118227   1.267   2.764   9.266  0.5865 -2.6572  0.1653
 2256SOL    HW218228   1.350   2.871   9.211 -0.8856  0.4558  0.0623
 2257SOL     OW18229   1.184   4.722   6.496  0.1511 -0.1790 -0.1006
 2257SOL    HW118230   1.204   4.638   6.455 -1.4546 -0.7155  0.1854
 2257SOL    HW218231   1.143   0.048   6.427 -4.1117 -3.5690 -0.0867
 2258SOL     OW18232   0.100   0.353  11.577 -0.0805  0.1849  0.6194
 2258SOL    HW118233   0.100   0.374  11.670  1.4977  0.8600  0.4737
 2258SOL    HW218234   0.006   0.351  11.557  0.0084 -0.2311  0.2353
 2259SOL     OW18235   3.757   1.074   0.130  0.0321  0.0503 -0.0129
 2259SOL    HW118236   3.822   1.078   0.201  1.1349 -1.4565 -0.9596
 2259SOL    HW218237   3.763   0.979   0.131  1.0868  0.1442  1.6427
 2260SOL     OW18238   1.116   3.456   1.936 -0.0921 -0.3998 -0.4348
 2260SOL    HW118239   1.050   3.524   1.924  0.6197  0.6892  1.9245
 2260SOL    HW218240   1.166   3.462   1.855  2.9620  1.0715  1.6010
 2261SOL     OW18241   1.247   2.312   0.792  0.7192 -0.4153  0.4969
 2261SOL    HW118242   1.306   2.310   0.868  1.7929 -0.4002 -0.3413
 2261SOL    HW218243   1.279   2.231   0.752  0.1638  0.0026 -0.7954
 2262SOL     OW18244   1.748   3.492   7.116 -0.5147 -0.6263 -0.3329
 2262SOL    HW118245   1.838   3.518   7.096 -0.3977 -0.8831 -0.1468
 2262SOL    HW218246   1.728   3.557   7.183  0.6708  0.7840 -1.3479
 2263SOL     OW18247   1.319   0.373   5.732  0.7029 -0.3728 -0.0179
 2263SOL    HW118248   1.308   0.282   5.761 -0.9336 -0.8167 -2.0080
 2263SOL    HW218249   1.398   0.389   5.784  0.4198 -1.0010  0.6047
 2264SOL     OW18250   1.362   2.644   1.806  0.3008 -0.6094  0.3057
 2264SOL    HW118251   1.283   2.628   1.858  0.4418  1.3940  1.1192
 2264SOL    HW218252   1.418   2.575   1.841 -0.7575 -1.3373  0.5674
 2265SOL     OW18253   4.230   2.301   3.458 -0.3145  0.0341  0.0050
 2265SOL    HW118254   4.220   2.396   3.457  0.8275  0.1499 -0.9237
 2265SOL    HW218255   4.156   2.277   3.403 -0.0400  0.2443 -0.4676
 2266SOL     OW18256   2.295   3.397   1.837  0.0142  0.7878  0.3355
 2266SOL    HW118257   2.255   3.466   1.784  1.5775  1.9830  0.7087
 2266SOL    HW218258   2.387   3.413   1.818  0.0852 -2.5082 -2.1980
 2267SOL     OW18259   4.634   0.364   0.019 -0.4144  0.1634  0.4977
 2267SOL    HW118260   4.616   0.353   0.112  0.5518  1.2461  0.8098
 2267SOL    HW218261   4.721   0.404   0.024  0.8214 -2.2381 -1.7611
 2268SOL     OW18262   0.176   4.485   5.839 -0.3955  0.3690 -0.3830
 2268SOL    HW118263   0.091   4.504   5.878  0.4928  0.3109  1.5851
 2268SOL    HW218264   0.218   4.450   5.918 -0.1135 -1.2864 -1.2617
 2269SOL     OW18265   1.320   0.610  12.036 -0.1742 -0.5430  0.3739
 2269SOL    HW118266   1.266   0.645  12.106 -0.5356 -1.0174  0.3337
 2269SOL    HW218267   1.315   0.515  12.047  1.4647 -0.5960  0.6449
 2270SOL     OW18268   4.493   1.464   7.783 -0.0492  0.0955 -0.2574
 2270SOL    HW118269   4.557   1.447   7.852  0.4732  0.0321 -0.7557
 2270SOL    HW218270   4.499   1.560   7.778  1.2969  0.1047  1.4787
 2271SOL     OW18271   2.431   3.519   3.829 -0.1878  0.4399  0.5019
 2271SOL    HW118272   2.526   3.508   3.828 -0.5591 -3.2350  3.2282
 2271SOL    HW218273   2.434   3.597   3.775  0.7459  0.9977  1.3500
 2272SOL     OW18274   2.135   3.966   7.750 -0.4845 -0.8665 -1.3669
 2272SOL    HW118275   2.142   3.887   7.804  0.4625 -0.8325 -1.4335
 2272SOL    HW218276   2.206   4.018   7.787 -0.4883 -2.0015  0.2270
 2273SOL     OW18277   4.217   4.042   7.534 -0.1167  0.1031 -0.3136
 2273SOL    HW118278   4.227   3.952   7.504 -0.0173  0.0925 -0.2501
 2273SOL    HW218279   4.290   4.036   7.596 -0.9361  0.7877  0.7269
 2274SOL     OW18280   4.358   2.613   1.024  0.5969  0.0596  0.1896
 2274SOL    HW118281   4.274   2.577   1.051  1.8579 -2.0948  1.2133
 2274SOL    HW218282   4.378   2.663   1.103 -1.2412 -0.9291  1.2888
 2275SOL     OW18283   0.859   2.416   7.745 -0.1616  0.2363  0.0322
 2275SOL    HW118284   0.803   2.402   7.821  0.3383 -0.1547  0.3338
 2275SOL    HW218285   0.794   2.424   7.676  0.2183  1.5016 -0.1732
 2276SOL     OW18286   4.263   2.875   3.177  0.5177  0.2476 -0.3110
 2276SOL    HW118287   4.285   2.843   3.089 -0.0209 -1.7982  0.3113
 2276SOL    HW218288   4.338   2.930   3.200  0.0718  0.7965 -0.1732
 2277SOL     OW18289   0.714   0.531   8.286  0.1006 -0.7343  0.3384
 2277SOL    HW118290   0.639   0.509   8.232  1.1887  0.0447 -1.4861
 2277SOL    HW218291   0.770   0.574   8.221 -0.7791  0.4487  0.3710
 2278SOL     OW18292   0.514   0.968   4.190 -0.3119  0.0133 -0.1203
 2278SOL    HW118293   0.566   0.954   4.112  2.4767 -0.0167  1.7569
 2278SOL    HW218294   0.465   0.886   4.186 -1.0007  0.3782  0.7129
 2279SOL     OW18295   2.688   0.072   6.135 -0.0748 -0.2693  0.5189
 2279SOL    HW118296   2.634   0.102   6.208  0.8906 -0.6907  1.4153
 2279SOL    HW218297   2.627   0.008   6.099 -0.0421 -0.7986  1.3997
 2280SOL     OW18298   2.968   3.491   2.224 -0.2288 -0.2808 -0.2809
 2280SOL    HW118299   3.051   3.447   2.209 -0.2467 -0.7579  1.0653
 2280SOL    HW218300   2.914   3.413   2.239  0.4429 -1.0626 -1.9401
 2281SOL     OW18301   0.591   1.720   1.137  0.2244 -0.0245 -0.2759
 2281SOL    HW118302   0.562   1.745   1.225  1.4465 -3.5648  1.1323
 2281SOL    HW218303   0.685   1.707   1.154 -0.1565 -0.5272  1.4981
 2282SOL     OW18304   4.401   1.642   9.558 -0.3420 -0.4209 -0.0193
 2282SOL    HW118305   4.424   1.616   9.469 -1.7011  1.0502 -0.7972
 2282SOL    HW218306   4.423   1.735   9.556  0.1462 -0.4473  3.9614
 2283SOL     OW18307   3.548   0.612   7.533  0.4260 -0.0625 -0.3076
 2283SOL    HW118308   3.456   0.614   7.561  1.1780  1.8692  1.9098
 2283SOL    HW218309   3.538   0.565   7.449 -1.9235 -0.3104  0.0975
 2284SOL     OW18310   1.491   1.752  13.420  0.0367  0.6896 -0.0865
 2284SOL    HW118311   1.571   1.723  13.464 -1.6902 -0.4869  2.2507
 2284SOL    HW218312   1.474   1.683  13.355 -2.2277  2.0918 -0.9993
 2285SOL     OW18313   0.820   2.272   5.117  0.0995 -0.2652  0.6874
 2285SOL    HW118314   0.902   2.241   5.078 -1.0340 -3.1470  0.6364
 2285SOL    HW218315   0.774   2.189   5.132 -1.0502  0.3061  0.2920
 2286SOL     OW18316   2.801   2.700   5.649  0.4676  0.3423  0.0396
 2286SOL    HW118317   2.812   2.782   5.600  0.6775 -0.0248 -0.5208
 2286SOL    HW218318   2.832   2.630   5.592  0.4491  1.3331 -1.1849
 2287SOL     OW18319   3.315   2.550  16.019 -0.6765  0.2156  0.3020
 2287SOL    HW118320   3.225   2.518  16.028 -0.0674 -2.0235 -1.6825
 2287SOL    HW218321   3.362   2.487  16.074 -0.5379 -0.0659 -0.1440
 2288SOL     OW18322   1.244   1.217   7.055  0.2025  0.4833  0.2061
 2288SOL    HW118323   1.267   1.253   6.969 -0.7821  0.9602  0.1440
 2288SOL    HW218324   1.302   1.264   7.115  0.9993 -3.1697  2.3390
 2289SOL     OW18325   1.472   3.648   3.549  0.0260  0.3516  0.6090
 2289SOL    HW118326   1.443   3.589   3.618 -0.4140 -1.2993 -0.9889
 2289SOL    HW218327   1.403   3.714   3.560  0.0552  0.2252  1.5747
 2290SOL     OW18328   1.472   1.119  14.360  0.2240 -0.2325 -0.4794
 2290SOL    HW118329   1.511   1.125  14.448 -1.1068 -1.5865  0.1996
 2290SOL    HW218330   1.386   1.088  14.386 -0.6657  2.9168  0.3237
 2291SOL     OW18331   3.530   2.304  15.643  0.6983  0.6213 -0.1408
 2291SOL    HW118332   3.442   2.302  15.605  0.6914  1.6828 -0.1686
 2291SOL    HW218333   3.581   2.277  15.567 -1.6546 -1.8099 -0.8745
 2292SOL     OW18334   2.699   4.628   3.727 -0.1093 -0.2046  0.2005
 2292SOL    HW118335   2.635   4.565   3.693  0.0672 -0.0317 -0.4596
 2292SOL    HW218336   2.733   4.590   3.808 -1.2146 -2.5660 -0.4478
 2293SOL     OW18337   4.009   3.760   3.651  0.3488  0.2368  0.2147
 2293SOL    HW118338   4.042   3.838   3.606  0.2616 -0.6128 -1.3413
 2293SOL    HW218339   3.962   3.721   3.577  2.6784 -2.0129 -0.0484
 2294SOL     OW18340   1.397   2.854  16.751  0.0601  0.2179 -0.3073
 2294SOL    HW118341   1.430   2.931  16.798 -2.7380  1.5446 -0.5338
 2294SOL    HW218342   1.358   2.892  16.673  2.4270  1.8687 -0.6759
 2295SOL     OW18343   3.248   1.846   9.206 -0.1922 -0.8971  0.7515
 2295SOL    HW118344   3.330   1.798   9.210 -0.9199 -2.2501 -0.4309
 2295SOL    HW218345   3.246   1.892   9.290  1.5074  0.7559 -0.1098
 2296SOL     OW18346   1.734   3.226  14.759 -0.4164  0.1784 -0.0575
 2296SOL    HW118347   1.817   3.270  14.782 -0.2080 -1.9571  3.2463
 2296SOL    HW218348   1.702   3.196  14.843  1.0501 -0.9638  0.0923
 2297SOL     OW18349   0.048   3.801   5.558  0.1638  0.0565  0.0386
 2297SOL    HW118350   0.006   3.725   5.599 -0.7882  2.1105  2.8533
 2297SOL    HW218351   0.037   3.772   5.467 -1.2888 -0.5244  0.3995
 2298SOL     OW18352   2.090   3.706  13.250 -0.1864  0.3988 -0.3387
 2298SOL    HW118353   2.034   3.634  13.222  0.3726 -0.3716  0.5308
 2298SOL    HW218354   2.145   3.716  13.172 -2.5150  2.3148 -1.7321
 2299SOL     OW18355   1.590   1.073   0.183 -0.8197  0.4537 -0.3363
 2299SOL    HW118356   1.657   1.140   0.166 -1.0477  0.9688  0.8051
 2299SOL    HW218357   1.619   1.003   0.124  1.8254  1.9932 -0.8493
 2300SOL     OW18358   3.797   1.514   8.525  0.2359  0.2152  0.1181
 2300SOL    HW118359   3.808   1.591   8.469 -2.1086  1.0187  0.7686
 2300SOL    HW218360   3.712   1.482   8.494  0.5345 -0.0186 -0.4524
 2301SOL     OW18361   2.904   1.950   5.768  0.6642 -0.1029 -0.3294
 2301SOL    HW118362   2.972   2.003   5.728 -0.6639  1.5502 -0.3614
 2301SOL    HW218363   2.933   1.952   5.859 -0.3655 -1.9206  0.0406
 2302SOL     OW18364   2.702   1.335  12.700 -0.1348 -0.1330  0.3281
 2302SOL    HW118365   2.697   1.253  12.649 -1.4715  0.3058 -0.2467
 2302SOL    HW218366   2.727   1.400  12.634 -3.8224 -0.4086 -1.3278
 2303SOL     OW18367   2.046   1.436   7.809  0.3496 -0.3612  0.5418
 2303SOL    HW118368   2.117   1.499   7.816  0.4429 -0.0344 -3.0519
 2303SOL    HW218369   2.054   1.389   7.726  2.5063 -0.4274  0.7926
 2304SOL     OW18370   4.557   0.146   8.847 -0.2373  0.2032 -0.1482
 2304SOL    HW118371   4.613   0.071   8.830  2.7244  2.4630 -0.4215
 2304SOL    HW218372   4.626   0.212   8.837  1.0822 -1.1057  0.3024
 2305SOL     OW18373   4.295   2.546  14.691 -0.3700  0.2195  0.2858
 2305SOL    HW118374   4.215   2.516  14.647  0.3273 -0.5533 -0.4536
 2305SOL    HW218375   4.265   2.624  14.738 -0.4921  0.5904 -0.3919
 2306SOL     OW18376   1.098   4.710  13.819  0.0376 -0.2652  0.4178
 2306SOL    HW118377   1.159   0.055  13.840  1.4705 -1.8999  1.6994
 2306SOL    HW218378   1.111   4.694  13.725  4.3086 -1.8973  1.3294
 2307SOL     OW18379   2.592   0.610  14.537 -0.0264 -0.2945  0.7911
 2307SOL    HW118380   2.655   0.681  14.555 -0.2783 -0.2014  1.2973
 2307SOL    HW218381   2.525   0.662  14.493 -1.0192 -1.5771  0.8173
 2308SOL     OW18382   0.064   0.067   9.275 -0.3797 -0.5118 -0.3589
 2308SOL    HW118383   0.098   0.030   9.193 -0.2441  1.3115 -1.1304
 2308SOL    HW218384   0.125   0.138   9.290 -2.0265  1.0023 -0.7959
 2309SOL     OW18385   0.460   2.212  17.530  0.1443 -0.1771 -0.0609
 2309SOL    HW118386   0.485   2.295  17.489 -0.0854 -0.1242 -0.0945
 2309SOL    HW218387   0.429   2.257  17.609  0.6704  0.1723 -0.0465
 2310SOL     OW18388   1.933   3.326   1.729  0.4670 -0.0946 -0.2259
 2310SOL    HW118389   1.915   3.379   1.807 -0.7653  0.1712 -0.6953
 2310SOL    HW218390   2.012   3.368   1.694  1.9428 -3.1952 -0.6120
 2311SOL     OW18391   1.988   1.635   5.141 -0.0462 -0.6643  0.5154
 2311SOL    HW118392   1.961   1.726   5.156 -1.0875 -0.6415 -1.4724
 2311SOL    HW218393   2.001   1.609   5.232 -0.4161 -0.8524  0.5147
 2312SOL     OW18394   3.786   2.554   3.530 -0.2513  0.2193  0.1179
 2312SOL    HW118395   3.813   2.502   3.606 -1.9216 -0.1688  0.4337
 2312SOL    HW218396   3.842   2.512   3.464  0.9286  0.8966  0.6787
 2313SOL     OW18397   1.455   3.280   9.594 -0.2218 -0.6843 -0.1372
 2313SOL    HW118398   1.465   3.205   9.653 -1.7102 -2.2843 -1.9393
 2313SOL    HW218399   1.549   3.294   9.582 -0.2731  0.3436  0.6534
 2314SOL     OW18400   3.008   2.497   8.739  0.0729 -0.3734 -0.0019
 2314SOL    HW118401   2.936   2.559   8.725  0.2675 -0.9713 -3.7581
 2314SOL    HW218402   2.978   2.472   8.827 -2.0854 -0.8336 -0.8680
 2315SOL     OW18403   2.474   3.696   4.585  0.1884 -0.0430  0.2362
 2315SOL    HW118404   2.460   3.627   4.650  1.0901 -0.1068  0.3648
 2315SOL    HW218405   2.471   3.645   4.504  0.2447  0.7919 -0.2985
 2316SOL     OW18406   0.811   1.440   2.917  0.4030  0.0256  0.2458
 2316SOL    HW118407   0.834   1.348   2.906 -0.8952 -0.1169 -1.2958
 2316SOL    HW218408   0.842   1.474   2.834  0.1490 -0.4344 -0.0402
 2317SOL     OW18409   2.332   4.260  13.883  0.2953 -0.6780  0.2400
 2317SOL    HW118410   2.275   4.195  13.841 -1.2760  1.3133 -0.7300
 2317SOL    HW218411   2.276   4.297  13.951  4.0302  0.2388  2.8102
 2318SOL     OW18412   1.731   1.029  16.983  0.3241 -0.3493 -0.5891
 2318SOL    HW118413   1.651   1.057  16.938  0.6731  0.4478 -0.7083
 2318SOL    HW218414   1.785   1.009  16.906 -0.8154  0.0573 -1.4952
 2319SOL     OW18415   1.064   4.185   7.976 -0.6704 -0.2048 -0.4211
 2319SOL    HW118416   1.079   4.165   8.068 -0.8864  0.2651 -0.2818
 2319SOL    HW218417   0.970   4.171   7.975 -0.7547  0.2471  2.1911
 2320SOL     OW18418   4.021   0.796   3.989 -0.2003  0.7225 -0.5376
 2320SOL    HW118419   4.042   0.724   4.048 -1.3639 -0.0756 -1.0858
 2320SOL    HW218420   4.089   0.783   3.923  0.7180  1.1101  0.3388
 2321SOL     OW18421   3.846   4.207   2.061  0.3437  0.3072 -0.2702
 2321SOL    HW118422   3.900   4.129   2.069 -0.0039  0.1024  0.1222
 2321SOL    HW218423   3.806   4.188   1.976 -0.3052 -0.4039  0.1908
 2322SOL     OW18424   3.852   2.393  16.646  0.4765  0.2244 -0.5869
 2322SOL    HW118425   3.803   2.425  16.722 -1.7700  1.4119 -2.5771
 2322SOL    HW218426   3.928   2.451  16.641 -0.6070  1.8177  1.6689
 2323SOL     OW18427   3.762   1.758   7.141  0.7617  0.0618  0.5098
 2323SOL    HW118428   3.816   1.785   7.067  0.5183  1.5733  0.8826
 2323SOL    HW218429   3.700   1.691   7.113  0.1937  1.3159 -1.2516
 2324SOL     OW18430   2.492   3.022   4.067 -0.0592 -0.2965 -0.3278
 2324SOL    HW118431   2.519   2.939   4.107 -1.4568  0.2247  1.7165
 2324SOL    HW218432   2.417   2.988   4.020 -1.0505 -0.4393  1.3378
 2325SOL     OW18433   1.630   4.019  10.246 -0.3356  0.2386  0.0166
 2325SOL    HW118434   1.574   4.085  10.206  0.7065  0.8437 -0.4525
 2325SOL    HW218435   1.649   4.054  10.333  1.8339  0.1789 -0.4205
 2326SOL     OW18436   4.075   2.738   9.474  0.1418  0.4326 -0.2479
 2326SOL    HW118437   4.020   2.685   9.416  1.1181 -0.5285 -0.2967
 2326SOL    HW218438   4.151   2.681   9.461 -1.0523 -1.8900  3.1867
 2327SOL     OW18439   3.878   0.984   6.682  0.2199  0.3833  0.3063
 2327SOL    HW118440   3.973   0.975   6.691  0.1513  1.5556  2.2043
 2327SOL    HW218441   3.843   1.012   6.767 -0.7572  1.2380 -0.3769
 2328SOL     OW18442   1.457   4.495   2.223 -0.0218  0.6839  0.6868
 2328SOL    HW118443   1.419   4.541   2.148  0.8692 -0.7132 -0.6295
 2328SOL    HW218444   1.411   4.534   2.297  0.7163  1.4917  0.7074
 2329SOL     OW18445   2.552   2.386   1.209 -0.0097 -0.1172  0.5333
 2329SOL    HW118446   2.632   2.437   1.199  0.6480 -0.8875  1.8551
 2329SOL    HW218447   2.583   2.299   1.184  1.1866  0.6324 -0.5740
 2330SOL     OW18448   1.196   1.463   5.752  0.2991  0.3450 -0.1021
 2330SOL    HW118449   1.264   1.440   5.688  0.1936  1.5421 -0.6500
 2330SOL    HW218450   1.248   1.494   5.826  0.1483  0.4371 -0.0370
 2331SOL     OW18451   1.446   2.987   0.183 -0.2586 -0.2461 -0.2621
 2331SOL    HW118452   1.444   3.065   0.129  1.3093  0.0695  0.1168
 2331SOL    HW218453   1.460   3.030   0.267  1.5433 -0.7942 -0.2710
 2332SOL     OW18454   3.429   2.265   0.730 -0.1390 -0.4683 -0.3127
 2332SOL    HW118455   3.500   2.205   0.708  1.5531  0.4186  2.7808
 2332SOL    HW218456   3.369   2.197   0.762  0.8520 -1.4302 -0.4733
 2333SOL     OW18457   1.815   0.999  10.551  0.6336 -0.1094 -0.3964
 2333SOL    HW118458   1.910   1.003  10.536  0.2861  0.7869 -2.3858
 2333SOL    HW218459   1.788   0.921  10.502 -2.4659 -0.9126  2.6007
 2334SOL     OW18460   3.101   3.810   4.518 -0.2667  0.1839 -0.5925
 2334SOL    HW118461   3.101   3.822   4.423 -2.2035 -2.7057 -0.9559
 2334SOL    HW218462   3.158   3.733   4.525 -0.6894 -0.1249 -0.5428
 2335SOL     OW18463   3.972   3.782   4.127 -0.2681 -0.6040  0.5129
 2335SOL    HW118464   3.891   3.779   4.076  0.0410  0.9901 -0.0503
 2335SOL    HW218465   4.049   3.782   4.070 -1.3522  0.6301 -0.9428
 2336SOL     OW18466   2.894   0.092   3.712  0.1900  0.4517 -0.2602
 2336SOL    HW118467   2.899   0.083   3.808 -1.6651 -1.8079 -0.3825
 2336SOL    HW218468   2.815   0.040   3.701  0.9721 -0.4115 -1.6793
 2337SOL     OW18469   3.214   3.362   6.102 -0.0686  0.1618  0.3189
 2337SOL    HW118470   3.228   3.295   6.169 -1.7327 -0.4493  0.0457
 2337SOL    HW218471   3.261   3.432   6.148  2.3825 -1.2153 -0.1018
 2338SOL     OW18472   2.005   0.774   8.098  0.3805 -0.2338  0.0065
 2338SOL    HW118473   1.934   0.796   8.037 -1.2275  0.8664  2.2483
 2338SOL    HW218474   2.050   0.858   8.099  0.5946 -0.3432 -0.6651
 2339SOL     OW18475   3.018   1.391   3.454  0.0113 -0.7657  0.8624
 2339SOL    HW118476   3.076   1.329   3.410  0.7858  0.4833  0.1305
 2339SOL    HW218477   2.998   1.453   3.383  3.3218  1.5347  1.9480
 2340SOL     OW18478   4.642   1.450   5.230 -0.0687 -0.6855  0.5477
 2340SOL    HW118479   4.559   1.418   5.267  0.1649  0.2542  1.9030
 2340SOL    HW218480   4.630   1.444   5.136  1.9604  2.0184  0.1096
 2341SOL     OW18481   4.484   2.498  16.694 -0.3139 -0.3516  0.5500
 2341SOL    HW118482   4.395   2.508  16.728 -1.1132 -1.9880 -1.0657
 2341SOL    HW218483   4.480   2.424  16.634 -0.7024 -0.9608  1.3354
 2342SOL     OW18484   1.030   0.145   6.793  0.3015  0.3671 -0.6145
 2342SOL    HW118485   0.994   0.233   6.781  0.3276  0.4821  0.1863
 2342SOL    HW218486   1.048   0.117   6.703  0.3909  2.1388 -1.1463
 2343SOL     OW18487   2.222   1.716   1.246  0.3541 -0.3637  0.0788
 2343SOL    HW118488   2.192   1.646   1.188  1.3896  0.7812 -1.8169
 2343SOL    HW218489   2.234   1.659   1.322 -0.4705 -1.7260 -0.7960
 2344SOL     OW18490   0.717   2.761   5.600 -0.3728 -0.0770 -0.5809
 2344SOL    HW118491   0.666   2.680   5.604 -0.7413  0.3125  2.4422
 2344SOL    HW218492   0.693   2.787   5.511 -0.3241  1.8007 -0.0300
 2345SOL     OW18493   0.895   3.450   8.608  0.3228 -0.0605  0.1495
 2345SOL    HW118494   0.887   3.377   8.668 -2.3157 -0.0236 -0.1948
 2345SOL    HW218495   0.952   3.512   8.654  0.9252 -0.4399 -0.0789
 2346SOL     OW18496   0.277   1.504  15.671  0.1034 -0.1372  0.0036
 2346SOL    HW118497   0.226   1.585  15.672  0.1437 -0.1323  1.5690
 2346SOL    HW218498   0.333   1.512  15.748  1.0607  3.1819 -1.0292
 2347SOL     OW18499   0.257   3.840   4.090 -0.3206  0.2511 -0.0161
 2347SOL    HW118500   0.182   3.817   4.145  2.1195  0.5676  3.4101
 2347SOL    HW218501   0.254   3.934   4.107  1.6791  0.4860 -0.9312
 2348SOL     OW18502   1.370   0.947   4.730  0.1506 -0.1721 -0.0309
 2348SOL    HW118503   1.307   0.954   4.802 -1.2705  1.1056 -1.3973
 2348SOL    HW218504   1.323   0.987   4.657 -1.1596  1.6934  1.8199
 2349SOL     OW18505   0.852   1.187   2.859 -0.6183  0.1106  0.7580
 2349SOL    HW118506   0.808   1.126   2.918  2.1100 -2.3266  0.2689
 2349SOL    HW218507   0.880   1.129   2.789 -0.3794  1.5914 -0.3843
 2350SOL     OW18508   2.853   2.689   3.787  0.1645  0.2982 -0.3081
 2350SOL    HW118509   2.787   2.753   3.815 -0.7383 -1.2325  1.0063
 2350SOL    HW218510   2.933   2.738   3.807  0.0383  1.5542 -2.9523
 2351SOL     OW18511   3.180   3.430   2.054 -0.0167 -0.1233  0.5663
 2351SOL    HW118512   3.153   3.339   2.071 -0.7475 -0.0525 -0.1921
 2351SOL    HW218513   3.260   3.413   2.103  0.0009 -0.9310  0.2635
 2352SOL     OW18514   3.267   4.443  12.078  0.4639  0.1539  0.0084
 2352SOL    HW118515   3.286   4.505  12.148 -1.2018 -0.1701  0.7351
 2352SOL    HW218516   3.223   4.370  12.123 -0.8801  1.7749  1.3162
 2353SOL     OW18517   0.279   0.004  14.351  0.5030  0.1140 -0.1705
 2353SOL    HW118518   0.254   4.637  14.358 -0.5858  0.3761 -0.6374
 2353SOL    HW218519   0.193   0.042  14.369  1.4718  1.3405  1.8930
 2354SOL     OW18520   2.102   3.100   4.711  0.6759 -0.0901  0.3291
 2354SOL    HW118521   2.185   3.098   4.663  1.1315  0.0624  1.1025
 2354SOL    HW218522   2.049   3.134   4.639  1.0890  1.7105  0.8768
 2355SOL     OW18523   1.887   2.259   5.235  0.2790 -0.5379 -0.0608
 2355SOL    HW118524   1.966   2.276   5.184  1.4892 -1.0196  1.6474
 2355SOL    HW218525   1.918   2.275   5.324 -1.1029  1.3270  0.0950
 2356SOL     OW18526   2.708   3.141   7.553 -0.4771 -0.6908 -0.3610
 2356SOL    HW118527   2.783   3.199   7.541  0.1697 -0.9001  2.7825
 2356SOL    HW218528   2.704   3.135   7.649 -1.1837  1.3062 -0.2491
 2357SOL     OW18529   2.938   4.508   7.504  0.2377 -0.3233  0.0917
 2357SOL    HW118530   3.015   4.499   7.561  1.8320  0.5691 -1.8978
 2357SOL    HW218531   2.925   4.600   7.527 -0.8073 -1.0176  2.2266
 2358SOL     OW18532   2.641   3.054  10.786  0.1132  0.0009 -0.5148
 2358SOL    HW118533   2.655   2.960  10.776 -2.5633 -0.4329 -0.1231
 2358SOL    HW218534   2.721   3.075  10.834  0.3138  0.3654 -1.0037
 2359SOL     OW18535   2.751   1.509   3.528  0.0589  0.3557  0.5556
 2359SOL    HW118536   2.738   1.417   3.552  1.9443 -0.3611 -1.1012
 2359SOL    HW218537   2.837   1.504   3.485 -0.1226  0.0794  0.2219
 2360SOL     OW18538   2.721   2.394   9.305 -0.2575  0.0906  0.3966
 2360SOL    HW118539   2.678   2.376   9.389 -0.9606  0.4655  0.1088
 2360SOL    HW218540   2.678   2.477   9.286 -2.5261 -0.9940  0.8428
 2361SOL     OW18541   4.086   2.113   8.248  0.2892 -0.1093  0.5891
 2361SOL    HW118542   4.118   2.142   8.333  0.6018  0.5233  0.2562
 2361SOL    HW218543   3.991   2.105   8.261  0.5600 -1.3546  1.8450
 2362SOL     OW18544   3.826   2.266  15.437 -0.4559 -0.7738  0.2360
 2362SOL    HW118545   3.849   2.173  15.431  1.4803 -0.3434  1.0632
 2362SOL    HW218546   3.901   2.301  15.485 -0.7380 -0.7472  0.6567
 2363SOL     OW18547   3.929   3.870   6.965 -0.2843  0.3122 -0.5811
 2363SOL    HW118548   3.872   3.793   6.968 -0.9160  0.7214 -1.8082
 2363SOL    HW218549   4.019   3.840   6.965 -0.7369 -1.0280  1.4288
 2364SOL     OW18550   0.758   4.499  15.429  0.6270  0.2334  0.0549
 2364SOL    HW118551   0.721   4.417  15.462  1.5126 -0.2568 -0.1673
 2364SOL    HW218552   0.742   4.564  15.498 -1.6137 -1.0191  0.7129
 2365SOL     OW18553   3.005   0.338   3.679  0.4452 -0.1529 -0.2917
 2365SOL    HW118554   2.968   0.251   3.668 -2.6130  1.2529 -0.9015
 2365SOL    HW218555   2.927   0.391   3.691 -0.5110 -1.5066 -0.5571
 2366SOL     OW18556   4.543   0.071   9.156  0.2205 -0.0688  0.1418
 2366SOL    HW118557   4.561   0.089   9.064 -0.1753 -0.1765  0.0442
 2366SOL    HW218558   4.628   0.053   9.196  0.2464  1.2049  0.6693
 2367SOL     OW18559   2.687   3.781  10.144  0.2023 -0.5086  0.3013
 2367SOL    HW118560   2.720   3.691  10.146  1.3431 -0.1423 -1.2603
 2367SOL    HW218561   2.612   3.777  10.203 -2.3279  3.6607 -2.6580
 2368SOL     OW18562   1.445   1.949   9.663  0.6238  0.8119 -0.5222
 2368SOL    HW118563   1.431   1.938   9.569 -2.6299 -0.4417  0.1031
 2368SOL    HW218564   1.359   1.986   9.683  0.1833 -0.2407 -0.4574
 2369SOL     OW18565   0.980   1.398   9.077  0.0449 -0.6647  0.0602
 2369SOL    HW118566   1.008   1.486   9.054 -0.4299 -0.3833  0.5698
 2369SOL    HW218567   1.013   1.354   8.998 -1.0253  1.7834 -1.7262
 2370SOL     OW18568   1.776   3.328   9.890 -0.1393  0.1512  0.2590
 2370SOL    HW118569   1.740   3.304   9.975  2.4459 -0.6331  1.1183
 2370SOL    HW218570   1.860   3.284   9.905 -0.2288  0.1064  0.6259
 2371SOL     OW18571   3.208   3.452   6.964 -0.1442 -0.4349 -0.4668
 2371SOL    HW118572   3.211   3.504   7.044 -0.6277 -0.9550 -0.1080
 2371SOL    HW218573   3.293   3.414   6.944  0.2123  0.0469  0.1618
 2372SOL     OW18574   2.337   0.979  10.856 -1.0354 -0.7381  0.1975
 2372SOL    HW118575   2.317   1.007  10.945 -0.0155  1.4581 -0.2599
 2372SOL    HW218576   2.253   1.003  10.817  0.0252  1.6231 -0.6250
 2373SOL     OW18577   3.930   3.197   4.445  0.1836  0.1143 -0.6497
 2373SOL    HW118578   4.000   3.153   4.494 -0.4991  0.8772  0.9877
 2373SOL    HW218579   3.869   3.126   4.427 -0.1092  0.0241  0.7029
 2374SOL     OW18580   0.132   2.581   9.443 -0.5395 -0.1412  0.6144
 2374SOL    HW118581   0.156   2.615   9.357 -3.6224 -0.2087 -0.2730
 2374SOL    HW218582   0.200   2.516   9.460  0.5701  0.6674 -0.6830
 2375SOL     OW18583   0.971   1.836   2.180  0.0880  0.2266 -0.4390
 2375SOL    HW118584   0.885   1.807   2.209  0.3406 -0.8572 -0.7966
 2375SOL    HW218585   0.966   1.811   2.087 -0.0600 -1.1700 -0.0485
 2376SOL     OW18586   1.721   1.268   9.293 -0.6619  0.2541  0.2268
 2376SOL    HW118587   1.733   1.315   9.375 -2.6706 -0.8630  1.1638
 2376SOL    HW218588   1.730   1.176   9.315 -1.7666 -0.1915 -1.1397
 2377SOL     OW18589   4.301   4.576   5.799  0.3122 -0.0284  0.4899
 2377SOL    HW118590   4.358   4.531   5.737  0.0118  1.0749 -0.5897
 2377SOL    HW218591   4.243   4.506   5.830 -0.9292  1.7672  2.2160
 2378SOL     OW18592   4.539   3.731   7.843  0.1893 -0.5137 -0.1876
 2378SOL    HW118593   4.566   3.811   7.890 -1.3432 -0.1108  0.0338
 2378SOL    HW218594   4.554   3.775   7.760  0.1869 -0.4147 -0.1360
 2379SOL     OW18595   2.284   0.589   7.163 -0.2469 -0.0861  0.2833
 2379SOL    HW118596   2.318   0.533   7.093  0.5504  0.8268 -0.0652
 2379SOL    HW218597   2.362   0.641   7.186  0.6094 -1.8462  1.3755
 2380SOL     OW18598   1.549   1.765  12.573 -0.0688  0.1257 -0.0080
 2380SOL    HW118599   1.598   1.687  12.548  0.9990  1.3518 -1.6913
 2380SOL    HW218600   1.490   1.722  12.635  0.4716 -1.6187 -0.7045
 2381SOL     OW18601   2.656   2.268   6.083  0.5515  0.4286  0.3753
 2381SOL    HW118602   2.631   2.178   6.106  1.9948 -0.2348 -0.6868
 2381SOL    HW218603   2.602   2.284   6.006  0.0412 -0.6467  0.5043
 2382SOL     OW18604   3.445   2.926  14.904  0.4162  0.5473 -0.1471
 2382SOL    HW118605   3.392   2.983  14.961  0.5622  1.7123 -1.1789
 2382SOL    HW218606   3.423   2.961  14.818  1.3496  2.7351  0.5095
 2383SOL     OW18607   1.747   2.019   8.670 -0.0398 -0.4228 -0.4492
 2383SOL    HW118608   1.792   2.103   8.668  0.6852 -0.8043 -0.2169
 2383SOL    HW218609   1.781   1.986   8.754  1.9010 -0.4011 -1.2129
 2384SOL     OW18610   3.406   3.612   6.427 -0.4460  0.3724 -0.1200
 2384SOL    HW118611   3.448   3.695   6.406 -0.0955  0.0281 -0.7927
 2384SOL    HW218612   3.359   3.636   6.506 -0.8716  3.4151 -1.3237
 2385SOL     OW18613   0.594   2.733   4.421 -0.2310  0.0797 -0.6499
 2385SOL    HW118614   0.614   2.779   4.502  2.3500  1.0686 -1.8460
 2385SOL    HW218615   0.667   2.758   4.364 -1.3322  2.6747 -0.9110
 2386SOL     OW18616   4.172   4.316   9.258  0.5156 -0.2199 -0.3525
 2386SOL    HW118617   4.206   4.405   9.266  3.0327 -1.2695  0.6113
 2386SOL    HW218618   4.129   4.310   9.343  2.5047 -1.6028  0.5405
 2387SOL     OW18619   1.918   1.576  12.707  0.0641 -0.5667  0.0413
 2387SOL    HW118620   1.890   1.625  12.784 -1.5076 -0.3706 -0.6656
 2387SOL    HW218621   2.010   1.605  12.703 -0.5134  0.8232 -2.6009
 2388SOL     OW18622   0.118   4.058   2.376 -0.3888 -0.1722  0.7811
 2388SOL    HW118623   0.086   3.980   2.331 -1.3550  0.1158  0.9721
 2388SOL    HW218624   0.195   4.019   2.418 -0.9565 -2.4655 -0.2993
 2389SOL     OW18625   0.236   2.351   5.702  0.5689  0.1427  0.7296
 2389SOL    HW118626   0.319   2.354   5.750  0.2634  1.4207  1.1573
 2389SOL    HW218627   0.207   2.441   5.708  0.6177  0.0428  2.4228
 2390SOL     OW18628   0.874   4.291  10.927  0.8847 -0.6927  0.5187
 2390SOL    HW118629   0.842   4.334  11.007 -1.7422 -0.5104 -0.6322
 2390SOL    HW218630   0.792   4.243  10.911  0.7055 -0.1654 -0.1455
 2391SOL     OW18631   3.266   3.514   5.655  0.5576  0.0429 -0.2126
 2391SOL    HW118632   3.225   3.461   5.588 -1.3902  0.3964  0.7027
 2391SOL    HW218633   3.247   3.459   5.731  1.2127 -0.3194 -0.3147
 2392SOL     OW18634   4.671   0.916   7.934 -0.4698 -0.7547 -0.1635
 2392SOL    HW118635   4.659   0.985   7.868 -0.4123  0.2268  0.8451
 2392SOL    HW218636   4.653   0.966   8.014  0.0732 -0.0788 -0.4629
 2393SOL     OW18637   4.034   1.941   3.568  0.4368  0.5752 -0.3528
 2393SOL    HW118638   4.118   1.952   3.523  0.4121  2.8728  0.1561
 2393SOL    HW218639   4.029   1.846   3.575  0.2057  0.6825  0.8238
 2394SOL     OW18640   2.397   1.239   0.199  0.0022 -0.0612 -0.4160
 2394SOL    HW118641   2.358   1.152   0.195  0.2027 -0.1589 -0.2785
 2394SOL    HW218642   2.337   1.290   0.145 -1.1772 -1.0172  0.0115
 2395SOL     OW18643   1.654   0.035   6.974 -0.4934 -0.7126  0.3002
 2395SOL    HW118644   1.674   4.671   7.001 -0.6093 -0.9893 -0.5361
 2395SOL    HW218645   1.654   0.083   7.057  0.7404  0.5776 -0.4558
 2396SOL     OW18646   4.412   1.203  11.247  0.0533 -0.0388  0.3908
 2396SOL    HW118647   4.411   1.150  11.167 -0.7429  2.3604 -1.1864
 2396SOL    HW218648   4.397   1.137  11.316  1.9725 -3.1054 -2.1113
 2397SOL     OW18649   4.108   0.050   1.907 -0.1371  0.1541  0.6377
 2397SOL    HW118650   4.042   0.016   1.847 -0.2539  0.9499  0.3102
 2397SOL    HW218651   4.172   0.075   1.841  0.5000  1.5182  1.7720
 2398SOL     OW18652   2.396   3.711   4.124 -0.0769 -0.0048  0.4626
 2398SOL    HW118653   2.363   3.786   4.075  1.0253 -0.5146 -1.0758
 2398SOL    HW218654   2.333   3.650   4.086  0.2597  0.3739 -0.7049
 2399SOL     OW18655   0.062   1.503  10.449  0.0240 -0.5667  0.1263
 2399SOL    HW118656   0.079   1.461  10.533  2.1729 -0.2633 -0.1490
 2399SOL    HW218657   0.073   1.593  10.478  0.5408 -0.9552  1.1174
 2400SOL     OW18658   2.847   4.214  10.908 -1.0538 -0.0269 -0.1276
 2400SOL    HW118659   2.834   4.309  10.903 -1.1579  0.0519  1.5850
 2400SOL    HW218660   2.777   4.179  10.853  0.1446 -1.9997 -0.3931
 2401SOL     OW18661   3.475   0.595   6.460  0.6801 -0.3698 -0.3299
 2401SOL    HW118662   3.493   0.689   6.449 -1.7949 -0.0039 -1.2120
 2401SOL    HW218663   3.443   0.573   6.373 -2.3613 -1.8733  1.1537
 2402SOL     OW18664   4.154   0.061   9.819 -0.4969 -0.4128  0.3487
 2402SOL    HW118665   4.189   0.080   9.906  1.4526 -1.6928 -0.1408
 2402SOL    HW218666   4.069   0.025   9.843 -0.4818  0.4829  1.7236
 2403SOL     OW18667   1.084   2.492   8.767  0.0985 -0.6495  0.2232
 2403SOL    HW118668   1.006   2.510   8.714  2.7753  0.1326 -3.4235
 2403SOL    HW218669   1.070   2.399   8.786 -1.2157 -0.4026  0.5023
 2404SOL     OW18670   0.109   3.888   6.428  0.0061 -0.1767 -0.3085
 2404SOL    HW118671   0.015   3.896   6.413 -0.3284 -1.7121  0.8873
 2404SOL    HW218672   0.150   3.922   6.349 -0.6466 -0.1315 -0.6266
 2405SOL     OW18673   2.444   4.271   5.869  0.5562  0.0290 -0.2760
 2405SOL    HW118674   2.501   4.332   5.821 -0.7087  1.1097 -0.3872
 2405SOL    HW218675   2.360   4.316   5.866 -0.0227 -0.9598  1.2722
 2406SOL     OW18676   2.688   2.554   3.553  0.3722 -0.0783 -0.2231
 2406SOL    HW118677   2.740   2.485   3.596 -0.8624 -0.1725  1.1236
 2406SOL    HW218678   2.613   2.500   3.526 -1.1539  1.5330  0.8232
 2407SOL     OW18679   3.141   4.342  16.071 -0.0278 -0.4558  0.3006
 2407SOL    HW118680   3.182   4.418  16.029  4.8097 -2.4502  1.4136
 2407SOL    HW218681   3.103   4.309  15.989 -0.6409  3.6826 -1.0871
 2408SOL     OW18682   0.987   0.439  13.696 -0.2294 -0.0736  0.0707
 2408SOL    HW118683   0.898   0.468  13.719 -0.6267 -1.1616 -0.0793
 2408SOL    HW218684   0.973   0.344  13.689 -0.3222 -0.0789  0.3163
 2409SOL     OW18685   4.224   0.050   1.078  0.2353  0.4239  0.3415
 2409SOL    HW118686   4.290   0.079   1.015 -0.4925  0.2395 -0.5006
 2409SOL    HW218687   4.194   4.698   1.031  1.3911  0.9117 -1.1929
 2410SOL     OW18688   3.455   4.629   3.044 -0.3201 -0.2555 -0.1692
 2410SOL    HW118689   3.485   4.713   3.010 -2.2311 -0.8247 -3.2789
 2410SOL    HW218690   3.386   4.657   3.105  0.0752  1.1480 -0.3666
 2411SOL     OW18691   4.477   0.701   4.593  0.8403 -0.4984 -0.4128
 2411SOL    HW118692   4.437   0.639   4.533  0.2012 -0.3364 -0.1454
 2411SOL    HW218693   4.410   0.769   4.594  0.5965 -0.7424 -0.4138
 2412SOL     OW18694   3.609   3.688  10.811  0.4704  0.1549 -0.4343
 2412SOL    HW118695   3.592   3.612  10.755 -0.6390 -0.5396  0.8305
 2412SOL    HW218696   3.704   3.687  10.822  0.6246  0.8641 -1.6917
 2413SOL     OW18697   2.260   0.875   4.256 -0.4496 -0.2568  0.3249
 2413SOL    HW118698   2.354   0.889   4.265 -0.1958 -0.8917 -1.3413
 2413SOL    HW218699   2.260   0.826   4.174 -1.6804 -1.2686  0.9162
 2414SOL     OW18700   1.367   0.708   3.913 -0.1053  0.6429  0.1647
 2414SOL    HW118701   1.395   0.617   3.924 -0.9730  0.3526  0.0058
 2414SOL    HW218702   1.297   0.717   3.978  0.8657  1.3887  1.1091
 2415SOL     OW18703   2.342   3.829   3.191  0.2570 -0.1659  0.5257
 2415SOL    HW118704   2.355   3.734   3.200 -1.1980 -0.5747 -1.7267
 2415SOL    HW218705   2.425   3.869   3.164  0.4329 -0.7206  0.2386
 2416SOL     OW18706   0.638   3.252   3.166  0.5232  0.3813  0.0238
 2416SOL    HW118707   0.574   3.261   3.237 -0.0248  2.3640 -0.7323
 2416SOL    HW218708   0.684   3.335   3.156  2.7721 -0.8327  0.4245
 2417SOL     OW18709   2.341   0.935   5.247 -0.4022  0.2887 -0.3530
 2417SOL    HW118710   2.389   0.862   5.208  2.0909  0.4387  2.4328
 2417SOL    HW218711   2.367   1.007   5.190 -0.3475  0.4235 -0.1592
 2418SOL     OW18712   0.966   4.524   2.429  0.7273 -0.0923  0.3602
 2418SOL    HW118713   0.982   4.477   2.510  0.6003 -0.3014  0.2632
 2418SOL    HW218714   0.898   4.473   2.385  0.0505  1.6160 -0.5779
 2419SOL     OW18715   0.779   2.002   4.586  0.0557  0.0793  0.0082
 2419SOL    HW118716   0.731   1.976   4.508 -0.9403 -0.9124  0.9494
 2419SOL    HW218717   0.710   1.974   4.647 -0.0477  1.2333  0.4310
 2420SOL     OW18718   3.609   0.801  15.336  0.1139 -0.1671  0.2767
 2420SOL    HW118719   3.660   0.730  15.298 -2.1394 -2.4165  1.4581
 2420SOL    HW218720   3.627   0.883  15.291 -0.6699 -0.2236 -0.1476
 2421SOL     OW18721   4.480   3.679   2.872  0.0870  0.1311  0.3115
 2421SOL    HW118722   4.425   3.669   2.794 -0.0466 -2.2212  0.6978
 2421SOL    HW218723   4.569   3.684   2.835  0.6273  0.3925  1.6753
 2422SOL     OW18724   2.183   3.351  13.650  0.3141 -0.5122 -0.0591
 2422SOL    HW118725   2.116   3.351  13.581 -0.4255 -0.0119  0.6586
 2422SOL    HW218726   2.177   3.260  13.678  0.4099 -0.4213  0.2518
 2423SOL     OW18727   1.494   2.972   4.725 -0.2376  0.2619  0.0690
 2423SOL    HW118728   1.462   2.919   4.798 -0.9905 -0.0988 -0.5226
 2423SOL    HW218729   1.415   2.960   4.671 -0.4642 -0.8269  0.6504
 2424SOL     OW18730   3.616   4.419   3.000  0.3142  0.1872 -0.0260
 2424SOL    HW118731   3.693   4.437   3.054 -1.1310  0.6459  1.8755
 2424SOL    HW218732   3.568   4.502   3.002  0.3723  0.1728  1.8077
 2425SOL     OW18733   3.258   0.058   7.445  0.0671  0.5464  0.4156
 2425SOL    HW118734   3.295   0.021   7.526  0.0740 -1.9733 -0.7252
 2425SOL    HW218735   3.166   0.041   7.466 -0.8223  1.6431 -2.6550
 2426SOL     OW18736   2.183   0.308   3.510  0.6740  0.5626  0.7017
 2426SOL    HW118737   2.140   0.256   3.578  0.4414 -0.4051 -0.1809
 2426SOL    HW218738   2.103   0.348   3.478  1.0108  0.0515 -0.7718
 2427SOL     OW18739   3.489   0.989   6.634  0.5500 -0.3372  0.1345
 2427SOL    HW118740   3.513   1.046   6.708  0.5514  0.3574 -0.4076
 2427SOL    HW218741   3.574   0.976   6.592  0.2173 -1.5045 -0.1932
 2428SOL     OW18742   0.044   3.612   7.972  0.0350  0.6997 -0.0379
 2428SOL    HW118743   0.009   3.628   7.884  1.1005  1.2615 -0.3596
 2428SOL    HW218744   0.036   3.689   8.028 -0.4645  1.2821 -0.9221
 2429SOL     OW18745   4.289   2.517   9.516 -0.4162  0.8199 -0.3759
 2429SOL    HW118746   4.382   2.538   9.527 -0.0489 -1.1915  0.2317
 2429SOL    HW218747   4.285   2.422   9.509 -1.8591  0.8537 -0.0080
 2430SOL     OW18748   2.544   0.910   5.479  0.1836  0.5044 -0.6809
 2430SOL    HW118749   2.481   0.970   5.440 -1.7277  0.2335  1.9920
 2430SOL    HW218750   2.542   0.924   5.573 -0.7726  0.0496 -0.6277
 2431SOL     OW18751   2.345   0.167  17.538 -0.6536  0.4582  0.0372
 2431SOL    HW118752   2.289   0.097  17.505 -1.6172  2.4147 -2.4810
 2431SOL    HW218753   2.381   0.133  17.620  0.5593  2.6233  0.4004
 2432SOL     OW18754   3.729   2.472   8.519  0.1315 -0.4255 -0.1404
 2432SOL    HW118755   3.751   2.563   8.499  2.0886 -0.2120  2.9674
 2432SOL    HW218756   3.691   2.445   8.436 -3.1633 -0.9209  1.5341
 2433SOL     OW18757   3.458   0.263   5.665 -0.1695 -0.0771  0.0924
 2433SOL    HW118758   3.540   0.311   5.679  0.0246  0.3916 -2.6686
 2433SOL    HW218759   3.437   0.281   5.573 -0.2330 -0.6141 -0.0013
 2434SOL     OW18760   2.268   4.520   4.161  0.0682  0.1642  0.3306
 2434SOL    HW118761   2.313   4.497   4.080 -0.8580 -2.8900  0.7063
 2434SOL    HW218762   2.243   4.429   4.174  0.8806  0.3350  3.0895
 2435SOL     OW18763   3.109   2.383   3.015 -0.2722 -0.2523  0.0920
 2435SOL    HW118764   3.051   2.399   3.089  0.6068  0.2265  0.6821
 2435SOL    HW218765   3.163   2.313   3.053  2.0730  0.9548 -1.0326
 2436SOL     OW18766   2.214   0.480   9.572 -0.4687  0.4745  0.2828
 2436SOL    HW118767   2.221   0.467   9.478 -0.4599 -3.8850  0.9227
 2436SOL    HW218768   2.225   0.576   9.573  2.8924  0.1102 -0.0711
 2437SOL     OW18769   1.000   1.648   6.929  0.2359  0.1018  0.0030
 2437SOL    HW118770   0.935   1.687   6.988 -0.4006 -0.6250 -0.2241
 2437SOL    HW218771   0.971   1.557   6.922  1.6314 -0.4383  1.1372
 2438SOL     OW18772   0.200   4.175   2.971 -0.1909  0.2114  0.6804
 2438SOL    HW118773   0.163   4.251   3.017 -3.9366 -0.8211 -0.5955
 2438SOL    HW218774   0.138   4.108   3.000 -0.9932  1.2116  1.2874
 2439SOL     OW18775   2.680   2.323  14.387 -0.8991 -0.9542  0.2552
 2439SOL    HW118776   2.690   2.385  14.316  0.8869  0.7124  1.9667
 2439SOL    HW218777   2.598   2.279  14.363 -0.7555 -0.0792 -1.8281
 2440SOL     OW18778   0.973   0.559   6.249 -0.0548 -0.1522  0.6289
 2440SOL    HW118779   0.926   0.640   6.233  0.3384 -0.1458 -0.4800
 2440SOL    HW218780   0.946   0.504   6.176  1.1767 -0.3332  0.2970
 2441SOL     OW18781   3.474   0.586   2.719  0.2093 -0.4970 -0.0869
 2441SOL    HW118782   3.505   0.609   2.806 -0.2111 -2.3995  0.5579
 2441SOL    HW218783   3.451   0.494   2.730  1.5213 -0.7365  0.6511
 2442SOL     OW18784   4.254   1.434   8.927 -0.4124  0.0706  0.4980
 2442SOL    HW118785   4.216   1.348   8.946 -1.5463  0.6960  1.0763
 2442SOL    HW218786   4.342   1.408   8.900 -0.3374 -0.0732  0.8957
 2443SOL     OW18787   2.930   1.869   1.177 -0.3585 -0.1463 -0.0654
 2443SOL    HW118788   2.981   1.939   1.218  1.6347 -1.4527 -0.3217
 2443SOL    HW218789   2.966   1.867   1.088 -0.6641 -0.6991 -0.1730
 2444SOL     OW18790   0.869   3.749   9.846  0.1749  0.1762 -0.5580
 2444SOL    HW118791   0.919   3.693   9.787  1.2889 -1.6208  2.0464
 2444SOL    HW218792   0.934   3.820   9.850  1.9835 -1.5611  1.2028
 2445SOL     OW18793   2.472   1.413   2.651  0.6019  0.2218  0.3125
 2445SOL    HW118794   2.542   1.479   2.660 -0.9017  1.5029  2.7779
 2445SOL    HW218795   2.489   1.369   2.568  0.7649 -0.7642  0.8722
 2446SOL     OW18796   3.085   2.192   8.985 -0.3707  0.0164 -0.2341
 2446SOL    HW118797   3.053   2.282   8.981  1.6110  0.7642  0.6201
 2446SOL    HW218798   3.006   2.148   9.018  1.0637 -2.4163 -0.0354
 2447SOL     OW18799   4.662   3.132   7.642  0.3692  0.3888  0.1810
 2447SOL    HW118800   0.031   3.123   7.654  0.8116  0.3829 -3.4802
 2447SOL    HW218801   4.639   3.084   7.722 -0.7603  1.9077  0.7647
 2448SOL     OW18802   3.927   0.785   3.550 -0.1595  0.7464  0.1429
 2448SOL    HW118803   3.834   0.764   3.543  0.1369 -0.9130  1.2288
 2448SOL    HW218804   3.960   0.709   3.502 -0.9311  1.2504 -1.1765
 2449SOL     OW18805   2.459   1.224   4.395 -0.4076  0.1528  0.2531
 2449SOL    HW118806   2.415   1.187   4.318 -0.2294 -0.5757  0.5040
 2449SOL    HW218807   2.397   1.198   4.462 -0.5018 -3.9667 -1.4251
 2450SOL     OW18808   1.964   3.298   6.371  0.1530 -0.1413 -0.1203
 2450SOL    HW118809   2.034   3.235   6.355  0.7416  0.4608  0.0468
 2450SOL    HW218810   1.962   3.343   6.287  1.1846  0.8889  0.3945
 2451SOL     OW18811   3.451   0.469   7.278 -0.0308  0.5148  0.4487
 2451SOL    HW118812   3.373   0.468   7.223 -0.2540  0.2040  0.7662
 2451SOL    HW218813   3.438   0.383   7.317 -0.5251  0.1700 -0.4868
 2452SOL     OW18814   0.114   3.889  11.071 -0.3587 -0.0320  0.2551
 2452SOL    HW118815   0.093   3.978  11.045  0.6444  0.4299  1.0443
 2452SOL    HW218816   0.142   3.843  10.992 -1.1948  0.6259 -0.4208
 2453SOL     OW18817   4.088   1.920  16.182  0.2357  0.0691 -1.1566
 2453SOL    HW118818   4.012   1.863  16.176 -0.3617  0.7142  0.2492
 2453SOL    HW218819   4.055   2.006  16.157 -0.3324 -0.0133 -0.6860
 2454SOL     OW18820   1.958   0.827  15.280 -0.0668  0.3887 -0.0589
 2454SOL    HW118821   2.011   0.892  15.327  0.7803 -0.0861 -0.3684
 2454SOL    HW218822   2.006   0.746  15.293 -1.1157 -0.1051  0.7314
 2455SOL     OW18823   0.169   3.681   3.371  0.1066 -0.1896  0.2025
 2455SOL    HW118824   0.158   3.697   3.465 -0.5225  2.0089 -0.2570
 2455SOL    HW218825   0.236   3.615   3.390 -0.0758 -1.1903 -2.5650
 2456SOL     OW18826   1.574   1.175  14.633 -0.0669 -0.2745 -0.3928
 2456SOL    HW118827   1.496   1.192  14.685 -0.0565 -0.9969 -0.1426
 2456SOL    HW218828   1.621   1.109  14.683 -0.4802  0.5156  1.0399
 2457SOL     OW18829   3.602   2.323   1.834  0.9013 -0.1479 -0.3843
 2457SOL    HW118830   3.612   2.363   1.748 -0.0616  1.8903  0.4522
 2457SOL    HW218831   3.522   2.272   1.835 -0.1147  1.4290 -0.7466
 2458SOL     OW18832   3.869   1.240   4.357 -0.2757 -0.4018  0.7311
 2458SOL    HW118833   3.917   1.176   4.303 -0.4195  1.4291 -1.5591
 2458SOL    HW218834   3.873   1.321   4.308  1.3044 -0.6897  0.3662
 2459SOL     OW18835   2.896   2.866   4.668 -0.4855  0.5057 -0.0743
 2459SOL    HW118836   2.825   2.872   4.604 -0.3141 -2.0024 -0.5018
 2459SOL    HW218837   2.840   2.855   4.745 -2.2379  0.6004 -1.3387
 2460SOL     OW18838   3.684   0.708   3.474 -0.0706 -0.6718  0.5056
 2460SOL    HW118839   3.614   0.765   3.504 -0.2186 -1.0010  0.7981
 2460SOL    HW218840   3.643   0.651   3.409 -1.1347 -1.0437  1.4895
 2461SOL     OW18841   4.265   0.521  14.893  0.7498 -0.6129 -0.0618
 2461SOL    HW118842   4.218   0.459  14.837 -2.7522  1.6687  0.3870
 2461SOL    HW218843   4.279   0.472  14.974  1.3414 -1.2165 -0.5242
 2462SOL     OW18844   0.713   3.770   7.259 -0.0293 -0.0769 -0.2725
 2462SOL    HW118845   0.753   3.717   7.328  1.3315  0.3809 -0.6995
 2462SOL    HW218846   0.783   3.770   7.193  0.9616 -1.9794  0.7732
 2463SOL     OW18847   1.850   1.691  12.943 -0.1819 -0.3715 -0.1617
 2463SOL    HW118848   1.806   1.762  12.895  0.7233  0.2837 -0.0179
 2463SOL    HW218849   1.917   1.740  12.990  1.7606 -3.5895  0.4288
 2464SOL     OW18850   3.168   2.626   5.581 -0.0597  0.2482  0.3155
 2464SOL    HW118851   3.168   2.719   5.562 -2.3811 -0.1156 -1.3958
 2464SOL    HW218852   3.084   2.593   5.550 -0.4217  0.7299  0.7733
 2465SOL     OW18853   3.259   2.576   0.724  0.2525 -0.1986 -0.1002
 2465SOL    HW118854   3.204   2.510   0.684  0.3577  1.3397 -2.7710
 2465SOL    HW218855   3.266   2.641   0.654 -0.0190  1.8995  1.8087
 2466SOL     OW18856   2.022   0.721   0.976  0.1691  0.2376  0.3195
 2466SOL    HW118857   1.946   0.680   1.018  0.3734 -1.0093 -0.5675
 2466SOL    HW218858   2.078   0.711   1.053 -0.0753 -0.1518  0.4500
 2467SOL     OW18859   2.327   3.661   5.025 -0.4658  0.2281  0.1068
 2467SOL    HW118860   2.385   3.625   5.091 -0.5667  2.6025  1.5163
 2467SOL    HW218861   2.382   3.732   4.991 -1.1272  0.0385 -1.3659
 2468SOL     OW18862   0.811   2.353  14.983 -0.1044  0.3952 -0.3731
 2468SOL    HW118863   0.904   2.337  15.000 -0.7467 -1.2540  1.5787
 2468SOL    HW218864   0.815   2.368  14.888  2.6213 -1.7934 -0.6205
 2469SOL     OW18865   1.067   4.166  13.926 -0.7028 -0.1148 -0.0553
 2469SOL    HW118866   1.045   4.258  13.913 -4.0021 -1.2498 -2.4192
 2469SOL    HW218867   0.985   4.120  13.910 -0.8680 -0.1642  0.8930
 2470SOL     OW18868   3.415   0.696   8.318  0.2044 -0.0831 -0.6283
 2470SOL    HW118869   3.362   0.775   8.301 -1.5194 -1.6606 -2.5358
 2470SOL    HW218870   3.485   0.720   8.379 -2.0444  2.2349  1.0690
 2471SOL     OW18871   4.251   3.144   5.272  0.2486 -0.0849  0.7446
 2471SOL    HW118872   4.195   3.218   5.247 -0.1728 -0.6081  0.1312
 2471SOL    HW218873   4.265   3.154   5.366  0.0303 -2.7455  1.0378
 2472SOL     OW18874   3.658   2.276   9.038 -0.2233  0.0725  0.3694
 2472SOL    HW118875   3.570   2.280   9.078 -0.5432  0.5734 -0.3920
 2472SOL    HW218876   3.640   2.271   8.944 -2.2791  0.9764  0.7095
 2473SOL     OW18877   0.104   2.306   4.429  0.1025 -0.2287 -0.5625
 2473SOL    HW118878   0.189   2.279   4.395  0.9504 -0.6770  1.8714
 2473SOL    HW218879   0.051   2.329   4.353 -1.9393  1.2312  1.2941
 2474SOL     OW18880   0.693   1.412  14.560  0.5592  0.0462  0.1452
 2474SOL    HW118881   0.682   1.474  14.632  0.8782  3.1957 -2.4963
 2474SOL    HW218882   0.619   1.441  14.508 -0.1597 -0.1074  1.0795
 2475SOL     OW18883   4.589   3.822   3.103 -0.0252  0.6776  0.7329
 2475SOL    HW118884   4.535   3.747   3.080 -1.5456  1.7119  0.9038
 2475SOL    HW218885   4.677   3.787   3.088  0.2200  0.7537  1.9853
 2476SOL     OW18886   2.380   0.774   6.857  0.1759 -0.7651  0.1832
 2476SOL    HW118887   2.344   0.723   6.785  1.4511 -0.4408 -0.6858
 2476SOL    HW218888   2.439   0.827   6.803  1.9926 -0.5584  2.3873
 2477SOL     OW18889   4.607   4.017   5.587  0.0215  0.4074 -1.0001
 2477SOL    HW118890   4.684   3.961   5.591 -0.3197  0.2141  2.2695
 2477SOL    HW218891   4.642   4.093   5.634 -0.6058  0.9380 -1.3746
 2478SOL     OW18892   3.951   1.257   3.281 -0.1055  0.3997  0.1631
 2478SOL    HW118893   3.879   1.303   3.324 -0.1794  2.0598 -1.7304
 2478SOL    HW218894   3.915   1.171   3.261  1.9283 -1.2659  3.6021
 2479SOL     OW18895   4.442   1.109   2.416  0.3546  0.2454  0.7403
 2479SOL    HW118896   4.505   1.076   2.352  0.8203 -0.4019  1.5394
 2479SOL    HW218897   4.389   1.159   2.354  0.4197 -1.5423 -0.7593
 2480SOL     OW18898   2.118   3.780   8.011  0.2536 -0.0442 -0.1455
 2480SOL    HW118899   2.196   3.757   8.062 -0.4226 -0.1957  0.8139
 2480SOL    HW218900   2.098   3.867   8.044  0.6817 -0.3220  0.8241
 2481SOL     OW18901   3.254   3.916   6.172  0.1568  0.1150 -0.8554
 2481SOL    HW118902   3.243   3.989   6.232 -0.3127  1.0086 -2.0182
 2481SOL    HW218903   3.348   3.908   6.188  0.1507  0.0395 -0.8585
 2482SOL     OW18904   2.891   1.713  15.162 -0.6598  0.4663 -0.1460
 2482SOL    HW118905   2.920   1.707  15.253  1.7315  0.3705 -0.9137
 2482SOL    HW218906   2.859   1.624  15.151 -1.8072  0.7056  1.2545
 2483SOL     OW18907   2.596   3.057   8.204 -0.2666 -0.2458 -0.3924
 2483SOL    HW118908   2.647   3.091   8.278 -0.3401 -0.4612 -0.2434
 2483SOL    HW218909   2.645   3.091   8.129 -1.5287 -0.2196 -1.1974
 2484SOL     OW18910   1.466   0.107   4.732 -0.4450  0.0364  0.7372
 2484SOL    HW118911   1.547   0.069   4.767 -1.8214 -1.5904  2.1556
 2484SOL    HW218912   1.421   0.106   4.816 -0.8426  0.2418  0.5239
 2485SOL     OW18913   2.187   2.185   7.319  0.3157  0.3357 -0.2237
 2485SOL    HW118914   2.221   2.172   7.408  0.8551 -0.8074 -0.5978
 2485SOL    HW218915   2.126   2.257   7.335 -1.2280 -1.0400  0.1810
 2486SOL     OW18916   1.197   4.622   3.462  0.1473 -0.0995 -0.0264
 2486SOL    HW118917   1.285   4.655   3.480  0.1732 -0.4096  0.4124
 2486SOL    HW218918   1.155   4.708   3.463 -1.1276 -0.6867 -3.5567
 2487SOL     OW18919   3.891   1.336   6.800  0.4872  0.0983 -0.0628
 2487SOL    HW118920   3.810   1.371   6.836  1.0882  2.2072 -0.7740
 2487SOL    HW218921   3.884   1.241   6.814  1.0888  0.3649  2.0172
 2488SOL     OW18922   1.389   1.502   2.429 -0.6848  0.1023 -0.9038
 2488SOL    HW118923   1.332   1.557   2.376 -1.2680  0.2247 -0.1469
 2488SOL    HW218924   1.446   1.567   2.471 -0.4738  1.4599 -3.2861
 2489SOL     OW18925   4.445   2.895   5.805  0.1101  0.3637 -0.0926
 2489SOL    HW118926   4.405   2.811   5.780  1.5300 -0.5618  0.7833
 2489SOL    HW218927   4.469   2.939   5.723  0.5650  0.9884  0.3786
 2490SOL     OW18928   3.207   2.863   4.513 -0.4375  0.5712 -0.5417
 2490SOL    HW118929   3.114   2.879   4.530 -0.2152 -0.3884  1.7008
 2490SOL    HW218930   3.210   2.915   4.433  0.2552  0.8796 -0.3118
 2491SOL     OW18931   3.427   3.963   9.205 -0.2164 -0.3968  0.3400
 2491SOL    HW118932   3.470   4.004   9.129 -2.2322 -1.4874 -1.3975
 2491SOL    HW218933   3.437   4.025   9.277 -3.2121 -0.1025  0.5013
 2492SOL     OW18934   2.351   3.398   1.477  0.1521  0.2471  0.0851
 2492SOL    HW118935   2.261   3.409   1.510  0.6573  0.4215  1.4330
 2492SOL    HW218936   2.349   3.443   1.393  0.7346 -1.5509 -0.8822
 2493SOL     OW18937   4.423   0.902   7.343 -0.0801  0.7932  0.0522
 2493SOL    HW118938   4.387   0.832   7.397  0.7838 -0.5366 -1.0953
 2493SOL    HW218939   4.474   0.839   7.292 -1.0848 -0.0281  0.0595
 2494SOL     OW18940   2.079   0.539   6.438 -0.3429 -0.2793 -0.4731
 2494SOL    HW118941   2.093   0.580   6.352  1.5811  0.3333  0.1359
 2494SOL    HW218942   1.985   0.545   6.455 -0.2536 -0.7079  0.1788
 2495SOL     OW18943   4.579   2.286   7.430  0.6875  0.1584  0.4563
 2495SOL    HW118944   4.674   2.279   7.424  0.5630 -0.8466 -0.3753
 2495SOL    HW218945   4.572   2.333   7.513  1.4697  1.6972 -0.3480
 2496SOL     OW18946   0.938   3.848   3.073  0.0558 -0.2117 -0.5290
 2496SOL    HW118947   0.994   3.774   3.097  1.6170  1.2214  0.2225
 2496SOL    HW218948   0.859   3.804   3.039  0.7389 -4.0582  2.7702
 2497SOL     OW18949   0.389   3.643  10.038  0.4327 -0.1362  0.3150
 2497SOL    HW118950   0.458   3.680   9.982  0.0937 -0.6778 -0.4505
 2497SOL    HW218951   0.378   3.716  10.099  0.4511 -0.9418  1.2977
 2498SOL     OW18952   4.539   0.679   7.216 -0.3083  0.5521  0.3281
 2498SOL    HW118953   4.564   0.605   7.271 -3.0717  0.0425  0.8719
 2498SOL    HW218954   4.619   0.707   7.171  0.2372 -1.0613  0.2941
 2499SOL     OW18955   3.695   2.686  12.854  0.0923  0.2462  0.2553
 2499SOL    HW118956   3.748   2.620  12.898 -1.7174 -1.0787  0.4372
 2499SOL    HW218957   3.771   2.725  12.809  1.4855 -3.1857 -0.3271
 2500SOL     OW18958   2.370   2.287   1.741  0.0976 -0.4352  0.3482
 2500SOL    HW118959   2.448   2.333   1.771  1.7941 -1.9800 -1.6754
 2500SOL    HW218960   2.307   2.358   1.728 -1.7707 -2.0361  0.6339
 2501SOL     OW18961   1.475   2.898   6.022 -0.2771 -0.1547  0.0122
 2501SOL    HW118962   1.457   2.991   6.010 -0.8709 -0.1833  0.7449
 2501SOL    HW218963   1.407   2.879   6.086 -0.7740 -1.1007 -0.7814
 2502SOL     OW18964   4.622   3.755   5.894  0.1099  0.8265 -0.6426
 2502SOL    HW118965   4.527   3.738   5.895  0.2304  0.3731  2.8092
 2502SOL    HW218966   4.635   3.708   5.811  0.4263 -2.4147  1.2290
 2503SOL     OW18967   1.488   4.133   8.604  0.7828 -0.1126 -0.6855
 2503SOL    HW118968   1.417   4.112   8.665  1.3292 -1.6397 -0.5836
 2503SOL    HW218969   1.506   4.227   8.607 -0.9833  0.1970  0.4321
 2504SOL     OW18970   0.484   0.970   8.238 -0.4574  0.2625  0.0563
 2504SOL    HW118971   0.539   0.964   8.316  3.2009  1.8436 -2.4291
 2504SOL    HW218972   0.438   0.888   8.218  0.2601  0.4783 -2.3964
 2505SOL     OW18973   4.312   1.009   8.212 -0.7628 -0.4299 -0.3595
 2505SOL    HW118974   4.313   0.998   8.308  0.2707  1.4605 -0.1542
 2505SOL    HW218975   4.364   0.932   8.189 -0.4150  0.0342 -1.1181
 2506SOL     OW18976   0.964   3.575   3.593  0.3894 -0.0719 -0.4087
 2506SOL    HW118977   0.879   3.620   3.603 -0.3600 -1.1246 -2.0578
 2506SOL    HW218978   0.946   3.512   3.524 -0.8710 -0.8534  0.6423
 2507SOL     OW18979   3.037   1.322   5.071 -0.1481  0.2021  0.1624
 2507SOL    HW118980   3.063   1.378   5.144  0.7226 -0.3803  0.2914
 2507SOL    HW218981   2.952   1.287   5.098 -0.2063  0.3886  0.2242
 2508SOL     OW18982   2.287   3.753  13.055  0.9895 -0.1192  0.1705
 2508SOL    HW118983   2.304   3.703  12.975 -1.6651 -1.1773  0.2766
 2508SOL    HW218984   2.363   3.811  13.056  0.7138  0.2329  0.3127
 2509SOL     OW18985   0.042   4.242   9.389  0.1927 -0.3397  1.0129
 2509SOL    HW118986   4.674   4.246   9.369  0.3221 -0.9952  0.2533
 2509SOL    HW218987   0.066   4.333   9.404 -1.0041  0.2677 -0.7324
 2510SOL     OW18988   3.447   2.352  13.544 -0.0700 -0.3609 -0.3771
 2510SOL    HW118989   3.516   2.319  13.602 -2.5457 -0.2154  2.6405
 2510SOL    HW218990   3.467   2.445  13.553 -0.5737 -0.5644  2.7951
 2511SOL     OW18991   3.183   1.143  10.716 -0.1594 -0.7607 -0.3328
 2511SOL    HW118992   3.238   1.096  10.779  1.4751  2.3962  0.6393
 2511SOL    HW218993   3.098   1.107  10.741 -0.8148  0.5147 -0.7025
 2512SOL     OW18994   0.068   0.709   2.611  0.5739 -0.7808  0.4237
 2512SOL    HW118995   0.031   0.751   2.534  0.9711  0.4339  0.8871
 2512SOL    HW218996   0.088   0.783   2.669 -0.8868 -0.0858  0.0443
 2513SOL     OW18997   1.447   3.159  15.366  0.6168 -0.0645  0.5328
 2513SOL    HW118998   1.501   3.126  15.437 -2.6201  0.5179  3.2402
 2513SOL    HW218999   1.495   3.124  15.291 -2.0860 -1.4595 -0.5334
 2514SOL     OW19000   2.891   0.469   7.062 -0.3016 -0.1513  0.1823
 2514SOL    HW119001   2.854   0.551   7.029  1.0678  0.0319 -0.9020
 2514SOL    HW219002   2.979   0.483   7.027 -0.4092 -0.4613 -0.2169
 2515SOL     OW19003   1.619   4.523   7.646  0.2946  0.3935 -0.1108
 2515SOL    HW119004   1.525   4.541   7.655  0.0813 -0.0834 -1.2832
 2515SOL    HW219005   1.611   4.446   7.702 -0.4380  0.3368 -0.2913
 2516SOL     OW19006   2.656   0.086   2.967  0.0379  0.1112 -0.3698
 2516SOL    HW119007   2.661   4.724   2.929 -2.5930  0.3958 -1.3917
 2516SOL    HW219008   2.575   0.082   3.018  0.8097  1.7141  1.0008
 2517SOL     OW19009   1.733   2.475   8.483 -0.2886  0.3438  0.8287
 2517SOL    HW119010   1.641   2.449   8.480 -0.2411  0.1748  0.8284
 2517SOL    HW219011   1.728   2.478   8.578  0.7470 -1.4483  0.9378
 2518SOL     OW19012   0.774   2.826  11.689  0.2919  0.5115  0.1175
 2518SOL    HW119013   0.708   2.759  11.709 -0.3832  1.2445  0.3452
 2518SOL    HW219014   0.831   2.816  11.765  1.0676 -0.0282 -0.5469
 2519SOL     OW19015   1.424   2.143   3.333 -0.6714  0.5251  0.6424
 2519SOL    HW119016   1.338   2.144   3.293 -0.5539  2.2396  0.4461
 2519SOL    HW219017   1.396   2.144   3.425 -1.3238 -1.9708  0.4690
 2520SOL     OW19018   4.357   3.217   1.841 -0.7206 -0.4315 -0.2390
 2520SOL    HW119019   4.281   3.219   1.783 -0.2203  0.2276 -0.8542
 2520SOL    HW219020   4.305   3.205   1.921  0.1515 -0.4126  0.3250
 2521SOL     OW19021   0.863   2.113   4.107  0.0109  0.8304 -0.1770
 2521SOL    HW119022   0.862   2.205   4.079 -0.7132  0.7764 -0.3189
 2521SOL    HW219023   0.847   2.076   4.020 -2.8157 -1.5235  1.3621
 2522SOL     OW19024   3.767   3.306  17.546  0.1406 -0.3240 -0.6087
 2522SOL    HW119025   3.835   3.313  17.613 -0.8329 -1.3316  0.4664
 2522SOL    HW219026   3.752   3.212  17.530 -1.2467 -0.0397 -0.9516
 2523SOL     OW19027   3.965   4.331   7.059 -0.1790  0.0120  0.9500
 2523SOL    HW119028   3.965   4.297   7.149 -0.6194 -1.0079  0.5620
 2523SOL    HW219029   3.873   4.326   7.035  0.3045 -1.8119 -0.5812
 2524SOL     OW19030   1.535   1.564   4.737 -0.0150  0.0752  0.3141
 2524SOL    HW119031   1.441   1.578   4.724  0.1908  0.1055 -1.1170
 2524SOL    HW219032   1.541   1.471   4.715 -1.5215 -0.1249  0.7451
 2525SOL     OW19033   0.058   4.280   3.776 -0.1090 -0.4612 -0.1873
 2525SOL    HW119034   0.055   4.324   3.861 -0.5556  0.0597 -0.4669
 2525SOL    HW219035   4.688   4.273   3.764 -0.0042  2.7515 -3.1141
 2526SOL     OW19036   0.826   2.556   2.850  0.3805  0.6250  0.3495
 2526SOL    HW119037   0.786   2.531   2.767  1.4676 -1.9193  0.5979
 2526SOL    HW219038   0.856   2.468   2.873  1.8629 -0.1682 -4.5602
 2527SOL     OW19039   2.002   1.296  10.642 -0.8732 -0.1165  0.3261
 2527SOL    HW119040   2.035   1.354  10.573  0.0727 -0.7076  0.2672
 2527SOL    HW219041   1.908   1.305  10.629 -0.9873  0.6562  1.7885
 2528SOL     OW19042   2.011   0.442   0.455 -0.4304  0.4264 -0.2464
 2528SOL    HW119043   1.940   0.434   0.392 -0.5508  1.5975 -0.2475
 2528SOL    HW219044   1.961   0.442   0.537 -0.4843 -0.0684 -0.2805
 2529SOL     OW19045   1.598   1.861   8.479  0.1378 -0.8157  0.2946
 2529SOL    HW119046   1.570   1.795   8.542 -0.8061 -0.9514 -0.2746
 2529SOL    HW219047   1.666   1.905   8.531  1.4272 -0.3737 -1.7364
 2530SOL     OW19048   0.865   0.384   4.200  0.4269 -0.1474 -0.6418
 2530SOL    HW119049   0.841   0.325   4.129 -3.0795 -1.4908  1.6661
 2530SOL    HW219050   0.951   0.414   4.171  1.2562 -0.1912  1.7321
 2531SOL     OW19051   2.401   1.935  17.138  0.4407 -0.2567  0.1991
 2531SOL    HW119052   2.468   1.997  17.166  0.4931 -1.0357  1.7498
 2531SOL    HW219053   2.439   1.875  17.074 -0.1185 -1.2340  0.7856
 2532SOL     OW19054   4.485   3.046   3.193  0.1765 -0.0576 -0.1312
 2532SOL    HW119055   4.528   2.997   3.123 -1.3760 -0.3787 -0.8588
 2532SOL    HW219056   4.556   3.107   3.212 -0.3651  0.3898  0.4997
 2533SOL     OW19057   4.570   3.014   0.980 -0.1140  0.4257  0.1627
 2533SOL    HW119058   4.611   2.971   1.055  2.9344  0.6382 -1.3630
 2533SOL    HW219059   4.478   3.020   1.006 -0.1222  0.5441  0.1057
 2534SOL     OW19060   0.016   2.146   5.857 -0.3980  0.0915  0.4645
 2534SOL    HW119061   0.063   2.224   5.828  0.0408 -0.7145 -0.9714
 2534SOL    HW219062   0.012   2.094   5.776  0.4180 -2.8458  2.3363
 2535SOL     OW19063   0.127   2.850  12.962  0.3685 -0.3298  0.1071
 2535SOL    HW119064   0.152   2.762  12.935  0.1380 -0.1910 -0.5637
 2535SOL    HW219065   0.213   2.891  12.963  0.6883 -1.0310  0.8100
 2536SOL     OW19066   3.804   0.653   8.394 -0.0497 -0.1599  0.3170
 2536SOL    HW119067   3.731   0.592   8.403  0.4182 -1.0452 -1.9056
 2536SOL    HW219068   3.869   0.585   8.377 -0.1028 -0.4205  1.1591
 2537SOL     OW19069   2.652   3.471   6.864 -0.2537 -0.6232  0.0941
 2537SOL    HW119070   2.577   3.523   6.835  0.2298  0.4058  0.6932
 2537SOL    HW219071   2.700   3.474   6.781 -0.8706 -0.7682 -0.2701
 2538SOL     OW19072   1.407   0.444   3.957 -0.3252 -0.2244  0.4726
 2538SOL    HW119073   1.345   0.389   4.004  0.3213  0.6109  2.2853
 2538SOL    HW219074   1.446   0.380   3.897  0.7293  0.9658 -0.1282
 2539SOL     OW19075   3.219   1.121  17.636  0.2115 -0.7145  0.4451
 2539SOL    HW119076   3.254   1.115  17.547  1.4285 -1.4175  0.9626
 2539SOL    HW219077   3.124   1.113  17.626  0.1446  0.4509  0.1364
 2540SOL     OW19078   2.707   4.461   6.575  0.1175  0.1000 -0.2121
 2540SOL    HW119079   2.630   4.507   6.607  1.4537  1.3354  1.2676
 2540SOL    HW219080   2.686   4.461   6.482 -0.5536  1.7048 -0.0652
 2541SOL     OW19081   0.239   1.150   9.904  0.0220  0.2217 -0.2056
 2541SOL    HW119082   0.277   1.150   9.992 -2.4445 -0.0038  0.8861
 2541SOL    HW219083   0.303   1.211   9.868  2.3216 -0.9496  1.9037
 2542SOL     OW19084   4.131   2.374   5.941  0.3575  0.0887 -0.2082
 2542SOL    HW119085   4.183   2.317   5.885  1.3326  1.8732 -1.1430
 2542SOL    HW219086   4.042   2.347   5.918  0.2050  0.0520  0.4247
 2543SOL     OW19087   3.969   3.795   5.400  0.1657  0.1291 -0.2198
 2543SOL    HW119088   3.922   3.735   5.343 -2.1500 -0.3056  2.1405
 2543SOL    HW219089   3.916   3.874   5.387 -0.9585 -0.5220  0.4343
 2544SOL     OW19090   3.196   3.636   6.207  0.1632  0.4710  1.0830
 2544SOL    HW119091   3.255   3.627   6.282 -0.0888  1.2241  1.3724
 2544SOL    HW219092   3.203   3.729   6.186 -1.3942  0.5936  1.1106
 2545SOL     OW19093   2.481   3.325  10.450  0.0949 -0.0678 -0.3652
 2545SOL    HW119094   2.411   3.388  10.434 -0.5026 -0.8310 -0.7409
 2545SOL    HW219095   2.550   3.390  10.467  0.1334 -0.7665  2.1167
 2546SOL     OW19096   3.855   2.655  12.511  0.5626 -0.2939  0.5645
 2546SOL    HW119097   3.881   2.590  12.576  2.2446  1.1209  1.3045
 2546SOL    HW219098   3.829   2.724  12.573 -1.0249  0.1609 -0.6002
 2547SOL     OW19099   0.769   0.779  13.825 -0.7368  0.5498  0.2068
 2547SOL    HW119100   0.851   0.736  13.847  0.2497  1.4847 -1.6675
 2547SOL    HW219101   0.772   0.864  13.869  0.1542 -0.9172  3.0109
 2548SOL     OW19102   2.688   4.565   2.837 -0.1518  0.5854  0.3738
 2548SOL    HW119103   2.686   4.471   2.854 -0.9000  0.6546  0.6638
 2548SOL    HW219104   2.779   4.587   2.816 -0.5718 -0.6406 -2.7253
 2549SOL     OW19105   3.907   3.633  15.297  0.5583  0.2793 -0.0729
 2549SOL    HW119106   3.918   3.540  15.277  0.0719  1.0415 -3.8083
 2549SOL    HW219107   3.822   3.640  15.340  0.9898 -2.3685  1.2233
 2550SOL     OW19108   3.022   4.169   2.850  0.2568 -0.2049 -0.1003
 2550SOL    HW119109   3.093   4.106   2.862  0.7408  0.1459 -1.1418
 2550SOL    HW219110   3.075   4.249   2.849 -1.2449  0.7362 -2.8445
 2551SOL     OW19111   2.105   1.018   8.103 -0.0700 -0.5826  0.2054
 2551SOL    HW119112   2.117   1.012   8.197  1.6946  0.4754  0.0379
 2551SOL    HW219113   2.095   1.109   8.077 -0.9530 -0.9850 -0.8912
 2552SOL     OW19114   3.375   3.902   3.993  0.0685 -0.0050 -0.1564
 2552SOL    HW119115   3.352   3.848   3.917 -1.4538  1.3441 -0.6408
 2552SOL    HW219116   3.297   3.954   4.011 -0.1966 -0.0921 -1.0476
 2553SOL     OW19117   4.382   2.381   3.076 -0.5345 -0.2127 -0.1258
 2553SOL    HW119118   4.333   2.305   3.047 -1.7924  1.3306 -2.0738
 2553SOL    HW219119   4.324   2.430   3.134 -0.5322  0.2803 -0.5366
 2554SOL     OW19120   2.929   0.886  11.080 -0.1059 -0.0286  0.4624
 2554SOL    HW119121   2.880   0.803  11.082 -0.4398  0.2531  3.0874
 2554SOL    HW219122   2.872   0.948  11.124  2.0744  0.4583  2.5267
 2555SOL     OW19123   2.935   4.635   6.643 -0.2964  0.0275  0.1392
 2555SOL    HW119124   2.864   4.588   6.600 -0.3293 -1.0830  1.4067
 2555SOL    HW219125   2.978   4.679   6.570  2.9500  0.7656  2.4677
 2556SOL     OW19126   1.119   2.877  13.179  0.2980  0.5333 -0.0602
 2556SOL    HW119127   1.200   2.897  13.133  1.8368 -5.7023 -0.1381
 2556SOL    HW219128   1.112   2.942  13.249  0.1338 -0.8962  1.2701
 2557SOL     OW19129   1.767   2.009   7.670 -0.1626 -0.3635  0.3429
 2557SOL    HW119130   1.709   2.059   7.728  0.9385  0.1231  1.0212
 2557SOL    HW219131   1.844   2.065   7.680 -1.5288  1.7483 -1.0210
 2558SOL     OW19132   3.318   2.107  14.586 -0.0832  0.5757 -0.4393
 2558SOL    HW119133   3.290   2.025  14.544 -0.0105 -0.2278  1.0848
 2558SOL    HW219134   3.252   2.166  14.549  1.0986  2.2882  0.2478
 2559SOL     OW19135   3.724   3.633   8.381  0.2754  0.0025  0.2679
 2559SOL    HW119136   3.634   3.623   8.413  1.2668 -2.7573  2.1470
 2559SOL    HW219137   3.774   3.584   8.446 -0.2697  0.0261  0.7133
 2560SOL     OW19138   0.481   1.090   0.043  0.5263  0.2631 -0.0480
 2560SOL    HW119139   0.548   1.157   0.027 -0.5169  0.8260 -2.1178
 2560SOL    HW219140   0.405   1.139   0.011  1.1741  1.7606  0.7078
 2561SOL     OW19141   4.348   3.775   4.131  0.1946 -0.0719 -0.0492
 2561SOL    HW119142   4.326   3.693   4.087  1.0510 -0.7608  0.8462
 2561SOL    HW219143   4.415   3.809   4.072 -1.8583  1.0113 -1.7892
 2562SOL     OW19144   3.144   1.038   5.601  0.7161  0.0435 -0.5237
 2562SOL    HW119145   3.050   1.035   5.584  0.5042 -1.2284  0.8933
 2562SOL    HW219146   3.172   0.953   5.565 -2.9062 -1.0527 -0.7206
 2563SOL     OW19147   0.538   0.946   2.146 -0.4148  0.4540 -0.6659
 2563SOL    HW119148   0.496   0.875   2.195  0.7949 -0.7140 -1.2915
 2563SOL    HW219149   0.576   0.901   2.070 -2.5882 -0.8153 -0.9847
 2564SOL     OW19150   1.623   2.653   1.053  0.0481 -0.0947  0.1281
 2564SOL    HW119151   1.564   2.678   1.124 -0.5710 -1.5526  0.1154
 2564SOL    HW219152   1.662   2.739   1.036 -1.8608  0.4286 -1.6522
 2565SOL     OW19153   2.038   2.793   8.244 -0.5807  0.0879 -0.1071
 2565SOL    HW119154   1.960   2.750   8.280 -1.3326  2.1709  0.7429
 2565SOL    HW219155   1.995   2.837   8.171 -0.2992  1.5848  0.6268
 2566SOL     OW19156   1.412   3.565   2.429 -0.4008 -0.2219 -0.0786
 2566SOL    HW119157   1.378   3.581   2.341  1.1186  1.9398 -0.2652
 2566SOL    HW219158   1.388   3.647   2.473 -1.6957 -0.6931  0.0871
 2567SOL     OW19159   3.879   0.659   8.095 -0.0991 -0.6111  0.0424
 2567SOL    HW119160   3.785   0.651   8.110 -0.5629  2.8576 -0.8854
 2567SOL    HW219161   3.895   0.572   8.060 -0.8789 -0.0766 -1.6363
 2568SOL     OW19162   2.772   0.045   4.217  0.0878  0.1291 -0.2805
 2568SOL    HW119163   2.682   0.075   4.227 -0.1000 -0.6868  0.4909
 2568SOL    HW219164   2.819   0.080   4.293  1.0536 -1.5511 -0.0898
 2569SOL     OW19165   4.687   4.624   9.472 -0.1534 -0.4207 -0.3125
 2569SOL    HW119166   0.045   4.578   9.478  0.9509  1.4805 -1.0840
 2569SOL    HW219167   4.703   4.698   9.413  2.8438 -1.6992 -1.0763
 2570SOL     OW19168   3.821   4.089   5.739 -0.6121 -0.0413  0.2251
 2570SOL    HW119169   3.787   4.147   5.671  0.6112 -0.2139 -0.5396
 2570SOL    HW219170   3.844   4.011   5.690 -2.8847  0.3062 -1.4086
 2571SOL     OW19171   4.304   1.040  11.454  0.0725 -0.2422 -0.2338
 2571SOL    HW119172   4.263   1.093  11.522  2.3032  0.9615  0.1956
 2571SOL    HW219173   4.274   0.951  11.469 -4.0169  0.9227 -1.5490
 2572SOL     OW19174   2.724   4.534   7.069 -0.1206  0.1801 -0.1423
 2572SOL    HW119175   2.808   4.543   7.112  1.1760 -2.8238 -2.0451
 2572SOL    HW219176   2.746   4.452   7.024  0.2343  0.1329  0.1226
 2573SOL     OW19177   3.759   3.683   4.887 -0.4166 -0.1110  0.0014
 2573SOL    HW119178   3.745   3.696   4.794 -0.2960 -0.9377 -0.1349
 2573SOL    HW219179   3.676   3.717   4.920 -1.9380 -0.4733 -3.4381
 2574SOL     OW19180   0.646   3.216   8.835  0.0796  0.2011 -0.5022
 2574SOL    HW119181   0.629   3.147   8.771 -0.1963  0.0252 -0.2380
 2574SOL    HW219182   0.611   3.290   8.786 -1.3575 -0.7853 -0.9446
 2575SOL     OW19183   2.403   0.702   2.711  0.6026  0.2404 -0.2165
 2575SOL    HW119184   2.308   0.701   2.717  0.6175  0.0112 -0.0177
 2575SOL    HW219185   2.427   0.609   2.708  0.5342  0.2337 -0.6287
 2576SOL     OW19186   1.913   2.155   0.498  0.9351 -0.1061 -0.1304
 2576SOL    HW119187   1.870   2.202   0.426  0.2250  0.2694  0.5400
 2576SOL    HW219188   2.005   2.179   0.487  0.9991 -0.8404 -1.2760
 2577SOL     OW19189   2.345   1.369   5.240  0.0164 -0.2177  0.3065
 2577SOL    HW119190   2.341   1.449   5.292  0.9568 -0.3125  0.5357
 2577SOL    HW219191   2.254   1.346   5.221 -0.0197 -0.1255  0.3701
 2578SOL     OW19192   3.540   3.768   5.803  0.0406  0.3254  0.4196
 2578SOL    HW119193   3.513   3.859   5.809 -0.3877  0.4290 -2.9828
 2578SOL    HW219194   3.568   3.759   5.712  0.0346 -0.6807  0.5094
 2579SOL     OW19195   1.464   3.924   7.256  0.7167  0.0581 -0.3908
 2579SOL    HW119196   1.424   3.993   7.203 -0.7346 -0.1485  0.4348
 2579SOL    HW219197   1.426   3.947   7.340  0.8681 -0.3212 -0.2158
 2580SOL     OW19198   2.619   4.465  12.488  0.0999 -0.7536  0.1874
 2580SOL    HW119199   2.623   4.379  12.531  0.2037 -1.1507 -0.6063
 2580SOL    HW219200   2.573   4.509  12.560  3.4248  3.5036 -0.2803
 2581SOL     OW19201   1.768   2.384   4.117 -0.0755 -0.4252  0.9394
 2581SOL    HW119202   1.740   2.299   4.084  1.4695 -1.3607  2.0639
 2581SOL    HW219203   1.689   2.428   4.084  0.9405  1.2922  0.8099
 2582SOL     OW19204   1.719   1.284  11.800 -0.3250  0.1476  0.2211
 2582SOL    HW119205   1.777   1.217  11.765  0.9325  2.2925 -1.8164
 2582SOL    HW219206   1.688   1.236  11.877  1.3923  2.3462  2.2749
 2583SOL     OW19207   2.902   4.235   5.980 -0.3858  0.0915  0.7925
 2583SOL    HW119208   2.910   4.259   6.072 -1.9643 -0.4082  1.0743
 2583SOL    HW219209   2.964   4.162   5.971 -0.2925  0.3105 -0.3555
 2584SOL     OW19210   3.345   4.637   6.879  0.6776 -0.0370 -0.1039
 2584SOL    HW119211   3.334   4.651   6.973  3.0785 -1.0953  0.3373
 2584SOL    HW219212   3.270   4.587   6.846 -1.0296  0.9298  2.3380
 2585SOL     OW19213   1.633   2.868   3.310 -0.0272  0.0759 -0.3831
 2585SOL    HW119214   1.588   2.902   3.233 -0.2863  0.4030 -0.0863
 2585SOL    HW219215   1.562   2.873   3.374  0.3713 -1.1004  0.1394
 2586SOL     OW19216   2.845   2.842  17.250  0.0624 -0.3350 -0.1345
 2586SOL    HW119217   2.812   2.833  17.339 -0.4843  0.0011 -0.2987
 2586SOL    HW219218   2.782   2.905  17.214  0.0515  0.8269  1.9235
 2587SOL     OW19219   3.739   2.208   7.156  0.1491 -0.0695 -0.0152
 2587SOL    HW119220   3.700   2.143   7.097  0.6356 -0.3398 -0.0342
 2587SOL    HW219221   3.832   2.187   7.154  0.7967  3.1942 -3.0213
 2588SOL     OW19222   3.566   0.993   8.867  0.1586 -0.2962 -0.2611
 2588SOL    HW119223   3.519   1.069   8.833 -0.1408  0.5633  2.0953
 2588SOL    HW219224   3.520   0.928   8.814 -0.7852  1.1285 -1.2100
 2589SOL     OW19225   2.897   0.842   6.176 -0.3038 -0.0984 -0.1020
 2589SOL    HW119226   2.983   0.807   6.199 -0.6508 -0.3183  0.8847
 2589SOL    HW219227   2.883   0.907   6.245  2.1149  0.9372 -0.6026
 2590SOL     OW19228   4.603   1.888   3.470 -0.1950 -0.0710  0.3624
 2590SOL    HW119229   4.690   1.915   3.441 -0.3690 -0.6174 -0.6453
 2590SOL    HW219230   4.554   1.952   3.419 -1.2790 -1.8783 -0.8896
 2591SOL     OW19231   2.821   1.013   2.483 -0.9610 -0.7016  0.0897
 2591SOL    HW119232   2.780   1.058   2.410 -1.2109 -0.9138  0.1005
 2591SOL    HW219233   2.753   0.960   2.523 -0.2907 -0.4237  1.5988
 2592SOL     OW19234   2.122   1.198   2.989 -0.2604  0.0008  0.0794
 2592SOL    HW119235   2.052   1.262   2.974 -0.2258 -0.2507 -1.0904
 2592SOL    HW219236   2.189   1.260   3.016 -1.1311  0.2071  1.8054
 2593SOL     OW19237   2.777   0.333   0.096  0.2977  0.3244 -0.4914
 2593SOL    HW119238   2.801   0.283   0.018 -1.5531 -0.4071 -0.5938
 2593SOL    HW219239   2.811   0.420   0.078 -1.3222  1.2116  0.7059
 2594SOL     OW19240   3.172   1.192   3.967  0.3409 -0.7242 -0.3498
 2594SOL    HW119241   3.185   1.129   3.896  0.8205 -3.8698  2.4987
 2594SOL    HW219242   3.077   1.204   3.961  0.2032 -0.6469  2.1629
 2595SOL     OW19243   0.524   0.182   4.415  0.7157 -0.4173 -0.6184
 2595SOL    HW119244   0.567   0.256   4.457  1.5254 -2.4976  2.2444
 2595SOL    HW219245   0.562   0.109   4.465  2.4186 -0.1930 -1.5638
 2596SOL     OW19246   2.517   2.393  17.166  0.2569 -0.3960 -0.3719
 2596SOL    HW119247   2.458   2.342  17.111  0.0121 -0.1461 -0.3392
 2596SOL    HW219248   2.595   2.393  17.111  0.5095 -1.8087 -0.0199
 2597SOL     OW19249   0.326   2.476   8.196 -0.2325  0.0015 -0.4219
 2597SOL    HW119250   0.284   2.409   8.143 -1.3346 -1.3173  2.1284
 2597SOL    HW219251   0.414   2.471   8.158  0.1185  1.1284  0.2513
 2598SOL     OW19252   3.808   0.370   7.802  0.0663 -0.1742 -0.3752
 2598SOL    HW119253   3.863   0.402   7.873 -1.2422 -2.6669  1.7892
 2598SOL    HW219254   3.720   0.378   7.840  1.0666 -2.4073  2.4104
 2599SOL     OW19255   0.919   0.191  13.724  0.2333 -0.0259  0.2751
 2599SOL    HW119256   0.950   0.129  13.790  1.0466  1.4876  1.2989
 2599SOL    HW219257   0.871   0.126  13.672 -1.2269  1.2270  0.0608
 2600SOL     OW19258   1.960   0.198   7.126  0.0518 -0.2947  0.3570
 2600SOL    HW119259   2.053   0.198   7.149  0.3445  1.2364 -0.8678
 2600SOL    HW219260   1.919   0.138   7.188  0.5125  0.5405  1.4642
 2601SOL     OW19261   4.548   0.880  12.695  0.2177 -0.0797  0.6549
 2601SOL    HW119262   4.589   0.835  12.622 -1.2786 -2.8001  1.5146
 2601SOL    HW219263   4.503   0.808  12.738  0.0452 -1.1248 -1.3225
 2602SOL     OW19264   1.038   0.951  11.045 -0.2188  0.0397 -0.6596
 2602SOL    HW119265   0.968   0.909  10.995 -1.4620  0.1665  0.9870
 2602SOL    HW219266   1.078   0.869  11.076  1.9677  1.7126  0.9731
 2603SOL     OW19267   1.014   1.004   2.328 -0.1223  0.3403 -0.2995
 2603SOL    HW119268   0.984   0.961   2.248  0.4403  1.6109 -1.1911
 2603SOL    HW219269   0.954   1.078   2.323 -1.7250 -1.0200 -1.1652
 2604SOL     OW19270   2.650   0.003  11.819  0.3165  0.0084  0.2864
 2604SOL    HW119271   2.626   4.662  11.755  0.9550  1.6541 -1.6618
 2604SOL    HW219272   2.588   0.074  11.801 -0.2731 -0.4558  0.5056
 2605SOL     OW19273   2.139   3.933   3.073  0.0767 -0.0928 -0.6747
 2605SOL    HW119274   2.141   3.900   2.983 -1.7676 -0.8376 -0.4423
 2605SOL    HW219275   2.221   3.898   3.108 -0.7381 -1.7812 -0.4836
 2606SOL     OW19276   4.450   0.626   9.493 -0.2323 -0.2727 -0.9733
 2606SOL    HW119277   4.452   0.707   9.545 -1.5606 -0.2425 -0.9828
 2606SOL    HW219278   4.496   0.652   9.413  0.4443  0.2279 -0.4292
 2607SOL     OW19279   2.285   3.502   8.429  0.2948  0.0586 -0.0238
 2607SOL    HW119280   2.223   3.443   8.473 -0.7269  1.5699  0.5696
 2607SOL    HW219281   2.295   3.560   8.505  1.0027 -1.5058  1.0674
 2608SOL     OW19282   3.351   4.557   5.401 -0.6970  0.3393  0.2186
 2608SOL    HW119283   3.276   4.611   5.377  0.4488  1.9354  0.2739
 2608SOL    HW219284   3.307   4.498   5.463 -1.6541  0.5138 -0.2875
 2609SOL     OW19285   3.851   4.549  16.542 -1.0022  0.0935 -0.2679
 2609SOL    HW119286   3.915   4.618  16.559 -1.1058  0.6949 -2.3686
 2609SOL    HW219287   3.906   4.480  16.581 -1.2305  1.0057  1.6463
 2610SOL     OW19288   3.018   1.012   9.889  0.3301  0.1652  0.7647
 2610SOL    HW119289   3.107   1.031   9.858 -0.1353 -0.5476 -0.9981
 2610SOL    HW219290   2.984   0.941   9.835 -2.5346  0.2999  2.4101
 2611SOL     OW19291   3.118   1.432  13.248  0.1531 -0.0884  1.1986
 2611SOL    HW119292   3.186   1.386  13.198  0.3166 -0.5400  1.8441
 2611SOL    HW219293   3.099   1.365  13.313  1.3646  0.2275  1.8594
 2612SOL     OW19294   2.274   2.528   0.854  0.3308  0.0537  0.3199
 2612SOL    HW119295   2.260   2.590   0.926 -0.1677  0.4125 -0.0810
 2612SOL    HW219296   2.190   2.482   0.853 -0.4450  1.4404  0.5657
 2613SOL     OW19297   1.378   2.807   1.616 -0.1494  0.3487 -0.0931
 2613SOL    HW119298   1.371   2.887   1.667  0.0620  0.6062 -0.4729
 2613SOL    HW219299   1.375   2.739   1.684  0.1221  1.2076  0.7741
 2614SOL     OW19300   1.306   3.481   6.361 -0.0118  0.1433 -0.5683
 2614SOL    HW119301   1.395   3.464   6.392  0.1510 -0.2169 -1.2230
 2614SOL    HW219302   1.259   3.467   6.443  1.8039 -0.3952  0.3717
 2615SOL     OW19303   4.247   0.415   6.297 -0.1702  0.4063  0.1255
 2615SOL    HW119304   4.213   0.500   6.268 -0.1728 -0.2342 -1.7058
 2615SOL    HW219305   4.308   0.395   6.226  0.2009  0.0763  0.5408
 2616SOL     OW19306   0.240   0.822   6.958 -0.1237 -0.2129  0.4055
 2616SOL    HW119307   0.157   0.861   6.985 -0.3592 -1.2027  1.1464
 2616SOL    HW219308   0.243   0.832   6.863  0.5866 -1.5083  0.2814
 2617SOL     OW19309   0.525   2.043   2.827 -0.5782  1.0480 -0.4978
 2617SOL    HW119310   0.503   1.972   2.767  1.4110 -1.8568  2.2587
 2617SOL    HW219311   0.497   1.990   2.901 -0.5484 -0.6907 -1.7222
 2618SOL     OW19312   0.149   3.701  12.225 -0.1270 -0.6801 -0.3430
 2618SOL    HW119313   0.160   3.720  12.319 -1.1032  1.7583 -0.7373
 2618SOL    HW219314   0.122   3.609  12.226 -3.2012  0.2304 -0.2705
 2619SOL     OW19315   3.082   2.137   2.104  0.2428  0.4555  0.4118
 2619SOL    HW119316   3.154   2.113   2.045  0.2795  0.1209  0.5919
 2619SOL    HW219317   3.111   2.110   2.192  1.5029  1.7376  0.3941
 2620SOL     OW19318   1.848   3.797  11.853  0.0678 -0.1753  1.1361
 2620SOL    HW119319   1.927   3.771  11.806 -2.1760  1.0598 -3.3002
 2620SOL    HW219320   1.807   3.710  11.854 -0.0247 -0.1163  2.5190
 2621SOL     OW19321   0.487   1.772  13.646  0.0047 -0.1161 -0.2822
 2621SOL    HW119322   0.546   1.706  13.609 -0.4889 -2.3462  2.8500
 2621SOL    HW219323   0.407   1.733  13.612  0.6200 -1.0128 -0.7172
 2622SOL     OW19324   4.586   1.698   6.406 -0.2517  0.3851 -0.2704
 2622SOL    HW119325   4.680   1.715   6.401  0.2351 -1.7572  1.5633
 2622SOL    HW219326   4.567   1.683   6.499  0.0524  2.8081  0.1813
 2623SOL     OW19327   2.904   3.793   6.773  0.3749  0.1246  0.0260
 2623SOL    HW119328   2.826   3.759   6.817 -0.2531  0.8545 -0.5156
 2623SOL    HW219329   2.968   3.724   6.788  2.8624  2.5795  0.7406
 2624SOL     OW19330   4.143   1.125   6.387  0.1444  0.4198 -0.2290
 2624SOL    HW119331   4.084   1.182   6.438 -0.6062 -0.9372  0.4032
 2624SOL    HW219332   4.225   1.175   6.394  1.2660 -1.5552  0.7876
 2625SOL     OW19333   4.157   3.662   8.377  0.2661 -0.5020  0.3172
 2625SOL    HW119334   4.192   3.638   8.463  2.1523 -1.1222 -0.6289
 2625SOL    HW219335   4.154   3.583   8.323  0.6449 -0.0378 -0.3731
 2626SOL     OW19336   4.449   0.488   0.873 -0.5231 -0.2840  0.0216
 2626SOL    HW119337   4.475   0.541   0.948 -2.1475  0.8581 -0.2149
 2626SOL    HW219338   4.478   0.543   0.800 -0.8346 -0.7623 -0.4599
 2627SOL     OW19339   0.777   3.132   2.862 -0.2997 -0.2213  0.4206
 2627SOL    HW119340   0.732   3.095   2.787 -0.4003 -1.7215  1.2282
 2627SOL    HW219341   0.734   3.082   2.931 -2.3969  0.1253 -0.6501
 2628SOL     OW19342   4.394   3.360   2.200 -0.5732  0.0885  0.2941
 2628SOL    HW119343   4.394   3.264   2.208 -2.4427 -0.0866 -1.7695
 2628SOL    HW219344   4.301   3.378   2.185 -0.6207 -0.0847  0.3797
 2629SOL     OW19345   3.392   4.011   5.721  1.1218  0.3238  0.3001
 2629SOL    HW119346   3.371   4.023   5.629  2.5516 -0.9882 -0.2077
 2629SOL    HW219347   3.343   4.085   5.757  0.0105  0.6297 -1.8830
 2630SOL     OW19348   3.420   4.693   3.633 -0.2933 -0.1668  0.0752
 2630SOL    HW119349   3.363   4.635   3.683 -0.5168  1.3508  1.5732
 2630SOL    HW219350   3.476   4.721   3.706 -0.4477  0.7631 -0.1594
 2631SOL     OW19351   0.478   3.650   4.357  0.5979  0.5300  0.3371
 2631SOL    HW119352   0.568   3.677   4.337  0.0888  1.5176 -0.5944
 2631SOL    HW219353   0.452   3.585   4.292 -1.2732 -0.4173  2.0471
 2632SOL     OW19354   4.714   3.940   9.518  0.0197  0.0559 -0.3290
 2632SOL    HW119355   0.021   3.891   9.443 -1.2100  1.9360 -2.0634
 2632SOL    HW219356   4.684   4.023   9.481 -0.0768 -0.3453 -1.1408
 2633SOL     OW19357   2.606   4.713   8.034  0.9614 -0.0872 -0.2912
 2633SOL    HW119358   2.605   4.698   8.129 -1.6812  3.2342  0.2083
 2633SOL    HW219359   2.531   0.045   8.017  0.0256 -1.3726 -0.4513
 2634SOL     OW19360   2.396   2.530  13.556  0.6281 -0.1713 -0.2796
 2634SOL    HW119361   2.429   2.446  13.587  1.6117  0.7843  1.3397
 2634SOL    HW219362   2.325   2.550  13.618  0.4974  0.2729 -0.5728
 2635SOL     OW19363   3.614   1.993   2.950 -0.2900 -0.0469  0.1789
 2635SOL    HW119364   3.529   2.028   2.924 -0.1840 -0.9542 -1.4518
 2635SOL    HW219365   3.660   2.058   2.897 -1.2417  0.1032 -0.4678
 2636SOL     OW19366   0.498   0.568   9.509 -0.8993 -0.5230  0.4947
 2636SOL    HW119367   0.568   0.630   9.488 -0.3320 -1.7202 -1.0565
 2636SOL    HW219368   0.549   0.488   9.507 -1.1114 -0.6217 -0.5604
 2637SOL     OW19369   3.631   1.479  12.483 -0.0687 -0.4306 -0.4668
 2637SOL    HW119370   3.638   1.399  12.430 -0.6261 -0.0767 -1.0849
 2637SOL    HW219371   3.677   1.452  12.562  0.7232 -1.1404 -1.1671
 2638SOL     OW19372   0.312   4.469   8.230 -0.1282  0.0174  0.0231
 2638SOL    HW119373   0.274   4.424   8.154  0.1419  2.7366 -1.7550
 2638SOL    HW219374   0.238   4.485   8.289  0.8249  1.8942  0.7066
 2639SOL     OW19375   2.463   1.880   0.978  1.1790  0.1811 -0.5567
 2639SOL    HW119376   2.510   1.910   1.057 -1.5408  2.8577  0.0425
 2639SOL    HW219377   2.489   1.940   0.908 -1.3800  1.8784 -0.0652
 2640SOL     OW19378   3.046   0.431   9.349 -0.0838 -0.2002 -0.0699
 2640SOL    HW119379   3.124   0.485   9.353  0.6096 -1.2843  1.2421
 2640SOL    HW219380   3.087   0.349   9.378  0.0055 -0.7832 -1.8220
 2641SOL     OW19381   1.122   2.240   8.273  0.2745 -0.2907  0.6205
 2641SOL    HW119382   1.198   2.213   8.221 -0.4996 -0.5677 -0.3634
 2641SOL    HW219383   1.082   2.309   8.220  0.5064 -0.8988 -0.3484
 2642SOL     OW19384   2.378   3.075   0.045  0.3801 -0.1198  0.0132
 2642SOL    HW119385   2.451   3.015   0.027  0.8949 -0.2828  2.6801
 2642SOL    HW219386   2.374   3.130  17.669 -1.8051  1.6560  1.3715
 2643SOL     OW19387   3.105   3.503   2.797 -0.2600 -0.2293 -0.3048
 2643SOL    HW119388   3.056   3.472   2.721  2.0809 -0.8718 -1.5607
 2643SOL    HW219389   3.161   3.425   2.799 -0.0067 -0.0491 -0.3423
 2644SOL     OW19390   4.278   2.024   3.473 -0.6982 -0.3177 -0.0581
 2644SOL    HW119391   4.268   2.119   3.468 -0.2536 -0.2536  0.2934
 2644SOL    HW219392   4.319   2.011   3.387 -0.0223  1.0920  0.0611
 2645SOL     OW19393   1.864   4.214   8.571  0.1139  0.6014  0.5070
 2645SOL    HW119394   1.923   4.282   8.603  2.9614 -1.2754 -0.7920
 2645SOL    HW219395   1.786   4.253   8.611  0.5381  0.2261  1.6952
 2646SOL     OW19396   1.307   2.142   3.834 -0.6542 -0.0399  0.1673
 2646SOL    HW119397   1.248   2.066   3.824  0.4128 -0.9566  0.9375
 2646SOL    HW219398   1.356   2.132   3.752 -0.8446 -0.3673  0.0922
 2647SOL     OW19399   4.332   2.040   3.984  0.4947  0.8178 -0.1408
 2647SOL    HW119400   4.283   1.960   4.006  1.9320 -0.8448 -3.0079
 2647SOL    HW219401   4.344   2.031   3.890 -0.5412  5.0617 -0.6882
 2648SOL     OW19402   1.651   3.848   8.844 -0.3832  0.5459  0.2100
 2648SOL    HW119403   1.638   3.825   8.752 -0.5212 -2.7288  1.0684
 2648SOL    HW219404   1.638   3.943   8.838 -1.1990  0.4052 -0.2480
 2649SOL     OW19405   2.641   0.063  14.325  0.7039 -0.2239 -0.5252
 2649SOL    HW119406   2.575   0.031  14.264 -0.1691 -0.3458  0.4850
 2649SOL    HW219407   2.707   4.718  14.334  2.2569  1.4184  0.8683
 2650SOL     OW19408   1.874   2.172   4.506 -0.2219  0.4548 -0.1269
 2650SOL    HW119409   1.927   2.157   4.584 -0.8334  0.3616  0.2699
 2650SOL    HW219410   1.797   2.119   4.529 -1.1396  1.1392 -1.6690
 2651SOL     OW19411   4.539   4.236   7.958  0.2028 -0.9850 -0.1387
 2651SOL    HW119412   4.618   4.210   8.006  1.6621  2.0053 -0.9301
 2651SOL    HW219413   4.555   4.329   7.945 -0.3760 -0.5927  2.0967
 2652SOL     OW19414   2.095   3.689   5.522  0.4459  0.0725 -0.4395
 2652SOL    HW119415   2.173   3.688   5.466  0.4814  1.2205 -0.3946
 2652SOL    HW219416   2.017   3.678   5.468  1.2057  2.3967 -2.0005
 2653SOL     OW19417   1.734   1.277   6.212  0.3305  0.0039  0.4287
 2653SOL    HW119418   1.729   1.285   6.307 -0.6237 -1.2610  0.4753
 2653SOL    HW219419   1.828   1.264   6.207  0.3087 -0.3590  1.0215
 2654SOL     OW19420   2.008   2.626   4.064 -0.3520  0.0302  0.1586
 2654SOL    HW119421   1.943   2.622   4.134 -1.0310  1.4208 -0.3770
 2654SOL    HW219422   2.050   2.712   4.071  1.9411 -1.2554  2.0456
 2655SOL     OW19423   2.081   4.193   6.993 -0.2219 -0.3158  0.1451
 2655SOL    HW119424   2.046   4.160   7.076 -0.9739 -2.6772 -1.0967
 2655SOL    HW219425   2.156   4.136   6.974 -0.1782 -0.3116  0.3034
 2656SOL     OW19426   0.896   0.542  12.255  0.2412  0.3768  0.1323
 2656SOL    HW119427   0.817   0.515  12.206  1.6289 -2.0687 -0.7348
 2656SOL    HW219428   0.970   0.487  12.231 -0.9040 -1.4265  0.7036
 2657SOL     OW19429   1.495   4.117  15.446  0.3684  0.4070 -0.5316
 2657SOL    HW119430   1.547   4.084  15.520  0.1258  0.3262 -0.3966
 2657SOL    HW219431   1.427   4.050  15.457 -0.2736  0.8912 -1.5976
 2658SOL     OW19432   1.607   1.861   9.028 -0.6320  1.0447 -0.1500
 2658SOL    HW119433   1.549   1.936   9.013 -1.5038  0.4867  0.4128
 2658SOL    HW219434   1.561   1.782   8.999 -1.1694  1.9269 -1.6746
 2659SOL     OW19435   0.492   3.440   5.793  0.2541 -0.3293  0.4137
 2659SOL    HW119436   0.465   3.521   5.835 -0.4308  0.3177 -1.2968
 2659SOL    HW219437   0.574   3.422   5.839  0.4532  1.0343  0.5923
 2660SOL     OW19438   2.976   2.968   7.844 -0.3741  0.7225  0.3212
 2660SOL    HW119439   2.897   3.016   7.866 -1.2598 -1.0454  0.9944
 2660SOL    HW219440   2.983   2.982   7.750  0.9486  1.7984  0.5810
 2661SOL     OW19441   2.757   2.188   5.630  0.4634  0.7337 -0.0749
 2661SOL    HW119442   2.700   2.260   5.601  0.5332  0.9374  0.2885
 2661SOL    HW219443   2.704   2.147   5.698 -2.0329  1.8869 -1.3126
 2662SOL     OW19444   0.581   0.526   4.973  0.2389  0.1540  0.2846
 2662SOL    HW119445   0.515   0.457   4.982  0.2610 -0.0106 -0.7326
 2662SOL    HW219446   0.661   0.477   4.954  0.2800  0.5385 -0.5360
 2663SOL     OW19447   2.457   2.005  17.584  0.5454 -0.6805  0.0349
 2663SOL    HW119448   2.408   2.082  17.556  0.9210 -0.2760  0.4939
 2663SOL    HW219449   2.528   1.987  17.522  1.5069  0.2820  0.8529
 2664SOL     OW19450   0.630   2.257  15.166 -0.5316 -0.1685  0.6117
 2664SOL    HW119451   0.690   2.304  15.108  1.1880 -3.2422 -0.1514
 2664SOL    HW219452   0.663   2.289  15.250  1.0154 -0.0606 -0.0363
 2665SOL     OW19453   4.334   3.463  10.084 -0.1323  0.3778  0.0219
 2665SOL    HW119454   4.400   3.460  10.015  2.5003 -0.2312  2.5657
 2665SOL    HW219455   4.300   3.552  10.082 -1.4461 -0.0889  1.1761
 2666SOL     OW19456   4.431   3.615  15.391  0.0011  0.2069 -1.1353
 2666SOL    HW119457   4.347   3.578  15.419 -1.0383  2.4977 -1.1947
 2666SOL    HW219458   4.404   3.674  15.321 -0.3650  0.0298 -1.1425
 2667SOL     OW19459   4.201   3.970   9.077 -0.7355 -0.2335 -0.4288
 2667SOL    HW119460   4.276   4.027   9.096 -0.4281  0.0897 -2.6002
 2667SOL    HW219461   4.133   4.024   9.118 -0.3844  0.0532 -0.2213
 2668SOL     OW19462   1.052   2.320   7.579 -0.4373 -0.3707  0.3387
 2668SOL    HW119463   0.982   2.363   7.629 -0.0033  0.0424  0.5868
 2668SOL    HW219464   1.016   2.244   7.534 -2.7494  0.5527  0.6372
 2669SOL     OW19465   2.986   3.807   5.411  0.6239 -0.2520  0.4030
 2669SOL    HW119466   2.928   3.843   5.479 -0.0708 -0.2297 -0.1999
 2669SOL    HW219467   3.070   3.792   5.455 -0.1246 -1.8947  1.2714
 2670SOL     OW19468   0.405   0.593   4.319  0.4810 -0.0005  0.2716
 2670SOL    HW119469   0.450   0.545   4.249  0.4850 -0.3064  0.4879
 2670SOL    HW219470   0.429   0.556   4.404  0.1852 -2.3686 -0.6872
 2671SOL     OW19471   3.359   2.054   3.889 -0.2370  0.2257  0.1957
 2671SOL    HW119472   3.338   2.072   3.980 -3.1624  0.2284 -0.4846
 2671SOL    HW219473   3.453   2.045   3.905 -0.0706  0.4799 -0.6568
 2672SOL     OW19474   3.684   0.833   6.153 -0.4418 -0.2076  0.3757
 2672SOL    HW119475   3.611   0.815   6.212 -0.7607 -0.3505 -0.0650
 2672SOL    HW219476   3.650   0.814   6.066 -2.0018  3.5878  0.1597
 2673SOL     OW19477   2.350   4.137   6.562  0.0481 -0.5122 -0.3135
 2673SOL    HW119478   2.325   4.125   6.654  1.6820 -4.6156 -0.4083
 2673SOL    HW219479   2.423   4.076   6.565 -0.5330 -1.1368  1.2891
 2674SOL     OW19480   2.079   2.275  17.122 -0.0344 -0.0493  0.1053
 2674SOL    HW119481   2.172   2.300  17.114  0.0029 -0.2856 -0.1779
 2674SOL    HW219482   2.082   2.180  17.109 -0.0328 -0.4018  2.8009
 2675SOL     OW19483   3.392   3.002   1.289  0.3287 -0.0637  0.4956
 2675SOL    HW119484   3.351   3.052   1.360  0.2593 -1.5287  1.4697
 2675SOL    HW219485   3.318   2.973   1.235  0.3862 -1.5350  1.2052
 2676SOL     OW19486   1.048   1.776   2.994 -0.5595  0.5521 -0.6655
 2676SOL    HW119487   1.041   1.857   3.044 -1.0643 -0.6988  1.2944
 2676SOL    HW219488   0.966   1.739   3.026  0.2708 -1.3111 -0.6399
 2677SOL     OW19489   4.022   3.712   5.673  0.1752 -0.2970 -0.2482
 2677SOL    HW119490   3.953   3.646   5.669 -1.5813  1.5445  0.0215
 2677SOL    HW219491   4.013   3.758   5.589 -0.6506 -2.9155 -1.5872
 2678SOL     OW19492   2.102   3.280   0.989  0.0356  0.8814  0.4038
 2678SOL    HW119493   2.057   3.300   0.907 -0.0185 -0.9180 -0.0095
 2678SOL    HW219494   2.178   3.232   0.955  0.2649 -0.3592  2.7002
 2679SOL     OW19495   2.361   1.393   0.805  0.1148 -0.5885  0.3725
 2679SOL    HW119496   2.399   1.473   0.840 -2.5135  0.3298  1.1852
 2679SOL    HW219497   2.338   1.421   0.716  0.3439  0.6218  0.6973
 2680SOL     OW19498   4.493   0.358  13.237 -0.4450  0.2936  0.0261
 2680SOL    HW119499   4.528   0.271  13.216 -1.3106 -0.1646  0.4569
 2680SOL    HW219500   4.534   0.373  13.322  0.0320  1.3995 -0.4013
 2681SOL     OW19501   2.133   0.687   3.933  0.1108 -0.0534 -0.4864
 2681SOL    HW119502   2.227   0.699   3.922  0.0904  0.4910 -0.0861
 2681SOL    HW219503   2.142   0.653   4.022 -0.7869 -0.5180 -0.5687
 2682SOL     OW19504   1.469   2.970  16.976  0.0772  0.1541  0.1402
 2682SOL    HW119505   1.552   3.017  16.973  0.5145 -0.4841  2.1331
 2682SOL    HW219506   1.409   3.039  17.005  2.2672  1.9284  0.4634
 2683SOL     OW19507   2.729   0.651   1.947 -0.0547  0.0055 -0.1659
 2683SOL    HW119508   2.669   0.578   1.964  0.0143  0.1750  0.7875
 2683SOL    HW219509   2.665   0.722   1.939 -0.6632 -0.7674 -2.2075
 2684SOL     OW19510   3.464   1.658  12.325 -0.2050 -0.3958 -0.0034
 2684SOL    HW119511   3.522   1.590  12.360  2.4915  2.9643  1.9732
 2684SOL    HW219512   3.490   1.664  12.233 -0.4910 -0.3785 -0.0825
 2685SOL     OW19513   3.236   3.065  10.064 -0.9898 -0.3210  0.1419
 2685SOL    HW119514   3.217   3.050   9.972  0.1660  0.6122 -0.2466
 2685SOL    HW219515   3.266   3.156  10.062  0.5288 -0.7930  1.2902
 2686SOL     OW19516   0.681   0.193  15.523  0.0150  0.2148 -0.2802
 2686SOL    HW119517   0.641   0.278  15.543 -1.6738 -0.4024 -1.0564
 2686SOL    HW219518   0.669   0.189  15.428 -1.8018  0.0500 -0.0309
 2687SOL     OW19519   1.393   0.247   3.371 -0.0362 -1.1859  0.3617
 2687SOL    HW119520   1.474   0.274   3.413  0.0843 -0.2652 -0.4674
 2687SOL    HW219521   1.434   0.183   3.314  0.5858  1.3870 -2.0487
 2688SOL     OW19522   1.027   1.343   7.603 -0.1546 -0.4686 -0.1233
 2688SOL    HW119523   1.084   1.292   7.546 -0.1574 -0.4952 -0.1025
 2688SOL    HW219524   0.945   1.354   7.554 -0.8925  0.4147  1.3167
 2689SOL     OW19525   0.378   2.610   7.102 -0.0124  0.2667 -0.4171
 2689SOL    HW119526   0.404   2.669   7.173  0.0329 -1.0155  0.6388
 2689SOL    HW219527   0.294   2.639   7.068 -0.0108  0.9512  0.1682
 2690SOL     OW19528   3.545   0.853  13.751  0.4361  0.0758 -0.3407
 2690SOL    HW119529   3.452   0.863  13.732  0.6823 -1.7601 -2.4717
 2690SOL    HW219530   3.545   0.903  13.832 -1.7042 -1.7108  0.7547
 2691SOL     OW19531   0.207   2.151  13.034 -0.2046 -0.1148  0.1076
 2691SOL    HW119532   0.201   2.068  13.081  0.4155 -0.0517  0.2979
 2691SOL    HW219533   0.249   2.117  12.955 -2.8241  0.3506 -1.4968
 2692SOL     OW19534   4.010   0.903   2.136  0.3573 -0.6037 -0.2153
 2692SOL    HW119535   3.973   0.832   2.188 -1.4415 -1.6250 -2.8672
 2692SOL    HW219536   4.080   0.932   2.194  0.7054 -5.0266  1.6317
 2693SOL     OW19537   0.270   2.921   7.776 -0.0930 -0.1059 -0.0431
 2693SOL    HW119538   0.189   2.870   7.770  0.0721 -0.4095  0.3257
 2693SOL    HW219539   0.238   3.006   7.805 -1.8703 -0.1231 -1.9153
 2694SOL     OW19540   3.654   4.187   7.663 -0.1015  0.4790  0.0626
 2694SOL    HW119541   3.730   4.193   7.605 -0.4425 -1.2048 -0.5363
 2694SOL    HW219542   3.653   4.106   7.713 -0.3089  0.1729 -0.4392
 2695SOL     OW19543   0.455   4.044   0.378  0.1050 -0.0082  1.0124
 2695SOL    HW119544   0.418   4.053   0.290 -1.8709 -0.0259  1.8369
 2695SOL    HW219545   0.499   4.128   0.381 -0.0660  0.0282  2.3602
 2696SOL     OW19546   4.689   3.488  14.036 -0.1713 -0.5602 -0.4171
 2696SOL    HW119547   0.016   3.537  13.972  0.5925 -2.2338 -1.0779
 2696SOL    HW219548   0.007   3.501  14.120 -0.1171  0.6854 -0.6341
 2697SOL     OW19549   1.585   3.393   8.236 -0.3875 -0.2610 -0.2515
 2697SOL    HW119550   1.678   3.376   8.250 -0.4168 -1.3638 -1.3492
 2697SOL    HW219551   1.571   3.413   8.328  1.2473  1.0747 -0.2929
 2698SOL     OW19552   0.323   2.684  13.649  0.4679  0.0614 -0.2474
 2698SOL    HW119553   0.242   2.662  13.694  1.1479  1.4580  1.6556
 2698SOL    HW219554   0.367   2.604  13.678 -0.1193 -0.1207  0.1236
 2699SOL     OW19555   0.460   1.240  16.137 -0.0218 -0.1770 -0.5984
 2699SOL    HW119556   0.511   1.320  16.153  0.5075 -0.6832  0.2276
 2699SOL    HW219557   0.412   1.264  16.057 -1.2748  1.3506  0.5960
 2700SOL     OW19558   1.466   0.713   4.632 -0.2715 -0.0533  0.6734
 2700SOL    HW119559   1.471   0.799   4.673 -3.1657  0.0759  0.7338
 2700SOL    HW219560   1.545   0.711   4.579 -0.7063 -0.5454  0.0387
 2701SOL     OW19561   1.553   4.342   7.827  0.6730  0.2802 -0.2247
 2701SOL    HW119562   1.648   4.337   7.844  0.5024 -0.3862  0.5489
 2701SOL    HW219563   1.528   4.250   7.825 -1.2828  0.8316 -0.4165
 2702SOL     OW19564   2.289   4.658   4.985  0.0571 -0.2650  1.1076
 2702SOL    HW119565   2.356   4.679   5.050 -0.1908  0.2654  1.1922
 2702SOL    HW219566   2.209   4.645   5.037 -0.0663 -1.5435  0.6035
 2703SOL     OW19567   3.109   0.956  10.502  0.3811  0.2407  0.1869
 2703SOL    HW119568   3.164   1.016  10.551  0.5215 -0.3104  0.7058
 2703SOL    HW219569   3.038   1.009  10.465  1.0707  0.3295 -1.0319
 2704SOL     OW19570   3.266   2.356   1.584 -0.2941  0.0556  0.3204
 2704SOL    HW119571   3.340   2.404   1.621  0.2376 -1.0345  0.6741
 2704SOL    HW219572   3.206   2.347   1.658 -2.2919  0.6129 -1.2400
 2705SOL     OW19573   3.582   3.662   3.760  0.0666  0.0263  0.2589
 2705SOL    HW119574   3.595   3.589   3.821  0.2378  1.2765  1.7212
 2705SOL    HW219575   3.495   3.645   3.725 -0.0950  0.1833  0.5832
 2706SOL     OW19576   3.707   3.839   9.564 -0.0013  0.1019 -0.3194
 2706SOL    HW119577   3.728   3.802   9.478  0.8505 -0.4271  0.1160
 2706SOL    HW219578   3.746   3.926   9.564 -0.3009  0.2429  1.4559
 2707SOL     OW19579   0.391   3.407  10.189  0.2891 -0.0883  0.3021
 2707SOL    HW119580   0.371   3.482  10.134  0.2526 -0.8094 -0.6615
 2707SOL    HW219581   0.325   3.348  10.153 -1.0196  0.7769  1.3019
 2708SOL     OW19582   1.553   2.912   1.420 -0.0584  0.1083 -0.1606
 2708SOL    HW119583   1.480   2.888   1.478  0.5948 -2.2192 -0.3022
 2708SOL    HW219584   1.561   3.007   1.424  0.7270 -0.0429  1.9026
 2709SOL     OW19585   1.427   1.045   2.969 -0.7022  0.2284  0.3043
 2709SOL    HW119586   1.405   1.081   2.884  0.8799  1.4150  0.4008
 2709SOL    HW219587   1.496   0.987   2.938  0.4746  0.7877  1.8467
 2710SOL     OW19588   0.895   3.424   6.014  0.1562 -0.1641 -0.2669
 2710SOL    HW119589   0.951   3.501   6.006 -0.1993 -0.0444 -1.6622
 2710SOL    HW219590   0.915   3.402   6.104 -2.5526 -1.2802  0.0764
 2711SOL     OW19591   2.153   1.605  13.196 -0.2123  0.0396 -0.6742
 2711SOL    HW119592   2.185   1.607  13.286 -3.2287 -3.0528  0.4905
 2711SOL    HW219593   2.162   1.695  13.166 -1.8099  0.2272 -0.5725
 2712SOL     OW19594   1.082   0.491  15.433 -0.0529  0.2664  0.7519
 2712SOL    HW119595   1.058   0.399  15.447 -0.9491  0.5384  0.9910
 2712SOL    HW219596   1.175   0.491  15.454  0.7126  1.9388 -2.6095
 2713SOL     OW19597   4.208   1.681   3.618  0.0620 -0.7392  0.1506
 2713SOL    HW119598   4.293   1.697   3.578 -0.0194  0.7276  0.5426
 2713SOL    HW219599   4.194   1.587   3.608  0.4366 -0.8893  1.0990
 2714SOL     OW19600   4.131   2.015  17.041 -0.3088 -0.0967 -0.9868
 2714SOL    HW119601   4.058   1.989  16.985 -1.2260  0.1810  0.0842
 2714SOL    HW219602   4.093   2.095  17.076 -0.7931  1.2418 -4.5496
 2715SOL     OW19603   4.068   2.155   0.511 -0.1709  0.5903 -0.3822
 2715SOL    HW119604   4.120   2.080   0.484  0.8804  0.4668  1.9898
 2715SOL    HW219605   3.991   2.119   0.557  0.5697  0.0590  0.4400
 2716SOL     OW19606   4.269   4.099  12.826 -0.6373  0.3796  0.1134
 2716SOL    HW119607   4.277   4.025  12.765 -1.5554 -0.8756  1.5089
 2716SOL    HW219608   4.202   4.152  12.782 -1.1894 -0.4628 -0.0637
 2717SOL     OW19609   1.623   3.944   7.538 -0.6008 -0.3814 -0.1416
 2717SOL    HW119610   1.616   4.009   7.608 -2.2316  1.0046 -1.5916
 2717SOL    HW219611   1.715   3.920   7.548 -0.2835  0.4270 -1.2051
 2718SOL     OW19612   3.000   1.273   9.301  0.4089  0.2821 -0.1602
 2718SOL    HW119613   3.025   1.284   9.393  0.6455  2.7040 -0.5360
 2718SOL    HW219614   2.919   1.222   9.310  0.8587 -0.8391 -2.5792
 2719SOL     OW19615   2.052   4.569   5.149 -0.3811  0.5913 -0.1340
 2719SOL    HW119616   2.031   4.520   5.070  1.8211 -0.3755 -0.1185
 2719SOL    HW219617   2.107   4.504   5.193  0.0683  0.9319 -0.1796
 2720SOL     OW19618   0.484   3.821   1.289  0.2167  0.2247 -0.1398
 2720SOL    HW119619   0.545   3.844   1.359  0.0053 -0.6925  0.3661
 2720SOL    HW219620   0.502   3.727   1.288 -0.0167  0.1764  0.0619
 2721SOL     OW19621   0.634   2.696   3.837  0.2732  0.3212 -0.0941
 2721SOL    HW119622   0.589   2.768   3.793  2.7654  1.2492 -1.1209
 2721SOL    HW219623   0.675   2.656   3.761 -0.1541  1.5345 -0.9632
 2722SOL     OW19624   1.230   4.145   5.790  0.6968 -0.0564 -0.0757
 2722SOL    HW119625   1.218   4.239   5.777 -0.1540 -0.4308 -1.9339
 2722SOL    HW219626   1.149   4.139   5.840 -0.7134 -1.3299 -2.5321
 2723SOL     OW19627   1.383   4.382   4.934  0.1586  0.0330 -0.4679
 2723SOL    HW119628   1.450   4.390   5.002 -2.2159  0.0088  1.8635
 2723SOL    HW219629   1.304   4.373   4.988  1.0456  1.4628  1.0827
 2724SOL     OW19630   3.540   0.084   6.799  0.0666 -0.5741  0.3966
 2724SOL    HW119631   3.568   0.032   6.724  0.4489  0.1583  0.0271
 2724SOL    HW219632   3.468   0.032   6.835  0.5635 -1.3055  0.3256
 2725SOL     OW19633   3.593   1.601  13.483 -0.3058  0.2217  0.3123
 2725SOL    HW119634   3.510   1.641  13.508  0.5927  1.2036  1.7094
 2725SOL    HW219635   3.600   1.536  13.554 -0.5029  0.1469  0.2635
 2726SOL     OW19636   3.492   4.694   8.405  0.6139 -0.1007  0.4607
 2726SOL    HW119637   3.486   4.720   8.497  0.1333 -2.1438  0.9973
 2726SOL    HW219638   3.543   4.613   8.406  0.8810  0.0719  0.8573
 2727SOL     OW19639   4.566   4.004   6.107 -0.0471  1.0411  0.5365
 2727SOL    HW119640   4.487   3.960   6.075  0.5924 -0.9560  1.6437
 2727SOL    HW219641   4.596   3.947   6.178 -2.4710  2.5439  2.7538
 2728SOL     OW19642   3.289   3.097   6.727  0.2946  0.1443 -0.5871
 2728SOL    HW119643   3.334   3.100   6.811  2.0387 -0.2821 -1.5155
 2728SOL    HW219644   3.214   3.155   6.742  1.2226  0.4584  2.7527
 2729SOL     OW19645   1.411   0.088   3.091 -0.5094 -0.1443  0.8515
 2729SOL    HW119646   1.461   0.016   3.129 -1.2603 -1.5683 -0.8468
 2729SOL    HW219647   1.417   0.053   3.002 -2.9336  3.0754 -0.5825
 2730SOL     OW19648   4.260   3.773   8.893  0.0512  0.0464 -0.0634
 2730SOL    HW119649   4.169   3.768   8.864  0.0730  0.6921 -0.2448
 2730SOL    HW219650   4.255   3.854   8.942  1.3758 -0.3779  0.7620
 2731SOL     OW19651   4.269   3.687   7.677 -0.3984 -0.3914  0.0325
 2731SOL    HW119652   4.325   3.755   7.641  1.3862 -1.1641  1.3115
 2731SOL    HW219653   4.282   3.680   7.772 -4.0013 -1.3132  0.4477
 2732SOL     OW19654   0.025   1.429   7.267 -0.4465 -0.1364  0.6395
 2732SOL    HW119655   0.074   1.352   7.296 -0.0730 -0.3947 -0.6805
 2732SOL    HW219656   4.669   1.411   7.315 -0.0308 -0.5382  1.1880
 2733SOL     OW19657   2.402   4.393  17.572  0.3568  0.0882 -0.5430
 2733SOL    HW119658   2.469   4.325  17.581 -0.0706 -0.3706 -0.8271
 2733SOL    HW219659   2.422   4.450  17.497 -2.8258  0.4251 -1.1170
 2734SOL     OW19660   0.126   4.612   2.775  0.1847  0.2553  0.0417
 2734SOL    HW119661   0.067   4.687   2.776 -0.8448 -0.5472 -0.5302
 2734SOL    HW219662   0.178   4.619   2.855 -0.7303 -0.2593  0.6931
 2735SOL     OW19663   4.168   3.186   1.317 -0.0084 -0.1699 -0.7258
 2735SOL    HW119664   4.212   3.266   1.347 -0.4898 -0.3706  0.4807
 2735SOL    HW219665   4.080   3.218   1.301 -0.2456  0.1639  1.2925
 2736SOL     OW19666   0.165   0.579   8.487 -0.2950  0.3085  0.3314
 2736SOL    HW119667   0.179   0.671   8.464 -0.9225  0.2850 -0.1326
 2736SOL    HW219668   0.167   0.546   8.397  0.7644  0.0865  0.4289
 2737SOL     OW19669   2.361   3.660  13.349 -0.0678  0.3950 -0.2001
 2737SOL    HW119670   2.286   3.658  13.290  1.0055  0.7259 -1.5696
 2737SOL    HW219671   2.313   3.669  13.432  0.5741  1.7933  0.0119
 2738SOL     OW19672   4.577   1.905  10.301 -0.5449 -0.3735  0.3345
 2738SOL    HW119673   4.487   1.888  10.275 -1.6132  1.2225  2.9080
 2738SOL    HW219674   4.594   1.988  10.256  0.8152 -0.7957  0.0844
 2739SOL     OW19675   0.129   1.452   6.575 -0.2033 -0.0721  0.1844
 2739SOL    HW119676   0.134   1.539   6.537 -0.4908 -0.1917 -0.1309
 2739SOL    HW219677   0.222   1.430   6.565 -0.9275 -3.0055 -0.2534
 2740SOL     OW19678   3.073   1.732   5.177 -0.4048  0.9641  0.2357
 2740SOL    HW119679   3.143   1.711   5.114 -0.7633  0.1500  0.1015
 2740SOL    HW219680   3.008   1.675   5.135  0.4386  0.1225  0.0698
 2741SOL     OW19681   1.853   1.702   5.587  0.7011  0.0770  0.4187
 2741SOL    HW119682   1.904   1.667   5.660  0.0021  0.0274  0.8875
 2741SOL    HW219683   1.876   1.795   5.587 -0.4135  0.3577  0.3385
 2742SOL     OW19684   1.359   3.943   1.519 -0.3469  0.5175 -0.0781
 2742SOL    HW119685   1.427   3.890   1.562  0.1444  0.6959 -0.6409
 2742SOL    HW219686   1.394   3.962   1.432  2.9859 -0.6179  1.0170
 2743SOL     OW19687   1.002   1.742   1.895  0.3555 -0.1591 -0.1066
 2743SOL    HW119688   0.927   1.686   1.876  0.8828 -1.2511  1.0158
 2743SOL    HW219689   1.068   1.674   1.913  0.8702  0.5576  0.7150
 2744SOL     OW19690   4.051   4.525   6.141 -0.8078  0.2487  0.4426
 2744SOL    HW119691   4.051   4.504   6.047 -2.7664  1.5976  0.1574
 2744SOL    HW219692   3.961   4.554   6.152 -1.1886 -1.5253  1.9884
 2745SOL     OW19693   2.187   3.826   4.792 -0.0885 -0.4996 -0.3777
 2745SOL    HW119694   2.245   3.816   4.867 -0.0067  3.2572  0.0611
 2745SOL    HW219695   2.252   3.822   4.722  1.8493  0.4723  1.3661
 2746SOL     OW19696   3.709   1.841   7.430  0.3719  0.1764 -0.0351
 2746SOL    HW119697   3.627   1.800   7.455 -0.0759  0.4296 -1.0952
 2746SOL    HW219698   3.728   1.819   7.339  1.1408  0.0166  0.1611
 2747SOL     OW19699   3.343   2.189   9.005  0.4303 -0.0050 -0.3467
 2747SOL    HW119700   3.247   2.192   9.009  0.3935 -0.8549 -0.4742
 2747SOL    HW219701   3.376   2.197   9.094  1.1886  0.9156 -0.7134
 2748SOL     OW19702   3.961   4.259  14.673  0.2125  0.0967  0.3222
 2748SOL    HW119703   3.866   4.266  14.683  0.0050 -3.6897  0.9599
 2748SOL    HW219704   3.976   4.230  14.583  0.6048 -0.3335  0.5259
 2749SOL     OW19705   0.457   2.554  16.683  0.1992 -0.5116 -0.3312
 2749SOL    HW119706   0.378   2.507  16.654  0.1755  0.3361 -1.6417
 2749SOL    HW219707   0.477   2.600  16.601 -0.1299  0.4394  0.1289
 2750SOL     OW19708   0.119   2.775   2.532 -0.1014  0.0441 -0.0424
 2750SOL    HW119709   0.199   2.727   2.553  0.8267  1.6459  0.0239
 2750SOL    HW219710   0.070   2.719   2.472 -0.4706  0.9564 -0.5898
 2751SOL     OW19711   0.181   4.473   9.423  0.0012 -0.8639 -0.5803
 2751SOL    HW119712   0.197   4.434   9.509 -0.5388 -0.4317 -0.2859
 2751SOL    HW219713   0.233   4.553   9.418 -0.8354 -0.4646 -2.8632
 2752SOL     OW19714   1.019   1.916   7.657 -0.3505  0.4857 -0.1871
 2752SOL    HW119715   1.035   1.964   7.738  1.0964  1.0006 -0.7685
 2752SOL    HW219716   0.994   1.829   7.685  0.4752  0.2935 -0.0517
 2753SOL     OW19717   2.256   0.048   6.485  0.1972 -0.1565  0.1721
 2753SOL    HW119718   2.206   0.102   6.425  1.1598  0.3266 -0.2005
 2753SOL    HW219719   2.215   0.069   6.569  1.3182  1.2216  0.3822
 2754SOL     OW19720   1.249   4.138  10.550  0.0034  0.1620  0.3939
 2754SOL    HW119721   1.317   4.202  10.572  1.0093 -0.2758 -1.4174
 2754SOL    HW219722   1.183   4.155  10.616 -1.3486  0.2534 -0.9843
 2755SOL     OW19723   0.280   0.734   4.579 -0.0391 -0.6072 -0.1228
 2755SOL    HW119724   0.205   0.793   4.580 -0.3914 -1.0776  1.0015
 2755SOL    HW219725   0.263   0.679   4.655 -0.2061  1.1513  1.1121
 2756SOL     OW19726   0.217   2.063  16.100  0.2419 -0.0508 -0.4046
 2756SOL    HW119727   0.180   2.043  16.185  0.5068 -2.5446 -0.8785
 2756SOL    HW219728   0.197   1.984  16.050 -1.1402  0.0767 -0.0379
 2757SOL     OW19729   2.820   4.039  16.049 -0.0631  0.4365 -0.7042
 2757SOL    HW119730   2.849   4.097  16.120 -0.9760 -1.8692  1.5547
 2757SOL    HW219731   2.755   3.978  16.084  0.2347 -0.1931 -1.2704
 2758SOL     OW19732   3.458   4.487  12.954 -0.1317 -0.3525 -0.2517
 2758SOL    HW119733   3.370   4.461  12.982  0.6102  0.1052  2.4507
 2758SOL    HW219734   3.506   4.467  13.034 -0.8089 -0.3671  0.1554
 2759SOL     OW19735   1.026   3.153   5.224  0.3514 -0.4721  0.5034
 2759SOL    HW119736   0.945   3.203   5.233  0.9504  0.4665  0.7289
 2759SOL    HW219737   1.086   3.226   5.207 -0.3987  0.1438  0.4842
 2760SOL     OW19738   3.335   1.192  12.547 -0.3585 -0.6031 -0.2095
 2760SOL    HW119739   3.364   1.101  12.551  1.1881 -0.0643  0.9689
 2760SOL    HW219740   3.348   1.218  12.638  1.9056 -2.4979  0.0271
 2761SOL     OW19741   3.722   3.417  12.397  0.1033  0.1215  0.2387
 2761SOL    HW119742   3.729   3.499  12.348  0.8181  0.6640  1.2649
 2761SOL    HW219743   3.772   3.424  12.478 -1.0911  1.7555  0.8297
 2762SOL     OW19744   4.359   1.177  14.477 -0.2353 -0.3013 -0.3416
 2762SOL    HW119745   4.319   1.095  14.504  0.3287 -0.3655  0.2916
 2762SOL    HW219746   4.298   1.203  14.407  0.0674 -2.4603 -1.4131
 2763SOL     OW19747   2.517   0.927   2.864  0.0557  0.0757 -0.1936
 2763SOL    HW119748   2.435   0.876   2.863 -0.3165  0.6634  0.1100
 2763SOL    HW219749   2.549   0.915   2.775  0.9014 -2.7516  0.4923
 2764SOL     OW19750   3.480   3.414   3.124 -0.3936  0.2355  0.5247
 2764SOL    HW119751   3.455   3.386   3.213 -1.5801 -1.7290 -0.4323
 2764SOL    HW219752   3.411   3.475   3.096  0.3255  1.6712  1.8839
 2765SOL     OW19753   1.821   1.563   1.522  0.2909  0.1520 -0.0085
 2765SOL    HW119754   1.726   1.567   1.517  0.2688  2.4411  2.4121
 2765SOL    HW219755   1.857   1.638   1.473 -0.2886 -0.0986 -0.8145
 2766SOL     OW19756   0.696   4.191  15.511  0.1924  0.3947 -0.8329
 2766SOL    HW119757   0.659   4.140  15.583 -0.7335  0.2186 -1.4427
 2766SOL    HW219758   0.665   4.159  15.426  1.0249 -0.5779 -0.7634
 2767SOL     OW19759   1.210   2.275   7.310  0.0783 -0.0151 -0.4380
 2767SOL    HW119760   1.177   2.204   7.365  2.2148 -0.4593  0.2442
 2767SOL    HW219761   1.123   2.298   7.275  0.3168  1.4506 -0.0707
 2768SOL     OW19762   0.495   1.692   1.636 -0.1154 -0.5538  0.3811
 2768SOL    HW119763   0.408   1.731   1.643  0.0102 -0.2315  0.1351
 2768SOL    HW219764   0.509   1.656   1.724 -0.4539  0.0746  0.6963
 2769SOL     OW19765   2.908   0.257   5.223 -0.3158  0.4277  0.1118
 2769SOL    HW119766   2.961   0.199   5.168 -1.5429 -1.4671  0.9515
 2769SOL    HW219767   2.818   0.232   5.203 -0.6532  2.2138 -0.5837
 2770SOL     OW19768   1.432   1.610  12.755 -0.0967  0.3316 -0.1908
 2770SOL    HW119769   1.357   1.657  12.792 -1.0107 -0.5847 -0.8979
 2770SOL    HW219770   1.430   1.524  12.796  2.2845 -0.6523 -2.0795
 2771SOL     OW19771   0.454   1.810  15.169  0.2820  0.1050  0.4169
 2771SOL    HW119772   0.430   1.792  15.079  1.7674 -1.3690  0.3198
 2771SOL    HW219773   0.422   1.900  15.168 -2.3445 -0.8327  0.9581
 2772SOL     OW19774   2.429   2.423   4.704  0.1359 -0.1395 -0.4428
 2772SOL    HW119775   2.369   2.455   4.636  0.4719 -0.2847 -0.8103
 2772SOL    HW219776   2.492   2.370   4.656  0.8144  0.2149  0.0578
 2773SOL     OW19777   4.371   1.170  13.886 -0.0723 -0.0581 -0.1457
 2773SOL    HW119778   4.406   1.249  13.928 -0.3686 -1.5299  2.8385
 2773SOL    HW219779   4.317   1.209  13.817 -0.1066 -2.8974 -1.7386
 2774SOL     OW19780   0.133   4.723   9.032  0.0964  0.1957 -0.6483
 2774SOL    HW119781   0.227   4.721   9.012  0.0662 -0.0685 -0.7698
 2774SOL    HW219782   0.104   4.696   8.945 -2.3684 -0.0231  0.2316
 2775SOL     OW19783   4.642   4.415   8.467  0.2625  0.1798 -0.1860
 2775SOL    HW119784   4.686   4.339   8.429 -1.1915 -0.6750 -0.1785
 2775SOL    HW219785   4.648   4.393   8.560 -1.7015 -3.3947 -0.8916
 2776SOL     OW19786   2.037   0.956  12.961  0.1497  0.2094 -0.1403
 2776SOL    HW119787   2.006   1.029  13.014  1.8209 -0.1308  1.3328
 2776SOL    HW219788   1.976   0.947  12.888  0.3903 -2.7391  0.0106
 2777SOL     OW19789   3.355   4.598   1.526  0.4917 -0.1749 -0.1340
 2777SOL    HW119790   3.289   4.640   1.471  0.2375  2.0914  1.8825
 2777SOL    HW219791   3.415   4.561   1.461  1.1958 -0.0586  0.4449
 2778SOL     OW19792   4.566   0.351  14.301  0.0669  0.2951  0.1567
 2778SOL    HW119793   4.518   0.389  14.227 -0.4441  0.4299  0.5619
 2778SOL    HW219794   4.495   0.365  14.363 -0.3742 -0.0922 -0.2548
 2779SOL     OW19795   3.682   1.763   5.956 -0.4192  0.9749  0.5096
 2779SOL    HW119796   3.773   1.775   5.929 -0.8044  2.3687 -0.2108
 2779SOL    HW219797   3.638   1.810   5.884 -0.8867  1.1362  0.9025
 2780SOL     OW19798   0.891   3.928   5.630  0.4566  0.0976 -0.1104
 2780SOL    HW119799   0.928   3.885   5.552  0.0125 -1.7259  0.6866
 2780SOL    HW219800   0.807   3.882   5.637  1.2960 -1.7267 -2.0561
 2781SOL     OW19801   1.904   3.497   1.946  0.1388  0.2905  0.4711
 2781SOL    HW119802   1.924   3.473   2.037  2.1293 -2.4691 -0.6909
 2781SOL    HW219803   1.832   3.557   1.966 -0.7262 -0.1742 -1.2528
 2782SOL     OW19804   3.113   4.179   6.755 -0.1676 -0.7841  0.5133
 2782SOL    HW119805   3.146   4.268   6.762 -2.2056 -0.0712  0.9579
 2782SOL    HW219806   3.028   4.194   6.714  0.5613 -1.1364 -1.1231
 2783SOL     OW19807   3.450   2.088   2.542  0.2453 -0.1747 -0.3536
 2783SOL    HW119808   3.390   2.013   2.535 -2.7078  2.2217 -0.4556
 2783SOL    HW219809   3.441   2.110   2.635 -0.1765  1.1606 -0.7283
 2784SOL     OW19810   3.573   3.974   7.345  0.0888 -0.0973  0.2695
 2784SOL    HW119811   3.566   4.069   7.331  0.3054 -0.0806  0.2781
 2784SOL    HW219812   3.644   3.953   7.284  0.0031 -1.1527  0.5261
 2785SOL     OW19813   4.119   1.376   2.424  0.0752  0.1327 -0.7696
 2785SOL    HW119814   4.183   1.352   2.358  0.0450  1.2290 -1.1943
 2785SOL    HW219815   4.064   1.424   2.362 -2.8095 -1.6597  0.3848
 2786SOL     OW19816   4.442   1.578   9.214 -0.4144 -0.3250 -0.0998
 2786SOL    HW119817   4.357   1.562   9.173 -0.9773  0.3728  0.7841
 2786SOL    HW219818   4.501   1.540   9.149 -1.1765 -1.4992 -0.1096
 2787SOL     OW19819   3.473   3.133   8.378 -0.2273  0.5915  0.4324
 2787SOL    HW119820   3.486   3.201   8.313  1.3476 -0.3256 -0.2179
 2787SOL    HW219821   3.446   3.175   8.460 -2.3888  1.6328 -0.8143
 2788SOL     OW19822   1.117   3.677  10.137  0.2897 -0.3992  0.0299
 2788SOL    HW119823   1.091   3.766  10.112  0.7384 -0.5804 -1.1283
 2788SOL    HW219824   1.121   3.632  10.052 -2.1308  2.4324 -1.5837
 2789SOL     OW19825   0.536   4.374  10.649 -0.4153 -0.5102  0.1999
 2789SOL    HW119826   0.614   4.417  10.612  0.1146 -1.4135  0.2801
 2789SOL    HW219827   0.568   4.324  10.725 -0.7994 -1.4462 -0.2638
 2790SOL     OW19828   2.654   4.400   8.811 -0.4780  0.6086 -0.0111
 2790SOL    HW119829   2.633   4.393   8.718 -2.3463 -0.3886  0.4847
 2790SOL    HW219830   2.743   4.436   8.815 -0.0157 -0.5593  0.2222
 2791SOL     OW19831   1.913   0.313  13.330 -0.3890  0.0635  0.1592
 2791SOL    HW119832   1.923   0.218  13.330 -0.9241 -0.0001 -1.0629
 2791SOL    HW219833   1.880   0.323  13.240 -0.1710  2.8030  0.4029
 2792SOL     OW19834   2.611   4.024   4.484 -0.4700  0.1955  0.0964
 2792SOL    HW119835   2.615   3.955   4.418  1.7759 -0.5157  0.9422
 2792SOL    HW219836   2.539   3.994   4.538 -1.8625  0.6675 -1.5071
 2793SOL     OW19837   2.864   2.859   6.195  0.2893  0.0782  0.2684
 2793SOL    HW119838   2.938   2.802   6.215 -1.7457 -1.8715  2.2606
 2793SOL    HW219839   2.909   2.940   6.172  1.3776 -0.2694  1.1419
 2794SOL     OW19840   4.379   1.246   1.864 -0.0152  0.2290 -0.1673
 2794SOL    HW119841   4.352   1.156   1.884 -0.8724 -0.0432 -2.5805
 2794SOL    HW219842   4.472   1.240   1.887 -0.3883 -1.3833  0.9577
 2795SOL     OW19843   0.976   1.212  11.042  0.6556 -0.4260  0.1382
 2795SOL    HW119844   1.005   1.121  11.036  0.4624 -0.5797  1.4749
 2795SOL    HW219845   1.059   1.234  10.999  0.2758 -3.0099 -1.9303
 2796SOL     OW19846   2.898   3.272   6.230 -0.1116 -0.1096  0.2113
 2796SOL    HW119847   2.827   3.294   6.291 -3.0897  2.3351 -4.1012
 2796SOL    HW219848   2.896   3.353   6.178 -1.7893  0.0683  0.5490
 2797SOL     OW19849   0.101   2.329   1.650 -0.3580  0.1993  0.0186
 2797SOL    HW119850   0.181   2.278   1.639  0.5060  1.1285  1.9804
 2797SOL    HW219851   0.036   2.267   1.682 -0.7792  0.3049 -0.6406
 2798SOL     OW19852   2.968   0.844   5.910  0.0467 -0.3054  0.3725
 2798SOL    HW119853   3.061   0.867   5.907  0.1248 -0.9544 -2.5811
 2798SOL    HW219854   2.948   0.863   6.001 -0.3484  2.0339 -0.2162
 2799SOL     OW19855   1.984   3.784   1.562  0.2888 -0.0560  0.1890
 2799SOL    HW119856   1.926   3.722   1.518  0.6964 -0.4118  0.1568
 2799SOL    HW219857   2.027   3.825   1.487 -0.9154  0.7765 -0.0477
 2800SOL     OW19858   1.935   4.250   8.290  0.2890  0.6186 -0.2459
 2800SOL    HW119859   1.854   4.301   8.290  0.1788  0.4366  1.6708
 2800SOL    HW219860   1.933   4.214   8.378 -0.5684  0.5466 -0.2882
 2801SOL     OW19861   0.424   1.420  15.239 -0.6170  0.1691  0.2602
 2801SOL    HW119862   0.362   1.421  15.312 -1.3695  1.3689 -0.3986
 2801SOL    HW219863   0.458   1.331  15.244  2.4778  1.3837  1.3111
 2802SOL     OW19864   4.085   3.667   3.373 -0.4183 -0.0902  0.1837
 2802SOL    HW119865   3.999   3.708   3.366 -0.3852 -0.0640 -0.0683
 2802SOL    HW219866   4.081   3.594   3.312 -3.5215 -0.1984  0.5406
 2803SOL     OW19867   2.006   1.113   8.983  0.0564 -0.0576 -0.3428
 2803SOL    HW119868   1.957   1.182   9.029 -1.2546  0.8218 -3.0874
 2803SOL    HW219869   2.025   1.048   9.051  0.8554 -0.3580 -0.8668
 2804SOL     OW19870   2.430   3.656   2.078  0.5036 -0.5480  0.1740
 2804SOL    HW119871   2.438   3.660   1.982 -1.5572  1.7213  0.0892
 2804SOL    HW219872   2.387   3.740   2.094  1.9806 -0.1346  1.8835
 2805SOL     OW19873   4.246   2.502  16.822  0.0223 -0.1085  0.0192
 2805SOL    HW119874   4.223   2.419  16.863  0.7243 -0.2072  0.2043
 2805SOL    HW219875   4.169   2.524  16.768 -1.1133 -1.9455  0.9017
 2806SOL     OW19876   0.529   2.464   3.038  0.2960 -0.3828  0.1129
 2806SOL    HW119877   0.446   2.500   3.069  0.8110 -0.7387  1.9055
 2806SOL    HW219878   0.580   2.540   3.010 -0.4817 -0.4899 -1.6356
 2807SOL     OW19879   3.707   0.344   2.842 -0.4937  0.3026 -0.5082
 2807SOL    HW119880   3.736   0.373   2.756  0.1824  0.0225 -0.3826
 2807SOL    HW219881   3.784   0.377   2.888  0.0989 -1.4703 -0.2039
 2808SOL     OW19882   0.443   1.570   8.062 -0.3692 -0.1663  0.5313
 2808SOL    HW119883   0.367   1.622   8.036  0.3949  0.5476 -0.2849
 2808SOL    HW219884   0.401   1.528   8.137 -0.3177 -0.7862  0.2107
 2809SOL     OW19885   1.242   0.611   3.433 -0.2221 -0.0410  0.3070
 2809SOL    HW119886   1.235   0.517   3.419 -0.0795  0.2559 -1.7567
 2809SOL    HW219887   1.221   0.619   3.526 -3.2577  0.6190 -0.4522
 2810SOL     OW19888   0.556   0.333   1.731 -0.0826 -0.3040  0.2359
 2810SOL    HW119889   0.545   0.308   1.823 -0.9474 -3.3170 -0.7228
 2810SOL    HW219890   0.570   0.244   1.700  1.6854  0.5528 -1.4476
 2811SOL     OW19891   1.408   2.851   4.963 -0.2199 -0.1045 -0.3176
 2811SOL    HW119892   1.438   2.773   5.010 -0.8255  0.6052  1.2355
 2811SOL    HW219893   1.338   2.883   5.019  0.6404  2.0152 -0.4660
 2812SOL     OW19894   0.347   1.917  12.078  0.4646 -0.0412  0.4104
 2812SOL    HW119895   0.312   1.946  11.994 -1.8502 -3.0584  0.3180
 2812SOL    HW219896   0.404   1.991  12.095  0.4238 -0.5703  2.8057
 2813SOL     OW19897   1.577   1.436   6.581  0.0662  0.0490  0.3519
 2813SOL    HW119898   1.503   1.489   6.550 -1.4516 -0.9025  2.3180
 2813SOL    HW219899   1.558   1.435   6.675 -1.5146  0.0946  0.0454
 2814SOL     OW19900   2.946   4.087   6.331  0.2468  0.3247  0.4767
 2814SOL    HW119901   2.984   4.023   6.391 -0.9386 -0.6754  0.1341
 2814SOL    HW219902   2.864   4.110   6.374 -0.7258  0.4983 -1.4677
 2815SOL     OW19903   2.284   1.264   8.804  0.6155  0.1827 -0.2472
 2815SOL    HW119904   2.233   1.345   8.813 -0.7848 -0.9747  2.3661
 2815SOL    HW219905   2.261   1.235   8.716  0.3359  2.6187 -0.9802
 2816SOL     OW19906   1.784   2.014   2.420 -0.3402  0.4987 -0.5783
 2816SOL    HW119907   1.819   2.083   2.363  1.7599  0.8612  1.1532
 2816SOL    HW219908   1.700   2.052   2.446  0.1602  0.8998  0.4414
 2817SOL     OW19909   1.674   2.056   1.038  0.3975 -0.8709  0.2028
 2817SOL    HW119910   1.762   2.048   1.074  0.3084  2.3001  1.0880
 2817SOL    HW219911   1.621   2.075   1.116  1.1893 -1.6308  0.9266
 2818SOL     OW19912   2.603   1.482   8.902  0.0628 -0.0407 -0.1417
 2818SOL    HW119913   2.530   1.489   8.963  0.9158  2.1023  0.6576
 2818SOL    HW219914   2.665   1.443   8.964  1.7722 -1.4038 -2.7154
 2819SOL     OW19915   0.974   4.688   9.213  0.3460 -0.1766 -0.9514
 2819SOL    HW119916   0.938   0.005   9.291  2.5022 -0.4539  0.1974
 2819SOL    HW219917   0.925   0.016   9.151 -0.4260  1.8289  1.3931
 2820SOL     OW19918   0.540   2.305   5.448  0.7468  0.0970 -0.2938
 2820SOL    HW119919   0.602   2.302   5.521  0.8768 -1.2605 -0.4662
 2820SOL    HW219920   0.486   2.233   5.483 -1.5322  1.6543 -0.6103
 2821SOL     OW19921   0.673   2.598  15.845 -0.0648  0.5276 -0.3977
 2821SOL    HW119922   0.717   2.576  15.927  0.9858 -0.1768 -1.1373
 2821SOL    HW219923   0.610   2.664  15.872  0.2834  1.6684 -2.3607
 2822SOL     OW19924   0.062   3.710   6.806  0.1104 -0.2916 -0.2110
 2822SOL    HW119925   0.129   3.677   6.865  0.6259 -0.1200 -0.6995
 2822SOL    HW219926   0.121   3.731   6.733 -1.9823 -1.9528 -2.4137
 2823SOL     OW19927   4.252   3.849   1.395  0.0382  0.0259  0.3156
 2823SOL    HW119928   4.217   3.760   1.386 -0.1036 -0.0092  1.2023
 2823SOL    HW219929   4.315   3.857   1.324  0.3712 -1.8459  0.4106
 2824SOL     OW19930   2.842   1.898  14.269  0.2880 -0.7730  0.0174
 2824SOL    HW119931   2.846   1.991  14.292 -0.2886 -0.5907 -0.6388
 2824SOL    HW219932   2.756   1.895  14.228 -0.7712 -0.2677  2.1935
 2825SOL     OW19933   3.513   1.269  16.367  0.2638 -0.4488  0.3799
 2825SOL    HW119934   3.427   1.249  16.404 -1.2447  1.6247 -1.9669
 2825SOL    HW219935   3.476   1.347  16.326  1.1270 -0.6341 -0.7375
 2826SOL     OW19936   1.983   2.388   3.182 -0.0811  0.1639 -0.2159
 2826SOL    HW119937   2.023   2.301   3.186  0.8969  0.5455 -1.4800
 2826SOL    HW219938   1.907   2.367   3.235 -0.3371  1.7858  0.0515
 2827SOL     OW19939   3.208   2.314   8.353  0.2498 -0.2320 -0.4376
 2827SOL    HW119940   3.228   2.402   8.383 -3.1009  0.6987 -0.9132
 2827SOL    HW219941   3.116   2.320   8.380  0.6751 -0.9044  1.1644
 2828SOL     OW19942   1.477   3.778   6.894 -0.0650  0.1758 -0.0771
 2828SOL    HW119943   1.558   3.789   6.943 -0.9699  1.6766  1.0920
 2828SOL    HW219944   1.452   3.694   6.932  0.6156 -0.6150 -1.3894
 2829SOL     OW19945   0.400   4.316  14.328  0.0745 -0.7572  0.2270
 2829SOL    HW119946   0.316   4.360  14.343  0.8310  0.3362  1.2903
 2829SOL    HW219947   0.456   4.375  14.378 -1.5940 -0.5709  1.9074
 2830SOL     OW19948   1.123   0.994   4.102 -0.2085 -0.7681 -0.6229
 2830SOL    HW119949   1.218   1.005   4.107 -0.0156 -3.1149  0.5881
 2830SOL    HW219950   1.104   1.053   4.029  0.7004  1.1851  0.6882
 2831SOL     OW19951   0.502   0.205  17.581 -0.0816  0.7593 -0.1701
 2831SOL    HW119952   0.481   0.294  17.552 -0.1037  0.6821 -0.3963
 2831SOL    HW219953   0.478   0.208  17.673 -1.2407  0.1118 -0.4431
 2832SOL     OW19954   1.434   3.706   1.728 -0.1788 -0.3896 -0.7138
 2832SOL    HW119955   1.463   3.793   1.756  3.9482 -1.6385 -1.1509
 2832SOL    HW219956   1.492   3.703   1.652 -0.7604 -2.3515 -1.0678
 2833SOL     OW19957   3.076   3.933   9.027 -0.1641  0.5829 -0.4185
 2833SOL    HW119958   3.112   3.924   9.115  0.2860  0.4253 -0.6183
 2833SOL    HW219959   3.005   3.996   9.037 -1.1445 -0.8037  1.3061
 2834SOL     OW19960   3.497   1.444  10.970 -0.1732 -0.0891  0.4190
 2834SOL    HW119961   3.556   1.439  11.045 -0.8185  1.3315  1.0081
 2834SOL    HW219962   3.544   1.407  10.895 -1.8942 -1.7429  0.1583
 2835SOL     OW19963   3.254   0.906   6.003 -0.3448 -0.9416  0.2215
 2835SOL    HW119964   3.305   0.950   6.071  0.6152  0.7905 -1.6474
 2835SOL    HW219965   3.299   0.922   5.921 -0.7558 -1.0363 -0.0245
 2836SOL     OW19966   4.151   2.737  14.865 -0.0792 -0.5079  0.2296
 2836SOL    HW119967   4.058   2.730  14.844  0.2708 -0.2508 -1.4612
 2836SOL    HW219968   4.152   2.706  14.955 -2.9859 -1.2626 -0.0007
 2837SOL     OW19969   1.756   1.044   2.703  0.1890  0.0244 -0.0557
 2837SOL    HW119970   1.822   1.110   2.683  0.3833  0.9336  3.5436
 2837SOL    HW219971   1.699   1.041   2.626  0.6002  2.8057 -0.4787
 2838SOL     OW19972   4.060   3.547   9.191 -0.2010  0.0760 -0.2345
 2838SOL    HW119973   4.150   3.577   9.181 -1.3049  3.4150  0.0210
 2838SOL    HW219974   4.060   3.500   9.275 -1.1196 -0.3119 -0.4483
 2839SOL     OW19975   0.016   0.837   5.180  0.4089  0.0297  0.0620
 2839SOL    HW119976   4.708   0.878   5.260 -1.6275 -1.4020 -0.0443
 2839SOL    HW219977   4.704   0.749   5.187  0.9502 -0.2796 -0.9280
 2840SOL     OW19978   3.277   2.937   1.714  0.3737  0.2424 -0.2231
 2840SOL    HW119979   3.188   2.959   1.742  0.9177  0.2647  1.4663
 2840SOL    HW219980   3.255   2.868   1.651  1.5840 -1.9184  1.6997
 2841SOL     OW19981   2.616   1.047  11.024  0.8940  0.3641  0.0788
 2841SOL    HW119982   2.675   1.122  11.015 -0.1912  1.1366 -0.7098
 2841SOL    HW219983   2.528   1.086  11.028 -0.3629 -2.5980  1.7371
 2842SOL     OW19984   3.785   3.390  10.285  0.1935  0.3586  0.2422
 2842SOL    HW119985   3.813   3.392  10.194 -1.2260 -3.1239 -0.2751
 2842SOL    HW219986   3.769   3.297  10.300 -1.5187  0.7898  1.2074
 2843SOL     OW19987   4.690   0.526  12.990 -0.1780  0.2694 -0.4824
 2843SOL    HW119988   4.662   0.456  12.931 -3.7939  0.6379  0.7373
 2843SOL    HW219989   0.035   0.481  13.037 -1.9530 -0.3839  1.5980
 2844SOL     OW19990   2.282   3.413   7.534 -0.0625 -0.1371  0.1837
 2844SOL    HW119991   2.201   3.365   7.555 -1.7651  2.4268 -0.5866
 2844SOL    HW219992   2.325   3.397   7.618  0.9154  0.0642 -0.2795
 2845SOL     OW19993   0.819   3.044  10.839  0.3089 -0.1958 -0.2145
 2845SOL    HW119994   0.753   3.095  10.791 -0.2262  0.5776  1.3174
 2845SOL    HW219995   0.904   3.077  10.810 -0.3461  0.3352 -1.5196
 2846SOL     OW19996   1.577   0.545  15.885 -0.3860 -0.0950  0.1111
 2846SOL    HW119997   1.573   0.586  15.972  1.0553 -0.6475  0.4306
 2846SOL    HW219998   1.668   0.551  15.856 -0.7629  0.2002 -1.0005
 2847SOL     OW19999   1.503   0.321  16.183 -0.7411  0.1977  0.0576
 2847SOL    HW120000   1.489   0.243  16.237 -2.8226  1.4469  1.3388
 2847SOL    HW220001   1.444   0.384  16.224  0.9760  1.6413  0.2940
 2848SOL     OW20002   2.205   3.926   1.119 -0.6466  0.2490 -0.2869
 2848SOL    HW120003   2.297   3.905   1.101 -0.5135  0.5702  0.0062
 2848SOL    HW220004   2.168   3.840   1.105 -0.3946 -0.0177  0.6850
 2849SOL     OW20005   3.970   2.149   7.702  0.0937  0.2569  0.1933
 2849SOL    HW120006   3.930   2.127   7.618 -0.7579  0.8330  0.4427
 2849SOL    HW220007   3.895   2.124   7.756 -0.1288 -0.6415 -0.5332
 2850SOL     OW20008   1.215   2.800   0.182 -0.2309 -0.2516  0.1356
 2850SOL    HW120009   1.290   2.858   0.175 -0.9606  0.5771 -1.0133
 2850SOL    HW220010   1.196   2.816   0.274  0.2895 -1.5922  0.4640
 2851SOL     OW20011   0.956   1.783   5.969  0.1808  0.2448  0.2284
 2851SOL    HW120012   1.029   1.753   6.024  1.2038 -1.0820 -1.8668
 2851SOL    HW220013   0.939   1.701   5.923 -2.2165  1.8031 -1.6423
 2852SOL     OW20014   1.352   0.593   8.463  0.5236  0.0498 -0.0482
 2852SOL    HW120015   1.390   0.614   8.549 -1.3638  1.3094  0.4651
 2852SOL    HW220016   1.386   0.659   8.402 -0.2114 -0.9140 -1.4919
 2853SOL     OW20017   1.251   3.037   9.416 -0.0895 -0.3308 -0.1500
 2853SOL    HW120018   1.275   3.123   9.452  2.2996 -0.1015 -2.2905
 2853SOL    HW220019   1.335   3.003   9.386  0.0320  1.1332 -1.4751
 2854SOL     OW20020   3.960   2.358  13.538  0.3011  0.8210  0.4500
 2854SOL    HW120021   4.033   2.419  13.532 -0.5827  1.7318 -0.9579
 2854SOL    HW220022   3.885   2.412  13.513 -0.1666 -0.2893 -0.5440
 2855SOL     OW20023   4.658   0.529  10.687  0.3165  0.2446  0.2180
 2855SOL    HW120024   0.015   0.480  10.675  1.4031  2.1266 -0.0867
 2855SOL    HW220025   4.661   0.597  10.619 -1.6739  1.5041  1.3916
 2856SOL     OW20026   1.752   4.599  16.348 -0.1729  0.2044  0.3405
 2856SOL    HW120027   1.716   4.619  16.434 -1.0138  1.2264 -0.2607
 2856SOL    HW220028   1.759   4.683  16.305  1.4409  0.0117  0.2411
 2857SOL     OW20029   4.630   1.153   7.098 -0.2947 -0.6992  0.2026
 2857SOL    HW120030   4.614   1.220   7.165 -2.3017 -1.0794  0.1144
 2857SOL    HW220031   4.545   1.151   7.053 -1.7118 -2.1703  2.9237
 2858SOL     OW20032   4.231   3.318   8.849  0.1619 -0.3239 -0.0761
 2858SOL    HW120033   4.268   3.349   8.932 -0.1212  2.0118 -0.8159
 2858SOL    HW220034   4.160   3.380   8.832  1.3773  1.1798  0.2945
 2859SOL     OW20035   2.568   1.936  15.718 -0.3046 -0.2527 -0.4756
 2859SOL    HW120036   2.599   1.895  15.637 -1.8215  1.3946 -1.8818
 2859SOL    HW220037   2.549   1.852  15.760  1.8025 -0.7283 -0.4886
 2860SOL     OW20038   4.040   2.678   5.430 -0.2794 -0.1027  0.5149
 2860SOL    HW120039   4.062   2.644   5.343  2.2698 -0.6012  1.3268
 2860SOL    HW220040   4.013   2.766   5.404  0.0112  0.3682  1.8218
 2861SOL     OW20041   0.566   4.498   4.789 -0.3438  0.2293  0.0792
 2861SOL    HW120042   0.631   4.538   4.847  0.7578 -0.2774 -0.8128
 2861SOL    HW220043   0.617   4.421   4.766  0.9084  1.4028 -1.0937
 2862SOL     OW20044   0.288   1.938  11.572 -0.4151  0.5863 -0.0087
 2862SOL    HW120045   0.241   1.938  11.489 -0.3077 -0.0119 -0.0723
 2862SOL    HW220046   0.368   1.897  11.538 -0.8318 -0.9252  0.8365
 2863SOL     OW20047   1.637   2.774   6.497  0.4021  0.5125 -0.5733
 2863SOL    HW120048   1.602   2.860   6.517 -0.6992  0.0999 -0.6970
 2863SOL    HW220049   1.658   2.734   6.581  1.0240  1.5041 -0.2593
 2864SOL     OW20050   1.862   4.122   0.504 -0.5672  0.2030 -0.0964
 2864SOL    HW120051   1.802   4.195   0.521  0.6752  1.0604  0.5749
 2864SOL    HW220052   1.942   4.164   0.472 -0.8558  0.3866 -0.5838
 2865SOL     OW20053   1.064   0.046  15.561 -0.1229  0.5069 -0.2601
 2865SOL    HW120054   1.135   4.721  15.601 -0.1392  0.1538 -0.6693
 2865SOL    HW220055   1.081   0.129  15.605 -0.0957  0.6642 -0.5725
 2866SOL     OW20056   1.032   3.226   8.692 -0.0896  0.0768  0.5657
 2866SOL    HW120057   1.032   3.261   8.780 -1.0281 -0.4294  0.7575
 2866SOL    HW220058   1.041   3.131   8.704 -0.1751  0.0215  0.1937
 2867SOL     OW20059   1.575   2.394   3.491  0.1208 -0.7757 -0.5082
 2867SOL    HW120060   1.568   2.448   3.570 -1.4302  0.3067 -1.3829
 2867SOL    HW220061   1.524   2.315   3.502 -2.0213  0.1821 -3.5434
 2868SOL     OW20062   1.089   1.877   7.192 -0.0996  0.0872  0.2376
 2868SOL    HW120063   1.058   1.916   7.110 -0.1953 -1.3248 -0.3961
 2868SOL    HW220064   1.060   1.946   7.252 -1.9466 -0.6179  0.1561
 2869SOL     OW20065   2.940   0.646   8.979  0.1060 -0.0228 -0.2047
 2869SOL    HW120066   3.009   0.708   9.004 -2.6135  2.9110 -0.0200
 2869SOL    HW220067   2.861   0.699   8.986 -0.7973 -1.1792 -1.8972
 2870SOL     OW20068   2.708   1.966   7.347 -0.3393 -0.5027 -0.9540
 2870SOL    HW120069   2.635   2.026   7.355  2.2171  2.1573  2.4428
 2870SOL    HW220070   2.768   2.007   7.284  0.7138  1.6946  1.5033
 2871SOL     OW20071   2.274   0.413   1.435  0.4289  0.0891  0.4353
 2871SOL    HW120072   2.348   0.448   1.387  1.0567 -0.2661  1.1510
 2871SOL    HW220073   2.281   0.457   1.519  0.6387 -1.1633  1.0801
 2872SOL     OW20074   0.545   4.405   5.188  0.3736  0.1620 -0.3497
 2872SOL    HW120075   0.496   4.343   5.134  0.6792 -0.5588  0.2094
 2872SOL    HW220076   0.632   4.398   5.147  0.5557 -1.8790  0.3752
 2873SOL     OW20077   0.338   3.483   4.698 -0.1115  0.3157 -0.0331
 2873SOL    HW120078   0.243   3.480   4.709 -0.2816  0.4890 -1.4856
 2873SOL    HW220079   0.348   3.438   4.614 -3.0712 -0.0003 -0.1993
 2874SOL     OW20080   3.777   2.843   0.858 -0.7205 -0.3378  0.2863
 2874SOL    HW120081   3.818   2.766   0.820  1.2994  2.1897 -2.6900
 2874SOL    HW220082   3.703   2.806   0.907 -1.1651  1.3883  0.9210
 2875SOL     OW20083   4.662   1.238   6.624 -0.2241 -0.1374  0.0386
 2875SOL    HW120084   0.014   1.293   6.641  0.9293 -1.7961  0.1415
 2875SOL    HW220085   4.665   1.249   6.529  1.4575 -0.6914  0.0255
 2876SOL     OW20086   3.260   0.935   7.157  0.5254  0.0889  0.4924
 2876SOL    HW120087   3.179   0.979   7.184  0.2544  1.3710 -2.4274
 2876SOL    HW220088   3.254   0.846   7.192 -0.6889  0.2673  0.7260
 2877SOL     OW20089   4.120   1.477   6.813  0.6722  0.4102 -0.1758
 2877SOL    HW120090   4.047   1.415   6.808 -0.1476  1.4157 -0.4151
 2877SOL    HW220091   4.104   1.532   6.890 -1.5588  0.5411 -0.7433
 2878SOL     OW20092   0.959   4.525  16.966 -0.0400 -0.2150  0.0103
 2878SOL    HW120093   0.884   4.466  16.952 -0.4949  0.0546  1.3067
 2878SOL    HW220094   0.964   4.530  17.062 -0.6007  0.2608  0.0196
 2879SOL     OW20095   0.154   0.924   3.069  0.3861 -0.0256 -0.8420
 2879SOL    HW120096   0.091   0.963   3.130  1.1996  0.5946 -0.4100
 2879SOL    HW220097   0.197   0.860   3.125 -0.3599 -0.6305 -0.9509
 2880SOL     OW20098   0.375   0.530   4.032  0.3987 -0.0421 -0.3852
 2880SOL    HW120099   0.421   0.610   4.060 -2.0355  1.1062  0.3207
 2880SOL    HW220100   0.448   0.469   4.021  0.5018 -0.2896  1.6918
 2881SOL     OW20101   1.665   3.205   7.811 -0.4892  0.2874  0.0167
 2881SOL    HW120102   1.611   3.137   7.771 -1.4725  0.9722  0.1793
 2881SOL    HW220103   1.611   3.246   7.878 -0.8875  2.2366 -1.4830
 2882SOL     OW20104   0.211   2.494   5.091  0.4282  0.0424  0.5047
 2882SOL    HW120105   0.180   2.552   5.159 -1.2617 -1.3514  0.9116
 2882SOL    HW220106   0.212   2.556   5.018  0.5317 -0.8471 -0.2617
 2883SOL     OW20107   1.795   2.050   1.450  0.1354  0.4328  0.3703
 2883SOL    HW120108   1.763   2.137   1.423  1.6507  1.2389  1.2063
 2883SOL    HW220109   1.722   2.003   1.409 -0.8997  1.5209  0.9388
 2884SOL     OW20110   4.231   2.902   4.363  0.1338 -0.9628  0.0986
 2884SOL    HW120111   4.209   2.911   4.270  0.0573  1.6602  0.3568
 2884SOL    HW220112   4.262   2.812   4.364  1.8076 -0.3954 -1.2510
 2885SOL     OW20113   2.788   0.223   8.174  0.0963  0.1003 -0.2531
 2885SOL    HW120114   2.723   0.281   8.134  0.9067 -0.0174 -1.7104
 2885SOL    HW220115   2.833   0.206   8.091 -0.2332 -0.0561 -0.4031
 2886SOL     OW20116   3.643   1.522  11.974 -0.0041  0.7459  0.1377
 2886SOL    HW120117   3.715   1.578  11.945  1.7247 -1.8553 -0.7121
 2886SOL    HW220118   3.570   1.554  11.922 -1.2172  1.1663  2.0986
 2887SOL     OW20119   3.577   4.471   4.763  0.2010 -0.2228 -0.7439
 2887SOL    HW120120   3.593   4.382   4.795  0.9030  1.2717  3.0202
 2887SOL    HW220121   3.489   4.491   4.793  0.7592 -1.7904  1.9587
 2888SOL     OW20122   2.688   1.975   5.175  0.6189  0.0727 -0.1576
 2888SOL    HW120123   2.681   1.881   5.157  0.3125  0.0312  0.1943
 2888SOL    HW220124   2.694   1.986   5.270  2.5909 -1.1881 -0.1357
 2889SOL     OW20125   0.809   1.324   3.943 -0.0511  0.1406  0.1483
 2889SOL    HW120126   0.837   1.372   4.021  0.7815  0.0841 -0.1105
 2889SOL    HW220127   0.772   1.396   3.892  0.4942  0.9047  0.8315
 2890SOL     OW20128   0.548   2.235   4.109 -0.0296  0.2445 -0.2358
 2890SOL    HW120129   0.630   2.206   4.069 -0.5628 -0.4287 -0.8693
 2890SOL    HW220130   0.543   2.329   4.096 -1.3184  0.1241 -0.6617
 2891SOL     OW20131   1.881   2.390   0.623  0.2111 -0.5270  1.0355
 2891SOL    HW120132   1.883   2.300   0.591  1.7468 -0.0501 -0.2336
 2891SOL    HW220133   1.798   2.416   0.582  0.0715  0.6964  2.1273
 2892SOL     OW20134   0.428   2.796   9.834  0.0583  0.0485 -0.1279
 2892SOL    HW120135   0.439   2.705   9.860 -1.8789 -0.3784 -0.8215
 2892SOL    HW220136   0.489   2.805   9.760  0.5230  1.3062  0.3966
 2893SOL     OW20137   3.159   3.986   3.819  0.1842 -0.0709 -0.0119
 2893SOL    HW120138   3.120   3.912   3.773 -0.7513  0.0225  0.6301
 2893SOL    HW220139   3.224   4.003   3.751  0.3407 -0.2325  0.0983
 2894SOL     OW20140   0.611   2.983   9.457  0.3281 -0.2365 -0.6565
 2894SOL    HW120141   0.666   3.038   9.513 -0.4305  2.1270 -2.2247
 2894SOL    HW220142   0.652   2.978   9.370  2.2058  1.6906  0.1304
 2895SOL     OW20143   2.654   0.643   6.178  0.0912  0.1092 -0.3676
 2895SOL    HW120144   2.743   0.675   6.160  0.3125  0.6800  1.7370
 2895SOL    HW220145   2.644   0.698   6.256 -1.0459 -1.8136  0.8249
 2896SOL     OW20146   1.070   4.507   4.111  0.5237  0.6253  0.5714
 2896SOL    HW120147   1.118   4.513   4.194 -1.0041 -0.7534  1.5657
 2896SOL    HW220148   1.129   4.475   4.043  0.2687  0.1923  0.5489
 2897SOL     OW20149   1.208   3.333   2.775 -0.3374 -0.4815  0.4163
 2897SOL    HW120150   1.255   3.417   2.777  0.6344 -0.9929 -0.6453
 2897SOL    HW220151   1.121   3.367   2.755 -0.5021  0.2740  2.3919
 2898SOL     OW20152   2.127   1.327   1.908  0.0884 -0.2792 -0.5671
 2898SOL    HW120153   2.179   1.379   1.969  0.0759 -0.9951  0.0423
 2898SOL    HW220154   2.194   1.272   1.869 -0.4701 -1.2216 -0.1912
 2899SOL     OW20155   3.880   2.520  15.085 -0.5524 -0.2207 -0.0787
 2899SOL    HW120156   3.854   2.430  15.104  2.3771 -1.5721 -2.4458
 2899SOL    HW220157   3.913   2.512  14.995 -0.7587  0.9907 -0.2684
 2900SOL     OW20158   4.335   3.864   5.541 -0.0776 -0.3313  0.5404
 2900SOL    HW120159   4.302   3.827   5.459 -1.0371  0.6170  0.5025
 2900SOL    HW220160   4.374   3.944   5.507  0.0043 -0.7690 -0.4022
 2901SOL     OW20161   3.998   3.602   4.501 -0.3253 -0.2237  0.2881
 2901SOL    HW120162   3.959   3.540   4.564 -1.0243  0.6738  0.7405
 2901SOL    HW220163   4.029   3.555   4.424  2.8607  0.2080  1.2953
 2902SOL     OW20164   4.474   2.588  10.395 -0.2437  0.0080  0.2439
 2902SOL    HW120165   4.385   2.555  10.382 -0.4895 -0.7588  3.8462
 2902SOL    HW220166   4.457   2.652  10.464 -1.4492 -0.3685  0.2973
 2903SOL     OW20167   1.421   0.028  16.769 -0.1945 -0.0873  0.6432
 2903SOL    HW120168   1.336   4.710  16.769  0.1838 -0.8230  0.5741
 2903SOL    HW220169   1.425   0.091  16.841  0.1039  1.1419 -0.4385
 2904SOL     OW20170   0.233   3.753  16.489 -0.7162  0.2138 -0.2139
 2904SOL    HW120171   0.322   3.720  16.476 -0.3741  0.0239  2.6832
 2904SOL    HW220172   0.175   3.694  16.441  0.2491  0.4394 -1.6638
 2905SOL     OW20173   2.483   0.432   8.862 -0.2792 -0.4426  0.3160
 2905SOL    HW120174   2.484   0.338   8.846  0.2982 -0.4164  0.1901
 2905SOL    HW220175   2.533   0.455   8.784 -2.5208 -1.3023 -1.3835
 2906SOL     OW20176   3.025   1.746   4.078  0.0720 -0.4462  0.4425
 2906SOL    HW120177   3.007   1.840   4.084  2.2764 -0.0776  1.1487
 2906SOL    HW220178   3.030   1.747   3.982  0.5201 -1.7287  0.4582
 2907SOL     OW20179   4.164   2.213  14.549 -0.1213 -0.0345 -0.6777
 2907SOL    HW120180   4.256   2.238  14.560  0.1993 -0.4502 -2.4020
 2907SOL    HW220181   4.117   2.290  14.582  0.6200 -0.0033  0.3332
 2908SOL     OW20182   4.138   0.764  15.462 -0.4308 -0.1113  0.0455
 2908SOL    HW120183   4.163   0.850  15.427 -1.5849 -0.7714 -2.4158
 2908SOL    HW220184   4.182   0.710  15.397  1.9346  2.0027 -0.1131
 2909SOL     OW20185   1.948   1.929   2.958  0.1278 -1.0913  0.5771
 2909SOL    HW120186   2.034   1.908   2.922  0.1609  1.4812 -0.8549
 2909SOL    HW220187   1.926   2.015   2.921  0.1909 -1.5022 -0.3994
 2910SOL     OW20188   3.284   0.625   1.724 -0.1952  0.0518  0.2080
 2910SOL    HW120189   3.347   0.604   1.655 -0.3726 -0.3880  0.1815
 2910SOL    HW220190   3.211   0.657   1.672  2.4140 -0.2771 -3.6220
 2911SOL     OW20191   2.956   4.179   9.057  0.8830 -0.3758  0.0369
 2911SOL    HW120192   2.988   4.206   9.144 -1.2214 -1.3824  1.1197
 2911SOL    HW220193   2.876   4.230   9.053  2.3261  1.7821 -1.0902
 2912SOL     OW20194   1.289   3.205   2.271 -0.4227 -0.5195  0.0100
 2912SOL    HW120195   1.371   3.156   2.275 -1.1623 -1.5925  2.0703
 2912SOL    HW220196   1.262   3.222   2.361 -0.7049  0.4742 -0.2664
 2913SOL     OW20197   0.941   3.198   4.497 -0.3757 -0.9981  0.3372
 2913SOL    HW120198   0.856   3.158   4.477 -0.8606 -0.7826  2.0059
 2913SOL    HW220199   1.001   3.133   4.462  2.2024  1.8580 -0.6343
 2914SOL     OW20200   4.469   1.962   8.666 -0.2380  0.0968 -0.0927
 2914SOL    HW120201   4.498   1.889   8.721  0.3733  0.1905 -0.2879
 2914SOL    HW220202   4.374   1.950   8.664  0.1879 -3.4333  1.1285
 2915SOL     OW20203   4.687   0.592   3.173 -0.8099  0.0117 -0.7720
 2915SOL    HW120204   4.648   0.553   3.095  1.7090  1.4687 -2.7402
 2915SOL    HW220205   0.039   0.539   3.191 -0.1248  1.3809  0.3524
 2916SOL     OW20206   2.702   1.313   3.257 -0.1339  0.4532 -0.1607
 2916SOL    HW120207   2.789   1.329   3.221  0.7631 -1.7094  1.0642
 2916SOL    HW220208   2.705   1.323   3.353 -0.6313  0.5952 -0.1589
 2917SOL     OW20209   4.435   1.552   4.776 -0.2639 -0.0534  0.2857
 2917SOL    HW120210   4.406   1.526   4.689 -1.2789  0.2130  0.5509
 2917SOL    HW220211   4.468   1.638   4.752 -1.3862  1.3137  3.6375
 2918SOL     OW20212   3.895   3.744   2.150 -0.7786 -0.1147 -0.8048
 2918SOL    HW120213   3.975   3.753   2.201 -1.2504  0.1550 -0.1035
 2918SOL    HW220214   3.828   3.765   2.216 -2.6366 -0.1541 -2.6812
 2919SOL     OW20215   0.325   3.852   3.048  0.0329 -0.7124  0.4261
 2919SOL    HW120216   0.383   3.855   3.125  4.0206  1.6754 -2.6631
 2919SOL    HW220217   0.389   3.877   2.981 -0.9226 -0.0750 -0.2399
 2920SOL     OW20218   2.991   0.335   9.013 -0.1906  0.1483  0.1923
 2920SOL    HW120219   2.998   0.247   9.050 -1.2127 -0.3518 -0.8393
 2920SOL    HW220220   2.967   0.387   9.090 -0.0881  1.0468 -0.3748
 2921SOL     OW20221   1.354   3.927   7.974  0.1575  0.0651 -0.1297
 2921SOL    HW120222   1.336   3.957   8.062 -1.6744  1.9670 -1.1555
 2921SOL    HW220223   1.268   3.917   7.933 -0.4170 -0.0397  1.1199
 2922SOL     OW20224   3.312   4.259  11.210  0.0269 -0.7230 -0.7283
 2922SOL    HW120225   3.404   4.284  11.208  0.1556 -1.0810  0.4379
 2922SOL    HW220226   3.297   4.250  11.304 -1.3673  1.3613 -0.7397
 2923SOL     OW20227   1.086   4.153   6.993 -0.1162 -0.4335  0.4716
 2923SOL    HW120228   1.058   4.181   6.906 -3.5819 -1.5573  1.2301
 2923SOL    HW220229   1.004   4.162   7.042  0.9156 -0.3343  2.1850
 2924SOL     OW20230   0.920   1.880   4.237 -0.1067  0.2482  0.4190
 2924SOL    HW120231   0.985   1.848   4.175  0.0090  1.7100 -0.2049
 2924SOL    HW220232   0.893   1.964   4.200  1.1350  0.1732 -0.6349
 2925SOL     OW20233   3.621   1.488  14.120 -0.3015  0.1311 -0.1882
 2925SOL    HW120234   3.657   1.566  14.079 -1.6618 -0.1128 -1.8229
 2925SOL    HW220235   3.541   1.477  14.069  1.0323 -1.0496 -2.0032
 2926SOL     OW20236   1.580   3.880   8.589  0.1918  0.4992  0.2149
 2926SOL    HW120237   1.557   3.972   8.596 -2.5328 -0.2210  0.7271
 2926SOL    HW220238   1.538   3.849   8.509  1.4227 -1.1742  0.2168
 2927SOL     OW20239   2.946   3.039   3.614 -0.2080 -0.0219  0.5076
 2927SOL    HW120240   2.934   2.958   3.564  1.5370 -0.1165  0.2495
 2927SOL    HW220241   2.998   3.000   3.685 -0.2562  0.7155  0.9461
 2928SOL     OW20242   2.910   2.272  12.323 -0.1735 -0.7879  0.3154
 2928SOL    HW120243   2.985   2.297  12.376 -1.1494 -0.2628  1.4591
 2928SOL    HW220244   2.938   2.192  12.278  3.0716  0.6960 -0.2631
 2929SOL     OW20245   2.940   0.298   4.304  0.4063 -0.5817  0.0297
 2929SOL    HW120246   2.989   0.314   4.223  0.5541 -0.1483  0.2020
 2929SOL    HW220247   2.868   0.361   4.294 -0.4500 -1.0972  2.9017
 2930SOL     OW20248   0.729   3.949  10.188 -0.8545 -0.4213  0.8105
 2930SOL    HW120249   0.720   3.856  10.206 -0.7064 -0.5467  0.2340
 2930SOL    HW220250   0.674   3.954  10.109  1.3121  0.5097 -0.6502
 2931SOL     OW20251   2.268   4.436   2.906 -0.7210 -0.1812  0.2338
 2931SOL    HW120252   2.331   4.367   2.926 -0.9007 -0.0867  1.1358
 2931SOL    HW220253   2.297   4.492   2.979  0.0243  2.4921 -2.1107
 2932SOL     OW20254   3.140   4.149   5.452 -0.1814 -0.1635  0.5263
 2932SOL    HW120255   3.138   4.235   5.494  0.0855  1.7663 -3.3977
 2932SOL    HW220256   3.047   4.127   5.455 -0.5772  1.5357  0.5462
 2933SOL     OW20257   2.184   3.761  10.283  0.0664 -0.6090  0.2251
 2933SOL    HW120258   2.103   3.778  10.331  1.0071  0.7389  1.3209
 2933SOL    HW220259   2.164   3.676  10.243  2.5698 -0.6037 -1.0299
 2934SOL     OW20260   0.467   2.977  10.688  0.3403  0.5649 -0.1257
 2934SOL    HW120261   0.536   2.976  10.755  1.0683 -1.7694 -0.9406
 2934SOL    HW220262   0.416   3.057  10.702  2.2651  1.8883 -0.6083
 2935SOL     OW20263   1.865   4.301  17.442  0.0416 -0.3024 -0.6625
 2935SOL    HW120264   1.855   4.396  17.447  0.4545 -0.3381  0.7537
 2935SOL    HW220265   1.872   4.277  17.534 -2.7602  2.3366  0.2514
 2936SOL     OW20266   1.434   2.948   6.686 -0.0062 -0.7846 -0.2978
 2936SOL    HW120267   1.377   3.024   6.699  0.9845  0.1811 -1.5391
 2936SOL    HW220268   1.454   2.923   6.776 -0.2592  2.4315  0.6445
 2937SOL     OW20269   0.955   2.173   0.613  0.3970 -0.3501  0.2013
 2937SOL    HW120270   0.901   2.146   0.539  1.8835  1.1700 -1.4498
 2937SOL    HW220271   0.992   2.092   0.648 -1.7897 -1.3915  0.0785
 2938SOL     OW20272   3.417   0.593   9.083  0.3898  0.3157  0.2562
 2938SOL    HW120273   3.484   0.584   9.152  1.0796  1.5251 -0.2662
 2938SOL    HW220274   3.350   0.640   9.132 -0.3782 -0.2696 -0.2422
 2939SOL     OW20275   3.196   0.544   0.444  0.3955  0.2218 -0.4463
 2939SOL    HW120276   3.248   0.593   0.380  0.8686 -2.4814 -2.1423
 2939SOL    HW220277   3.111   0.540   0.401  1.0595 -1.0596 -1.6618
 2940SOL     OW20278   0.907   1.279   8.149  0.0842 -0.0074  0.0328
 2940SOL    HW120279   0.909   1.201   8.203 -0.9373  0.5969  0.9451
 2940SOL    HW220280   0.860   1.250   8.070  0.8628  1.2953 -0.9244
 2941SOL     OW20281   1.360   3.856   5.954  0.0914  0.0610 -0.0899
 2941SOL    HW120282   1.318   3.901   6.028  0.5635 -2.2730  1.5951
 2941SOL    HW220283   1.422   3.802   6.003 -0.5235 -0.5672  0.0154
 2942SOL     OW20284   1.752   3.558   3.403  0.2703  0.1304 -0.0391
 2942SOL    HW120285   1.674   3.608   3.380 -0.0801  0.2985  1.5159
 2942SOL    HW220286   1.819   3.627   3.396  1.7298 -1.4135 -1.2633
 2943SOL     OW20287   2.402   0.406   3.215 -0.2611  0.4649  0.1012
 2943SOL    HW120288   2.338   0.399   3.144 -1.4518  3.4563  0.8824
 2943SOL    HW220289   2.371   0.480   3.267 -0.2270 -0.4870  1.4953
 2944SOL     OW20290   0.297   1.678  13.483 -0.0711 -0.5206 -0.3140
 2944SOL    HW120291   0.237   1.741  13.442  0.2311 -0.2017 -0.2670
 2944SOL    HW220292   0.233   1.631  13.537 -0.4885 -0.5832 -0.8583
 2945SOL     OW20293   3.326   3.414  16.286  0.3643  0.1405 -0.0518
 2945SOL    HW120294   3.400   3.387  16.230  1.5574  0.1422  1.5104
 2945SOL    HW220295   3.305   3.328  16.323 -0.0791  1.1800  2.0906
 2946SOL     OW20296   0.400   1.902   7.341 -0.4810  0.3747  0.1576
 2946SOL    HW120297   0.311   1.897   7.305 -0.7142  2.9283  0.3796
 2946SOL    HW220298   0.437   1.982   7.304 -0.5243  1.1145  1.7460
 2947SOL     OW20299   2.347   0.085   7.029 -0.5410  0.4549 -0.4321
 2947SOL    HW120300   2.297   0.122   7.102  0.0796  2.5389 -1.0671
 2947SOL    HW220301   2.376   0.010   7.082 -0.9202  1.8802  1.7892
 2948SOL     OW20302   4.186   1.324  14.287  0.0748 -0.0693 -0.3291
 2948SOL    HW120303   4.141   1.371  14.358  0.7330  1.8029 -1.1615
 2948SOL    HW220304   4.213   1.397  14.231  0.7308 -1.0907 -1.3349
 2949SOL     OW20305   3.581   2.580   7.460  0.6157  0.0878  0.1350
 2949SOL    HW120306   3.560   2.535   7.542 -0.6530 -0.8791 -0.7158
 2949SOL    HW220307   3.576   2.507   7.398  3.5788 -0.0758  0.0907
 2950SOL     OW20308   3.146   1.477   1.892 -0.1737  0.2035 -0.4114
 2950SOL    HW120309   3.235   1.511   1.897  0.5032 -1.3453 -1.6567
 2950SOL    HW220310   3.101   1.561   1.880  2.0402  1.6804  1.8163
 2951SOL     OW20311   0.042   2.582   5.692 -0.1278 -0.2165  0.7543
 2951SOL    HW120312   0.017   2.621   5.777 -1.1360  0.9530 -0.0704
 2951SOL    HW220313   0.106   2.646   5.659 -2.2013  1.0576 -0.8362
 2952SOL     OW20314   3.564   2.140   8.783  0.1674  0.6518 -0.0584
 2952SOL    HW120315   3.613   2.063   8.812 -0.3832  0.7004  0.9730
 2952SOL    HW220316   3.509   2.160   8.858  2.0114 -0.7332  1.6912
 2953SOL     OW20317   1.268   3.947   2.776  0.1691  0.1409  0.3099
 2953SOL    HW120318   1.252   3.899   2.857  0.7896  0.8195  0.8392
 2953SOL    HW220319   1.180   3.949   2.738  0.7750  0.2574 -1.0773
 2954SOL     OW20320   2.893   0.952   6.440 -0.1367 -0.5151 -0.0316
 2954SOL    HW120321   2.870   1.033   6.485  0.8436  0.9008 -2.0550
 2954SOL    HW220322   2.928   0.898   6.511  0.5377  1.7933  1.3984
 2955SOL     OW20323   0.333   3.139   0.181 -0.2852  0.1228  0.1592
 2955SOL    HW120324   0.424   3.167   0.190  0.3225 -0.8696 -2.7523
 2955SOL    HW220325   0.304   3.141   0.272 -1.9670 -0.3093 -0.3637
 2956SOL     OW20326   3.469   3.105   4.816 -0.4862 -0.0192  0.2202
 2956SOL    HW120327   3.406   3.119   4.746  0.7343  0.3552 -0.8172
 2956SOL    HW220328   3.548   3.127   4.766 -0.6241 -0.6439 -0.2658
 2957SOL     OW20329   2.232   0.676   7.687  0.5515 -0.2516  0.4182
 2957SOL    HW120330   2.191   0.626   7.757 -0.4266  0.3845  0.2892
 2957SOL    HW220331   2.159   0.651   7.632  1.3604 -0.5599 -0.5208
 2958SOL     OW20332   3.066   3.582   6.752 -0.0170  0.6996 -0.5048
 2958SOL    HW120333   3.148   3.576   6.703  3.1109  0.2137  4.7679
 2958SOL    HW220334   3.092   3.560   6.842  0.7338  0.4894 -0.7790
 2959SOL     OW20335   3.202   4.122   4.457  0.0070  0.1450  0.0410
 2959SOL    HW120336   3.176   4.208   4.490 -1.4682 -0.4940  0.5432
 2959SOL    HW220337   3.150   4.118   4.376 -0.6951 -0.9827  0.5498
 2960SOL     OW20338   2.959   1.930   5.353  0.6914  0.6483  0.3249
 2960SOL    HW120339   3.028   1.993   5.372  0.4674  1.1057 -0.3797
 2960SOL    HW220340   3.007   1.849   5.338 -1.0951 -0.6679  1.6750
 2961SOL     OW20341   4.615   4.679  16.866 -0.1719 -0.0341  0.0601
 2961SOL    HW120342   4.566   4.603  16.836 -0.4450  0.2565 -0.2218
 2961SOL    HW220343   4.695   4.630  16.888 -1.8519 -2.2381  1.2460
 2962SOL     OW20344   2.400   1.495  13.399 -0.4005 -0.2993  0.4418
 2962SOL    HW120345   2.481   1.497  13.450  0.0206  0.3903 -0.2551
 2962SOL    HW220346   2.436   1.434  13.334 -4.0637 -0.2753 -1.6157
 2963SOL     OW20347   4.260   0.626   4.241  0.0689  0.3688  0.3463
 2963SOL    HW120348   4.217   0.581   4.168 -0.2097  0.6496  0.3389
 2963SOL    HW220349   4.337   0.663   4.196 -0.1004  1.7794  1.2305
 2964SOL     OW20350   2.007   0.341   7.889 -0.2817  0.3312 -0.0106
 2964SOL    HW120351   2.070   0.401   7.929  0.2133  0.1136 -0.4649
 2964SOL    HW220352   2.034   0.344   7.797 -0.3600  0.8378 -0.0170
 2965SOL     OW20353   0.663   3.951  10.702  0.1444 -0.3852 -0.3006
 2965SOL    HW120354   0.691   3.906  10.622  0.1391 -2.2419  0.7278
 2965SOL    HW220355   0.694   4.041  10.700  0.3368 -0.4916 -1.6029
 2966SOL     OW20356   3.399   3.117   2.987  0.0266 -0.6670  0.0774
 2966SOL    HW120357   3.452   3.070   3.052  1.6836  1.0025 -0.0483
 2966SOL    HW220358   3.469   3.139   2.925  0.8428 -0.0793  1.1964
 2967SOL     OW20359   1.994   4.162  12.832 -0.4885  0.4084 -0.1502
 2967SOL    HW120360   1.928   4.125  12.774  1.2155 -1.3777 -0.9676
 2967SOL    HW220361   2.007   4.247  12.789 -1.5937  0.8077  0.3301
 2968SOL     OW20362   2.019   4.351   3.854 -0.4141 -0.4438 -0.3358
 2968SOL    HW120363   2.058   4.437   3.865  1.0321 -0.9133 -1.9543
 2968SOL    HW220364   1.975   4.344   3.939 -1.5991 -0.4308 -0.9374
 2969SOL     OW20365   1.051   2.026   6.959 -0.4353  0.2555  0.3947
 2969SOL    HW120366   1.013   2.035   6.872 -3.1792 -0.6556  1.4913
 2969SOL    HW220367   1.062   2.117   6.985 -0.2869  0.0743  0.9682
 2970SOL     OW20368   0.427   1.887   4.436 -0.3686 -0.6612 -0.6307
 2970SOL    HW120369   0.520   1.870   4.426 -0.3359 -1.5077  1.0362
 2970SOL    HW220370   0.387   1.894   4.350 -0.9896  1.7092 -0.1648
 2971SOL     OW20371   3.459   0.982   3.598 -0.2735  0.1710  0.1408
 2971SOL    HW120372   3.525   1.038   3.558  0.4310  0.9528  2.4369
 2971SOL    HW220373   3.452   0.940   3.512 -2.1747  0.1099  0.3199
 2972SOL     OW20374   0.166   2.990  13.207  0.3670  0.3871 -0.0958
 2972SOL    HW120375   0.110   2.957  13.135 -0.7007  2.6460 -0.3002
 2972SOL    HW220376   0.240   2.930  13.209  0.0874  0.1067  1.6893
 2973SOL     OW20377   0.449   2.117   8.450 -0.3932  0.0015 -0.3601
 2973SOL    HW120378   0.475   2.203   8.416  0.0159  1.3948  3.5276
 2973SOL    HW220379   0.534   2.073   8.449 -0.0726  0.6463 -1.7605
 2974SOL     OW20380   4.684   2.893  16.923  0.0646  0.5716 -0.5275
 2974SOL    HW120381   0.036   2.841  16.945 -0.6463 -1.2257 -2.3081
 2974SOL    HW220382   4.624   2.894  16.997  1.9503  0.9190  1.0009
 2975SOL     OW20383   3.169   0.016   1.366 -0.0131 -0.5792 -0.0140
 2975SOL    HW120384   3.168   0.105   1.402  3.4803  0.0332 -1.4528
 2975SOL    HW220385   3.104   0.027   1.297  1.5142 -0.0601 -1.3920
 2976SOL     OW20386   4.298   1.563   6.609  0.9223  0.8491  0.0597
 2976SOL    HW120387   4.377   1.566   6.663 -1.2733 -3.5625  3.4845
 2976SOL    HW220388   4.227   1.538   6.668  0.7975 -0.3663 -0.6010
 2977SOL     OW20389   4.223   3.877   4.870 -0.6864  0.0005  0.0965
 2977SOL    HW120390   4.285   3.951   4.866 -1.0130  0.3723  1.8701
 2977SOL    HW220391   4.162   3.885   4.797 -3.0586  1.7547  2.2490
 2978SOL     OW20392   2.223   4.013   8.505  0.2028  0.1565  0.2360
 2978SOL    HW120393   2.148   3.992   8.561  0.6610  1.2573  1.2587
 2978SOL    HW220394   2.227   4.108   8.506  0.9926  0.1190  0.9516
 2979SOL     OW20395   0.793   4.278   5.943 -0.6439  0.1358 -0.2609
 2979SOL    HW120396   0.737   4.355   5.929  0.8039  1.6410  2.3220
 2979SOL    HW220397   0.742   4.235   6.011  0.7654 -2.0011 -0.5610
 2980SOL     OW20398   3.334   2.992   3.823  0.9269  0.0545  0.2559
 2980SOL    HW120399   3.263   2.939   3.788 -0.2270  2.7094 -1.4698
 2980SOL    HW220400   3.278   3.063   3.853 -0.1689 -0.4691 -0.5674
 2981SOL     OW20401   0.614   4.485   5.875  0.6942 -0.1234 -0.7377
 2981SOL    HW120402   0.571   4.545   5.935  0.2990  2.3223 -3.4912
 2981SOL    HW220403   0.546   4.477   5.808 -0.3453  1.1134  0.1843
 2982SOL     OW20404   4.604   1.017   8.879  0.3419  0.0891  0.3335
 2982SOL    HW120405   4.531   0.971   8.920 -0.8747 -0.0734 -1.9873
 2982SOL    HW220406   4.565   1.099   8.850  0.1336 -0.5575 -1.2223
 2983SOL     OW20407   1.239   3.998  10.154  0.0981 -0.1798  0.0401
 2983SOL    HW120408   1.245   3.938  10.229  1.9320  1.7761  1.4691
 2983SOL    HW220409   1.186   4.063  10.201 -1.1183 -1.2411  0.1182
 2984SOL     OW20410   1.970   3.732  10.441 -0.5378 -0.0493 -0.2672
 2984SOL    HW120411   1.908   3.800  10.468 -0.4971 -0.6026  1.1872
 2984SOL    HW220412   1.979   3.678  10.519 -0.5373  0.1413 -0.1360
 2985SOL     OW20413   1.387   1.260  10.123  0.4314 -0.0288 -0.1056
 2985SOL    HW120414   1.448   1.189  10.104 -0.1238  0.1891 -2.6192
 2985SOL    HW220415   1.302   1.214  10.124  0.6424 -0.4120  0.5341
 2986SOL     OW20416   4.299   2.292   1.284  0.2016  0.1607 -0.0398
 2986SOL    HW120417   4.217   2.267   1.327  0.1682  0.2762 -0.0349
 2986SOL    HW220418   4.276   2.377   1.245  2.1569  0.9291  0.4686
 2987SOL     OW20419   2.033   0.056  13.299 -0.4499  0.0172  0.0883
 2987SOL    HW120420   2.118   0.090  13.270 -0.1749  0.3720  1.3130
 2987SOL    HW220421   2.065   4.725  13.369 -2.0002  1.8132  2.2444
 2988SOL     OW20422   3.050   0.139   5.419  0.4364 -0.3528 -0.7047
 2988SOL    HW120423   2.999   0.191   5.358 -3.0680 -1.1334  1.5955
 2988SOL    HW220424   3.125   0.128   5.360 -0.9638 -1.0881 -2.3241
 2989SOL     OW20425   2.265   1.510   3.401 -0.5392  0.0347 -0.2448
 2989SOL    HW120426   2.280   1.603   3.391 -0.7628  0.3096  1.8515
 2989SOL    HW220427   2.204   1.491   3.330  2.0132  0.4532 -2.5363
 2990SOL     OW20428   3.733   1.270   6.347 -0.3276 -0.1126  0.2275
 2990SOL    HW120429   3.663   1.324   6.312  1.9720 -0.4461 -4.8642
 2990SOL    HW220430   3.746   1.329   6.422 -0.8036 -0.4881  0.6065
 2991SOL     OW20431   1.542   1.895  11.134  0.1834  0.2905  0.2341
 2991SOL    HW120432   1.463   1.872  11.086 -0.9887  0.3171  2.1257
 2991SOL    HW220433   1.584   1.810  11.134  1.6144  1.0029  0.2719
 2992SOL     OW20434   2.137   1.070   9.481  0.2299 -0.0956  0.4980
 2992SOL    HW120435   2.112   0.992   9.531  1.5461 -1.7226 -1.3628
 2992SOL    HW220436   2.170   1.122   9.554 -0.5167 -1.1656  1.5911
 2993SOL     OW20437   3.785   2.381   2.972  0.3326 -0.2031  0.3063
 2993SOL    HW120438   3.730   2.442   3.022  0.9949 -0.4276  1.3165
 2993SOL    HW220439   3.712   2.350   2.920  2.4739 -0.4203 -2.5313
 2994SOL     OW20440   1.593   1.533  10.911  0.8580  0.0332 -0.1645
 2994SOL    HW120441   1.581   1.443  10.942 -0.8317 -0.1912 -1.4871
 2994SOL    HW220442   1.551   1.511  10.829 -3.3797  1.4947  1.6225
 2995SOL     OW20443   4.559   3.470   5.966  0.3681  0.0798 -0.2885
 2995SOL    HW120444   4.586   3.501   6.052  1.9398  2.2517 -1.5375
 2995SOL    HW220445   4.646   3.437   5.943  1.6745  2.8059  0.6991
 2996SOL     OW20446   3.524   1.810   2.748  0.7295 -0.3199 -0.8170
 2996SOL    HW120447   3.592   1.860   2.703  0.0748  0.7264 -0.6500
 2996SOL    HW220448   3.509   1.869   2.822  1.8402 -0.6508 -0.3389
 2997SOL     OW20449   0.572   2.658  11.733 -0.4415 -0.1740 -0.1132
 2997SOL    HW120450   0.522   2.592  11.685 -0.9552  1.0792 -1.2683
 2997SOL    HW220451   0.500   2.692  11.785 -1.4618 -1.4205 -0.7212
 2998SOL     OW20452   0.357   2.492  11.954  0.2781 -0.1272 -0.4827
 2998SOL    HW120453   0.378   2.566  12.011 -0.6989  0.6854 -1.1732
 2998SOL    HW220454   0.347   2.536  11.869 -1.4878 -2.4756 -1.5076
 2999SOL     OW20455   3.216   4.639  13.917  0.1676  0.4353 -0.1006
 2999SOL    HW120456   3.280   4.705  13.945  0.1012  0.7666 -0.7056
 2999SOL    HW220457   3.271   4.594  13.853 -1.2696 -2.6970  0.9154
 3000SOL     OW20458   3.809   3.350  10.585  0.0159  0.1249  0.3390
 3000SOL    HW120459   3.779   3.441  10.580 -1.4786 -0.3826  0.2765
 3000SOL    HW220460   3.739   3.299  10.545  3.2279 -2.9163 -1.4001
 3001SOL     OW20461   3.473   0.494   1.551  0.4862  0.3209  0.3591
 3001SOL    HW120462   3.562   0.528   1.555  2.2572 -3.8473 -3.2334
 3001SOL    HW220463   3.465   0.443   1.631 -1.5096  1.8364  1.1262
 3002SOL     OW20464   1.581   3.059   7.088 -0.2063  0.3615 -0.2493
 3002SOL    HW120465   1.493   3.027   7.109  0.4253 -1.3075 -0.2190
 3002SOL    HW220466   1.601   3.014   7.007  1.2600 -0.9764  0.8605
 3003SOL     OW20467   4.365   4.580  11.757 -0.0790  0.1927  0.5460
 3003SOL    HW120468   4.308   4.539  11.822 -1.6415 -0.0994 -1.0098
 3003SOL    HW220469   4.424   4.622  11.819 -1.1124  0.9035  1.0338
 3004SOL     OW20470   4.106   4.283   5.863  0.2509  0.4177  0.5505
 3004SOL    HW120471   4.085   4.325   5.780  1.1225  3.2206  1.7557
 3004SOL    HW220472   4.028   4.228   5.868 -0.7299  1.7198 -0.5740
 3005SOL     OW20473   2.609   1.832   0.591  0.5218 -0.3856 -0.0902
 3005SOL    HW120474   2.553   1.886   0.646 -0.3240 -0.4079 -0.9156
 3005SOL    HW220475   2.552   1.769   0.545 -0.1915  0.8670 -0.9079
 3006SOL     OW20476   4.379   1.220   4.324  0.5545  0.1212  0.6415
 3006SOL    HW120477   4.379   1.143   4.268 -2.3570  0.0485  0.7633
 3006SOL    HW220478   4.474   1.229   4.336  0.7738 -0.7146 -0.4639
 3007SOL     OW20479   2.242   0.107   4.492  0.1514 -0.2527 -0.2144
 3007SOL    HW120480   2.182   0.037   4.464 -0.7434 -0.0847  1.2520
 3007SOL    HW220481   2.232   0.102   4.587  0.3542 -0.7331 -0.2136
 3008SOL     OW20482   0.660   0.108   1.852  0.6700 -0.0553 -0.6059
 3008SOL    HW120483   0.631   0.024   1.817 -1.0747 -0.4406  1.7675
 3008SOL    HW220484   0.652   0.082   1.944  0.8445 -2.5424 -1.2773
 3009SOL     OW20485   2.533   2.847   1.856 -0.5478  0.2419  0.4418
 3009SOL    HW120486   2.513   2.914   1.790  2.8159  2.0620  1.2823
 3009SOL    HW220487   2.501   2.887   1.937  0.7769 -0.1004  1.1287
 3010SOL     OW20488   0.381   2.742  10.624  0.0327  0.2433  0.3782
 3010SOL    HW120489   0.407   2.819  10.674  0.3245  0.9069 -0.8037
 3010SOL    HW220490   0.432   2.674  10.669 -0.6068 -0.4215  0.1080
 3011SOL     OW20491   2.689   4.723  12.371 -0.6547 -0.0289  0.4071
 3011SOL    HW120492   2.682   4.692  12.281 -0.2819 -0.3318  0.4847
 3011SOL    HW220493   2.690   4.640  12.418  0.9643 -0.2651 -0.0205
 3012SOL     OW20494   3.881   3.297   3.825  0.3343 -0.1050 -0.3814
 3012SOL    HW120495   3.837   3.216   3.797  0.1694  0.0828 -0.6531
 3012SOL    HW220496   3.970   3.289   3.791  0.3565  0.2283 -0.4010
 3013SOL     OW20497   3.794   3.449   3.587 -0.1489 -0.1618 -0.1198
 3013SOL    HW120498   3.751   3.453   3.672  0.6348  1.3550  0.2073
 3013SOL    HW220499   3.723   3.494   3.542 -0.3064  0.5026  0.7985
 3014SOL     OW20500   1.596   0.973   4.412  0.1763 -0.4069 -0.3642
 3014SOL    HW120501   1.626   1.017   4.492 -1.1625 -0.8042  0.3413
 3014SOL    HW220502   1.621   0.883   4.432  2.0605  0.1860 -0.0474
 3015SOL     OW20503   0.331   3.632   9.260 -0.2241 -0.4056 -0.1536
 3015SOL    HW120504   0.397   3.678   9.208 -0.8846  0.7131  0.0016
 3015SOL    HW220505   0.359   3.541   9.257 -0.6802 -0.5406 -0.2815
 3016SOL     OW20506   0.099   2.865   3.513 -0.4408  0.1777 -0.3083
 3016SOL    HW120507   0.148   2.916   3.448  0.5522 -2.7582 -1.8621
 3016SOL    HW220508   0.132   2.899   3.596  1.4685 -0.8055 -0.6605
 3017SOL     OW20509   4.224   1.703  14.734 -1.0098 -0.2804 -0.1152
 3017SOL    HW120510   4.191   1.780  14.687  2.9363  1.4550 -0.0992
 3017SOL    HW220511   4.179   1.721  14.816  0.0383 -1.5849  0.7516
 3018SOL     OW20512   4.437   2.318   5.434 -0.0583 -0.2782  0.2367
 3018SOL    HW120513   4.499   2.277   5.374  0.1833 -0.8035  0.8487
 3018SOL    HW220514   4.491   2.390   5.467  0.7494 -0.6114 -0.3677
 3019SOL     OW20515   3.355   3.007   5.049 -0.1686  0.3325 -0.5494
 3019SOL    HW120516   3.381   2.916   5.033 -1.3415 -0.3730  1.6245
 3019SOL    HW220517   3.385   3.043   4.965 -0.7061  2.0129 -0.0145
 3020SOL     OW20518   0.911   2.490   4.336  0.3958  0.6209 -0.0786
 3020SOL    HW120519   1.006   2.481   4.330  0.5925  3.3741 -1.1756
 3020SOL    HW220520   0.885   2.422   4.397  2.5447 -0.1843 -0.0579
 3021SOL     OW20521   2.936   1.341  14.240  0.0564  0.0678  0.3174
 3021SOL    HW120522   2.907   1.397  14.169 -0.1302 -0.5931 -0.1310
 3021SOL    HW220523   3.007   1.387  14.283  1.2229 -0.2076 -1.3312
 3022SOL     OW20524   1.579   1.816   4.081 -0.2686  0.2871 -0.5951
 3022SOL    HW120525   1.666   1.842   4.110 -0.4037 -0.1752  0.2182
 3022SOL    HW220526   1.535   1.896   4.111  1.6445  0.5908  1.4482
 3023SOL     OW20527   3.426   0.900   1.563 -0.2148 -0.0127 -0.1378
 3023SOL    HW120528   3.367   0.914   1.488  0.0593 -0.7115 -0.4838
 3023SOL    HW220529   3.373   0.940   1.632 -0.0082  1.0218 -0.5759
 3024SOL     OW20530   4.697   3.465  17.664 -0.4586  0.2241  0.3731
 3024SOL    HW120531   4.722   3.378  17.692  2.2039  0.0825 -2.4492
 3024SOL    HW220532   0.036   3.477  17.594 -0.7767 -1.1084 -0.1491
 3025SOL     OW20533   2.422   4.173   0.372 -0.0362 -0.5075  0.2948
 3025SOL    HW120534   2.499   4.224   0.346 -2.2078  2.2997 -0.6370
 3025SOL    HW220535   2.434   4.090   0.325  2.9438 -0.4009  0.8824
 3026SOL     OW20536   4.025   2.522   0.072  0.2238  0.4217  0.4671
 3026SOL    HW120537   3.937   2.560   0.064  0.1088  0.0313 -0.1601
 3026SOL    HW220538   4.072   2.585   0.018 -1.1934  0.3906 -0.8211
 3027SOL     OW20539   1.831   3.561   7.713 -0.0542  0.6286 -0.6625
 3027SOL    HW120540   1.866   3.633   7.660  0.3302 -0.6170 -2.1194
 3027SOL    HW220541   1.775   3.612   7.771 -1.9067 -3.4458  1.0943
 3028SOL     OW20542   2.494   4.294   6.178  0.7733  0.1608  0.0622
 3028SOL    HW120543   2.408   4.255   6.163  0.3752 -0.0681  2.9026
 3028SOL    HW220544   2.537   4.264   6.098  0.5687  0.3565 -0.1196
 3029SOL     OW20545   3.427   2.235   9.264 -0.5949 -0.1233 -0.5434
 3029SOL    HW120546   3.504   2.264   9.313 -0.2345  1.3898 -1.9719
 3029SOL    HW220547   3.420   2.147   9.300  0.8527  0.6174  1.5881
 3030SOL     OW20548   2.120   0.235   9.096  0.3475  0.8723  0.1613
 3030SOL    HW120549   2.205   0.205   9.065 -0.1909 -0.5696  0.0933
 3030SOL    HW220550   2.073   0.269   9.019 -1.1582  1.2845  1.2600
 3031SOL     OW20551   4.245   2.503   2.786  0.1448  0.3201  0.3832
 3031SOL    HW120552   4.267   2.591   2.814  1.0283  0.3080 -0.2826
 3031SOL    HW220553   4.174   2.475   2.844 -0.2187  0.3933 -0.0283
 3032SOL     OW20554   1.051   3.639   4.895  0.5081  0.0153 -0.1213
 3032SOL    HW120555   1.120   3.581   4.865  0.7294 -0.8546  2.1025
 3032SOL    HW220556   1.026   3.598   4.977 -0.7295  0.9406 -0.0251
 3033SOL     OW20557   3.235   2.927   0.723  0.0397  0.0413 -0.1973
 3033SOL    HW120558   3.254   2.886   0.638  0.3220 -0.0428 -0.0956
 3033SOL    HW220559   3.324   2.940   0.756 -0.7089 -0.1387  1.8366
 3034SOL     OW20560   0.705   2.585  16.123  0.0559  0.0819  0.3263
 3034SOL    HW120561   0.669   2.673  16.137  0.0463  0.0057  0.7865
 3034SOL    HW220562   0.623   2.537  16.112 -0.0347  0.3787 -0.2620
 3035SOL     OW20563   0.571   2.599  16.434  0.3968 -0.1735 -0.0006
 3035SOL    HW120564   0.637   2.544  16.391  0.7780  0.6975 -0.5166
 3035SOL    HW220565   0.486   2.563  16.409  0.8528 -0.2177 -1.4593
 3036SOL     OW20566   0.295   3.769   2.696  0.5015  0.9230 -0.1913
 3036SOL    HW120567   0.207   3.789   2.664  1.1385 -1.6401 -3.4949
 3036SOL    HW220568   0.309   3.682   2.658  0.8245  1.1773 -0.6421
 3037SOL     OW20569   4.091   0.176  13.921  0.0962  0.4222 -0.3082
 3037SOL    HW120570   4.065   0.110  13.985  4.7355 -1.9692 -0.8957
 3037SOL    HW220571   4.011   0.228  13.914  0.3501  0.5651 -2.1455
 3038SOL     OW20572   2.553   1.271   1.412  0.2803 -0.1774 -0.9885
 3038SOL    HW120573   2.607   1.334   1.459  2.0842 -3.9911  2.0479
 3038SOL    HW220574   2.609   1.193   1.403 -1.2328 -1.1310 -2.1493
 3039SOL     OW20575   4.245   1.907   7.882  0.3004 -0.7123 -0.0464
 3039SOL    HW120576   4.261   1.955   7.964 -0.0357  0.5815 -0.7282
 3039SOL    HW220577   4.151   1.898   7.890  0.3641 -0.4613  0.9997
 3040SOL     OW20578   2.579   4.132   9.279  0.2160  0.6724  0.3131
 3040SOL    HW120579   2.660   4.105   9.322  0.3514 -2.3391 -1.8129
 3040SOL    HW220580   2.610   4.202   9.222  2.3085  0.5216  1.2540
 3041SOL     OW20581   3.719   0.108  11.037  0.2664 -0.5859 -0.3677
 3041SOL    HW120582   3.788   0.096  10.972 -1.2415 -0.7041 -1.9538
 3041SOL    HW220583   3.647   0.070  10.986 -0.7678  0.0823  0.5820
 3042SOL     OW20584   2.310   4.030   1.841  0.1008 -0.0300 -0.1757
 3042SOL    HW120585   2.296   3.999   1.752  0.0572 -0.0445 -0.1638
 3042SOL    HW220586   2.287   4.123   1.837  0.5953  0.2321  3.1380
 3043SOL     OW20587   0.831   1.360   7.400 -0.1217 -0.0349 -0.0709
 3043SOL    HW120588   0.745   1.319   7.397 -0.3248  0.2947  1.0993
 3043SOL    HW220589   0.874   1.343   7.317 -1.1979  2.3821 -1.1427
 3044SOL     OW20590   1.161   2.639   6.735  0.0444  0.2078  0.8016
 3044SOL    HW120591   1.247   2.607   6.762 -0.0336  0.8684  1.8554
 3044SOL    HW220592   1.128   2.568   6.680 -0.0266  1.8957 -1.3210
 3045SOL     OW20593   0.852   1.513  10.608  0.1517 -0.0150 -0.0872
 3045SOL    HW120594   0.846   1.545  10.518  0.0078  1.5171  0.4580
 3045SOL    HW220595   0.946   1.529  10.622  0.3657 -0.3706 -1.1585
 3046SOL     OW20596   1.155   3.888  14.753  0.6352 -0.0849 -0.1887
 3046SOL    HW120597   1.242   3.922  14.773 -0.4676  1.8733  1.3382
 3046SOL    HW220598   1.131   3.961  14.696  1.9271 -1.9482 -3.1093
 3047SOL     OW20599   0.983   4.304   6.458 -0.4942 -0.0739  0.5322
 3047SOL    HW120600   0.997   4.384   6.508  2.3624 -0.2697  0.0452
 3047SOL    HW220601   0.888   4.298   6.459 -0.3899 -1.7296  1.0349
 3048SOL     OW20602   0.516   1.965   4.706 -0.0289  0.1190 -0.0804
 3048SOL    HW120603   0.459   1.954   4.630 -0.2229  1.1968 -0.0875
 3048SOL    HW220604   0.482   1.905   4.773 -2.0002  1.0996 -0.1944
 3049SOL     OW20605   1.619   0.248   6.008 -0.2720 -0.4947  0.1609
 3049SOL    HW120606   1.601   0.194   6.085  0.8652  1.9790  2.1510
 3049SOL    HW220607   1.588   0.194   5.935 -2.4418  0.0629  0.6799
 3050SOL     OW20608   0.462   3.119   7.655  0.0917  0.2282 -0.0071
 3050SOL    HW120609   0.429   3.182   7.718 -2.6684  0.1265 -1.3621
 3050SOL    HW220610   0.400   3.048   7.670 -1.4382  2.2157  2.8645
 3051SOL     OW20611   4.645   1.685   5.069 -0.4543  0.5306  0.4048
 3051SOL    HW120612   4.654   1.624   5.142  1.1763 -0.2279 -0.4457
 3051SOL    HW220613   4.572   1.740   5.099 -0.6692  1.0908 -1.1301
 3052SOL     OW20614   2.482   1.769   4.724  0.1936 -0.3250  0.1774
 3052SOL    HW120615   2.504   1.760   4.631 -3.1522  0.0310 -0.6469
 3052SOL    HW220616   2.568   1.777   4.766  0.2467 -0.3000  0.0642
 3053SOL     OW20617   0.468   4.031   8.993 -0.4657  0.2046  0.4092
 3053SOL    HW120618   0.414   4.109   8.979  0.4763  0.7410 -0.1853
 3053SOL    HW220619   0.420   3.978   9.056 -0.9076  1.8917  1.5050
 3054SOL     OW20620   4.241   4.525  15.729  0.1838  0.3838  0.3650
 3054SOL    HW120621   4.304   4.531  15.657  2.1443 -2.6815  1.8237
 3054SOL    HW220622   4.214   4.617  15.731 -0.7386  0.0982  0.7920
 3055SOL     OW20623   1.823   4.047   2.270  0.0921 -0.1063  0.1292
 3055SOL    HW120624   1.760   4.117   2.288  0.4484  0.1353  0.4260
 3055SOL    HW220625   1.786   4.005   2.192 -1.5178  2.3176 -0.4251
 3056SOL     OW20626   1.869   0.983  10.242 -0.0699 -0.3012 -0.3373
 3056SOL    HW120627   1.828   1.069  10.236 -2.1489 -1.1291  2.5396
 3056SOL    HW220628   1.942   1.019  10.293  0.1009 -0.3407 -0.5524
 3057SOL     OW20629   1.140   2.042   7.425 -0.2070 -0.5749  0.3644
 3057SOL    HW120630   1.227   2.024   7.461  0.5126  0.1437 -1.0558
 3057SOL    HW220631   1.079   2.007   7.490 -1.1713 -1.1662 -0.8632
 3058SOL     OW20632   1.111   1.461   4.205  0.9741 -0.0375  0.2440
 3058SOL    HW120633   1.146   1.398   4.268 -1.4620 -0.2917  1.3664
 3058SOL    HW220634   1.161   1.540   4.227  0.7370 -0.0725  0.9404
 3059SOL     OW20635   4.400   4.367   7.691 -0.3717 -0.2078 -0.6351
 3059SOL    HW120636   4.305   4.371   7.691 -0.3611 -0.0437  0.2710
 3059SOL    HW220637   4.411   4.422   7.613  2.6712  0.7007  0.4111
 3060SOL     OW20638   3.250   3.991   7.239 -0.0122  0.1425  0.1061
 3060SOL    HW120639   3.160   3.995   7.206  0.2645  2.3527 -0.3763
 3060SOL    HW220640   3.256   3.904   7.279  1.1175 -0.2377 -0.9166
 3061SOL     OW20641   0.716   3.396   7.797  0.2899  0.2295  0.6816
 3061SOL    HW120642   0.664   3.318   7.818  0.9489  0.0806  1.8083
 3061SOL    HW220643   0.662   3.448   7.737 -0.8006 -0.5927  0.9506
 3062SOL     OW20644   0.787   0.680  12.845 -0.1568 -0.7372 -0.0822
 3062SOL    HW120645   0.804   0.774  12.834 -1.5422 -0.3389  1.0634
 3062SOL    HW220646   0.878   0.657  12.861 -0.1314  0.7537  1.8989
 3063SOL     OW20647   3.802   4.573   3.333 -0.2122 -0.1752 -0.6218
 3063SOL    HW120648   3.730   4.518   3.367  0.1253 -0.1119  0.1934
 3063SOL    HW220649   3.865   4.568   3.404 -0.0165  1.4272 -0.6901
 3064SOL     OW20650   4.533   1.941   5.793  0.2423 -0.0850 -0.0947
 3064SOL    HW120651   4.546   2.031   5.766 -0.1135 -0.0208 -0.0524
 3064SOL    HW220652   4.580   1.895   5.724  0.3895 -0.1643  0.0575
 3065SOL     OW20653   3.342   2.416  12.861  0.2095 -0.4205  0.1866
 3065SOL    HW120654   3.414   2.443  12.803 -0.9259  1.1350 -0.4666
 3065SOL    HW220655   3.355   2.476  12.934 -0.9943 -0.9492  0.8390
 3066SOL     OW20656   3.442   1.723   7.636 -0.0583 -0.9143 -0.1348
 3066SOL    HW120657   3.428   1.653   7.572  0.6295  0.3590 -1.6994
 3066SOL    HW220658   3.358   1.769   7.636  0.0483 -0.7182 -0.0680
 3067SOL     OW20659   2.770   3.740  15.707  0.5723  0.5045 -1.0689
 3067SOL    HW120660   2.696   3.796  15.683 -0.6050 -0.6890 -0.2326
 3067SOL    HW220661   2.836   3.781  15.650  1.1024  2.4679  0.9676
 3068SOL     OW20662   1.693   0.906   6.554  0.1819  0.0411  0.0892
 3068SOL    HW120663   1.733   0.876   6.473  3.2501 -0.9546  1.9648
 3068SOL    HW220664   1.740   0.988   6.569 -0.9358  0.8484 -0.8432
 3069SOL     OW20665   2.876   3.119   0.868  0.6699  0.1190 -0.3405
 3069SOL    HW120666   2.910   3.029   0.866  1.9530  0.6573 -2.1090
 3069SOL    HW220667   2.950   3.177   0.852  0.6172  0.0204 -0.9418
 3070SOL     OW20668   0.304   2.178   3.369 -0.3740 -0.2702  0.4950
 3070SOL    HW120669   0.392   2.195   3.336 -0.0503 -1.2759  0.8579
 3070SOL    HW220670   0.253   2.225   3.302  1.2961  0.9844  0.0819
 3071SOL     OW20671   2.464   2.029   3.405 -0.2822  0.3599 -0.1838
 3071SOL    HW120672   2.408   2.070   3.471 -1.1236 -2.0924  0.6529
 3071SOL    HW220673   2.550   2.061   3.435 -0.7662  0.7210  0.8234
 3072SOL     OW20674   3.478   3.552   5.219  0.2944  0.3991  0.3425
 3072SOL    HW120675   3.508   3.553   5.310 -0.7140  0.8207  0.6689
 3072SOL    HW220676   3.383   3.558   5.222  0.1839 -1.1785 -0.2493
 3073SOL     OW20677   3.992   3.024   2.746 -0.2328  0.1528  0.1766
 3073SOL    HW120678   3.963   3.089   2.811  1.6589  0.8961  0.2939
 3073SOL    HW220679   3.917   3.036   2.689 -0.4138 -0.8901  0.1910
 3074SOL     OW20680   2.770   2.581   8.619  0.3154  0.2992  0.3542
 3074SOL    HW120681   2.756   2.564   8.525 -1.4776  1.3589  0.4173
 3074SOL    HW220682   2.679   2.573   8.648  0.2770 -1.9881 -0.3851
 3075SOL     OW20683   0.040   1.197   8.364 -0.2046  0.0102 -0.1446
 3075SOL    HW120684   0.012   1.110   8.393  1.7080 -0.5366  0.0564
 3075SOL    HW220685   0.134   1.190   8.379 -0.3154 -0.9040  0.1317
 3076SOL     OW20686   1.890   1.156  16.366 -0.1143 -0.2586 -0.0807
 3076SOL    HW120687   1.801   1.188  16.383  0.3381  1.6161 -1.2011
 3076SOL    HW220688   1.927   1.177  16.451 -1.6531  0.4403  0.4055
 3077SOL     OW20689   0.881   4.220   5.688 -0.1885 -0.2163 -0.3874
 3077SOL    HW120690   0.899   4.129   5.711 -0.0558 -0.5855 -1.9499
 3077SOL    HW220691   0.850   4.250   5.773 -1.7662  1.8491 -1.6923
 3078SOL     OW20692   4.459   2.747  10.604  0.1694 -0.3791  0.5465
 3078SOL    HW120693   4.513   2.790  10.671  0.5305 -1.2743  0.8231
 3078SOL    HW220694   4.402   2.690  10.654  0.9341 -0.4748  1.3103
 3079SOL     OW20695   1.733   2.524   0.186 -0.2714  0.8373 -0.4592
 3079SOL    HW120696   1.667   2.463   0.156 -0.2192  0.4910  0.1218
 3079SOL    HW220697   1.689   2.609   0.183  1.4728  1.7006 -1.7949
 3080SOL     OW20698   0.242   3.896  10.811  0.1451 -0.0702 -0.1929
 3080SOL    HW120699   0.246   3.986  10.778 -1.0405 -0.5412 -1.6602
 3080SOL    HW220700   0.334   3.871  10.818  0.1386  0.8049  2.9729
 3081SOL     OW20701   2.397   2.596   5.758  0.1619 -0.6186 -0.0801
 3081SOL    HW120702   2.490   2.602   5.782 -0.2639  0.9581  1.1629
 3081SOL    HW220703   2.361   2.645   5.832  1.2506 -1.1482  0.8153
 3082SOL     OW20704   3.915   3.918   2.990  0.0185  0.1781 -0.4337
 3082SOL    HW120705   3.947   3.870   2.913  0.1065 -2.9604  1.5708
 3082SOL    HW220706   3.834   3.957   2.958 -0.9685 -1.3307  0.2028
 3083SOL     OW20707   3.528   2.691   8.704 -0.0439  0.1344  0.4977
 3083SOL    HW120708   3.610   2.727   8.670  0.4098  0.4236  1.8752
 3083SOL    HW220709   3.560   2.643   8.780 -1.4087 -1.4625  0.0680
 3084SOL     OW20710   4.101   1.891   4.302  0.0098 -0.2230  0.2321
 3084SOL    HW120711   4.109   1.950   4.377 -1.0796  1.0690 -0.6786
 3084SOL    HW220712   4.034   1.830   4.333 -0.1071  0.4943  1.4027
 3085SOL     OW20713   0.306   0.979   7.587  0.1857  0.0748 -0.4669
 3085SOL    HW120714   0.231   0.920   7.585  0.2544 -0.0075 -0.6730
 3085SOL    HW220715   0.365   0.917   7.545 -0.1422  0.3365 -1.3201
 3086SOL     OW20716   1.338   1.647   8.008  0.1417  0.5091  0.4709
 3086SOL    HW120717   1.382   1.725   7.975  2.9545 -1.8593 -1.3416
 3086SOL    HW220718   1.402   1.581   7.983  1.1541  2.4468 -2.0434
 3087SOL     OW20719   3.419   2.408  10.135  0.5902 -0.1567  0.5890
 3087SOL    HW120720   3.343   2.358  10.163 -0.9755  1.5826 -0.5540
 3087SOL    HW220721   3.432   2.458  10.216 -0.8629 -1.0876  1.3796
 3088SOL     OW20722   2.355   4.071   4.314 -0.0854 -0.4636  0.0873
 3088SOL    HW120723   2.420   4.120   4.364 -1.1712  1.0270  0.0602
 3088SOL    HW220724   2.328   4.012   4.384  0.6091 -1.1211 -0.2024
 3089SOL     OW20725   1.082   1.823   8.448 -0.1216  0.1994  0.2333
 3089SOL    HW120726   1.063   1.729   8.446 -2.6989  0.7192 -0.4394
 3089SOL    HW220727   1.117   1.841   8.535  0.7984  1.0507 -0.3158
 3090SOL     OW20728   3.921   1.502   1.729  0.0110  0.6418 -0.3568
 3090SOL    HW120729   3.963   1.587   1.722  0.4989  0.3905 -0.5246
 3090SOL    HW220730   3.831   1.527   1.710 -0.5170 -0.3360  0.8604
 3091SOL     OW20731   3.667   3.119   7.432 -0.0104 -0.0572  0.5666
 3091SOL    HW120732   3.736   3.075   7.383 -1.5611 -2.0160  0.1189
 3091SOL    HW220733   3.634   3.045   7.483 -2.4485  1.5334  1.3128
 3092SOL     OW20734   2.315   4.103   6.846  0.0512 -0.0525 -0.5996
 3092SOL    HW120735   2.393   4.124   6.898  0.5274 -2.3793 -0.3740
 3092SOL    HW220736   2.321   4.007   6.845 -0.1005 -0.0504 -1.3693
 3093SOL     OW20737   3.375   1.609   2.460 -0.6106 -0.2591 -0.5798
 3093SOL    HW120738   3.410   1.520   2.451 -1.6687 -0.5368 -1.9839
 3093SOL    HW220739   3.346   1.607   2.551 -1.5372  1.0730 -0.8531
 3094SOL     OW20740   2.629   4.701  12.118  0.2690 -0.2551 -0.5111
 3094SOL    HW120741   2.537   4.711  12.096 -0.7749 -2.0873  3.0508
 3094SOL    HW220742   2.669   4.723  12.034 -2.0114  1.3384 -1.1676
 3095SOL     OW20743   4.022   0.126   0.473  0.2822  0.2791  0.4707
 3095SOL    HW120744   3.945   0.108   0.529 -2.7750  2.3086 -3.0914
 3095SOL    HW220745   4.003   0.217   0.451  1.3361 -0.2103 -2.4960
 3096SOL     OW20746   1.356   0.038  12.038 -0.1914  0.1109 -0.0697
 3096SOL    HW120747   1.409   4.686  12.021 -0.6177  0.0417 -1.0878
 3096SOL    HW220748   1.425   0.104  12.023 -0.2358 -0.0254 -0.8875
 3097SOL     OW20749   2.521   3.156  15.990  0.2704  0.0550 -0.4106
 3097SOL    HW120750   2.461   3.100  15.941 -0.3585  0.5216 -0.1736
 3097SOL    HW220751   2.548   3.097  16.060 -3.3846  0.4724  1.3276
 3098SOL     OW20752   1.244   3.429  13.562 -0.2693 -0.5978  0.0855
 3098SOL    HW120753   1.333   3.460  13.577 -0.9311  1.6249 -0.6832
 3098SOL    HW220754   1.244   3.358  13.627  3.5405 -1.1080 -0.4871
 3099SOL     OW20755   0.937   3.990   4.388  0.5119  0.0916  0.3392
 3099SOL    HW120756   0.880   4.017   4.316 -1.2119 -0.2020  1.6172
 3099SOL    HW220757   0.883   3.991   4.467  1.3640 -0.0786  0.9281
 3100SOL     OW20758   4.572   1.882   9.175  0.2143 -0.3897 -0.7210
 3100SOL    HW120759   4.582   1.967   9.133 -3.8639  1.3445  1.7673
 3100SOL    HW220760   4.622   1.880   9.256 -0.3081 -2.3283 -0.4450
 3101SOL     OW20761   2.233   1.928   6.160  0.2790  0.0275 -0.1579
 3101SOL    HW120762   2.288   1.968   6.093  0.2281 -0.6060 -0.5794
 3101SOL    HW220763   2.255   1.978   6.239  0.2921 -1.4982  0.8241
 3102SOL     OW20764   3.894   2.090   1.575 -0.1021 -0.1283 -0.1625
 3102SOL    HW120765   3.934   2.007   1.549 -0.8716 -0.6466  0.2848
 3102SOL    HW220766   3.807   2.089   1.535 -0.3143  2.8805  0.2128
 3103SOL     OW20767   3.306   1.576   7.232  0.4548  0.0973 -0.3585
 3103SOL    HW120768   3.263   1.499   7.194  1.1239 -0.0765 -0.7728
 3103SOL    HW220769   3.238   1.613   7.287  1.3016  1.3281 -0.1449
 3104SOL     OW20770   1.380   1.967  13.240 -0.5696  0.0992 -0.0556
 3104SOL    HW120771   1.424   1.897  13.288  1.6952  1.6763  0.1988
 3104SOL    HW220772   1.400   2.051  13.282  1.3260  0.1238 -1.0296
 3105SOL     OW20773   1.576   0.905   4.083  0.0688 -0.0475  0.2641
 3105SOL    HW120774   1.536   0.834   4.034  0.0477  0.5479 -0.5899
 3105SOL    HW220775   1.627   0.850   4.142  1.1161 -0.5274 -1.0908
 3106SOL     OW20776   4.421   4.168  13.142  0.4749 -0.1144  0.4589
 3106SOL    HW120777   4.409   4.216  13.224 -2.5193 -1.2648  0.7001
 3106SOL    HW220778   4.339   4.193  13.099 -0.0216  1.8827  2.5501
 3107SOL     OW20779   3.855   0.521   2.344 -0.2613 -0.1011 -0.0853
 3107SOL    HW120780   3.768   0.498   2.310 -0.1512 -1.7500  0.7430
 3107SOL    HW220781   3.895   0.514   2.257 -2.0662  1.3149 -1.0271
 3108SOL     OW20782   4.413   3.410   3.282  0.2739  0.0677  0.6875
 3108SOL    HW120783   4.400   3.316   3.291  2.8847 -0.5374 -2.0206
 3108SOL    HW220784   4.399   3.436   3.191 -1.4755  2.0439  1.5253
 3109SOL     OW20785   0.014   0.139   2.810  0.0735 -0.3324  0.1124
 3109SOL    HW120786   4.676   0.104   2.748 -0.3678  1.8504 -0.6704
 3109SOL    HW220787   0.070   0.186   2.748  1.3352 -0.0728  1.4395
 3110SOL     OW20788   2.656   3.825   2.399  0.7028  0.1510 -0.5544
 3110SOL    HW120789   2.737   3.868   2.427  0.9111 -1.1504  0.8120
 3110SOL    HW220790   2.662   3.737   2.437  1.4307 -0.0017 -1.0093
 3111SOL     OW20791   3.084   3.673   2.409  0.3234  0.5678  0.0130
 3111SOL    HW120792   3.025   3.681   2.484 -0.6153 -1.3930 -0.5088
 3111SOL    HW220793   3.035   3.623   2.344  2.2850 -1.9035  0.4508
 3112SOL     OW20794   3.808   0.440   2.616  0.2430  0.0165 -0.1445
 3112SOL    HW120795   3.901   0.417   2.609  0.3249  0.3988 -0.3226
 3112SOL    HW220796   3.803   0.496   2.539 -0.7585  1.9394  1.2938
 3113SOL     OW20797   1.494   3.934   3.784  0.8329 -0.1032 -0.6111
 3113SOL    HW120798   1.511   3.850   3.826  0.0793  0.3982  0.6980
 3113SOL    HW220799   1.535   3.916   3.699 -0.4002 -1.5132 -0.9140
 3114SOL     OW20800   3.628   0.972  12.348 -0.9218  0.1260 -0.6202
 3114SOL    HW120801   3.595   0.937  12.265 -1.4410 -0.8529 -0.0051
 3114SOL    HW220802   3.684   0.897  12.370 -0.7758 -0.0317 -1.5374
 3115SOL     OW20803   3.763   4.646  13.085 -0.1393  0.0087  0.4001
 3115SOL    HW120804   3.777   4.620  12.994 -1.3474  2.5509 -0.5083
 3115SOL    HW220805   3.733   0.012  13.079  0.9528  0.2965 -0.5962
 3116SOL     OW20806   1.974   2.648   0.230 -0.4239  0.1627 -0.0170
 3116SOL    HW120807   1.886   2.610   0.229  0.0802 -1.0846  3.0494
 3116SOL    HW220808   1.971   2.689   0.143  0.5943 -0.6222 -0.4353
 3117SOL     OW20809   2.969   3.709  15.894 -1.0959  0.8622  0.4357
 3117SOL    HW120810   2.920   3.727  15.974 -0.0282 -2.0041  1.7284
 3117SOL    HW220811   2.890   3.710  15.839  0.5638 -0.4757 -1.9889
 3118SOL     OW20812   1.666   0.951   5.570  0.3341  0.1830  0.5020
 3118SOL    HW120813   1.733   0.888   5.544  0.5461 -0.4562  2.6285
 3118SOL    HW220814   1.722   1.013   5.615  1.0145 -1.2387  1.6162
 3119SOL     OW20815   2.154   4.113   6.061 -0.4793 -0.3448  0.0225
 3119SOL    HW120816   2.227   4.066   6.020 -0.2774  1.2997 -1.5037
 3119SOL    HW220817   2.186   4.115   6.151 -1.9374  1.1552  0.5145
 3120SOL     OW20818   4.658   1.643   3.656  0.0135 -0.3116  0.2209
 3120SOL    HW120819   4.660   1.728   3.613 -1.0009 -0.5505 -0.2947
 3120SOL    HW220820   4.649   1.664   3.749  1.0466 -0.8150  0.4380
 3121SOL     OW20821   2.870   1.354   6.365 -0.0103 -0.2985  0.1092
 3121SOL    HW120822   2.841   1.307   6.287 -0.4989  1.3023 -0.6835
 3121SOL    HW220823   2.789   1.399   6.389  0.6151  0.4723  0.7662
 3122SOL     OW20824   4.131   3.422   5.111  0.1352 -0.0795 -0.3280
 3122SOL    HW120825   4.075   3.468   5.048 -1.2796 -0.4739  0.6588
 3122SOL    HW220826   4.217   3.424   5.067  1.1945 -0.0738  1.7579
 3123SOL     OW20827   2.394   2.118   2.734 -0.0137 -0.9077 -0.2379
 3123SOL    HW120828   2.490   2.110   2.738  0.1607  1.7074  0.6540
 3123SOL    HW220829   2.384   2.071   2.651 -1.2982 -1.2274  0.0973
 3124SOL     OW20830   2.970   2.239   3.536 -0.0295 -0.0104 -0.0088
 3124SOL    HW120831   2.948   2.305   3.601 -1.7601  0.0803 -0.6711
 3124SOL    HW220832   3.046   2.212   3.588  0.8638  1.2097 -0.6910
 3125SOL     OW20833   1.393   2.233   0.182  0.0371  0.0696 -0.5532
 3125SOL    HW120834   1.386   2.225   0.087  0.4940  0.0145 -0.5802
 3125SOL    HW220835   1.395   2.327   0.198  1.1301 -0.0640  0.0772
 3126SOL     OW20836   3.886   2.761   2.955  0.2170 -0.3170 -0.5001
 3126SOL    HW120837   3.938   2.827   2.909 -0.7573  0.8303  0.0296
 3126SOL    HW220838   3.794   2.774   2.933  0.0177  1.4179  1.3100
 3127SOL     OW20839   4.701   4.655   4.276  0.0453  0.5848  0.3798
 3127SOL    HW120840   4.701   0.014   4.322  0.5481  0.9605 -0.3179
 3127SOL    HW220841   0.048   4.671   4.216 -1.5208 -1.7819 -2.1316
 3128SOL     OW20842   1.635   3.308  13.031  0.2161  0.9429  0.0966
 3128SOL    HW120843   1.602   3.229  13.075 -0.0044 -0.3368 -2.3703
 3128SOL    HW220844   1.667   3.255  12.958 -2.3091  0.7455 -0.8830
 3129SOL     OW20845   2.070   2.577   1.787  0.1264  0.0814  0.0235
 3129SOL    HW120846   2.062   2.531   1.703 -2.0855 -0.5075  0.5622
 3129SOL    HW220847   2.059   2.669   1.764  0.3133  0.0659 -0.1349
 3130SOL     OW20848   3.725   3.972  15.325  0.0030 -0.1800  0.2754
 3130SOL    HW120849   3.660   4.000  15.260 -1.5719 -2.6647  0.7902
 3130SOL    HW220850   3.709   4.012  15.411 -1.2060  1.7196 -0.8489
 3131SOL     OW20851   0.995   0.828   3.217  0.5736 -0.0735  0.0116
 3131SOL    HW120852   0.905   0.847   3.241  0.2643 -1.2841 -0.1445
 3131SOL    HW220853   1.000   0.735   3.241  1.7333 -0.2027 -0.6665
 3132SOL     OW20854   3.535   4.470  13.222  0.0219 -0.0163 -0.4985
 3132SOL    HW120855   3.462   4.422  13.261 -0.3860  1.6907  0.8491
 3132SOL    HW220856   3.521   4.559  13.254  0.8745  0.9520 -2.8598
 3133SOL     OW20857   2.912   3.324   9.462  0.5950  0.6054  0.0568
 3133SOL    HW120858   2.995   3.371   9.455  1.4382 -0.6749  1.3252
 3133SOL    HW220859   2.853   3.392   9.494 -0.5795 -0.8379  0.9719
 3134SOL     OW20860   0.411   0.027   1.999  0.1819  0.2314  0.5970
 3134SOL    HW120861   0.434   0.110   1.957 -0.2377  1.3961  2.6164
 3134SOL    HW220862   0.319   0.015   1.974  1.2267 -3.5109 -1.3537
 3135SOL     OW20863   1.785   1.397   8.387 -0.0313 -0.1670  0.3633
 3135SOL    HW120864   1.831   1.326   8.342 -0.2602  0.0631 -0.2222
 3135SOL    HW220865   1.808   1.366   8.475  2.2119 -2.1744 -0.9330
 3136SOL     OW20866   1.057   0.565   4.448  0.3663 -0.0632  0.2913
 3136SOL    HW120867   1.132   0.603   4.402  0.0254  0.4738  0.1778
 3136SOL    HW220868   1.053   0.628   4.519 -3.1651 -0.5393  0.4750
 3137SOL     OW20869   2.069   0.129   2.479  0.2449  0.1402  0.0266
 3137SOL    HW120870   2.009   0.084   2.419 -1.6113  1.6330  0.7627
 3137SOL    HW220871   2.077   0.074   2.557  0.7996  1.3532  0.8214
 3138SOL     OW20872   3.927   0.480   5.232  0.5377 -0.6182  0.1192
 3138SOL    HW120873   3.907   0.449   5.143 -0.4164  0.9561 -0.2111
 3138SOL    HW220874   3.871   0.422   5.282  0.0013 -0.3881 -0.2153
 3139SOL     OW20875   0.439   4.719   2.501 -0.2844  0.4194 -0.5203
 3139SOL    HW120876   0.428   4.693   2.409 -0.1127 -0.3523 -0.3197
 3139SOL    HW220877   0.360   4.681   2.538  1.2608  1.8933  4.2629
 3140SOL     OW20878   3.324   2.866   6.312 -0.7350 -0.3410  0.3618
 3140SOL    HW120879   3.393   2.824   6.261  0.6057  0.0094  1.8922
 3140SOL    HW220880   3.359   2.955   6.319  1.7648 -1.2505 -0.6203
 3141SOL     OW20881   2.291   0.290   2.519 -0.3575 -0.4688 -0.2973
 3141SOL    HW120882   2.349   0.214   2.528  2.1605  1.8112  2.3341
 3141SOL    HW220883   2.211   0.242   2.498 -0.0946 -0.4728 -1.2560
 3142SOL     OW20884   1.998   0.364   3.313  0.0769 -0.1814  0.2692
 3142SOL    HW120885   1.920   0.330   3.268  0.9872 -1.0610 -0.6536
 3142SOL    HW220886   2.002   0.451   3.274 -0.4380  0.2188  1.1014
 3143SOL     OW20887   1.694   2.466   5.212 -0.0815  0.1241 -0.4302
 3143SOL    HW120888   1.673   2.426   5.297  1.3911 -0.6631 -0.4299
 3143SOL    HW220889   1.776   2.422   5.190 -0.3602 -1.1880  1.1093
 3144SOL     OW20890   4.477   3.044   3.489 -0.5922  0.1382  0.2275
 3144SOL    HW120891   4.493   2.949   3.485  1.4411  0.4326  1.5841
 3144SOL    HW220892   4.532   3.071   3.416  0.6188  0.4474  1.2546
 3145SOL     OW20893   3.459   1.525   0.373 -0.1364  0.2169 -0.4917
 3145SOL    HW120894   3.502   1.512   0.289 -2.0581  1.0807 -1.6078
 3145SOL    HW220895   3.413   1.442   0.384  1.7557 -0.8350 -0.5836
 3146SOL     OW20896   2.416   2.378   7.945 -0.5305  0.4322  0.1639
 3146SOL    HW120897   2.398   2.470   7.967  1.2283  1.1405 -1.2893
 3146SOL    HW220898   2.470   2.354   8.021 -0.3178 -0.3695 -0.2434
 3147SOL     OW20899   2.778   0.215   7.064  0.6803 -0.2590  0.2444
 3147SOL    HW120900   2.814   0.303   7.054  0.8747 -0.3816 -0.1287
 3147SOL    HW220901   2.813   0.184   7.147  0.7486 -1.2759 -0.1626
 3148SOL     OW20902   4.694   2.578  16.843  0.2087 -0.8432  0.6355
 3148SOL    HW120903   4.654   2.599  16.928  0.6520  0.0298  0.6288
 3148SOL    HW220904   4.612   2.568  16.793  1.2095  2.4636 -1.6617
 3149SOL     OW20905   1.418   1.450   0.108  0.2248 -0.0190  0.7380
 3149SOL    HW120906   1.410   1.423   0.199 -3.2237 -3.1346 -0.4441
 3149SOL    HW220907   1.512   1.442   0.095  0.0275 -1.9684  0.5097
 3150SOL     OW20908   2.915   0.431   7.915  0.2276  0.7352 -0.1072
 3150SOL    HW120909   2.911   0.504   7.976 -0.3237 -1.6108  2.6712
 3150SOL    HW220910   2.840   0.379   7.944  0.4498  0.8343  0.6512
 3151SOL     OW20911   3.424   1.645  15.473  0.1418  0.1292  0.2868
 3151SOL    HW120912   3.511   1.630  15.508  0.1318  0.3733  0.4124
 3151SOL    HW220913   3.372   1.658  15.552  0.7180 -0.9258  0.8428
 3152SOL     OW20914   3.224   3.772   9.524  0.6654 -0.2049 -0.2090
 3152SOL    HW120915   3.257   3.797   9.611 -0.9237  4.1791 -0.8773
 3152SOL    HW220916   3.291   3.708   9.500  0.1926 -0.9063  0.3175
 3153SOL     OW20917   0.972   2.464   9.243 -0.0198  0.0488  0.4123
 3153SOL    HW120918   0.913   2.482   9.316 -0.1083  1.0003  0.1066
 3153SOL    HW220919   1.030   2.419   9.304 -1.8572 -0.3766  1.8635
 3154SOL     OW20920   3.368   0.250  14.347  0.4621  0.0851  0.0860
 3154SOL    HW120921   3.318   0.221  14.271  0.3287 -0.5454  0.4168
 3154SOL    HW220922   3.451   0.206  14.328  1.3673  1.3740  1.0292
 3155SOL     OW20923   1.658   0.316   2.384 -0.1684 -0.1461 -0.3938
 3155SOL    HW120924   1.716   0.282   2.316  3.0971 -0.4334  2.5569
 3155SOL    HW220925   1.581   0.348   2.337 -1.0524  1.1299  1.9179
 3156SOL     OW20926   3.232   1.086   9.768 -0.1937 -0.1530 -0.2692
 3156SOL    HW120927   3.297   1.023   9.739 -0.6000 -0.1408 -1.2048
 3156SOL    HW220928   3.203   1.105   9.678 -0.1703  0.5377 -0.1347
 3157SOL     OW20929   1.453   2.051   4.075  0.0997 -0.3718  0.0681
 3157SOL    HW120930   1.400   2.065   3.997  0.0429 -0.7490  0.0401
 3157SOL    HW220931   1.386   2.057   4.142 -0.6568  0.0218 -0.7251
 3158SOL     OW20932   0.981   2.765   6.007  0.0551 -0.3060 -0.1100
 3158SOL    HW120933   1.039   2.690   6.021  1.4204  0.3911 -2.0542
 3158SOL    HW220934   0.976   2.759   5.912  0.0199  0.7923 -0.1788
 3159SOL     OW20935   0.262   2.458   6.029 -0.1641  0.0931 -0.6947
 3159SOL    HW120936   0.213   2.485   6.107  1.8552  2.2510 -0.1593
 3159SOL    HW220937   0.270   2.364   6.047  0.8381  0.2707 -0.2148
 3160SOL     OW20938   0.622   3.909   0.981  0.7433 -0.6755  0.4910
 3160SOL    HW120939   0.582   3.991   1.011 -0.4625 -0.0190 -2.8359
 3160SOL    HW220940   0.695   3.936   0.925  0.0764 -1.2593 -0.6673
 3161SOL     OW20941   4.522   0.326   3.952  0.4841  0.5160 -0.4564
 3161SOL    HW120942   4.578   0.271   3.896 -0.2295 -1.6901  0.9745
 3161SOL    HW220943   4.556   0.411   3.927  2.0633  0.4048  1.2726
 3162SOL     OW20944   3.210   0.065  13.442 -0.5218 -0.6420 -0.1742
 3162SOL    HW120945   3.137   0.060  13.504 -0.2322  5.0914  0.6103
 3162SOL    HW220946   3.176   0.007  13.373  0.2204  0.7535 -1.7313
 3163SOL     OW20947   2.099   0.090   3.177 -0.0846  0.9799 -0.1853
 3163SOL    HW120948   2.100   0.170   3.230  1.2060 -1.6159  3.6597
 3163SOL    HW220949   2.144   0.116   3.096 -0.3325  0.3930 -0.5159
 3164SOL     OW20950   3.565   3.236   3.685 -0.1531 -0.4001 -0.4011
 3164SOL    HW120951   3.629   3.185   3.733 -0.6688 -2.1815 -1.6161
 3164SOL    HW220952   3.527   3.297   3.748 -0.1696 -0.9733  0.1410
 3165SOL     OW20953   2.934   0.885   5.267  0.7271  0.1078 -0.0489
 3165SOL    HW120954   2.981   0.953   5.219 -0.0465  1.5688  1.2891
 3165SOL    HW220955   2.926   0.934   5.349 -0.5291 -0.1841  0.0058
 3166SOL     OW20956   1.917   1.627  14.642 -0.5286 -0.2148  0.3337
 3166SOL    HW120957   1.897   1.708  14.595  1.4760 -0.0545 -0.2638
 3166SOL    HW220958   1.876   1.553  14.598  1.6427 -1.6637  0.7528
 3167SOL     OW20959   2.636   2.019  16.745  0.3808 -0.1664  0.0413
 3167SOL    HW120960   2.633   1.929  16.778 -0.7722 -0.4049 -0.7397
 3167SOL    HW220961   2.586   2.009  16.665 -1.0658  0.4288  0.8812
 3168SOL     OW20962   2.833   4.321   0.921 -0.1830  0.7953 -0.0768
 3168SOL    HW120963   2.834   4.318   1.016 -2.1145  0.5446 -0.0477
 3168SOL    HW220964   2.746   4.287   0.899  0.0273 -1.2180  2.1787
 3169SOL     OW20965   2.769   2.404   5.350 -0.6264 -0.1232 -0.4716
 3169SOL    HW120966   2.710   2.479   5.359  0.7955  0.7228  1.6078
 3169SOL    HW220967   2.720   2.350   5.413 -1.1907  0.0093 -0.7981
 3170SOL     OW20968   4.067   0.068   2.771 -0.0814  0.0243 -0.0607
 3170SOL    HW120969   4.009   0.046   2.698 -2.3371 -0.0661  1.7778
 3170SOL    HW220970   4.056   4.717   2.828  2.1702  0.6542  1.2221
 3171SOL     OW20971   2.135   0.557   4.485 -0.0024 -0.1647  0.0278
 3171SOL    HW120972   2.111   0.542   4.577  2.2394 -2.3481  0.2753
 3171SOL    HW220973   2.120   0.473   4.441  2.0370 -0.0538 -0.8715
 3172SOL     OW20974   1.074   3.570   5.665  0.9328  0.0410 -0.2626
 3172SOL    HW120975   1.116   3.655   5.677  0.5772  0.0511  0.8983
 3172SOL    HW220976   0.987   3.589   5.699  1.3276 -0.2807  0.9291
 3173SOL     OW20977   4.424   1.680   3.451  0.4011  0.3352 -0.4826
 3173SOL    HW120978   4.504   1.719   3.486  1.9423 -1.2491 -2.2755
 3173SOL    HW220979   4.381   1.754   3.408  1.4113  1.5661  0.6088
 3174SOL     OW20980   4.091   4.225   9.624 -0.7521  0.2329  0.5656
 3174SOL    HW120981   4.097   4.223   9.719  0.8001 -0.1139  0.4610
 3174SOL    HW220982   4.180   4.253   9.600 -1.0891 -0.0099 -0.9848
 3175SOL     OW20983   0.926   0.726  12.044 -0.2308  0.1061 -0.4393
 3175SOL    HW120984   0.905   0.659  11.980 -0.1623 -3.2107  3.0011
 3175SOL    HW220985   0.926   0.674  12.124  0.4967  0.8732  0.0675
 3176SOL     OW20986   1.250   0.420   6.164  0.1865 -0.3245 -0.2274
 3176SOL    HW120987   1.343   0.431   6.185 -1.0410  1.6545  4.2440
 3176SOL    HW220988   1.222   0.490   6.222  0.3592 -2.3222  2.3013
 3177SOL     OW20989   4.415   0.404   8.182 -0.4740 -0.7075  0.2337
 3177SOL    HW120990   4.409   0.308   8.187 -1.1133 -0.7167 -0.7238
 3177SOL    HW220991   4.352   0.432   8.116 -1.9263 -0.2104  1.8441
 3178SOL     OW20992   3.030   4.225   4.095  0.3215 -0.6756  0.6016
 3178SOL    HW120993   2.984   4.243   4.013  1.7456 -2.4048 -0.5950
 3178SOL    HW220994   3.070   4.304   4.131  0.9459 -0.7807  0.1406
 3179SOL     OW20995   0.031   0.789   9.298  0.0799 -0.0485  0.0208
 3179SOL    HW120996   4.682   0.730   9.284  1.5528 -1.6749 -1.0417
 3179SOL    HW220997   0.104   0.734   9.269 -1.2825 -2.6549  1.5904
 3180SOL     OW20998   2.790   2.052  13.180 -0.6388 -0.0597 -0.0723
 3180SOL    HW120999   2.831   1.972  13.215 -2.6639 -0.4911  1.2970
 3180SOL    HW221000   2.843   2.055  13.100 -1.8081 -0.7216 -0.8672
 3181SOL     OW21001   4.390   1.079   9.193 -0.4608 -0.1261 -0.4323
 3181SOL    HW121002   4.485   1.077   9.193 -0.4121  2.0264 -1.6406
 3181SOL    HW221003   4.371   1.039   9.278 -2.2330  1.8803  0.1228
 3182SOL     OW21004   2.044   0.864   3.720 -0.8060  0.0066  0.3367
 3182SOL    HW121005   2.080   0.819   3.797 -0.0978  0.0167  0.0128
 3182SOL    HW221006   2.117   0.882   3.661 -0.4793 -0.9464  0.4535
 3183SOL     OW21007   3.119   4.243  13.608  0.1422 -0.5140  0.2690
 3183SOL    HW121008   3.206   4.256  13.644 -0.5505  0.5260  1.5628
 3183SOL    HW221009   3.106   4.149  13.593 -1.0113 -0.5975  1.8612
 3184SOL     OW21010   2.858   1.468   3.056 -0.3482  0.3256  0.5394
 3184SOL    HW121011   2.941   1.516   3.058  0.2942 -0.6665 -2.1286
 3184SOL    HW221012   2.887   1.379   3.034  1.3974  0.5232  2.0663
 3185SOL     OW21013   2.834   2.359   0.617  0.5111  0.0368 -0.1317
 3185SOL    HW121014   2.785   2.379   0.537 -0.8470 -0.4094  0.5916
 3185SOL    HW221015   2.917   2.372   0.571  0.1705  0.9104 -0.5087
 3186SOL     OW21016   3.928   0.935   9.515 -0.6325  0.4925 -0.3708
 3186SOL    HW121017   3.980   0.854   9.524 -0.1083  1.1687  2.7249
 3186SOL    HW221018   3.990   1.007   9.525  0.4400 -0.3875 -0.6775
 3187SOL     OW21019   2.656   1.900   8.215 -0.3192  0.2544  0.0163
 3187SOL    HW121020   2.581   1.881   8.272 -0.4234 -0.0295 -0.2139
 3187SOL    HW221021   2.620   1.883   8.128 -0.8732  0.1646  0.2603
 3188SOL     OW21022   3.230   3.499   3.478  0.3847 -0.1226 -0.1760
 3188SOL    HW121023   3.140   3.471   3.463  0.8176 -1.8721  0.5643
 3188SOL    HW221024   3.228   3.589   3.443 -1.6116 -0.2723 -0.4541
 3189SOL     OW21025   3.211   1.329   7.179  0.0830  0.0819 -0.4036
 3189SOL    HW121026   3.173   1.268   7.242 -0.1004  0.0579 -0.5370
 3189SOL    HW221027   3.302   1.303   7.189  0.1327 -0.0880 -1.3058
 3190SOL     OW21028   1.298   4.244   7.582 -0.4083 -0.4983  0.1438
 3190SOL    HW121029   1.346   4.326   7.595  1.1644 -1.2117 -1.1497
 3190SOL    HW221030   1.328   4.228   7.493  0.2570  3.5273 -0.3533
 3191SOL     OW21031   1.067   4.352   6.791  0.5912  0.4388 -0.2005
 3191SOL    HW121032   1.042   4.438   6.824 -1.3424 -0.8145  1.5523
 3191SOL    HW221033   0.998   4.344   6.725 -0.6811  2.2429  0.8902
 3192SOL     OW21034   4.287   0.771   9.221  0.0284  0.0431 -0.1026
 3192SOL    HW121035   4.210   0.772   9.164 -0.4980  1.1407  0.6239
 3192SOL    HW221036   4.267   0.848   9.274  0.9899 -0.2326  0.6531
 3193SOL     OW21037   3.925   4.482   7.392  0.3239 -0.5975  0.5839
 3193SOL    HW121038   3.943   4.514   7.480  0.3654 -1.5257  0.9112
 3193SOL    HW221039   3.937   4.564   7.344  1.2984 -1.3890 -0.5318
 3194SOL     OW21040   3.163   4.663  13.159 -0.0498 -0.2128 -0.6808
 3194SOL    HW121041   3.080   4.634  13.121 -1.0023  0.6462  0.7704
 3194SOL    HW221042   3.188   4.595  13.221 -0.3046 -0.3948 -0.7780
 3195SOL     OW21043   1.857   1.023  11.081 -0.1776 -0.2103  0.5131
 3195SOL    HW121044   1.765   1.023  11.104 -0.0956  1.7009  0.9169
 3195SOL    HW221045   1.854   1.081  11.005  0.9405  1.1335  1.4747
 3196SOL     OW21046   4.483   4.237  12.765  0.0940  0.4440 -0.4351
 3196SOL    HW121047   4.406   4.184  12.784  2.8394 -2.5810  2.2613
 3196SOL    HW221048   4.543   4.166  12.786  0.2380  0.5304 -0.5547
 3197SOL     OW21049   0.822   1.220  13.878  0.6861  0.3087 -0.5829
 3197SOL    HW121050   0.838   1.149  13.816 -0.1474 -1.1482  0.8726
 3197SOL    HW221051   0.763   1.271  13.822 -0.9491  2.1648  2.8239
 3198SOL     OW21052   0.700   2.568   3.608 -0.1417 -0.3000 -0.4524
 3198SOL    HW121053   0.727   2.488   3.563  0.5985  1.5256 -3.2687
 3198SOL    HW221054   0.774   2.625   3.586 -0.7133  0.5682 -0.1235
 3199SOL     OW21055   0.836   3.153   6.390  0.6281 -0.2765 -0.7726
 3199SOL    HW121056   0.906   3.134   6.327  1.6670  0.4589  0.1429
 3199SOL    HW221057   0.881   3.155   6.475  0.9907  2.7312 -1.0005
 3200SOL     OW21058   3.480   4.635   9.251  0.4578  0.0999  0.0254
 3200SOL    HW121059   3.529   4.654   9.331 -2.5097  0.2233  1.8530
 3200SOL    HW221060   3.537   4.670   9.183 -0.7213  0.8698 -0.5647
 3201SOL     OW21061   0.600   0.716   6.552 -0.3199 -0.3153  0.9113
 3201SOL    HW121062   0.552   0.645   6.594 -3.3850  0.6413 -0.9628
 3201SOL    HW221063   0.572   0.801   6.588  1.2188  1.1121 -1.2739
 3202SOL     OW21064   1.794   2.649   1.517  0.1215 -0.7405  0.3294
 3202SOL    HW121065   1.869   2.589   1.524  2.1150  1.5353 -1.4767
 3202SOL    HW221066   1.728   2.597   1.562 -0.4915  0.1567  0.4464
 3203SOL     OW21067   3.340   2.640   8.977 -0.2714 -0.6565 -0.5333
 3203SOL    HW121068   3.319   2.556   8.937 -2.9227  0.3717 -1.2935
 3203SOL    HW221069   3.434   2.629   8.962 -0.1445  0.7594 -0.8022
 3204SOL     OW21070   4.419   1.273   8.317 -0.2219 -0.1352 -0.0984
 3204SOL    HW121071   4.405   1.234   8.404  1.1242  0.1298  0.2292
 3204SOL    HW221072   4.358   1.219   8.266  1.6356 -1.2520 -1.1251
 3205SOL     OW21073   1.797   1.370   4.633 -0.2229 -0.3933 -0.4158
 3205SOL    HW121074   1.778   1.461   4.608  1.2843  0.3145  1.0158
 3205SOL    HW221075   1.866   1.385   4.698 -0.5958  0.8508 -0.2913
 3206SOL     OW21076   4.460   2.303   2.819  0.8266  0.3158 -0.3681
 3206SOL    HW121077   4.383   2.353   2.789  0.3609 -1.3081 -1.8373
 3206SOL    HW221078   4.462   2.333   2.910  0.6801  0.3268 -0.3685
 3207SOL     OW21079   0.929   0.163   5.300  0.3308  0.3924  0.4904
 3207SOL    HW121080   0.860   0.125   5.246  0.0238 -0.1530  1.2819
 3207SOL    HW221081   0.906   0.116   5.380 -0.0842  1.2208  0.8635
 3208SOL     OW21082   3.389   1.101   5.025  0.4376  0.5913 -0.3767
 3208SOL    HW121083   3.458   1.036   5.012 -2.4152 -2.1816 -1.5819
 3208SOL    HW221084   3.354   1.116   4.937  1.4063  2.3383 -0.4503
 3209SOL     OW21085   4.660   1.018   2.277 -0.5653 -0.0021 -0.1382
 3209SOL    HW121086   4.715   0.994   2.203 -1.9668  0.6497 -1.3869
 3209SOL    HW221087   4.683   1.109   2.297  2.9489 -0.4980 -1.8831
 3210SOL     OW21088   2.352   2.049   6.381 -0.1787 -0.5308 -0.1459
 3210SOL    HW121089   2.346   2.098   6.462 -0.2754  0.8927 -1.0195
 3210SOL    HW221090   2.447   2.051   6.375 -0.0951 -1.7887  0.7640
 3211SOL     OW21091   0.307   4.206  10.983  0.1576 -0.1808  0.3310
 3211SOL    HW121092   0.221   4.165  10.970  1.0111 -0.8667 -3.1518
 3211SOL    HW221093   0.296   4.276  10.920  2.8059 -1.6670 -1.7913
 3212SOL     OW21094   3.987   2.108   8.809 -0.4520  0.6227  0.0891
 3212SOL    HW121095   3.973   2.202   8.809  1.9232  0.9705 -1.2351
 3212SOL    HW221096   4.013   2.094   8.901 -1.5750  0.2022  0.3362
 3213SOL     OW21097   1.932   1.083  16.106  0.5836  0.0368  0.0016
 3213SOL    HW121098   1.927   1.097  16.201 -1.1358  2.2631 -0.4359
 3213SOL    HW221099   1.916   1.169  16.069 -1.3763 -0.4364 -0.2623
 3214SOL     OW21100   0.042   4.309   2.438  0.4277  0.3283 -0.3098
 3214SOL    HW121101   4.717   4.282   2.515 -0.4514  2.4919 -0.1156
 3214SOL    HW221102   0.064   4.218   2.422  1.1771  0.3005  0.9522
 3215SOL     OW21103   4.106   2.945   6.973  0.0964 -0.1585  0.3490
 3215SOL    HW121104   4.196   2.965   6.949 -0.0216  1.2946  1.1529
 3215SOL    HW221105   4.135   2.890   7.046  0.3263 -0.2348  0.2001
 3216SOL     OW21106   0.312   2.299  10.719 -0.0475  0.1473 -0.3487
 3216SOL    HW121107   0.250   2.234  10.752  0.2135  0.2238  0.2840
 3216SOL    HW221108   0.327   2.272  10.628 -0.6134 -0.2604 -0.3244
 3217SOL     OW21109   1.412   1.467  15.729  0.4246 -0.4507 -0.1431
 3217SOL    HW121110   1.428   1.413  15.807  1.8661 -1.8536 -1.4233
 3217SOL    HW221111   1.334   1.516  15.755  1.5020  1.7070 -1.0495
 3218SOL     OW21112   0.768   4.502   5.011 -0.0862 -0.6610  0.3139
 3218SOL    HW121113   0.712   4.541   5.078 -0.2756  1.2476 -0.9694
 3218SOL    HW221114   0.853   4.545   5.021 -0.8324  1.3844 -1.9876
 3219SOL     OW21115   4.454   1.724   2.367 -0.3093  0.1215  0.4677
 3219SOL    HW121116   4.429   1.648   2.315  3.3812  0.4307 -1.7417
 3219SOL    HW221117   4.467   1.688   2.455 -1.0456 -0.0053  0.5251
 3220SOL     OW21118   2.131   4.143   0.147 -0.2634 -0.2346  0.7564
 3220SOL    HW121119   2.090   4.057   0.161 -2.3784  0.8516  1.2485
 3220SOL    HW221120   2.226   4.135   0.138 -0.0411  2.2557  0.8781
 3221SOL     OW21121   3.743   2.736   3.279 -0.2962  0.7600  0.0905
 3221SOL    HW121122   3.816   2.793   3.257 -0.0949 -0.2813 -1.9050
 3221SOL    HW221123   3.776   2.697   3.360 -1.3501 -0.0358  0.1492
 3222SOL     OW21124   4.533   3.085   2.276 -0.0176 -0.1200 -0.5913
 3222SOL    HW121125   4.545   3.032   2.355  0.9003 -0.0624 -0.6929
 3222SOL    HW221126   4.625   3.099   2.254  0.6508 -3.7930 -0.2930
 3223SOL     OW21127   3.240   0.781   0.000  0.0040 -0.2284 -0.0743
 3223SOL    HW121128   3.218   0.712  17.640 -0.4423 -1.2140  1.1912
 3223SOL    HW221129   3.296   0.839  17.651 -1.1301  1.8970  1.0479
 3224SOL     OW21130   0.774   1.016   6.474 -0.3352  0.4039 -0.0112
 3224SOL    HW121131   0.696   1.033   6.526  0.0477  3.4376 -0.4007
 3224SOL    HW221132   0.772   0.921   6.460 -0.3424  0.3312  0.4770
 3225SOL     OW21133   0.901   1.634   0.902 -0.2047  0.4510 -0.0777
 3225SOL    HW121134   0.996   1.637   0.913 -0.1729 -0.3621 -0.0870
 3225SOL    HW221135   0.893   1.592   0.816  0.4330 -1.1119  0.6203
 3226SOL     OW21136   1.391   4.603   1.508 -0.2793  0.3055 -0.0201
 3226SOL    HW121137   1.427   4.516   1.489  0.7397  0.3820  1.6064
 3226SOL    HW221138   1.332   4.602   1.433  0.9750  0.5634 -1.0144
 3227SOL     OW21139   1.398   1.450  14.953 -0.3185 -0.2653  0.2580
 3227SOL    HW121140   1.423   1.516  15.017 -1.8374 -0.6687  1.2537
 3227SOL    HW221141   1.476   1.396  14.943 -0.2274 -0.0906  0.0123
 3228SOL     OW21142   3.493   4.319  15.973 -0.1741  0.3907  0.5983
 3228SOL    HW121143   3.495   4.383  15.901 -1.7757 -2.5438 -2.0240
 3228SOL    HW221144   3.556   4.357  16.035  0.0379  0.0948  0.5622
 3229SOL     OW21145   2.665   1.918   1.213 -0.4315  0.4748  0.1669
 3229SOL    HW121146   2.632   1.881   1.295 -0.4012  1.0613  0.4472
 3229SOL    HW221147   2.754   1.884   1.209 -0.7613  0.1008 -3.4790
 3230SOL     OW21148   1.871   3.372   7.920  0.0662 -0.0626  0.0051
 3230SOL    HW121149   1.800   3.310   7.903  0.2817  0.2446 -2.0231
 3230SOL    HW221150   1.863   3.434   7.848 -4.0513  0.1121  0.6492
 3231SOL     OW21151   3.199   1.345   9.864 -0.0976  0.5716  0.3772
 3231SOL    HW121152   3.192   1.251   9.848 -0.6764  0.7582 -0.4630
 3231SOL    HW221153   3.121   1.364   9.917  0.0271  2.5786 -0.1783
 3232SOL     OW21154   0.949   0.427   8.734  0.0563  0.1277 -0.3601
 3232SOL    HW121155   1.027   0.420   8.789 -0.4615  0.5329  0.4043
 3232SOL    HW221156   1.000   0.442   8.654  0.3487  0.6560 -0.0702
 3233SOL     OW21157   3.593   2.055   0.757 -0.2916 -0.8243 -0.1939
 3233SOL    HW121158   3.533   2.020   0.691 -1.8224 -1.1650  1.3676
 3233SOL    HW221159   3.589   1.988   0.826 -0.3250 -1.1207 -0.4833
 3234SOL     OW21160   0.696   1.131   5.263  0.1485  0.2491  0.0428
 3234SOL    HW121161   0.655   1.049   5.290  1.9266 -1.1596 -1.5698
 3234SOL    HW221162   0.677   1.189   5.337 -0.9952 -0.8219  0.5894
 3235SOL     OW21163   0.402   2.126   6.995  0.0966  0.4567 -0.1002
 3235SOL    HW121164   0.346   2.163   6.927  0.1231  0.8497  0.0884
 3235SOL    HW221165   0.461   2.074   6.941 -1.5617 -2.6683  1.0936
 3236SOL     OW21166   2.191   2.669   2.751  0.0602  0.0433  0.1012
 3236SOL    HW121167   2.285   2.676   2.771 -0.0166  0.7840  0.1949
 3236SOL    HW221168   2.175   2.576   2.766 -3.1261  0.5072 -0.4756
 3237SOL     OW21169   1.762   3.654  10.206  0.3346 -0.1284 -0.2013
 3237SOL    HW121170   1.840   3.635  10.258 -0.7832 -2.2915  0.6949
 3237SOL    HW221171   1.690   3.670  10.268  0.6010  1.6244 -0.3530
 3238SOL     OW21172   3.835   3.818   3.870  0.0400  0.2308  0.1983
 3238SOL    HW121173   3.875   3.781   3.791 -2.4672 -1.4287 -0.3284
 3238SOL    HW221174   3.745   3.785   3.859 -0.5426  1.2830  1.8517
 3239SOL     OW21175   3.925   3.434   0.051 -0.1086  0.5499 -0.1753
 3239SOL    HW121176   3.884   3.485   0.121  0.5943 -0.2933  0.8659
 3239SOL    HW221177   3.958   3.508   0.001 -0.9704  0.3848 -0.9854
 3240SOL     OW21178   0.727   3.442   3.773 -0.3088  0.2070 -0.3012
 3240SOL    HW121179   0.636   3.429   3.745 -0.2905 -2.2408  0.7520
 3240SOL    HW221180   0.723   3.445   3.868  1.9528  3.5544 -0.3262
 3241SOL     OW21181   4.059   4.099   5.157 -0.1767  0.3913  0.3679
 3241SOL    HW121182   4.055   4.019   5.209  0.2546  0.9453  1.2495
 3241SOL    HW221183   3.986   4.080   5.098  0.0627 -1.7509  0.7567
 3242SOL     OW21184   0.411   0.503   9.128  0.2347 -0.8429  0.3714
 3242SOL    HW121185   0.356   0.574   9.159  0.8045  0.0764 -0.6854
 3242SOL    HW221186   0.469   0.551   9.068 -2.0189  1.8469  0.3364
 3243SOL     OW21187   4.179   1.880   9.735  0.5441 -0.0639 -0.3867
 3243SOL    HW121188   4.103   1.912   9.783  1.0295  0.1829  0.2094
 3243SOL    HW221189   4.160   1.788   9.714 -1.6555 -0.0954  1.7593
 3244SOL     OW21190   0.290   3.130   2.847  0.2524 -0.2398  0.2310
 3244SOL    HW121191   0.310   3.108   2.756 -2.3472  1.4378 -0.7590
 3244SOL    HW221192   0.362   3.087   2.892  1.3606  1.0669 -0.2849
 3245SOL     OW21193   2.943   2.542   6.324 -0.4657  0.2243  0.4432
 3245SOL    HW121194   3.019   2.598   6.308 -0.9066  0.1301 -1.9056
 3245SOL    HW221195   2.980   2.485   6.392  0.5307 -0.7669 -0.9449
 3246SOL     OW21196   2.212   1.919   4.136  0.2456 -1.1125  0.0397
 3246SOL    HW121197   2.253   1.875   4.061 -0.0599  0.9828 -1.3378
 3246SOL    HW221198   2.143   1.965   4.088  2.1050  0.2763 -1.3080
 3247SOL     OW21199   0.797   3.157   1.458  0.2185  0.4679  0.2076
 3247SOL    HW121200   0.760   3.209   1.530  0.1936  0.5609  0.1275
 3247SOL    HW221201   0.724   3.131   1.402  0.0259  1.6435 -0.1001
 3248SOL     OW21202   3.647   3.001  17.050 -0.3389  0.2465  0.0158
 3248SOL    HW121203   3.725   2.959  17.015  0.2671  2.9853 -1.9205
 3248SOL    HW221204   3.592   2.999  16.971  0.6236  2.0305 -0.7074
 3249SOL     OW21205   2.482   0.627   5.865 -0.8159  0.3694 -0.3743
 3249SOL    HW121206   2.533   0.673   5.932  0.5095 -0.2165 -0.9958
 3249SOL    HW221207   2.543   0.602   5.796  1.2479  0.5963  1.3975
 3250SOL     OW21208   2.735   3.084   0.194 -0.1649  0.0610 -0.3999
 3250SOL    HW121209   2.757   3.177   0.207  0.5641  0.0685 -1.7227
 3250SOL    HW221210   2.803   3.037   0.243 -1.1451  0.1193  1.0061
 3251SOL     OW21211   1.725   0.538   3.673  0.0279 -0.7567  0.1515
 3251SOL    HW121212   1.670   0.537   3.595  0.7711  0.2725 -0.3780
 3251SOL    HW221213   1.679   0.613   3.711  2.0055  0.1407  0.7829
 3252SOL     OW21214   1.455   4.232   1.994 -0.3301  0.4926 -0.1859
 3252SOL    HW121215   1.450   4.226   1.899 -1.4401  2.3134 -0.2417
 3252SOL    HW221216   1.450   4.327   2.004  2.0106  0.7056 -1.1420
 3253SOL     OW21217   2.688   3.427   1.210  0.6152  0.3907  0.2024
 3253SOL    HW121218   2.680   3.396   1.300  0.1075 -0.1443 -0.0297
 3253SOL    HW221219   2.635   3.365   1.160  0.7268 -0.2187  0.8352
 3254SOL     OW21220   1.457   4.445  15.180 -0.4638  0.1571  0.5088
 3254SOL    HW121221   1.429   4.512  15.117  1.0412  0.6541  0.3543
 3254SOL    HW221222   1.370   4.409  15.195  0.6937 -2.2349  1.4402
 3255SOL     OW21223   1.037   1.974   2.592  0.0335 -0.4374 -0.3051
 3255SOL    HW121224   1.082   1.936   2.517  1.2524 -0.9917  0.7064
 3255SOL    HW221225   0.960   1.918   2.600  0.2205 -0.8810 -1.6962
 3256SOL     OW21226   2.858   3.878   3.009  0.2843 -0.2384 -0.2039
 3256SOL    HW121227   2.848   3.793   2.967  0.9792 -0.7274  0.6287
 3256SOL    HW221228   2.782   3.912   2.960 -0.5543 -2.0484 -0.1442
 3257SOL     OW21229   2.079   2.438   2.910 -0.4012 -0.1367 -0.3458
 3257SOL    HW121230   2.135   2.366   2.939 -0.1374  1.2681  2.6009
 3257SOL    HW221231   2.011   2.430   2.977  0.7463  0.0551  0.8314
 3258SOL     OW21232   4.416   2.764   2.566  0.2837  0.4652 -0.2422
 3258SOL    HW121233   4.339   2.789   2.617 -0.1255 -2.2500  0.4722
 3258SOL    HW221234   4.370   2.717   2.497  0.1284  0.6528 -0.2653
 3259SOL     OW21235   2.258   1.720  13.461  0.2709 -0.1816  0.3095
 3259SOL    HW121236   2.186   1.705  13.523  0.9712 -1.6092  0.7722
 3259SOL    HW221237   2.305   1.637  13.452  0.8960  0.4090 -1.8150
 3260SOL     OW21238   4.152   1.944   7.622 -0.1724 -0.5645  0.3350
 3260SOL    HW121239   4.086   2.006   7.655  0.2772 -0.5346  1.1824
 3260SOL    HW221240   4.200   1.907   7.696 -0.7660  0.4760  1.2412
 3261SOL     OW21241   1.754   3.309   3.326  0.1630 -0.6273  0.5543
 3261SOL    HW121242   1.752   3.402   3.347 -0.5283 -0.3102 -0.9279
 3261SOL    HW221243   1.733   3.297   3.233 -0.8385  0.1341  0.6853
 3262SOL     OW21244   2.389   2.899   8.455  0.0145  0.3698  0.1646
 3262SOL    HW121245   2.303   2.932   8.429 -0.6868 -0.4010  1.4941
 3262SOL    HW221246   2.421   2.968   8.515 -0.8523  1.4154 -0.5753
 3263SOL     OW21247   0.760   2.588  14.113  0.4316 -0.3747  0.5168
 3263SOL    HW121248   0.712   2.571  14.032 -0.4166  0.8990  0.7589
 3263SOL    HW221249   0.810   2.505  14.114  0.4932 -0.3544 -0.6483
 3264SOL     OW21250   1.208   1.082   6.686 -0.2852  0.0581  0.0425
 3264SOL    HW121251   1.210   1.177   6.691  0.4245  0.0016  0.9336
 3264SOL    HW221252   1.263   1.077   6.607 -0.0960  0.7472  0.1354
 3265SOL     OW21253   1.213   0.183  15.337 -0.1915  0.5532  0.0213
 3265SOL    HW121254   1.293   0.212  15.295  0.7072 -0.1577  1.2093
 3265SOL    HW221255   1.247   0.119  15.400  0.1657  0.0170 -0.7225
 3266SOL     OW21256   3.970   0.500   4.914 -0.1319 -0.4767  0.5958
 3266SOL    HW121257   3.973   0.404   4.921 -2.4577 -0.6482 -0.5748
 3266SOL    HW221258   4.047   0.520   4.966 -1.0235  1.0704  1.3109
 3267SOL     OW21259   3.837   1.550  13.022 -0.5563  0.2862  0.1470
 3267SOL    HW121260   3.807   1.523  13.109 -0.6448 -0.4937 -0.1224
 3267SOL    HW221261   3.930   1.562  13.040 -1.0413  1.8054  1.6208
 3268SOL     OW21262   2.761   3.344   5.662 -0.0601 -0.1969 -0.6136
 3268SOL    HW121263   2.799   3.260   5.684  0.3076  0.6328  1.9027
 3268SOL    HW221264   2.812   3.398   5.723  1.4316 -0.2125 -1.8486
 3269SOL     OW21265   1.108   0.715   4.977  0.0742  0.3663 -0.7038
 3269SOL    HW121266   1.035   0.732   5.036  0.1563 -0.2946 -0.4130
 3269SOL    HW221267   1.067   0.650   4.919  0.1565 -0.5194  0.2254
 3270SOL     OW21268   0.580   3.255   0.372  0.1344 -0.3450 -0.3637
 3270SOL    HW121269   0.578   3.223   0.462 -3.4781 -1.2759 -0.7712
 3270SOL    HW221270   0.597   3.348   0.382  0.6820 -0.5695  0.7312
 3271SOL     OW21271   3.091   0.263  10.958 -1.0274  0.4218 -0.3453
 3271SOL    HW121272   3.151   0.270  10.884  0.4185  1.6604  0.9602
 3271SOL    HW221273   3.004   0.237  10.928 -1.5892  1.3578  0.4800
 3272SOL     OW21274   3.881   2.723  12.251 -0.0589 -0.2752  0.1936
 3272SOL    HW121275   3.884   2.705  12.345  0.0685 -0.9790  0.0501
 3272SOL    HW221276   3.933   2.804  12.248 -0.3969 -0.0684 -0.1267
 3273SOL     OW21277   3.379   1.703  15.100 -0.2077 -0.1815  0.2562
 3273SOL    HW121278   3.288   1.680  15.082 -0.6014  0.8522  0.9039
 3273SOL    HW221279   3.441   1.661  15.041 -1.6613 -0.7595 -0.8645
 3274SOL     OW21280   1.799   3.585   1.145  0.1931 -0.7519  0.2326
 3274SOL    HW121281   1.814   3.556   1.055 -0.7372 -1.6723  0.3755
 3274SOL    HW221282   1.769   3.676   1.136 -0.7945 -0.7996  3.1027
 3275SOL     OW21283   0.773   4.216   5.040 -0.6546  0.0335 -0.2499
 3275SOL    HW121284   0.682   4.235   5.016 -0.6878 -0.6897 -0.6954
 3275SOL    HW221285   0.795   4.309   5.045 -3.5012  0.7877 -1.7336
 3276SOL     OW21286   2.792   3.418   4.007  0.1232 -0.1856  0.3818
 3276SOL    HW121287   2.782   3.501   3.960  1.4048 -1.4293 -2.0458
 3276SOL    HW221288   2.724   3.361   3.971  0.0602  0.7162 -0.9170
 3277SOL     OW21289   0.330   3.547  10.434  0.0192  0.1574  0.2496
 3277SOL    HW121290   0.364   3.523  10.348  1.8118 -0.3742  1.0879
 3277SOL    HW221291   0.244   3.506  10.430 -0.4432  1.1448  0.0003
 3278SOL     OW21292   0.013   3.426   2.424 -0.5074  0.1218  0.0154
 3278SOL    HW121293   4.676   3.488   2.386  0.9388  1.4195 -0.2554
 3278SOL    HW221294   4.717   3.433   2.517 -1.1987  0.0923 -0.1440
 3279SOL     OW21295   0.561   3.797  12.750  0.1573  0.1768 -0.0563
 3279SOL    HW121296   0.571   3.734  12.679  2.1539  1.2095 -0.6927
 3279SOL    HW221297   0.649   3.836  12.755  0.7808 -1.1136 -0.9815
 3280SOL     OW21298   4.377   4.174   5.661 -0.3700  0.0658 -0.3084
 3280SOL    HW121299   4.449   4.114   5.647 -1.7103 -1.2836 -1.4503
 3280SOL    HW221300   4.358   4.157   5.754 -3.2371 -1.0404 -1.0934
 3281SOL     OW21301   3.848   1.974  16.616  0.1765  0.4638 -0.5388
 3281SOL    HW121302   3.793   2.034  16.566 -0.0092 -1.1101 -2.2120
 3281SOL    HW221303   3.848   1.899  16.556  1.1011  0.1403 -0.1414
 3282SOL     OW21304   1.256   3.427   5.890 -0.0074  0.1705  0.4336
 3282SOL    HW121305   1.335   3.445   5.941  0.3159  0.2915 -0.1066
 3282SOL    HW221306   1.208   3.509   5.907  1.8173  2.0730 -3.6719
 3283SOL     OW21307   3.522   0.650   9.970  0.1082 -0.4257 -0.3004
 3283SOL    HW121308   3.560   0.613   9.890 -0.2153 -1.2663 -0.0585
 3283SOL    HW221309   3.606   0.666  10.014 -1.5411 -0.1328  2.7417
 3284SOL     OW21310   0.232   4.583   5.020  0.1130  0.0321 -0.1627
 3284SOL    HW121311   0.143   4.604   5.049  0.3598  0.1049  0.5242
 3284SOL    HW221312   0.274   4.557   5.101 -0.9888 -0.3816  0.2743
 3285SOL     OW21313   4.716   1.955   7.546 -0.1033  0.4344 -0.5374
 3285SOL    HW121314   0.022   1.867   7.526  1.8782  1.2608 -1.0341
 3285SOL    HW221315   0.073   2.004   7.544 -0.0756  0.4400  0.7151
 3286SOL     OW21316   0.635   4.292  17.345  0.0972  0.3145 -0.4878
 3286SOL    HW121317   0.686   4.238  17.284  1.3966  0.5442  0.4043
 3286SOL    HW221318   0.580   4.349  17.292  1.8051  1.1764 -1.3410
 3287SOL     OW21319   4.602   2.913   1.485  0.5126 -0.1719  0.2925
 3287SOL    HW121320   4.534   2.980   1.496  2.7030  1.9540  0.7941
 3287SOL    HW221321   4.683   2.961   1.471  0.6705 -0.4675  0.1963
 3288SOL     OW21322   2.616   0.267   7.553 -0.3380 -0.2973  0.0079
 3288SOL    HW121323   2.564   0.337   7.513  1.1823 -0.1986 -1.8296
 3288SOL    HW221324   2.664   0.331   7.606 -2.2216  0.1138  1.2070
 3289SOL     OW21325   4.360   3.260  14.815 -0.4617  0.2447  0.1094
 3289SOL    HW121326   4.396   3.174  14.791  2.4862  1.4147  0.4750
 3289SOL    HW221327   4.352   3.295  14.726  1.2073  0.8330  0.2118
 3290SOL     OW21328   1.939   3.031   5.347 -0.0051  0.0038  0.7176
 3290SOL    HW121329   1.949   2.983   5.265  1.5086  2.2644 -0.4353
 3290SOL    HW221330   1.848   3.061   5.342 -0.0568  0.0531  2.0100
 3291SOL     OW21331   0.624   2.654   7.252  0.4371  0.3615 -0.0957
 3291SOL    HW121332   0.664   2.719   7.194  3.1204 -1.5282 -0.4130
 3291SOL    HW221333   0.677   2.667   7.330  0.2010 -1.5792  0.3936
 3292SOL     OW21334   0.042   2.190  14.833 -0.2214 -0.1097  0.1665
 3292SOL    HW121335   4.675   2.177  14.812 -0.1872  1.3474 -0.8980
 3292SOL    HW221336   0.085   2.181  14.748  1.2060  0.0206  0.8726
 3293SOL     OW21337   1.093   4.591   1.637 -0.1966 -0.5019  0.3126
 3293SOL    HW121338   1.126   4.635   1.559 -1.6062  0.6746  0.3771
 3293SOL    HW221339   1.112   4.502   1.608 -1.5674 -0.8456  0.4862
 3294SOL     OW21340   1.816   0.227   1.831 -0.0654 -0.1636 -0.4727
 3294SOL    HW121341   1.840   0.298   1.889 -2.3817 -2.1078  2.8399
 3294SOL    HW221342   1.885   0.224   1.764  1.3479  1.5425  0.9241
 3295SOL     OW21343   1.300   1.972   8.330 -0.2124  0.1613 -0.3387
 3295SOL    HW121344   1.365   1.905   8.350 -1.6253 -1.8560 -2.4732
 3295SOL    HW221345   1.217   1.924   8.337  0.7220 -1.1964  1.7259
 3296SOL     OW21346   3.275   4.384   6.496 -0.8059  0.1365  0.2062
 3296SOL    HW121347   3.349   4.365   6.439 -1.2386 -2.5216  0.5562
 3296SOL    HW221348   3.200   4.380   6.437 -0.7349  0.7554  0.0733
 3297SOL     OW21349   4.491   1.403  14.364 -0.1511  0.4535 -0.2487
 3297SOL    HW121350   4.492   1.332  14.427  0.8644  1.3780  0.7755
 3297SOL    HW221351   4.424   1.462  14.399 -1.6362 -2.7327  2.1875
 3298SOL     OW21352   4.086   2.967   5.682  0.1941 -0.5744  0.2676
 3298SOL    HW121353   4.039   2.952   5.600  0.7982  0.5005 -0.2737
 3298SOL    HW221354   4.169   3.008   5.656  0.8187 -2.9502 -1.5656
 3299SOL     OW21355   3.377   1.736   3.423  0.0367  0.4858 -0.4929
 3299SOL    HW121356   3.441   1.725   3.352 -0.6347 -1.9460 -0.7352
 3299SOL    HW221357   3.334   1.819   3.402  1.3487  1.4171  0.5821
 3300SOL     OW21358   4.144   0.589   8.973  0.0676  0.2846 -0.8110
 3300SOL    HW121359   4.098   0.532   9.035 -0.5851  1.4039 -0.2779
 3300SOL    HW221360   4.205   0.522   8.942  1.5100  1.4259 -0.4207
 3301SOL     OW21361   2.367   1.105   2.516 -0.1284 -0.1822 -0.9943
 3301SOL    HW121362   2.276   1.085   2.494 -1.2539  1.0098  2.5992
 3301SOL    HW221363   2.346   1.135   2.605  0.8392 -1.0378 -0.4794
 3302SOL     OW21364   4.611   4.371  14.665  0.0397  0.3329 -0.1189
 3302SOL    HW121365   4.659   4.356  14.584  0.6794  0.5200  0.2221
 3302SOL    HW221366   4.667   4.445  14.691  0.2177 -0.5147  1.8779
 3303SOL     OW21367   1.771   2.551   7.963 -0.4110  0.5096  0.1815
 3303SOL    HW121368   1.704   2.505   8.014 -2.1488  3.3126  0.4393
 3303SOL    HW221369   1.729   2.626   7.920  1.5247  0.7183 -1.3629
 3304SOL     OW21370   4.032   0.330   2.405  0.0910 -0.2867 -0.3793
 3304SOL    HW121371   3.980   0.258   2.369 -0.8013 -0.3954  1.0823
 3304SOL    HW221372   3.975   0.406   2.390  0.7263  0.7007  2.0742
 3305SOL     OW21373   2.581   1.845   0.053 -0.1963  0.1420 -0.0090
 3305SOL    HW121374   2.553   1.877   0.139  1.0451 -1.1813  0.9102
 3305SOL    HW221375   2.528   1.899  17.697  0.6570  2.7107  1.5848
 3306SOL     OW21376   0.988   1.824   8.834  0.4944  0.2423 -0.6129
 3306SOL    HW121377   0.921   1.784   8.891  0.2687  0.4671 -0.7230
 3306SOL    HW221378   1.057   1.758   8.845 -2.6184 -2.9574 -0.1697
 3307SOL     OW21379   3.498   4.131   9.390  0.2375  0.5216  0.4633
 3307SOL    HW121380   3.582   4.176   9.383 -0.9404  3.0531  2.6671
 3307SOL    HW221381   3.514   4.077   9.467 -0.4447 -1.0371 -0.5095
 3308SOL     OW21382   0.675   0.482   7.300 -0.2596  0.0570 -0.7478
 3308SOL    HW121383   0.736   0.556   7.302 -0.9731  0.6420 -0.5306
 3308SOL    HW221384   0.736   0.419   7.262 -2.0193 -1.6579 -0.7257
 3309SOL     OW21385   1.243   2.594   3.585 -0.5428  0.3292  0.1050
 3309SOL    HW121386   1.202   2.514   3.552  1.1424 -1.2479  1.8620
 3309SOL    HW221387   1.203   2.663   3.532 -0.6054  0.5051  0.3829
 3310SOL     OW21388   0.943   3.265   7.024  0.1255 -0.2433 -0.1462
 3310SOL    HW121389   0.895   3.215   7.090 -0.2099  0.4077  0.1043
 3310SOL    HW221390   1.029   3.222   7.023 -0.6204 -1.7139 -1.4465
 3311SOL     OW21391   4.502   2.274   3.556  0.6711  0.1409 -0.6282
 3311SOL    HW121392   4.407   2.273   3.543  0.1304  1.1473  3.1899
 3311SOL    HW221393   4.531   2.291   3.466  1.5216 -1.1275 -0.5896
 3312SOL     OW21394   1.835   3.644   5.367 -0.5900 -0.5640 -0.0263
 3312SOL    HW121395   1.816   3.550   5.359 -2.0150 -0.4349  1.6920
 3312SOL    HW221396   1.750   3.672   5.401  0.4102  1.6953  0.6061
 3313SOL     OW21397   0.150   2.706   7.017  0.1659  0.1155  0.4348
 3313SOL    HW121398   0.100   2.786   7.031  1.2716  0.8939  0.0163
 3313SOL    HW221399   0.104   2.686   6.936 -0.0080 -1.6208  0.9766
 3314SOL     OW21400   1.569   2.920   7.775 -0.1132  0.2655  0.4558
 3314SOL    HW121401   1.602   2.835   7.746 -1.5156  0.2039 -0.9975
 3314SOL    HW221402   1.589   2.916   7.868 -2.0370  1.6782  0.9406
 3315SOL     OW21403   0.994   2.924  10.167 -0.1205 -0.1651 -0.2491
 3315SOL    HW121404   0.963   2.891  10.251  1.8968  1.9718  1.3459
 3315SOL    HW221405   1.080   2.955  10.198 -0.2734  0.0976 -0.0880
 3316SOL     OW21406   1.984   1.107   7.806  0.1255 -0.0848  0.2275
 3316SOL    HW121407   1.971   1.137   7.895  2.0943  1.3219  0.0464
 3316SOL    HW221408   1.898   1.130   7.772 -0.6895 -2.8148  0.4866
 3317SOL     OW21409   0.509   4.012  11.066 -0.4405 -0.4565  0.6037
 3317SOL    HW121410   0.434   4.064  11.037  0.6813  0.9251  0.1439
 3317SOL    HW221411   0.558   4.089  11.096  2.4366 -1.9091 -0.4237
 3318SOL     OW21412   2.402   1.597   4.329  0.5076 -0.3487  0.2271
 3318SOL    HW121413   2.343   1.536   4.284  1.5171 -2.0582  1.2104
 3318SOL    HW221414   2.342   1.649   4.383 -0.1659 -1.7744  0.8670
 3319SOL     OW21415   1.439   1.006   6.085  0.0158  0.3827 -0.2754
 3319SOL    HW121416   1.510   0.942   6.098  1.3819  2.0689  0.5941
 3319SOL    HW221417   1.366   0.959   6.126  0.1226  1.0559  0.6949
 3320SOL     OW21418   0.674   0.284   1.036  0.0898  0.1636 -0.4062
 3320SOL    HW121419   0.601   0.240   1.079 -2.7862  4.3680 -1.0547
 3320SOL    HW221420   0.748   0.224   1.047  0.4806  0.9744  1.5596
 3321SOL     OW21421   0.017   1.245   3.466 -0.0545 -0.4718  0.1208
 3321SOL    HW121422   0.001   1.155   3.438 -0.4684 -0.7166  1.1324
 3321SOL    HW221423   0.002   1.230   3.560 -1.5466 -0.3177 -0.0936
 3322SOL     OW21424   4.595   0.871   1.850 -0.6531 -0.3297 -0.5443
 3322SOL    HW121425   4.661   0.919   1.900  0.4419 -1.6283 -0.7169
 3322SOL    HW221426   4.585   0.924   1.771 -0.4058  1.0598  0.3675
 3323SOL     OW21427   2.448   3.293   0.773  0.0953 -0.1294 -0.0021
 3323SOL    HW121428   2.390   3.226   0.808  0.3730 -0.6620 -0.5793
 3323SOL    HW221429   2.481   3.251   0.694 -1.2831 -1.6343  0.2095
 3324SOL     OW21430   4.076   1.542  16.003 -0.8401  0.1797 -0.3419
 3324SOL    HW121431   4.015   1.482  15.961 -1.0988 -0.1583  0.5254
 3324SOL    HW221432   4.153   1.516  15.952 -1.3781  0.0075 -1.0624
 3325SOL     OW21433   0.765   4.123   3.669 -0.2511 -0.2572 -0.1481
 3325SOL    HW121434   0.694   4.179   3.639  0.2397  0.0894 -0.6775
 3325SOL    HW221435   0.832   4.188   3.691  1.3519 -2.4349  1.3712
 3326SOL     OW21436   1.103   3.884   4.996  0.1467  0.0161 -0.0325
 3326SOL    HW121437   1.187   3.887   5.041 -0.3092 -1.6561  0.9228
 3326SOL    HW221438   1.106   3.797   4.957  1.1211  0.2785 -0.5697
 3327SOL     OW21439   2.280   2.699   2.377 -0.0600 -0.0777 -0.6147
 3327SOL    HW121440   2.295   2.665   2.289  3.8767  1.0967 -0.3950
 3327SOL    HW221441   2.198   2.658   2.407  1.4391 -1.2347  1.8768
 3328SOL     OW21442   2.281   4.459   8.555  0.0915 -0.1520  0.0128
 3328SOL    HW121443   2.304   4.535   8.609  1.5577  1.3976 -2.7836
 3328SOL    HW221444   2.231   4.486   8.478  1.3960 -0.2268 -0.8415
 3329SOL     OW21445   0.643   4.322   0.562  0.1764  0.2166  0.6268
 3329SOL    HW121446   0.619   4.259   0.630  2.3057 -0.2068  0.9865
 3329SOL    HW221447   0.592   4.401   0.575  1.2032  1.1723 -1.1450
 3330SOL     OW21448   1.847   1.158   5.721  0.2108  0.3863 -0.1370
 3330SOL    HW121449   1.850   1.240   5.771  0.3677  0.2352  0.0988
 3330SOL    HW221450   1.921   1.111   5.759  0.0236 -1.1120 -1.6412
 3331SOL     OW21451   1.038   2.118   5.016 -0.2884  0.3946 -0.0030
 3331SOL    HW121452   1.100   2.092   5.084 -0.0016 -0.4647 -0.5800
 3331SOL    HW221453   1.011   2.029   4.990 -0.3970  0.4683 -0.1442
 3332SOL     OW21454   0.752   4.552  11.326  0.3414  0.6298  0.8165
 3332SOL    HW121455   0.748   4.486  11.395  1.7521 -1.1602 -0.8034
 3332SOL    HW221456   0.760   4.503  11.244 -0.3637  1.7441  0.0792
 3333SOL     OW21457   2.659   3.511   4.785 -0.2237 -0.0131  0.4308
 3333SOL    HW121458   2.712   3.476   4.856 -3.2452 -1.6975  1.8372
 3333SOL    HW221459   2.711   3.580   4.743  2.6341 -2.0715  0.5814
 3334SOL     OW21460   2.355   3.261   9.756  0.1702  0.1846 -0.0447
 3334SOL    HW121461   2.293   3.229   9.691  1.0671 -2.5932  0.4367
 3334SOL    HW221462   2.385   3.177   9.790 -0.5488  0.0608  0.2790
 3335SOL     OW21463   4.248   4.211   7.948  0.0486  0.2427  0.2205
 3335SOL    HW121464   4.335   4.178   7.970  1.0758  1.8393 -1.4180
 3335SOL    HW221465   4.195   4.173   8.018  2.2019 -0.2163  1.5958
 3336SOL     OW21466   4.262   1.676  15.136 -0.7635 -0.7704  0.0124
 3336SOL    HW121467   4.235   1.679  15.228  1.9264  0.2300  0.7712
 3336SOL    HW221468   4.251   1.584  15.110  1.4738 -0.5604 -1.7515
 3337SOL     OW21469   4.279   1.967   0.429  0.2668 -0.5043  0.5837
 3337SOL    HW121470   4.320   2.017   0.359  0.8257 -1.5078  0.1960
 3337SOL    HW221471   4.355   1.919   0.461  1.1426  1.8338  2.0205
 3338SOL     OW21472   1.903   4.439   7.338 -0.2100  0.1977  0.0474
 3338SOL    HW121473   1.981   4.405   7.294  0.7705 -0.0814  2.0016
 3338SOL    HW221474   1.874   4.373   7.402 -0.6696  0.1338 -0.2274
 3339SOL     OW21475   0.711   0.445   4.571  0.9177  0.3409 -0.5826
 3339SOL    HW121476   0.621   0.454   4.600  0.4156 -1.7940 -1.4708
 3339SOL    HW221477   0.763   0.500   4.630 -0.1034 -0.1185  0.7321
 3340SOL     OW21478   0.225   4.548   8.605 -0.5678  0.5671  0.8243
 3340SOL    HW121479   0.284   4.477   8.579  0.3567  2.0273 -1.0797
 3340SOL    HW221480   0.183   4.557   8.519 -0.3187 -0.0994  0.6327
 3341SOL     OW21481   2.749   2.338  12.540 -0.9820  0.0210 -0.0656
 3341SOL    HW121482   2.786   2.268  12.594 -0.4533 -0.1798 -0.6842
 3341SOL    HW221483   2.799   2.319  12.460  0.6264 -1.0516  1.2021
 3342SOL     OW21484   0.337   3.959   7.043  1.2860 -0.1148 -0.1394
 3342SOL    HW121485   0.427   3.927   7.039  0.7270 -1.3340 -3.2012
 3342SOL    HW221486   0.295   3.905   7.109 -0.1881 -0.5563 -1.4477
 3343SOL     OW21487   1.859   3.427   6.130 -0.1690 -0.6063  0.2925
 3343SOL    HW121488   1.839   3.510   6.173  1.8028 -0.3100  0.6554
 3343SOL    HW221489   1.850   3.444   6.036 -0.4818 -0.0116  0.4273
 3344SOL     OW21490   3.466   0.220   1.336  0.2900  0.2891 -0.3018
 3344SOL    HW121491   3.503   0.219   1.247 -2.3319 -0.4779 -1.3798
 3344SOL    HW221492   3.541   0.201   1.392 -0.4597 -0.4832  0.4273
 3345SOL     OW21493   1.667   2.032   7.432  0.8510  0.1088 -0.6220
 3345SOL    HW121494   1.700   2.008   7.519 -0.4602 -0.7172 -0.3510
 3345SOL    HW221495   1.593   2.088   7.454  0.3974 -0.5669 -0.4125
 3346SOL     OW21496   0.957   2.952   5.389  0.3380 -0.4156 -0.5508
 3346SOL    HW121497   0.973   3.038   5.350 -1.7145  0.3878  0.3739
 3346SOL    HW221498   1.016   2.960   5.464 -2.0519 -1.7523  1.4583
 3347SOL     OW21499   3.012   0.239   8.335 -0.2323 -0.0828  0.2638
 3347SOL    HW121500   3.068   0.164   8.352 -0.9146 -0.5046  0.6491
 3347SOL    HW221501   2.931   0.211   8.293 -0.2746 -0.3511  0.5294
 3348SOL     OW21502   1.788   0.126   2.175  0.0459  0.2869  0.0683
 3348SOL    HW121503   1.777   0.085   2.089 -0.4008 -1.7181  1.0809
 3348SOL    HW221504   1.838   0.066   2.230  1.1825  2.7748  1.7682
 3349SOL     OW21505   1.279   3.456   9.529 -0.0284  0.4662  0.5899
 3349SOL    HW121506   1.337   3.527   9.502 -0.6494 -0.6464 -3.6476
 3349SOL    HW221507   1.344   3.391   9.558 -0.5473 -0.7378 -0.9610
 3350SOL     OW21508   4.301   0.618  15.320  0.0405 -0.2710  0.9697
 3350SOL    HW121509   4.392   0.647  15.316 -0.4681  1.1707 -0.1356
 3350SOL    HW221510   4.328   0.526  15.316 -1.3126 -0.4870 -3.0626
 3351SOL     OW21511   2.426   3.628   6.823  0.2631  0.7436 -0.4264
 3351SOL    HW121512   2.366   3.585   6.761  1.2534 -0.0101 -0.8619
 3351SOL    HW221513   2.365   3.698   6.846  1.0547  1.5101 -0.6775
 3352SOL     OW21514   2.118   0.712   2.842 -0.0845 -0.0804 -0.0875
 3352SOL    HW121515   2.154   0.800   2.853  1.2325 -0.7413  0.8188
 3352SOL    HW221516   2.062   0.738   2.768 -1.0647 -3.1191 -0.4234
 3353SOL     OW21517   2.121   1.425   5.926 -0.0273 -0.3031 -0.3490
 3353SOL    HW121518   2.145   1.370   5.852 -0.5945  0.1850 -0.8867
 3353SOL    HW221519   2.200   1.478   5.940 -1.3777  1.7561 -0.6164
 3354SOL     OW21520   1.170   3.230   8.051  0.1617  0.8950  0.0373
 3354SOL    HW121521   1.210   3.144   8.059  0.0966  0.8709  0.0943
 3354SOL    HW221522   1.181   3.242   7.957  0.4594  0.2085 -0.0137
 3355SOL     OW21523   0.018   1.170   0.509  0.1767  0.3361 -0.0617
 3355SOL    HW121524   4.703   1.117   0.440  0.5753 -0.4527  0.3113
 3355SOL    HW221525   0.037   1.257   0.474  0.0208 -0.0677 -1.1397
 3356SOL     OW21526   4.477   2.035   7.415 -0.4438 -0.3981 -0.3179
 3356SOL    HW121527   4.560   1.990   7.430 -0.3495 -0.8076 -1.9928
 3356SOL    HW221528   4.498   2.128   7.429  0.8556 -0.9530  1.3970
 3357SOL     OW21529   0.344   2.991   7.163 -0.5079  0.0432 -0.4371
 3357SOL    HW121530   0.299   3.075   7.170  0.0440  0.1316  1.8552
 3357SOL    HW221531   0.376   2.997   7.073  1.7713 -1.8351  0.2522
 3358SOL     OW21532   1.758   1.058   1.825 -0.0312  0.4499 -0.2233
 3358SOL    HW121533   1.797   0.999   1.889 -1.7215 -0.0169  0.3745
 3358SOL    HW221534   1.704   1.002   1.768 -2.1253  2.4071 -0.1453
 3359SOL     OW21535   2.065   4.542   1.214  0.2334  0.1306  0.3075
 3359SOL    HW121536   2.118   4.569   1.139 -0.2454  1.9064  0.6186
 3359SOL    HW221537   1.976   4.575   1.203  0.1573 -0.0499  0.3854
 3360SOL     OW21538   0.947   1.966   6.714  0.0842 -0.9846 -0.5907
 3360SOL    HW121539   0.977   1.895   6.657 -1.6704 -1.5514 -0.8155
 3360SOL    HW221540   0.868   1.924   6.749 -0.1901 -0.6204 -0.7724
 3361SOL     OW21541   1.551   1.596   5.619 -0.7591 -0.2773  0.3262
 3361SOL    HW121542   1.518   1.660   5.556  2.0276  1.3587  0.5121
 3361SOL    HW221543   1.634   1.638   5.644 -1.1939 -0.1244  1.4995
 3362SOL     OW21544   2.038   2.331  10.832 -0.7964 -0.1087  0.1510
 3362SOL    HW121545   1.948   2.357  10.814 -0.7304  0.3371  0.4673
 3362SOL    HW221546   2.059   2.396  10.899 -1.7454  0.0056  0.3329
 3363SOL     OW21547   0.906   2.767  12.088  0.4395  0.1566  0.7892
 3363SOL    HW121548   0.896   2.834  12.020 -0.1348 -0.7310 -0.0120
 3363SOL    HW221549   0.981   2.721  12.052  0.1589  1.1103 -0.9973
 3364SOL     OW21550   4.636   4.267  16.987  0.7793  0.0615 -0.2085
 3364SOL    HW121551   4.559   4.280  17.042  1.5953  3.0086  0.1965
 3364SOL    HW221552   4.653   4.172  16.988  2.2239  0.3536  2.5774
 3365SOL     OW21553   4.422   2.619   5.837  0.0488 -0.3261  0.1103
 3365SOL    HW121554   4.327   2.620   5.835 -0.0102  1.5367  3.8726
 3365SOL    HW221555   4.437   2.552   5.903 -0.2352  0.0623  0.5759
 3366SOL     OW21556   4.606   2.060   7.803  0.1768  0.2323 -0.4339
 3366SOL    HW121557   4.552   2.092   7.730 -1.1401 -0.6004  0.1721
 3366SOL    HW221558   4.661   1.996   7.756  0.2420  0.0454 -0.0994
 3367SOL     OW21559   4.572   0.333   6.519  0.5918  0.4348 -0.1542
 3367SOL    HW121560   4.535   0.255   6.478  1.9869 -0.9284  1.1451
 3367SOL    HW221561   4.494   0.356   6.568  1.2569  3.3477 -0.4600
 3368SOL     OW21562   1.594   1.608   7.402 -0.7484  0.0411 -0.0658
 3368SOL    HW121563   1.513   1.629   7.356  0.0227 -0.8795 -1.8744
 3368SOL    HW221564   1.580   1.636   7.492 -0.1537 -0.6811  0.2536
 3369SOL     OW21565   0.985   4.045   8.584 -0.2261 -0.1808  0.1271
 3369SOL    HW121566   0.929   4.094   8.644  3.2928  1.3302  2.1644
 3369SOL    HW221567   0.970   3.955   8.612  1.2510  0.3631  2.6049
 3370SOL     OW21568   3.217   0.026   3.227  0.2517 -0.2726 -0.2738
 3370SOL    HW121569   3.146   0.065   3.278  1.5939 -0.0114  1.3703
 3370SOL    HW221570   3.261   0.101   3.187 -0.0721  0.1514  0.1708
 3371SOL     OW21571   3.121   2.267   6.318 -0.2530 -0.0774 -0.0801
 3371SOL    HW121572   3.113   2.281   6.412  0.5787  1.6813 -0.2832
 3371SOL    HW221573   3.118   2.174   6.295  1.0237 -0.2443  0.4573
 3372SOL     OW21574   2.015   3.029   4.251  0.3458  0.0966 -0.1247
 3372SOL    HW121575   1.973   3.110   4.222  1.4894  0.5742 -0.4666
 3372SOL    HW221576   1.940   2.988   4.292  0.0928  1.1743  0.4915
 3373SOL     OW21577   4.070   2.298  14.823  0.4783  0.8525  0.3007
 3373SOL    HW121578   4.156   2.325  14.856 -0.4409  2.7672  1.1650
 3373SOL    HW221579   4.043   2.368  14.763  0.7050 -1.5270 -2.5611
 3374SOL     OW21580   4.301   4.380   8.704  0.5795 -0.4246 -0.3875
 3374SOL    HW121581   4.350   4.299   8.717 -0.3249 -0.9131 -0.0826
 3374SOL    HW221582   4.210   4.355   8.718  0.4938 -1.6783 -3.2338
 3375SOL     OW21583   1.154   3.637  14.598  0.3986 -0.3543 -0.1523
 3375SOL    HW121584   1.173   3.725  14.629  1.3751  0.1673 -2.1925
 3375SOL    HW221585   1.144   3.665  14.507 -2.5412 -1.2699 -0.1228
 3376SOL     OW21586   2.969   1.678  11.534 -0.5650  0.0911 -0.2970
 3376SOL    HW121587   3.057   1.665  11.499 -0.2037 -1.4938  1.2187
 3376SOL    HW221588   2.924   1.688  11.451 -0.7573  0.5458 -0.1407
 3377SOL     OW21589   1.845   3.591   2.351 -0.0545 -0.3480 -0.2017
 3377SOL    HW121590   1.826   3.683   2.369  2.1367 -0.1024  0.9130
 3377SOL    HW221591   1.815   3.562   2.437  1.0195  2.9473  1.2999
 3378SOL     OW21592   1.960   4.045  13.625 -0.1935  0.1301 -0.3891
 3378SOL    HW121593   1.919   4.024  13.708  3.2312 -0.6845  1.0604
 3378SOL    HW221594   1.973   4.140  13.621 -0.2050  0.1640  0.5595
 3379SOL     OW21595   0.483   2.393   7.256  0.0241  0.0029  0.5450
 3379SOL    HW121596   0.446   2.424   7.173 -0.5936 -0.3903  0.6734
 3379SOL    HW221597   0.526   2.475   7.277  0.9897 -0.4565  0.3774
 3380SOL     OW21598   1.616   2.751   4.447 -0.3869  0.6267  0.4030
 3380SOL    HW121599   1.531   2.739   4.404 -0.0792  1.7478 -0.5330
 3380SOL    HW221600   1.597   2.726   4.537 -0.0134 -0.0550  0.2935
 3381SOL     OW21601   0.543   2.653   8.676 -0.2511  0.4108  0.0931
 3381SOL    HW121602   0.603   2.698   8.617 -0.8820  1.5826  0.3374
 3381SOL    HW221603   0.483   2.723   8.702  0.8040  0.9452  1.1053
 3382SOL     OW21604   4.067   1.268  17.035  0.3227  0.1152 -0.4371
 3382SOL    HW121605   4.145   1.261  16.980 -0.1355 -0.6023 -0.9961
 3382SOL    HW221606   4.094   1.334  17.098 -1.2236  0.2215  0.1156
 3383SOL     OW21607   1.890   4.174   5.601 -0.2756  0.1243  0.0614
 3383SOL    HW121608   1.877   4.080   5.612  0.8794 -0.3063 -2.1503
 3383SOL    HW221609   1.970   4.178   5.548  0.1465 -5.0473  0.3180
 3384SOL     OW21610   4.082   0.418   0.015  0.0717  0.2436 -0.1961
 3384SOL    HW121611   4.149   0.389   0.077  1.1765  0.2447 -1.3581
 3384SOL    HW221612   4.048   0.495   0.059 -1.8295  0.0539 -1.3339
 3385SOL     OW21613   2.341   3.674   7.222 -0.1935  0.7022  0.4646
 3385SOL    HW121614   2.327   3.674   7.317  1.8490 -1.0878  0.7675
 3385SOL    HW221615   2.315   3.764   7.205 -1.6905 -0.0908 -1.4855
 3386SOL     OW21616   0.417   3.133   1.614  0.1877 -0.2950  0.4104
 3386SOL    HW121617   0.337   3.082   1.627  0.5230 -0.8108  0.4549
 3386SOL    HW221618   0.473   3.110   1.688  1.1437 -0.0601 -0.2373
 3387SOL     OW21619   0.381   4.649  14.750  0.4770 -0.4399 -0.0883
 3387SOL    HW121620   0.306   4.664  14.807  0.7124  2.3988 -0.5585
 3387SOL    HW221621   0.362   4.560  14.720 -0.4447 -0.8032  1.5940
 3388SOL     OW21622   4.487   3.150  17.328  0.1008  0.0391 -0.3754
 3388SOL    HW121623   4.486   3.127  17.235  1.0623  1.1722 -0.6574
 3388SOL    HW221624   4.560   3.098  17.360  1.2777  0.8575 -1.7788
 3389SOL     OW21625   0.170   1.215   7.319  0.7910  0.4347 -0.0665
 3389SOL    HW121626   0.182   1.153   7.247 -1.5693  0.4390 -0.4572
 3389SOL    HW221627   0.256   1.254   7.331  1.2383 -0.2858 -0.9437
 3390SOL     OW21628   1.641   2.895   5.355  0.6049 -0.1065 -0.1000
 3390SOL    HW121629   1.699   2.820   5.368 -0.0093 -1.0910 -2.9832
 3390SOL    HW221630   1.576   2.869   5.420  0.2358  2.1854  0.4392
 3391SOL     OW21631   0.766   2.688   7.024 -0.0746  0.6222 -0.2317
 3391SOL    HW121632   0.711   2.762   6.997 -0.8597 -0.5434 -1.8227
 3391SOL    HW221633   0.814   2.666   6.944 -1.3048  1.1655 -1.1159
 3392SOL     OW21634   3.325   4.077  10.353  0.5374  0.1086  0.0871
 3392SOL    HW121635   3.361   4.065  10.265 -0.4942 -0.7299 -0.2215
 3392SOL    HW221636   3.250   4.019  10.344  0.7932 -0.3998  1.2539
 3393SOL     OW21637   3.636   2.201   7.431 -0.0871 -0.5696 -0.8410
 3393SOL    HW121638   3.680   2.240   7.355 -0.4209 -0.4061 -0.9483
 3393SOL    HW221639   3.707   2.145   7.462  1.6072  2.0603 -0.0131
 3394SOL     OW21640   0.009   0.294   3.715  0.1003 -0.5337 -0.6760
 3394SOL    HW121641   4.705   0.336   3.634  0.8480 -0.2912 -0.8178
 3394SOL    HW221642   0.061   0.220   3.685  0.7013 -0.1601 -0.5498
 3395SOL     OW21643   2.206   2.889  10.512 -0.0670  0.5927  0.3674
 3395SOL    HW121644   2.260   2.959  10.549 -0.7713  1.1439  0.3532
 3395SOL    HW221645   2.272   2.850  10.455  2.0569  2.7654  1.3447
 3396SOL     OW21646   0.036   4.649   8.802 -0.0053  0.0312 -0.1322
 3396SOL    HW121647   0.088   4.601   8.738 -0.0699 -2.0040  1.3060
 3396SOL    HW221648   4.673   4.630   8.770  0.3818  1.7393 -2.1889
 3397SOL     OW21649   2.897   0.564   2.304  0.4894  0.0803  0.3648
 3397SOL    HW121650   2.850   0.532   2.381  0.4950 -0.9813 -0.0785
 3397SOL    HW221651   2.987   0.552   2.334  0.4574  0.4705  0.6270
 3398SOL     OW21652   3.632   2.499   1.635 -0.5408 -0.0055 -0.4800
 3398SOL    HW121653   3.672   2.456   1.560  0.8252  0.4035  0.0258
 3398SOL    HW221654   3.707   2.546   1.671 -0.5515  0.4072 -0.9997
 3399SOL     OW21655   0.290   1.297  15.932  0.1048  0.9544  0.0182
 3399SOL    HW121656   0.209   1.335  15.966 -1.2269 -0.9978 -0.9199
 3399SOL    HW221657   0.267   1.309  15.840  0.2185 -1.1870 -0.2902
 3400SOL     OW21658   4.134   3.324   3.694  0.3960  0.0516 -0.1435
 3400SOL    HW121659   4.167   3.411   3.672 -2.0641  1.3149  1.2192
 3400SOL    HW221660   4.109   3.284   3.611  1.5384 -1.7334  0.3561
 3401SOL     OW21661   3.984   2.923  17.178  0.5063 -0.2540 -0.4931
 3401SOL    HW121662   4.063   2.977  17.177 -0.4617  1.1816  0.7117
 3401SOL    HW221663   3.937   2.964  17.251 -1.6491 -3.0728 -0.2899
 3402SOL     OW21664   2.976   4.454  13.511  0.0033 -0.2309 -0.2900
 3402SOL    HW121665   2.955   4.473  13.602  0.8604 -1.1157  0.0876
 3402SOL    HW221666   3.024   4.372  13.525  0.0792 -0.2583 -0.6869
 3403SOL     OW21667   0.467   2.793  10.335  0.6940 -0.2485 -0.4907
 3403SOL    HW121668   0.396   2.784  10.398  0.0826  1.5534 -0.9309
 3403SOL    HW221669   0.416   2.803  10.255 -2.2238 -0.8732  1.2984
 3404SOL     OW21670   2.821   0.627   4.483  0.4526 -0.6603 -0.3599
 3404SOL    HW121671   2.809   0.716   4.451 -0.3451  0.0776  2.0442
 3404SOL    HW221672   2.787   0.575   4.410  0.5387 -1.0923 -0.0947
 3405SOL     OW21673   1.635   2.475  10.487  0.0580  0.0389  0.2075
 3405SOL    HW121674   1.590   2.536  10.545  0.3864  0.3809  0.1093
 3405SOL    HW221675   1.620   2.526  10.407  0.6130 -0.6583 -0.3425
 3406SOL     OW21676   4.393   2.239   7.185  0.2440  0.6465  0.0863
 3406SOL    HW121677   4.428   2.275   7.267  1.0054  1.8067 -0.7378
 3406SOL    HW221678   4.303   2.273   7.190  0.2143  0.6364 -0.4421
 3407SOL     OW21679   1.988   1.625   2.009 -0.7335 -0.5324  0.0005
 3407SOL    HW121680   2.010   1.704   1.959  0.7145 -1.8070 -1.4169
 3407SOL    HW221681   2.075   1.601   2.041 -1.0233 -2.5626 -0.7172
 3408SOL     OW21682   1.054   0.071   4.051  0.5645  0.3027  0.6092
 3408SOL    HW121683   0.990   0.007   4.083  2.2169 -1.1628  0.9204
 3408SOL    HW221684   1.129   0.061   4.109  1.0309 -1.1463 -0.2477
 3409SOL     OW21685   0.097   3.740   6.067  0.0345  0.5055  0.2893
 3409SOL    HW121686   0.028   3.740   6.001  0.4992 -0.7933 -0.1999
 3409SOL    HW221687   0.050   3.704   6.142  0.7345  1.2149  1.0609
 3410SOL     OW21688   1.607   4.237  11.900  0.4054 -0.4597  0.4804
 3410SOL    HW121689   1.581   4.199  11.983 -1.3209 -0.7699 -0.2069
 3410SOL    HW221690   1.629   4.155  11.855 -0.0499  0.8819 -2.2296
 3411SOL     OW21691   1.700   0.750   7.144 -0.2370 -0.2430  0.7313
 3411SOL    HW121692   1.636   0.807   7.100 -0.7614 -1.9560 -0.7620
 3411SOL    HW221693   1.749   0.723   7.066 -1.9015  0.6592 -0.6416
 3412SOL     OW21694   0.045   4.311   4.266  0.2297  0.5933  0.3486
 3412SOL    HW121695   4.712   4.350   4.331 -1.0381 -0.3484 -0.2291
 3412SOL    HW221696   0.036   4.219   4.291  2.7149 -0.0070 -0.9562
 3413SOL     OW21697   0.465   0.551   6.718 -0.2240  0.3732  0.0994
 3413SOL    HW121698   0.441   0.574   6.808  0.5222  1.8714 -0.0731
 3413SOL    HW221699   0.402   0.480   6.705 -1.5695  1.2552  1.7876
 3414SOL     OW21700   1.662   1.022   9.618 -0.6790 -0.2877 -0.0057
 3414SOL    HW121701   1.581   0.982   9.652 -2.5217  3.5693  0.1512
 3414SOL    HW221702   1.683   1.074   9.695 -0.6267 -2.7248  1.6542
 3415SOL     OW21703   3.472   0.388   6.643 -0.1473  0.1069 -0.4162
 3415SOL    HW121704   3.384   0.357   6.620  1.4431 -1.7595 -3.8975
 3415SOL    HW221705   3.486   0.461   6.583  0.0842 -0.3387 -0.8992
 3416SOL     OW21706   1.164   2.712   4.603 -0.0248 -0.1487 -0.2024
 3416SOL    HW121707   1.188   2.639   4.660 -2.2832 -1.6664 -1.1993
 3416SOL    HW221708   1.071   2.709   4.625 -0.2670 -1.7601 -1.4859
 3417SOL     OW21709   3.852   1.666  12.532  0.0439 -0.1411  0.1181
 3417SOL    HW121710   3.774   1.627  12.493 -2.3997  1.9989  2.9450
 3417SOL    HW221711   3.893   1.714  12.460  0.9740  0.0529  0.7687
 3418SOL     OW21712   1.499   1.960  12.923  0.3837  0.0851 -0.3436
 3418SOL    HW121713   1.454   2.032  12.967 -0.7347 -1.8086  1.6223
 3418SOL    HW221714   1.433   1.940  12.858 -1.6599  1.6301  1.2407
 3419SOL     OW21715   3.583   3.172   1.484  0.0228 -0.0140 -0.2042
 3419SOL    HW121716   3.667   3.182   1.439 -0.2325  0.5189 -0.5574
 3419SOL    HW221717   3.519   3.183   1.415 -1.7538  0.6497  1.5496
 3420SOL     OW21718   4.105   4.024   7.148  0.7586  0.1029  0.1174
 3420SOL    HW121719   4.167   4.062   7.210 -1.1655 -0.8818  2.6322
 3420SOL    HW221720   4.156   3.995   7.072  1.4077  0.4221  0.4233
 3421SOL     OW21721   1.621   1.427  16.041  0.2744  0.2620 -0.2649
 3421SOL    HW121722   1.585   1.353  15.992 -0.9730  0.9538 -0.3743
 3421SOL    HW221723   1.714   1.403  16.048 -0.0516 -1.0249 -0.2123
 3422SOL     OW21724   4.685   1.868  12.086 -0.3801 -0.3887  0.3104
 3422SOL    HW121725   4.696   1.782  12.127 -0.0239 -0.3893  0.2153
 3422SOL    HW221726   0.021   1.864  12.012 -0.9706 -1.9268 -0.1045
 3423SOL     OW21727   3.304   2.671  14.932 -0.2287 -0.4731  0.0117
 3423SOL    HW121728   3.344   2.634  15.011  1.2851  2.0569  0.3943
 3423SOL    HW221729   3.333   2.761  14.944  0.3803 -0.7197  0.4041
 3424SOL     OW21730   4.122   0.238   8.799  0.3185 -0.2198 -0.4337
 3424SOL    HW121731   4.205   0.222   8.845 -0.0819 -1.4927 -0.1550
 3424SOL    HW221732   4.144   0.284   8.718  3.5506 -0.9774 -0.0051
 3425SOL     OW21733   0.187   2.038   6.704 -0.2533  0.1911  0.2572
 3425SOL    HW121734   0.099   2.033   6.667  0.3898  0.7576 -1.3422
 3425SOL    HW221735   0.193   1.950   6.741 -0.5835  0.9370  2.1458
 3426SOL     OW21736   2.725   3.141   5.445  0.3637  0.0151  0.1590
 3426SOL    HW121737   2.715   3.195   5.523  0.2084  0.7837 -0.3977
 3426SOL    HW221738   2.660   3.187   5.392  0.2075 -0.6771 -0.2490
 3427SOL     OW21739   0.933   1.161   4.931 -0.6434  0.3233  0.0629
 3427SOL    HW121740   0.838   1.165   4.943 -0.7451 -0.9088 -0.3739
 3427SOL    HW221741   0.972   1.152   5.018  0.8338 -1.9134 -0.8670
 3428SOL     OW21742   4.639   1.584   1.919  0.3198  0.6501 -0.1276
 3428SOL    HW121743   4.642   1.517   1.851  0.3938 -0.6551  1.1596
 3428SOL    HW221744   0.008   1.596   1.931  0.5183  0.1655 -1.1879
 3429SOL     OW21745   4.148   0.983   4.765 -0.5906 -0.1648  0.1726
 3429SOL    HW121746   4.053   0.996   4.756 -0.4916  0.4345 -0.0012
 3429SOL    HW221747   4.160   0.907   4.821 -0.1103  0.4461  0.9132
 3430SOL     OW21748   3.133   1.168  16.016 -0.0618 -0.2811 -0.2287
 3430SOL    HW121749   3.112   1.079  15.988 -2.2375  0.7750 -1.9923
 3430SOL    HW221750   3.124   1.164  16.111 -0.1099  2.7027 -0.1328
 3431SOL     OW21751   2.007   2.832   4.662  0.4494 -0.1431  0.0223
 3431SOL    HW121752   2.069   2.899   4.690 -0.4776  0.8293 -0.2284
 3431SOL    HW221753   1.922   2.870   4.686  0.4042 -0.2506  0.0313
 3432SOL     OW21754   1.345   2.719  10.880 -0.1646  0.3417  0.5452
 3432SOL    HW121755   1.289   2.790  10.912 -1.1869  0.1582 -0.8301
 3432SOL    HW221756   1.405   2.709  10.954 -0.1633 -0.1015  0.4836
 3433SOL     OW21757   4.248   0.403  12.350  0.1953  0.0947 -0.4431
 3433SOL    HW121758   4.298   0.443  12.421 -0.9251  0.3136  0.2042
 3433SOL    HW221759   4.158   0.423  12.374  0.3977  0.0283  0.3667
 3434SOL     OW21760   4.698   2.738   8.769  0.7046  0.8274  0.1347
 3434SOL    HW121761   4.639   2.778   8.832  1.0528 -0.7300  1.4573
 3434SOL    HW221762   4.709   2.810   8.707 -0.5359  0.2558 -0.7499
 3435SOL     OW21763   2.393   1.669   1.742  0.5178  1.0620 -0.2771
 3435SOL    HW121764   2.395   1.757   1.780 -0.0742  2.3063 -3.0792
 3435SOL    HW221765   2.312   1.677   1.692  0.0360 -1.0570  0.1969
 3436SOL     OW21766   0.551   1.241  12.388 -0.6501 -0.2481  0.5708
 3436SOL    HW121767   0.602   1.304  12.438  1.3925 -1.2889 -0.2283
 3436SOL    HW221768   0.483   1.294  12.345 -1.6903  0.5751  3.2133
 3437SOL     OW21769   0.468   2.434  10.881  0.1455 -0.1040  0.0257
 3437SOL    HW121770   0.408   2.384  10.827  2.0391 -2.9814  0.6070
 3437SOL    HW221771   0.548   2.436  10.828  1.2925  1.3114  1.7930
 3438SOL     OW21772   3.524   0.997   3.963 -0.0263  0.0708  0.1206
 3438SOL    HW121773   3.503   1.033   4.049 -0.1249  0.2198  0.0350
 3438SOL    HW221774   3.605   1.044   3.945 -0.6870  1.6621  1.2994
 3439SOL     OW21775   3.738   0.007   4.587 -0.3066  0.4584 -0.1419
 3439SOL    HW121776   3.687   0.053   4.521  0.0481 -0.7668 -1.2826
 3439SOL    HW221777   3.770   0.074   4.647  1.9872  1.2569 -2.2534
 3440SOL     OW21778   2.434   2.587   2.785  0.2217 -0.3459 -0.0441
 3440SOL    HW121779   2.484   2.537   2.850 -1.0577 -0.4193  0.8905
 3440SOL    HW221780   2.386   2.522   2.733 -1.9804  0.2227  1.2685
 3441SOL     OW21781   0.480   4.506   9.154 -0.9297  0.1033 -0.3774
 3441SOL    HW121782   0.493   4.599   9.173 -2.1886  0.4688 -1.3183
 3441SOL    HW221783   0.387   4.493   9.172 -0.4667 -1.4374  0.8227
 3442SOL     OW21784   1.746   3.771   3.622 -0.4180  0.2367  0.0706
 3442SOL    HW121785   1.736   3.735   3.710 -1.3282 -1.3089 -0.6619
 3442SOL    HW221786   1.677   3.721   3.577 -0.4440 -0.7549  1.2311
 3443SOL     OW21787   0.276   0.919   3.975 -0.1441  0.4982  0.0794
 3443SOL    HW121788   0.180   0.918   3.973 -0.1536 -0.8506  0.9666
 3443SOL    HW221789   0.299   0.829   3.949 -1.7432  0.0736  0.1192
 3444SOL     OW21790   4.212   1.516   9.683 -0.5022  0.0398 -0.2618
 3444SOL    HW121791   4.140   1.523   9.621 -0.4699 -0.2923 -0.3397
 3444SOL    HW221792   4.288   1.550   9.635 -1.0855  0.9257 -0.5520
 3445SOL     OW21793   0.615   1.655   8.546 -0.6812  0.2965 -0.3641
 3445SOL    HW121794   0.678   1.723   8.571 -0.5474  0.0657 -0.0648
 3445SOL    HW221795   0.561   1.652   8.625  1.3556  1.4738  1.0942
 3446SOL     OW21796   4.599   3.325   1.578 -0.1973  0.1631  0.3830
 3446SOL    HW121797   4.687   3.288   1.577 -1.2442 -2.3178 -2.2811
 3446SOL    HW221798   4.613   3.388   1.508  0.2874  0.7477  1.0046
 3447SOL     OW21799   2.249   0.735  11.166  0.3068 -0.3817 -0.1664
 3447SOL    HW121800   2.289   0.812  11.205 -1.7564  0.6692 -0.1188
 3447SOL    HW221801   2.157   0.760  11.176  0.1839 -0.6966 -0.5258
 3448SOL     OW21802   0.614   3.921   0.581  0.0782  0.1297  0.0794
 3448SOL    HW121803   0.558   3.946   0.507  0.1238  0.0023  0.0019
 3448SOL    HW221804   0.581   3.988   0.640 -1.0018  0.2660 -0.6736
 3449SOL     OW21805   2.481   4.174  10.973 -0.0702  0.1287 -0.3457
 3449SOL    HW121806   2.413   4.176  11.040  0.1359  3.3302 -0.2203
 3449SOL    HW221807   2.504   4.265  10.992 -0.0255  0.0269  0.0958
 3450SOL     OW21808   0.730   1.122   5.818 -0.2866  0.0780 -0.0111
 3450SOL    HW121809   0.702   1.080   5.736 -0.6209 -0.9597  0.6406
 3450SOL    HW221810   0.811   1.077   5.842 -1.1379 -1.6006 -0.2972
 3451SOL     OW21811   3.150   3.006   1.104 -0.3458  0.0274 -0.2381
 3451SOL    HW121812   3.095   2.948   1.052 -0.5484 -2.1383  2.4102
 3451SOL    HW221813   3.141   3.088   1.055  0.1531  1.2933  1.7461
 3452SOL     OW21814   3.953   3.344   8.074  0.8023  0.3943  0.2330
 3452SOL    HW121815   3.873   3.387   8.103  0.6551  0.0328  0.3655
 3452SOL    HW221816   3.929   3.322   7.984  1.3842  1.3627 -0.1552
 3453SOL     OW21817   0.160   1.534   8.459 -0.4358 -0.2442  0.4218
 3453SOL    HW121818   0.243   1.581   8.448 -1.2347  0.7892 -1.2196
 3453SOL    HW221819   0.130   1.527   8.368 -0.2276 -0.3802  0.3622
 3454SOL     OW21820   1.620   1.793   0.976 -0.1286  0.1015  0.7822
 3454SOL    HW121821   1.640   1.769   1.066 -0.3710  0.4608  0.9320
 3454SOL    HW221822   1.615   1.889   0.974  0.1250  0.0719 -2.0779
 3455SOL     OW21823   0.282   1.342  12.607  0.1124  0.4240 -0.4213
 3455SOL    HW121824   0.327   1.425  12.618 -0.3216  0.6021  0.0207
 3455SOL    HW221825   0.244   1.340  12.695 -0.1424 -0.9893 -0.5710
 3456SOL     OW21826   0.422   2.195  11.041  0.0208  0.2495  0.6070
 3456SOL    HW121827   0.404   2.238  11.124  0.9783 -0.4741  1.1882
 3456SOL    HW221828   0.436   2.274  10.987  0.3668 -1.0391 -1.1960
 3457SOL     OW21829   2.088   1.809   0.481  0.3654  0.6964 -0.7885
 3457SOL    HW121830   2.016   1.747   0.487  0.0649  1.0669 -0.5508
 3457SOL    HW221831   2.098   1.838   0.572  0.4684 -1.5466 -0.0983
 3458SOL     OW21832   3.951   3.646  13.120 -0.5193  0.3308 -0.6229
 3458SOL    HW121833   3.919   3.695  13.195 -0.2968 -0.6445  0.1070
 3458SOL    HW221834   4.022   3.593  13.157 -2.0832 -0.6566  0.9344
 3459SOL     OW21835   0.318   0.891  13.445  0.5743  0.0843 -0.2882
 3459SOL    HW121836   0.304   0.974  13.490  0.9206  0.5592 -1.0596
 3459SOL    HW221837   0.310   0.826  13.515  0.6204 -0.5621 -0.8718
 3460SOL     OW21838   1.019   0.518   3.865 -0.3930  0.0829 -0.5200
 3460SOL    HW121839   0.940   0.570   3.883 -1.1413 -1.5064  0.8952
 3460SOL    HW221840   0.984   0.429   3.873  0.0538  0.0713  1.3105
 3461SOL     OW21841   4.039   2.695  15.860 -0.1384 -0.2332 -0.1722
 3461SOL    HW121842   3.946   2.716  15.862 -0.4492 -1.6389  0.2864
 3461SOL    HW221843   4.078   2.780  15.841 -0.0242 -0.1781  0.3070
 3462SOL     OW21844   3.831   2.275   5.368  0.0007 -0.2500  0.1679
 3462SOL    HW121845   3.763   2.338   5.346 -1.2897 -1.0227  1.8860
 3462SOL    HW221846   3.787   2.205   5.417  1.1267 -2.6174 -2.2069
 3463SOL     OW21847   0.785   2.220   6.700 -0.6603  0.0910 -0.2554
 3463SOL    HW121848   0.872   2.184   6.718 -0.5435 -1.8482 -4.5426
 3463SOL    HW221849   0.784   2.191   6.608  3.2559  1.5912 -0.7905
 3464SOL     OW21850   1.522   3.592   7.544 -0.1040  0.1162  0.9308
 3464SOL    HW121851   1.540   3.533   7.471  3.8604  0.9774  1.2294
 3464SOL    HW221852   1.607   3.616   7.581 -0.0686  2.2551 -0.5662
 3465SOL     OW21853   3.954   3.203  16.454 -0.3807  0.1219  0.2351
 3465SOL    HW121854   4.021   3.204  16.385 -1.5067  2.2228 -0.8362
 3465SOL    HW221855   3.885   3.201  16.388 -0.2863  0.4572  0.1256
 3466SOL     OW21856   3.562   2.149   5.928  0.1151 -0.0346 -0.5441
 3466SOL    HW121857   3.632   2.158   5.864  0.8344  1.9881  0.5313
 3466SOL    HW221858   3.487   2.165   5.871 -0.7704  2.4067  1.3082
 3467SOL     OW21859   4.501   3.582   2.347  0.1475  0.5755  0.0254
 3467SOL    HW121860   4.450   3.651   2.304 -1.0424 -0.7114 -0.5872
 3467SOL    HW221861   4.482   3.500   2.302 -0.7292  1.0615 -0.4908
 3468SOL     OW21862   0.012   0.082   0.149  0.0200  0.4129 -0.8052
 3468SOL    HW121863   4.672   0.089   0.080 -0.7742 -1.8036 -0.2785
 3468SOL    HW221864   4.694   0.095   0.233 -2.3715 -0.0086 -1.9611
 3469SOL     OW21865   0.734   3.405   7.281  0.0411 -0.5406 -0.5682
 3469SOL    HW121866   0.796   3.359   7.338  0.1954 -0.8572 -0.9969
 3469SOL    HW221867   0.700   3.474   7.339  1.8234 -0.9473  0.9641
 3470SOL     OW21868   2.590   4.694   4.510 -0.5488  0.4639  0.3597
 3470SOL    HW121869   2.524   4.628   4.490 -1.2914  0.3512  3.1406
 3470SOL    HW221870   2.583   0.040   4.447 -0.0773 -0.1660 -0.3972
 3471SOL     OW21871   1.300   2.868   2.477  0.2268  0.0045  0.4587
 3471SOL    HW121872   1.296   2.963   2.464 -0.1696 -0.0420  0.2359
 3471SOL    HW221873   1.281   2.864   2.570  2.3053  0.3491  0.9055
 3472SOL     OW21874   2.607   0.438   8.122  0.0390 -0.8052  0.4647
 3472SOL    HW121875   2.598   0.533   8.125 -1.6681 -0.9967  1.1669
 3472SOL    HW221876   2.568   0.414   8.206  0.6291 -0.3602  0.8664
 3473SOL     OW21877   0.862   2.697  13.607  0.0314 -0.2709  0.0344
 3473SOL    HW121878   0.841   2.754  13.533  1.1135  0.3547  0.2019
 3473SOL    HW221879   0.770   2.675  13.622 -0.0521  0.9082  1.1752
 3474SOL     OW21880   3.749   4.285   3.598 -0.2310 -0.2444 -0.0848
 3474SOL    HW121881   3.703   4.311   3.518  1.7190  2.8246 -0.1976
 3474SOL    HW221882   3.714   4.199   3.623 -1.3631 -0.3075 -1.8986
 3475SOL     OW21883   2.598   2.171   4.862  0.0851 -0.0759  0.3598
 3475SOL    HW121884   2.511   2.137   4.841  0.9033 -1.9110 -0.0571
 3475SOL    HW221885   2.568   2.260   4.884  0.5325  0.0006  0.6462
 3476SOL     OW21886   2.121   0.420  12.489 -0.1995  0.3232  0.1765
 3476SOL    HW121887   2.135   0.515  12.484 -0.0247  0.3121  0.4459
 3476SOL    HW221888   2.199   0.391  12.441  1.1453  0.1070  2.5002
 3477SOL     OW21889   1.937   2.118  14.418  0.2977 -0.3592  0.5008
 3477SOL    HW121890   1.921   2.024  14.431 -1.8203 -0.0877 -0.2826
 3477SOL    HW221891   1.872   2.140  14.484  0.1952 -1.1546  0.6676
 3478SOL     OW21892   4.024   4.402   5.612  0.1449  0.2619  0.6725
 3478SOL    HW121893   4.026   4.361   5.526 -0.9356 -2.6142  2.0080
 3478SOL    HW221894   3.932   4.428   5.609  0.3932  1.0406 -0.2820
 3479SOL     OW21895   0.037   1.452  16.210 -0.4855  0.1001 -0.2015
 3479SOL    HW121896   0.095   1.379  16.233 -1.1050 -0.5976 -0.8524
 3479SOL    HW221897   0.092   1.522  16.245  0.8478 -0.6452 -0.8107
 3480SOL     OW21898   1.751   1.347   9.756  0.3762  0.0326  0.3274
 3480SOL    HW121899   1.799   1.349   9.838  1.6867  0.7393 -0.4520
 3480SOL    HW221900   1.670   1.303   9.783 -0.3969  2.0937  1.3645
 3481SOL     OW21901   4.001   3.314   6.288  0.1726  0.3284 -0.4647
 3481SOL    HW121902   3.972   3.284   6.374 -2.4611  0.2525 -1.3785
 3481SOL    HW221903   3.946   3.391   6.281 -0.6906 -0.3626 -1.3342
 3482SOL     OW21904   1.468   2.709   1.266 -0.5906  0.5277  0.0119
 3482SOL    HW121905   1.392   2.752   1.303 -0.0626  1.8214 -0.4263
 3482SOL    HW221906   1.531   2.760   1.316  1.5176  0.2277 -2.3451
 3483SOL     OW21907   0.918   4.717   1.265  0.2854 -0.3381 -0.2021
 3483SOL    HW121908   0.881   4.636   1.300  1.1410 -0.7210 -0.1721
 3483SOL    HW221909   0.882   0.047   1.335 -1.2555  0.6227 -1.7542
 3484SOL     OW21910   4.485   3.205   5.136 -0.0081 -0.1822  0.8133
 3484SOL    HW121911   4.425   3.170   5.202  0.2510 -2.4277 -0.1447
 3484SOL    HW221912   4.461   3.297   5.127 -0.3292 -0.0560  2.9262
 3485SOL     OW21913   4.330   3.228   4.790  0.0466 -0.2087  0.0421
 3485SOL    HW121914   4.350   3.151   4.844  2.1575  0.3771  0.0930
 3485SOL    HW221915   4.360   3.189   4.708  3.5716  2.9523 -0.1487
 3486SOL     OW21916   3.253   2.196  16.796 -0.3195 -0.8187  0.0764
 3486SOL    HW121917   3.189   2.262  16.772  0.5805  0.0284 -0.0258
 3486SOL    HW221918   3.238   2.130  16.728 -1.4383  1.8057 -2.1996
 3487SOL     OW21919   1.242   4.601   8.548  0.2120 -0.3904  0.1396
 3487SOL    HW121920   1.150   4.621   8.569  0.0397 -2.6953  1.5090
 3487SOL    HW221921   1.239   4.506   8.559 -1.0243 -0.7023 -2.7621
 3488SOL     OW21922   0.697   1.153   3.599 -0.4907  0.2672 -0.4594
 3488SOL    HW121923   0.646   1.229   3.626  1.4524  1.7600 -0.9411
 3488SOL    HW221924   0.648   1.108   3.530 -1.1125 -0.5195  0.5163
 3489SOL     OW21925   2.614   3.334   8.034 -0.1400  0.0246 -0.1692
 3489SOL    HW121926   2.526   3.342   8.069  0.5029 -1.0185  1.7000
 3489SOL    HW221927   2.654   3.389   8.101 -1.7455  1.5022 -0.4532
 3490SOL     OW21928   2.399   2.697   3.179  0.3074  0.0751  0.1935
 3490SOL    HW121929   2.321   2.674   3.230 -0.0750 -0.0518 -0.4571
 3490SOL    HW221930   2.415   2.621   3.123 -1.1877  0.0877 -0.2554
 3491SOL     OW21931   3.133   0.482   8.228  0.4154  0.2823 -0.8197
 3491SOL    HW121932   3.055   0.519   8.186  0.7294  2.9609  0.9636
 3491SOL    HW221933   3.099   0.396   8.252 -0.8047  1.2959  1.0986
 3492SOL     OW21934   2.272   4.044   2.344  0.4991 -0.3079 -0.6275
 3492SOL    HW121935   2.222   3.966   2.367 -0.2188  0.0596 -0.9497
 3492SOL    HW221936   2.300   4.024   2.255 -1.0029 -1.0180 -0.9323
 3493SOL     OW21937   2.398   3.073  10.585  0.2562 -0.3811  0.0724
 3493SOL    HW121938   2.428   3.135  10.517 -2.0533  1.6900  0.9463
 3493SOL    HW221939   2.456   3.090  10.659 -1.4562 -0.2838  1.4057
 3494SOL     OW21940   4.560   2.691   2.808 -0.7940 -0.7624  0.4560
 3494SOL    HW121941   4.624   2.624   2.784  0.1817  0.5456 -0.5881
 3494SOL    HW221942   4.504   2.690   2.730  0.1826  0.2335 -0.2464
 3495SOL     OW21943   0.841   4.028   3.393 -0.1855 -0.4401 -0.2943
 3495SOL    HW121944   0.836   3.950   3.447  2.1075 -1.1956 -1.1779
 3495SOL    HW221945   0.773   4.089   3.423  1.0017  1.6007 -1.7146
 3496SOL     OW21946   4.099   3.881  10.867  0.8072 -0.7044  0.5008
 3496SOL    HW121947   4.185   3.864  10.905  1.5657 -0.8154 -1.2291
 3496SOL    HW221948   4.098   3.974  10.889  1.6377 -0.1084 -1.9008
 3497SOL     OW21949   1.612   2.617   3.652 -0.1326 -0.2941  0.2649
 3497SOL    HW121950   1.689   2.581   3.608 -0.5524 -2.5074  1.3290
 3497SOL    HW221951   1.634   2.638   3.743 -0.2415  0.0652  0.2086
 3498SOL     OW21952   4.131   3.773   2.521 -0.6006  0.3363  0.5892
 3498SOL    HW121953   4.102   3.862   2.502 -2.3810 -0.6481 -1.3695
 3498SOL    HW221954   4.150   3.753   2.429 -0.9024  1.9895  0.1811
 3499SOL     OW21955   3.900   2.756   2.114  0.4188 -0.1747  0.4082
 3499SOL    HW121956   3.848   2.799   2.181 -0.7749 -1.0949  0.0569
 3499SOL    HW221957   3.837   2.713   2.056  0.5178  0.0479  0.1301
 3500SOL     OW21958   2.091   4.665  16.580  0.1851  0.4599 -0.4840
 3500SOL    HW121959   2.070   4.588  16.526  1.6283 -0.9276  0.9448
 3500SOL    HW221960   2.122   0.002  16.514  2.1398  0.2685  0.2357
 3501SOL     OW21961   2.429   1.205  10.474 -0.0040  0.4831 -0.4578
 3501SOL    HW121962   2.445   1.163  10.558  2.4831  2.5997  0.1550
 3501SOL    HW221963   2.405   1.133  10.416  0.8641  0.2441 -0.5223
 3502SOL     OW21964   0.248   3.803   1.193  0.5985  0.6780  0.5792
 3502SOL    HW121965   0.288   3.827   1.109  1.6777 -1.0057  0.6095
 3502SOL    HW221966   0.329   3.795   1.242 -0.3473 -1.3476  1.8143
 3503SOL     OW21967   4.411   1.934   9.584 -0.0994 -0.2742 -0.3495
 3503SOL    HW121968   4.323   1.932   9.622  0.3490 -0.1816  0.6951
 3503SOL    HW221969   4.450   2.016   9.614  0.1384 -0.7902  0.7771
 3504SOL     OW21970   3.057   0.031   6.414 -0.2661  0.6796 -0.2513
 3504SOL    HW121971   3.022   0.053   6.327  1.8871  2.0929 -0.7785
 3504SOL    HW221972   3.132   0.091   6.419  0.2404  0.0095  0.2858
 3505SOL     OW21973   2.555   2.772   8.258 -0.1260 -0.4223 -0.0510
 3505SOL    HW121974   2.522   2.735   8.339  0.7589  1.1269  1.0074
 3505SOL    HW221975   2.570   2.865   8.273  0.7292 -0.8192  1.5658
 3506SOL     OW21976   3.858   3.479  11.855 -0.1790  0.3830  0.2728
 3506SOL    HW121977   3.895   3.516  11.936 -1.3300 -0.2301  1.0853
 3506SOL    HW221978   3.823   3.394  11.881 -1.4271  0.4176 -1.3737
 3507SOL     OW21979   3.115   1.927   6.319  0.5455 -0.4277 -0.2652
 3507SOL    HW121980   3.178   1.958   6.254  0.6185 -4.3446 -2.0541
 3507SOL    HW221981   3.165   1.866   6.374  1.3257  0.1455 -0.3218
 3508SOL     OW21982   3.982   2.923   3.573 -0.6710 -0.0477 -0.1044
 3508SOL    HW121983   3.995   2.856   3.506 -1.2573 -0.5876  0.3192
 3508SOL    HW221984   3.953   2.998   3.523 -0.5081  0.0158 -0.1047
 3509SOL     OW21985   0.505   4.641   4.004  0.0750  0.0027  0.4724
 3509SOL    HW121986   0.501   4.690   4.087 -2.1760  1.3789 -0.4581
 3509SOL    HW221987   0.600   4.644   3.990  0.7101  4.0953  5.4314
 3510SOL     OW21988   3.203   2.087   3.079  0.1608  0.0880  0.3848
 3510SOL    HW121989   3.127   2.081   3.137 -2.0149 -0.8762 -2.5432
 3510SOL    HW221990   3.275   2.115   3.134 -1.4574  1.3596  1.8366
 3511SOL     OW21991   1.814   3.530  17.488 -0.0617 -0.6287 -0.1658
 3511SOL    HW121992   1.825   3.625  17.476  2.2445 -0.7114  1.3414
 3511SOL    HW221993   1.868   3.487  17.421  0.9100  1.0810 -0.4935
 3512SOL     OW21994   2.753   3.391   2.689 -0.3299  0.5775 -0.0106
 3512SOL    HW121995   2.767   3.304   2.651  2.1607  0.6583  0.7516
 3512SOL    HW221996   2.820   3.399   2.757  0.8433  0.8427 -1.2091
 3513SOL     OW21997   1.499   3.295   1.736  0.4085  0.2581  0.0961
 3513SOL    HW121998   1.521   3.342   1.656  0.4089 -0.0268 -0.0692
 3513SOL    HW221999   1.584   3.300   1.780  0.7354  3.1472 -0.8466
 3514SOL     OW22000   4.265   1.799  16.890  0.1180 -0.4474 -0.2049
 3514SOL    HW122001   4.355   1.804  16.920  0.0438 -1.0046  0.1222
 3514SOL    HW222002   4.211   1.854  16.947  0.1036  2.9189 -3.4999
 3515SOL     OW22003   2.125   3.280   8.148 -0.2864  0.2855  0.4047
 3515SOL    HW122004   2.076   3.265   8.229 -0.9555  1.5274  0.2179
 3515SOL    HW222005   2.209   3.238   8.170  0.2136  0.5301 -1.0754
 3516SOL     OW22006   4.404   1.218   8.802  0.7808  0.0188  0.2649
 3516SOL    HW122007   4.347   1.156   8.847  1.3773 -1.4340 -0.9556
 3516SOL    HW222008   4.369   1.198   8.715  2.4931  0.4574 -0.5187
 3517SOL     OW22009   2.081   1.861   8.603  0.0499  0.0872 -0.4683
 3517SOL    HW122010   2.107   1.831   8.690 -0.9201  0.7525  0.0490
 3517SOL    HW222011   2.015   1.926   8.626 -1.6129 -2.3080  1.5641
 3518SOL     OW22012   3.716   3.498   8.121  0.0569 -0.2472  0.1195
 3518SOL    HW122013   3.715   3.524   8.213  0.3249  1.0999 -0.2593
 3518SOL    HW222014   3.705   3.585   8.085 -1.0520  0.1819  1.4856
 3519SOL     OW22015   4.132   4.474   2.645  0.6579 -0.4245 -0.2859
 3519SOL    HW122016   4.086   4.469   2.728  1.5913  4.4456  0.5377
 3519SOL    HW222017   4.222   4.453   2.670  1.0446  0.7961 -0.6584
 3520SOL     OW22018   4.038   1.570   7.862  0.0518  0.1853  0.0066
 3520SOL    HW122019   3.960   1.560   7.806 -1.6508 -0.9887  2.6126
 3520SOL    HW222020   4.079   1.653   7.837 -2.0928  0.3269 -3.0619
 3521SOL     OW22021   1.881   2.084   8.174 -0.6767  0.1486  0.2087
 3521SOL    HW122022   1.887   2.156   8.238  0.6281  0.3610 -0.1588
 3521SOL    HW222023   1.922   2.009   8.218 -1.8682 -0.1038  0.8867
 3522SOL     OW22024   2.758   0.783  13.211 -0.1919  0.1831 -0.4110
 3522SOL    HW122025   2.832   0.722  13.210  1.1906  1.8405 -0.0325
 3522SOL    HW222026   2.788   0.851  13.150  0.9631 -0.5222 -0.6217
 3523SOL     OW22027   0.320   0.938   9.065  0.2096 -0.1921  0.3078
 3523SOL    HW122028   0.290   0.919   8.976  1.4684 -3.0139  0.5022
 3523SOL    HW222029   0.414   0.945   9.054  0.0746  2.3397  0.8016
 3524SOL     OW22030   2.621   1.029  17.497  0.0030  0.2407 -0.1651
 3524SOL    HW122031   2.590   0.987  17.417  0.3655 -0.8832  0.2751
 3524SOL    HW222032   2.622   1.117  17.461  2.3039  0.8882  1.4607
 3525SOL     OW22033   1.174   4.091  16.730 -0.4930  0.1293  0.3904
 3525SOL    HW122034   1.191   4.044  16.812  2.0950  0.1280 -0.1480
 3525SOL    HW222035   1.257   4.070  16.687 -0.3899 -0.4344  0.8607
 3526SOL     OW22036   2.639   3.744   5.970  0.4494  0.6017 -0.1582
 3526SOL    HW122037   2.576   3.740   6.042 -2.1827  3.2404 -2.3203
 3526SOL    HW222038   2.720   3.756   6.020  0.5370 -0.1473 -0.1145
 3527SOL     OW22039   3.056   3.985  17.291  0.0811 -0.1727  0.0293
 3527SOL    HW122040   3.148   3.964  17.271  0.6219  1.2767  0.9580
 3527SOL    HW222041   3.073   4.021  17.378 -1.3875  0.7092 -0.0631
 3528SOL     OW22042   1.435   1.257  15.919 -0.1944 -0.0620  0.1963
 3528SOL    HW122043   1.446   1.225  16.009 -0.9869 -0.2634  0.2189
 3528SOL    HW222044   1.412   1.178  15.871  1.0683 -0.1170 -0.3055
 3529SOL     OW22045   1.524   2.651   4.734 -0.2720  0.0952  0.5431
 3529SOL    HW122046   1.432   2.628   4.750  0.0191  0.0314  2.1129
 3529SOL    HW222047   1.563   2.678   4.817  3.4968 -2.5488 -0.3222
 3530SOL     OW22048   2.354   0.782   8.635  0.1510  0.5480 -0.1010
 3530SOL    HW122049   2.355   0.740   8.721  0.8148  0.1079 -0.3167
 3530SOL    HW222050   2.339   0.715   8.567  1.6734  1.8009 -1.6776
 3531SOL     OW22051   2.349   1.210   2.755 -0.0534  0.0366 -0.2657
 3531SOL    HW122052   2.386   1.205   2.843 -2.0218  1.3957  0.6397
 3531SOL    HW222053   2.378   1.295   2.724 -0.9779  0.4600  0.0327
 3532SOL     OW22054   0.922   3.931  10.486 -0.1897  0.3479  0.3857
 3532SOL    HW122055   0.950   3.892  10.569 -0.6183  0.2980  0.5020
 3532SOL    HW222056   0.941   3.854  10.432 -0.0536  1.4149 -1.1103
 3533SOL     OW22057   2.863   2.720  14.988 -0.1115  0.6033 -0.9485
 3533SOL    HW122058   2.795   2.710  14.921 -0.6533 -2.2374  0.0408
 3533SOL    HW222059   2.806   2.706  15.063 -1.7920 -1.2719 -2.5664
 3534SOL     OW22060   3.033   0.122   6.775  0.1020 -0.0855 -0.2652
 3534SOL    HW122061   2.986   0.046   6.740 -1.6371  0.3236  1.1616
 3534SOL    HW222062   2.994   0.137   6.861  1.2885 -0.8756  0.3995
 3535SOL     OW22063   3.853   3.204   3.505  0.3691  0.0449  0.4564
 3535SOL    HW122064   3.926   3.224   3.445  0.6013  1.3303  1.1798
 3535SOL    HW222065   3.832   3.293   3.533 -1.1826  0.3173 -1.5552
 3536SOL     OW22066   2.150   1.967  16.831 -0.1592 -0.2147 -0.3441
 3536SOL    HW122067   2.130   1.971  16.925 -1.9105  1.8903 -0.8032
 3536SOL    HW222068   2.151   2.062  16.818  1.6374 -0.1635  0.1312
 3537SOL     OW22069   1.104   1.533   8.082 -0.2598  0.1276  0.2297
 3537SOL    HW122070   1.179   1.592   8.077  0.0507 -0.2076  1.0246
 3537SOL    HW222071   1.093   1.510   7.989 -0.6550  0.4010  0.2111
 3538SOL     OW22072   0.207   0.710  17.106 -0.2136 -0.4566  0.7739
 3538SOL    HW122073   0.284   0.725  17.161  0.3644  3.4074 -1.1068
 3538SOL    HW222074   0.250   0.736  17.024 -0.9671 -1.3831  0.0878
 3539SOL     OW22075   1.042   4.544   5.041  0.0882  0.6097  0.1598
 3539SOL    HW122076   1.071   4.612   5.102 -0.6508 -0.4800  1.7271
 3539SOL    HW222077   1.096   4.473   5.074 -1.9460  0.9294  4.1476
 3540SOL     OW22078   1.394   1.719   0.362 -0.0493  0.0566  0.5833
 3540SOL    HW122079   1.371   1.732   0.270 -1.0811  0.4440  0.8992
 3540SOL    HW222080   1.321   1.765   0.402 -0.4353 -0.0502  0.0040
 3541SOL     OW22081   4.622   0.213   8.376  0.0641 -0.1115  0.2861
 3541SOL    HW122082   4.531   0.196   8.398 -0.4174  1.2025 -0.7758
 3541SOL    HW222083   4.641   0.166   8.295 -1.3398  0.9021 -0.6118
 3542SOL     OW22084   1.456   0.514  17.656 -0.6454 -0.2820  0.2635
 3542SOL    HW122085   1.464   0.590  17.598 -0.5589 -0.7315 -0.3129
 3542SOL    HW222086   1.516   0.534   0.026 -2.4844 -1.0186  2.0056
 3543SOL     OW22087   0.243   0.712  13.643  0.2059 -0.1336 -0.3444
 3543SOL    HW122088   0.328   0.689  13.682 -0.2288  0.5854  1.0047
 3543SOL    HW222089   0.196   0.740  13.721 -0.8392 -1.4944 -0.4821
 3544SOL     OW22090   0.502   0.085   5.832  0.5337 -0.3495  0.0466
 3544SOL    HW122091   0.576   0.141   5.809  1.1574 -1.7457 -1.2765
 3544SOL    HW222092   0.510   0.006   5.780  0.8728 -0.0438 -0.3622
 3545SOL     OW22093   4.217   0.726   7.683 -0.1532 -0.1067  0.2294
 3545SOL    HW122094   4.293   0.754   7.734  0.7060  1.8342 -2.1424
 3545SOL    HW222095   4.257   0.704   7.599 -4.3871 -2.7752 -1.0244
 3546SOL     OW22096   3.330   4.162  12.510 -0.6892  0.4102  0.2881
 3546SOL    HW122097   3.365   4.109  12.582  2.9163  1.5799 -0.6075
 3546SOL    HW222098   3.306   4.089  12.452  0.5849 -0.8328  1.3222
 3547SOL     OW22099   2.821   0.212   7.369 -0.2212 -0.2133  0.1393
 3547SOL    HW122100   2.896   0.241   7.421 -0.4895 -0.9244  0.9280
 3547SOL    HW222101   2.755   0.225   7.437  1.6241  0.2129  1.8470
 3548SOL     OW22102   0.716   0.598   8.699  0.5918  0.0299 -0.1721
 3548SOL    HW122103   0.772   0.534   8.744  1.3442 -0.3781 -1.6939
 3548SOL    HW222104   0.767   0.604   8.619 -2.7329  0.7031 -2.2330
 3549SOL     OW22105   3.106   3.462   7.567 -0.0840  0.2328  0.5684
 3549SOL    HW122106   3.196   3.462   7.535  0.4846 -0.6555  2.1650
 3549SOL    HW222107   3.114   3.491   7.658 -0.6627  2.7209 -0.1925
 3550SOL     OW22108   4.257   2.699   4.035 -0.4046  0.1943 -0.0041
 3550SOL    HW122109   4.225   2.788   4.021 -1.0859 -0.2113 -1.0740
 3550SOL    HW222110   4.351   2.717   4.037 -0.5191  0.8279 -0.1779
 3551SOL     OW22111   0.385   0.727   7.243 -0.1355  0.4746 -0.5751
 3551SOL    HW122112   0.324   0.778   7.189 -0.0593  0.4428 -0.6915
 3551SOL    HW222113   0.424   0.662   7.185 -0.1045  0.5007 -0.5840
 3552SOL     OW22114   2.343   2.604   4.353  0.0862  0.3392  0.2102
 3552SOL    HW122115   2.256   2.630   4.384  0.0361  0.9753 -0.4734
 3552SOL    HW222116   2.333   2.511   4.337 -0.3054 -0.3364  4.4021
 3553SOL     OW22117   1.424   1.269   6.792 -0.4064 -0.4898  0.3973
 3553SOL    HW122118   1.444   1.203   6.725  0.3347 -0.8568  0.9814
 3553SOL    HW222119   1.342   1.301   6.755  0.3295 -0.1559 -0.9356
 3554SOL     OW22120   3.891   1.079  11.733 -0.1769 -0.4571  0.0924
 3554SOL    HW122121   3.845   0.996  11.730 -0.4594 -0.1751 -3.0445
 3554SOL    HW222122   3.833   1.128  11.675 -0.4167  1.3810  1.8746
 3555SOL     OW22123   2.513   0.922   4.335  0.0497 -0.3215  0.2780
 3555SOL    HW122124   2.571   0.964   4.398  0.7240 -0.3557 -0.3270
 3555SOL    HW222125   2.568   0.856   4.295  0.6829  0.1171  0.4271
 3556SOL     OW22126   3.874   2.222   1.837  0.1307 -0.0183 -0.0023
 3556SOL    HW122127   3.870   2.172   1.756  6.6806 -0.7305  0.1416
 3556SOL    HW222128   3.781   2.235   1.858  0.2929  1.6898 -0.3489
 3557SOL     OW22129   1.491   0.976   7.419  0.6879  0.2963 -0.1829
 3557SOL    HW122130   1.504   1.013   7.331  2.1398  0.9906  0.3160
 3557SOL    HW222131   1.545   0.901   7.393  0.5154 -0.0364  0.4243
 3558SOL     OW22132   0.055   4.397   4.017  0.7349 -0.3446  0.4085
 3558SOL    HW122133   0.087   4.488   4.016 -0.0225 -0.0901 -0.2917
 3558SOL    HW222134   0.039   4.381   4.109 -0.2844 -3.2668 -0.2967
 3559SOL     OW22135   3.212   0.726   7.333 -0.8547  0.6861 -0.6946
 3559SOL    HW122136   3.118   0.708   7.332 -0.5313 -1.0527 -0.5905
 3559SOL    HW222137   3.249   0.639   7.317 -1.6746 -0.0742  1.5578
 3560SOL     OW22138   3.199   4.579  12.731 -0.0172 -0.3257  0.8154
 3560SOL    HW122139   3.199   4.670  12.759  1.0126 -0.9678  2.9412
 3560SOL    HW222140   3.106   4.576  12.710 -0.0971 -1.7129  1.3354
 3561SOL     OW22141   3.183   3.575  15.979  0.8162 -0.9258 -0.0005
 3561SOL    HW122142   3.120   3.637  15.943  0.8331 -1.4625 -0.9598
 3561SOL    HW222143   3.144   3.492  15.949  2.4049 -1.5773 -0.2513
 3562SOL     OW22144   3.911   1.369   8.727 -0.3273 -0.1518 -0.6478
 3562SOL    HW122145   3.974   1.360   8.655  0.6784 -1.6638  0.3993
 3562SOL    HW222146   3.834   1.406   8.684 -0.2643 -0.3229 -0.9117
 3563SOL     OW22147   1.243   0.664   2.665  0.7029  0.3471 -0.7442
 3563SOL    HW122148   1.218   0.741   2.716  0.0048 -1.0267  0.9928
 3563SOL    HW222149   1.290   0.615   2.732 -1.3651 -2.1985 -1.1769
 3564SOL     OW22150   4.242   2.921  10.586  0.2956 -0.3505  0.3068
 3564SOL    HW122151   4.186   2.852  10.622  2.9166 -0.7914  3.4778
 3564SOL    HW222152   4.321   2.874  10.560  0.2948  0.0421 -0.4102
 3565SOL     OW22153   1.833   1.939   4.157  1.0314 -0.2346  0.2717
 3565SOL    HW122154   1.893   1.960   4.085  0.1051 -3.1075 -1.3625
 3565SOL    HW222155   1.888   1.921   4.234  0.9979  0.7006  0.5096
 3566SOL     OW22156   2.918   0.926   7.984 -0.5030  0.2248  0.0531
 3566SOL    HW122157   2.981   0.891   7.922 -0.1383 -2.8809  2.2087
 3566SOL    HW222158   2.954   1.015   7.992  0.6503 -0.4315  2.0914
 3567SOL     OW22159   1.808   3.837   2.433  0.4404 -0.8863  0.0030
 3567SOL    HW122160   1.798   3.920   2.386  1.8516 -0.4719  0.4260
 3567SOL    HW222161   1.743   3.854   2.501  2.2283  1.7866  1.0792
 3568SOL     OW22162   3.628   0.725   7.137 -0.8066  0.0079  0.3706
 3568SOL    HW122163   3.689   0.655   7.160 -0.4056  0.7132  1.4511
 3568SOL    HW222164   3.640   0.800   7.196  1.6770 -1.7320  2.0736
 3569SOL     OW22165   3.762   0.834   5.208  0.3650  0.0359 -0.5061
 3569SOL    HW122166   3.811   0.856   5.129  1.1910  0.5313  0.1463
 3569SOL    HW222167   3.747   0.924   5.237 -0.7028 -0.7864  1.5074
 3570SOL     OW22168   1.257   4.086   1.725 -0.1268  0.0052  0.3554
 3570SOL    HW122169   1.327   4.034   1.766 -0.7669 -1.4027 -0.3331
 3570SOL    HW222170   1.277   4.056   1.636 -0.1963  1.0632 -0.0175
 3571SOL     OW22171   4.601   4.317  13.443  0.0905  0.2488 -0.6087
 3571SOL    HW122172   4.534   4.362  13.391  0.1152  0.8472 -0.1099
 3571SOL    HW222173   4.547   4.270  13.507  0.6977 -0.7321 -0.8226
 3572SOL     OW22174   1.704   2.138   3.979 -0.2361  0.7238  0.1599
 3572SOL    HW122175   1.759   2.101   4.048  0.1739  1.0500  0.0094
 3572SOL    HW222176   1.617   2.115   4.010  0.0522 -0.8971 -0.2607
 3573SOL     OW22177   3.575   2.225  10.016 -0.2968  0.3942  0.5542
 3573SOL    HW122178   3.516   2.290  10.053  2.7484  2.0761  2.4539
 3573SOL    HW222179   3.528   2.146  10.041 -2.6143  0.8996 -2.2234
 3574SOL     OW22180   2.749   4.601   8.568  0.0772  0.0440 -0.0614
 3574SOL    HW122181   2.782   4.678   8.614  1.7784  0.6613 -2.3030
 3574SOL    HW222182   2.826   4.543   8.568 -0.6307 -0.9051  2.9825
 3575SOL     OW22183   1.315   2.702   4.136  0.3530  0.1863 -0.1856
 3575SOL    HW122184   1.242   2.754   4.103  1.2739  0.5655 -1.6112
 3575SOL    HW222185   1.369   2.703   4.056  0.7051 -0.5063  0.0420
 3576SOL     OW22186   1.081   4.090   5.283  0.3421  0.0161 -0.0196
 3576SOL    HW122187   1.171   4.067   5.308  0.4114 -0.6839 -0.9211
 3576SOL    HW222188   1.033   4.009   5.299  1.7817 -0.7221  0.5974
 3577SOL     OW22189   3.246   2.085   4.150 -0.5121  0.4552 -0.0888
 3577SOL    HW122190   3.249   2.146   4.224  0.1091 -0.0799  0.3339
 3577SOL    HW222191   3.294   2.006   4.178 -0.1453  1.1305  1.1961
 3578SOL     OW22192   0.485   4.581   6.424 -0.1748  0.4444  0.6599
 3578SOL    HW122193   0.500   4.650   6.359 -0.3727  0.7388  0.9240
 3578SOL    HW222194   0.445   4.519   6.364 -1.9264  0.3497  1.9150
 3579SOL     OW22195   1.223   2.180   2.524  0.4381 -0.2514 -0.1784
 3579SOL    HW122196   1.144   2.223   2.491  0.4645  0.1297  0.2515
 3579SOL    HW222197   1.184   2.096   2.546  2.6106 -1.2200 -0.0938
 3580SOL     OW22198   0.513   3.797  10.911  0.8933 -0.0871 -0.5145
 3580SOL    HW122199   0.575   3.843  10.855 -0.4641  1.4811 -0.7554
 3580SOL    HW222200   0.504   3.862  10.981  1.8846  0.1383 -0.5935
 3581SOL     OW22201   4.584   0.032   2.628 -0.4145 -0.3083 -0.2975
 3581SOL    HW122202   4.534   0.103   2.587 -1.3609 -1.3999 -1.0488
 3581SOL    HW222203   4.512   4.699   2.651 -0.8797  0.4213  0.1031
 3582SOL     OW22204   0.384   2.361   1.848  0.3867  0.0500 -0.1126
 3582SOL    HW122205   0.435   2.285   1.873 -0.4959 -0.1276  1.1851
 3582SOL    HW222206   0.419   2.382   1.761  0.3511 -0.4816 -0.2538
 3583SOL     OW22207   2.317   2.360   5.644 -0.1892  0.0513  0.2219
 3583SOL    HW122208   2.297   2.431   5.705 -1.7027 -1.2912  1.3200
 3583SOL    HW222209   2.292   2.292   5.707  1.7451 -0.3327  0.5825
 3584SOL     OW22210   0.690   2.844  10.145  0.0269 -0.2111 -0.5678
 3584SOL    HW122211   0.784   2.855  10.159 -0.1626  0.5433  0.1002
 3584SOL    HW222212   0.668   2.796  10.224 -0.4829 -0.3358 -0.7875
 3585SOL     OW22213   4.056   1.601   3.877  0.6723  0.6335 -0.0332
 3585SOL    HW122214   4.109   1.664   3.828  0.2126  2.6399  2.0775
 3585SOL    HW222215   4.125   1.536   3.891 -1.0902 -1.0862  0.7438
 3586SOL     OW22216   1.031   0.530   0.235  0.2910 -0.5791 -0.1992
 3586SOL    HW122217   1.039   0.547   0.141  0.8051  1.3876  0.1988
 3586SOL    HW222218   1.094   0.594   0.267  2.5356 -2.8828 -0.0163
 3587SOL     OW22219   1.564   3.320  16.882 -0.2322 -0.1550 -0.3306
 3587SOL    HW122220   1.607   3.234  16.885  0.9833  0.3914 -1.9714
 3587SOL    HW222221   1.489   3.298  16.937  0.1043  1.5146  0.7777
 3588SOL     OW22222   0.943   0.079   6.223  0.0641 -0.1256 -0.9293
 3588SOL    HW122223   1.024   0.114   6.185 -0.5215  2.2926  0.0908
 3588SOL    HW222224   0.972   4.713   6.218  3.5562  1.1300 -3.5088
 3589SOL     OW22225   1.075   4.227   4.423  0.6987 -0.4314 -0.2667
 3589SOL    HW122226   1.045   4.142   4.392  0.8067  0.5521 -3.0691
 3589SOL    HW222227   1.000   4.259   4.473  1.6851 -2.5693  2.5644
 3590SOL     OW22228   1.685   3.056   2.031 -0.6432  0.4904  0.0741
 3590SOL    HW122229   1.779   3.044   2.043 -0.5241  0.1511 -1.1080
 3590SOL    HW222230   1.678   3.017   1.943  1.7798  1.6287 -0.6237
 3591SOL     OW22231   0.278   0.553   5.124 -0.3786 -0.4545  0.1144
 3591SOL    HW122232   0.242   0.515   5.204  0.1215 -0.9660  0.0977
 3591SOL    HW222233   0.209   0.607   5.085  0.0745  1.8029  2.4412
 3592SOL     OW22234   2.426   0.962   8.269  0.3940  0.1067 -0.7524
 3592SOL    HW122235   2.503   0.969   8.325 -0.2849 -2.5377  0.5186
 3592SOL    HW222236   2.456   0.932   8.183 -0.4310  0.5172 -1.1807
 3593SOL     OW22237   4.459   2.697   5.101 -0.2139  0.0836 -0.3242
 3593SOL    HW122238   4.482   2.731   5.015  3.0597  2.3065  1.4043
 3593SOL    HW222239   4.426   2.778   5.141  1.1148  1.2119 -1.5094
 3594SOL     OW22240   1.216   3.747   7.113  0.7753  0.4708  0.3202
 3594SOL    HW122241   1.252   3.673   7.162  0.3731  0.1695  0.1592
 3594SOL    HW222242   1.258   3.823   7.155 -0.6983  0.8518  1.0905
 3595SOL     OW22243   2.644   0.812   6.390 -0.4266 -0.4691  0.4850
 3595SOL    HW122244   2.729   0.820   6.434 -0.6451 -2.7405  1.3291
 3595SOL    HW222245   2.634   0.895   6.344  0.6060 -1.2036 -1.1025
 3596SOL     OW22246   3.366   0.214  11.774 -0.1666 -0.0323 -0.1553
 3596SOL    HW122247   3.453   0.177  11.759 -0.1176  0.9978 -2.4436
 3596SOL    HW222248   3.365   0.249  11.863  1.3431  0.4150 -0.3214
 3597SOL     OW22249   3.591   2.446  12.438  0.5645 -0.4832  0.0329
 3597SOL    HW122250   3.570   2.524  12.491 -0.9043 -0.9332  0.1287
 3597SOL    HW222251   3.502   2.415  12.419  0.3106  1.1068 -1.3388
 3598SOL     OW22252   3.565   0.748   0.187  0.1934  0.7745 -0.0205
 3598SOL    HW122253   3.549   0.829   0.236  0.0071 -0.0714  1.3440
 3598SOL    HW222254   3.659   0.760   0.177 -0.1537  2.4311 -1.2793
 3599SOL     OW22255   2.383   4.632  11.925  0.4583 -0.2324  0.0623
 3599SOL    HW122256   2.378   4.608  11.832 -0.5922  2.6536 -0.6383
 3599SOL    HW222257   2.445   4.564  11.949  0.7838  0.0612  0.0596
 3600SOL     OW22258   2.055   0.603  16.258 -0.2015 -0.3024 -0.2616
 3600SOL    HW122259   2.133   0.653  16.284 -0.0100 -0.7873  0.0900
 3600SOL    HW222260   2.060   0.612  16.162 -0.0219 -3.6015 -0.5496
 3601SOL     OW22261   3.553   2.036  15.444  0.2362  0.2607 -0.3722
 3601SOL    HW122262   3.544   1.984  15.363  0.3465  0.0386 -0.2440
 3601SOL    HW222263   3.649   2.043  15.438  0.1895  1.6151  0.7237
 3602SOL     OW22264   4.469   3.091   2.853  0.3968  0.1159 -0.5675
 3602SOL    HW122265   4.438   3.126   2.770  1.7511  0.8510 -0.7586
 3602SOL    HW222266   4.560   3.120   2.857  1.2214 -2.4775 -0.5698
 3603SOL     OW22267   4.329   2.611  11.787 -0.0686  0.0085  0.7122
 3603SOL    HW122268   4.264   2.681  11.779 -0.2951 -0.0640  1.9104
 3603SOL    HW222269   4.398   2.649  11.841  1.3350  0.8571 -1.7049
 3604SOL     OW22270   0.276   4.351   7.969  0.0977 -0.1445  0.3045
 3604SOL    HW122271   0.230   4.388   7.894  2.4939 -0.3015 -1.2497
 3604SOL    HW222272   0.359   4.399   7.965 -0.8248  1.4678  0.2336
 3605SOL     OW22273   0.158   4.591  16.425 -0.3849 -0.0182  0.2033
 3605SOL    HW122274   0.180   4.544  16.344  1.7300 -0.1066  0.8227
 3605SOL    HW222275   0.158   4.522  16.491  0.6597 -1.9148 -1.7360
 3606SOL     OW22276   1.958   4.409  12.577  0.3889 -0.4342  0.0568
 3606SOL    HW122277   2.046   4.417  12.614  0.0355  2.3588  0.2847
 3606SOL    HW222278   1.935   4.502  12.581 -0.3537 -0.5604 -1.1718
 3607SOL     OW22279   2.924   1.569   4.857 -0.5748  0.1391  0.2834
 3607SOL    HW122280   2.882   1.517   4.788  1.5679 -1.3604  0.1046
 3607SOL    HW222281   2.893   1.537   4.942  1.4928 -0.3825  0.8490
 3608SOL     OW22282   3.917   1.698  16.162  0.5995  0.1100 -0.1848
 3608SOL    HW122283   3.879   1.629  16.217  0.7856  0.5506  0.4990
 3608SOL    HW222284   3.971   1.644  16.105 -1.7855 -2.1552 -0.2857
 3609SOL     OW22285   2.874   1.538   2.090  0.9979 -0.3453 -0.0464
 3609SOL    HW122286   2.820   1.460   2.085  0.9286 -0.3241  0.4044
 3609SOL    HW222287   2.940   1.507   2.152  0.8081  1.3326  1.0234
 3610SOL     OW22288   0.907   2.680   4.675  0.1991  0.1743  0.2303
 3610SOL    HW122289   0.851   2.619   4.724 -1.4252  2.5792  1.3312
 3610SOL    HW222290   0.838   2.739   4.647 -0.2531 -0.3019  0.3371
 3611SOL     OW22291   0.735   2.683  12.948 -0.4210  0.3038 -0.0786
 3611SOL    HW122292   0.761   2.748  13.013 -0.1446  0.7788 -0.6696
 3611SOL    HW222293   0.786   2.723  12.879 -2.0498 -1.4349 -2.2953
 3612SOL     OW22294   0.794   1.669   3.036  0.7784  0.1723 -0.0652
 3612SOL    HW122295   0.744   1.667   3.118  0.2431 -0.3098 -0.4048
 3612SOL    HW222296   0.761   1.590   2.994  2.9839 -1.1457  0.6672
 3613SOL     OW22297   1.409   1.780   5.406 -0.5539 -0.1766  0.0904
 3613SOL    HW122298   1.485   1.744   5.361 -2.3038 -0.5520 -2.5080
 3613SOL    HW222299   1.353   1.771   5.330  0.2415 -1.4628 -0.3533
 3614SOL     OW22300   4.121   3.425   0.927 -0.1121  0.2788 -0.3189
 3614SOL    HW122301   4.077   3.356   0.976 -0.5901  0.7277 -0.1167
 3614SOL    HW222302   4.196   3.376   0.893 -0.0005  0.2319 -0.0073
 3615SOL     OW22303   1.180   1.708   0.808  0.0153 -0.0281 -0.2171
 3615SOL    HW122304   1.263   1.662   0.820 -0.5186 -1.3069 -1.2902
 3615SOL    HW222305   1.134   1.637   0.762  0.2728  1.0887 -2.1768
 3616SOL     OW22306   3.685   0.453   9.283  0.1277 -0.4753  0.8613
 3616SOL    HW122307   3.766   0.466   9.331  0.3661  0.5441  0.1706
 3616SOL    HW222308   3.697   0.514   9.210  0.5649 -2.3540 -0.6729
 3617SOL     OW22309   4.232   4.286   5.038 -0.8726 -0.2848 -0.2356
 3617SOL    HW122310   4.239   4.243   4.953  0.7911  1.2932 -0.9193
 3617SOL    HW222311   4.180   4.233   5.098 -1.9995  1.8419  0.6976
 3618SOL     OW22312   0.671   1.982   8.437 -0.0123 -0.5930 -0.1995
 3618SOL    HW122313   0.674   1.951   8.527 -2.1510 -2.1185 -0.6700
 3618SOL    HW222314   0.763   2.002   8.420 -0.3613 -0.2367 -1.6521
 3619SOL     OW22315   0.447   2.573   3.450  0.7115  0.6082  0.3448
 3619SOL    HW122316   0.387   2.518   3.501  1.2870  0.0264  0.4011
 3619SOL    HW222317   0.529   2.574   3.500  1.1500 -1.4600 -0.3278
 3620SOL     OW22318   1.439   1.670   8.684  0.2020 -0.4210  0.2196
 3620SOL    HW122319   1.500   1.614   8.732 -0.4021 -0.3894  1.0262
 3620SOL    HW222320   1.471   1.759   8.699  0.3141 -0.3890 -0.2333
 3621SOL     OW22321   1.688   1.415   3.726 -0.7413 -0.4870 -0.0074
 3621SOL    HW122322   1.653   1.480   3.787  2.6168  1.7601 -0.4355
 3621SOL    HW222323   1.615   1.424   3.665 -0.3090 -1.0567 -0.6140
 3622SOL     OW22324   1.874   1.571   2.251 -0.0888  0.5638  0.1591
 3622SOL    HW122325   1.788   1.549   2.213  0.6789 -1.4893 -0.3733
 3622SOL    HW222326   1.908   1.608   2.169  1.0695 -1.1886 -0.1336
 3623SOL     OW22327   0.058   2.286  11.009 -0.2517 -0.1921  0.5700
 3623SOL    HW122328   0.052   2.228  11.085 -0.0781 -0.7614  0.1502
 3623SOL    HW222329   0.100   2.361  11.053 -1.1678  0.2648  0.6579
 3624SOL     OW22330   0.628   2.093  13.485 -0.0894  0.3000 -0.0211
 3624SOL    HW122331   0.637   2.176  13.438  0.6659 -0.4491 -1.1971
 3624SOL    HW222332   0.655   2.118  13.573 -0.0283 -2.3235  0.6968
 3625SOL     OW22333   1.746   1.943  13.311 -0.0378  0.0051  0.1006
 3625SOL    HW122334   1.668   2.000  13.311  1.6692  2.2966 -3.7485
 3625SOL    HW222335   1.819   2.002  13.329  0.6326 -0.0636 -2.3843
 3626SOL     OW22336   1.317   4.271   7.056  0.3981  0.0180 -0.1710
 3626SOL    HW122337   1.345   4.298   6.968 -4.7195  1.0350 -1.5107
 3626SOL    HW222338   1.229   4.235   7.044  0.7043 -1.5193  2.3511
 3627SOL     OW22339   4.221   0.207  16.483 -0.1193 -0.3033  0.2970
 3627SOL    HW122340   4.312   0.177  16.484 -0.2508 -0.7478 -1.1429
 3627SOL    HW222341   4.189   0.155  16.557  0.6726 -1.8200 -0.4206
 3628SOL     OW22342   4.237   1.206   6.738  0.3786 -0.3110 -0.2365
 3628SOL    HW122343   4.195   1.289   6.715  0.0686 -0.5232 -0.4415
 3628SOL    HW222344   4.164   1.148   6.717  0.3113  0.7876 -2.9568
 3629SOL     OW22345   4.660   1.247  17.677 -0.2307 -0.0050 -0.4831
 3629SOL    HW122346   4.657   1.288  17.591 -0.4311  0.8462 -0.0760
 3629SOL    HW222347   4.583   1.282   0.019 -0.1041 -0.0622 -0.2150
 3630SOL     OW22348   3.701   2.054   5.482 -0.7489  0.2645 -0.3252
 3630SOL    HW122349   3.649   1.992   5.532 -0.4806  1.4526  1.4394
 3630SOL    HW222350   3.789   2.016   5.484  0.6783  3.6236  0.1249
 3631SOL     OW22351   4.254   2.686  17.074  0.1592  0.1845 -0.0626
 3631SOL    HW122352   4.303   2.625  17.018 -0.7558  0.7865 -1.4963
 3631SOL    HW222353   4.256   2.767  17.023 -0.1065 -0.5265 -1.1984
 3632SOL     OW22354   2.294   0.832  15.762 -0.1548  0.1172 -0.3555
 3632SOL    HW122355   2.221   0.875  15.807  1.2143  1.0662  0.9774
 3632SOL    HW222356   2.310   0.766  15.830  0.9533  1.6384  0.8697
 3633SOL     OW22357   2.262   0.520   2.991 -0.2674  0.0959  0.2162
 3633SOL    HW122358   2.227   0.580   2.925  2.6148  0.0051 -1.3712
 3633SOL    HW222359   2.345   0.562   3.012  0.1186 -0.4902 -0.1301
 3634SOL     OW22360   0.083   3.983  16.430  0.4133 -0.8597 -0.0965
 3634SOL    HW122361   0.086   4.008  16.522 -0.8961  2.8516 -1.0818
 3634SOL    HW222362   0.136   3.903  16.434  2.8559  0.6825 -1.6871
 3635SOL     OW22363   1.348   2.298   0.468 -0.8354 -0.3612  0.1286
 3635SOL    HW122364   1.366   2.302   0.562 -2.2930 -0.8654  0.4196
 3635SOL    HW222365   1.410   2.230   0.441 -0.4205 -1.3673  3.5280
 3636SOL     OW22366   0.516   4.363   2.341 -0.1532 -0.0806  0.1507
 3636SOL    HW122367   0.530   4.446   2.295  1.5598 -1.0054 -1.0027
 3636SOL    HW222368   0.594   4.363   2.396 -0.2120 -1.6815  0.2430
 3637SOL     OW22369   0.332   0.329   2.959  0.4094 -0.0834 -0.3666
 3637SOL    HW122370   0.427   0.340   2.965  0.4294  1.2009 -3.1767
 3637SOL    HW222371   0.321   0.244   2.917  1.8079 -0.8218  0.7772
 3638SOL     OW22372   2.526   0.139   4.299 -0.0296 -0.3653  0.0092
 3638SOL    HW122373   2.515   0.230   4.326  0.2463 -0.3104 -0.0685
 3638SOL    HW222374   2.446   0.130   4.247 -0.8275  0.6235  1.0465
 3639SOL     OW22375   1.704   1.864   7.036 -0.2391  0.0836 -0.0557
 3639SOL    HW122376   1.783   1.873   7.088 -0.0757  0.8431 -0.4432
 3639SOL    HW222377   1.723   1.790   6.978  0.7111  2.2134 -2.4454
 3640SOL     OW22378   1.639   2.049   8.020  0.2615  0.1981  0.3770
 3640SOL    HW122379   1.606   1.976   8.071 -0.3952 -0.0119 -0.3535
 3640SOL    HW222380   1.707   2.088   8.076  0.7530 -2.0299  1.3228
 3641SOL     OW22381   1.467   3.772   4.368 -0.5667  0.4319  0.0376
 3641SOL    HW122382   1.482   3.775   4.273  1.6297 -0.4017  0.3411
 3641SOL    HW222383   1.391   3.830   4.376 -0.5646  0.2651  1.3432
 3642SOL     OW22384   4.100   0.985   2.998  0.5335 -0.2257  0.1107
 3642SOL    HW122385   4.177   1.037   3.020  0.1114  1.1534 -1.6714
 3642SOL    HW222386   4.111   0.915   3.063 -2.2070 -1.1119 -0.3841
 3643SOL     OW22387   0.613   4.467   7.156  0.0663  0.0762 -0.5209
 3643SOL    HW122388   0.549   4.448   7.087 -2.9341 -0.1024  2.3415
 3643SOL    HW222389   0.613   4.561   7.138 -2.0203  0.3227  0.8244
 3644SOL     OW22390   2.914   1.756   4.383 -0.4035 -0.0789  0.1116
 3644SOL    HW122391   2.927   1.767   4.289 -0.3182  0.6340  0.2066
 3644SOL    HW222392   2.890   1.663   4.391 -1.7016  0.0599 -2.0652
 3645SOL     OW22393   1.253   0.471  12.304 -0.0004 -0.3098  0.6413
 3645SOL    HW122394   1.292   0.440  12.386 -0.8351 -0.7342  0.8781
 3645SOL    HW222395   1.213   0.545  12.349  0.8986  1.9268 -2.2070
 3646SOL     OW22396   0.928   1.111   3.444 -0.4066 -0.3443 -0.1007
 3646SOL    HW122397   0.874   1.166   3.388  0.5870 -0.0952 -0.8065
 3646SOL    HW222398   0.880   1.028   3.438  0.5576 -1.0049  1.2926
 3647SOL     OW22399   4.313   0.951  14.852  0.1375 -0.0235 -0.4835
 3647SOL    HW122400   4.320   0.922  14.943 -0.4096 -1.2560 -0.8369
 3647SOL    HW222401   4.267   0.874  14.820 -0.9588  0.7010 -0.6197
 3648SOL     OW22402   3.556   2.116  14.741  0.5849 -0.2281 -0.1095
 3648SOL    HW122403   3.583   2.207  14.732  0.4476  0.0663  2.4636
 3648SOL    HW222404   3.474   2.121  14.691  0.8287  1.3005 -0.3421
 3649SOL     OW22405   3.075   2.770   8.012 -0.6560 -0.6495 -0.3957
 3649SOL    HW122406   3.021   2.696   7.984 -0.0617 -1.0135 -0.5729
 3649SOL    HW222407   3.030   2.836   7.959 -0.8468  0.4733  1.1798
 3650SOL     OW22408   0.058   2.258   2.711  0.5984 -0.8132  0.4331
 3650SOL    HW122409   0.093   2.196   2.647  0.1703  1.0419 -1.6115
 3650SOL    HW222410   0.058   2.214   2.796 -0.7024  0.9729  1.3572
 3651SOL     OW22411   0.772   3.997   6.455 -0.1757  0.5600 -0.2517
 3651SOL    HW122412   0.781   3.977   6.549 -0.9689 -0.3589 -0.3711
 3651SOL    HW222413   0.787   3.908   6.421 -0.7959  0.3343  0.0713
 3652SOL     OW22414   4.292   2.242   5.753 -0.0400  0.2132 -0.1334
 3652SOL    HW122415   4.305   2.277   5.665 -0.7687 -1.1376 -0.7821
 3652SOL    HW222416   4.381   2.230   5.787 -0.1171  1.2137  0.4291
 3653SOL     OW22417   4.539   2.821  12.376 -0.0140 -0.0341  0.3479
 3653SOL    HW122418   4.474   2.750  12.374 -0.3216  0.3746 -3.0872
 3653SOL    HW222419   4.490   2.895  12.341  2.3024  2.0363  1.5280
 3654SOL     OW22420   4.016   1.335   1.560  0.3553  0.0780  0.5458
 3654SOL    HW122421   3.985   1.377   1.640 -0.6100 -0.8317  0.6531
 3654SOL    HW222422   4.055   1.253   1.592  1.8675  0.6899  0.2651
 3655SOL     OW22423   3.113   4.401   0.090  0.1388  0.0295 -0.0254
 3655SOL    HW122424   3.165   4.482   0.096  0.9213 -0.4138 -0.8695
 3655SOL    HW222425   3.169   4.332   0.054 -0.6401 -0.4573 -0.3038
 3656SOL     OW22426   0.660   1.540   0.480  0.2071 -0.1885  0.5847
 3656SOL    HW122427   0.754   1.524   0.473  0.3121 -1.0532  4.0150
 3656SOL    HW222428   0.651   1.574   0.569 -1.1386 -1.0444  0.7904
 3657SOL     OW22429   2.600   2.221   7.700  0.2694  0.2941 -0.4585
 3657SOL    HW122430   2.595   2.244   7.793 -0.7024 -0.4216 -0.3312
 3657SOL    HW222431   2.671   2.278   7.673  0.1897 -0.2153 -1.7465
 3658SOL     OW22432   1.407   4.180   2.760 -0.4723  0.1420 -0.4956
 3658SOL    HW122433   1.355   4.101   2.775  0.3605 -0.2602  0.2703
 3658SOL    HW222434   1.379   4.181   2.669  0.4871  1.6933 -0.7667
 3659SOL     OW22435   1.423   1.234   9.239 -0.2866 -0.3413  0.0521
 3659SOL    HW122436   1.517   1.231   9.219 -0.8904 -0.9634 -2.7500
 3659SOL    HW222437   1.425   1.290   9.316 -1.6077 -0.5281  0.2189
 3660SOL     OW22438   3.418   0.641   9.455  0.2156 -0.3949  0.1678
 3660SOL    HW122439   3.394   0.631   9.547 -1.0873 -1.6729 -0.3209
 3660SOL    HW222440   3.511   0.665   9.461  0.0820  0.3280 -0.6386
 3661SOL     OW22441   0.269   2.915  11.037  0.4187 -0.1975 -0.4925
 3661SOL    HW122442   0.256   2.838  10.981 -0.9573  0.1781 -0.7098
 3661SOL    HW222443   0.364   2.919  11.042  0.4094 -1.9106  1.1719
 3662SOL     OW22444   3.843   3.346  17.089  0.7629  0.4968  0.2586
 3662SOL    HW122445   3.938   3.334  17.088  0.8153  0.9531 -0.0562
 3662SOL    HW222446   3.837   3.432  17.048  3.3967  1.1941  1.3703
 3663SOL     OW22447   3.755   0.033   8.192  0.0798 -0.0622  0.0204
 3663SOL    HW122448   3.765   4.713   8.107  0.3905  1.6748 -0.8626
 3663SOL    HW222449   3.682   0.091   8.172  0.4671 -0.1391 -1.6280
 3664SOL     OW22450   4.503   0.566  15.872 -0.2462 -0.6195  0.0330
 3664SOL    HW122451   4.591   0.568  15.909 -0.5344  1.2495  0.6260
 3664SOL    HW222452   4.458   0.614  15.941 -0.0538 -1.7074  0.9103
 3665SOL     OW22453   3.888   1.245   4.931  0.2866 -0.2722 -0.3243
 3665SOL    HW122454   3.983   1.239   4.928  0.1734 -0.6306 -2.6018
 3665SOL    HW222455   3.872   1.203   4.847 -2.3718  1.1805 -0.5585
 3666SOL     OW22456   1.651   3.384   9.334  0.0460 -0.1981 -0.2894
 3666SOL    HW122457   1.681   3.335   9.410  1.7214 -1.0945 -1.5326
 3666SOL    HW222458   1.708   3.460   9.345 -0.5125  0.4926 -2.1656
 3667SOL     OW22459   0.637   4.243   0.310  0.1508 -0.4440  0.7368
 3667SOL    HW122460   0.671   4.273   0.394 -2.3588 -0.1694  1.6555
 3667SOL    HW222461   0.710   4.270   0.255 -0.3426  1.0959  0.8449
 3668SOL     OW22462   0.070   2.930   9.498  0.3568 -0.2032  0.6622
 3668SOL    HW122463   0.165   2.937   9.506  0.3228  0.2951  0.6304
 3668SOL    HW222464   0.059   2.989   9.423  1.3746 -0.9882 -0.1070
 3669SOL     OW22465   3.007   3.570   8.595 -0.6367 -0.0028 -0.4770
 3669SOL    HW122466   3.047   3.606   8.515  1.1851  0.3113  0.5722
 3669SOL    HW222467   2.915   3.593   8.581 -0.4884  1.2838  0.6874
 3670SOL     OW22468   3.215   2.079   0.662  0.4330  0.2347  0.3084
 3670SOL    HW122469   3.168   2.001   0.691 -2.7917  1.9418 -0.2758
 3670SOL    HW222470   3.288   2.035   0.618  1.0878  0.8558  0.7624
 3671SOL     OW22471   2.161   4.445  16.415  0.1296 -0.0940 -0.4794
 3671SOL    HW122472   2.160   4.358  16.457  1.0438  0.2461  0.2541
 3671SOL    HW222473   2.246   4.479  16.443  0.3332  1.1148 -2.5876
 3672SOL     OW22474   3.739   4.675   4.903  0.4093 -0.4016  0.1131
 3672SOL    HW122475   3.754   0.040   4.874  0.7208 -0.8735 -1.1864
 3672SOL    HW222476   3.708   4.627   4.826  0.1551  0.8827 -0.5787
 3673SOL     OW22477   4.638   0.584   5.204  0.0344  0.6932  0.2236
 3673SOL    HW122478   4.661   0.510   5.261 -0.2521  0.7997  0.4762
 3673SOL    HW222479   4.602   0.529   5.134 -0.7781  0.5757  0.7364
 3674SOL     OW22480   2.371   0.484   3.567  0.2072 -0.0841 -0.5113
 3674SOL    HW122481   2.340   0.543   3.498 -1.7003  1.2560  1.4885
 3674SOL    HW222482   2.299   0.422   3.556  1.2209 -1.0817 -1.4632
 3675SOL     OW22483   2.326   3.934   5.697  0.1641  0.1140  0.4768
 3675SOL    HW122484   2.392   3.877   5.657  0.6313  0.2335  1.0650
 3675SOL    HW222485   2.335   4.012   5.643 -0.9935 -1.7603 -2.4506
 3676SOL     OW22486   2.351   3.206   8.481 -0.0436 -0.8199  0.1199
 3676SOL    HW122487   2.261   3.197   8.514 -0.0211 -0.9928  0.1329
 3676SOL    HW222488   2.357   3.301   8.494  0.6987 -1.0563  1.4353
 3677SOL     OW22489   2.486   2.097   7.252  0.3496 -0.6655 -0.2974
 3677SOL    HW122490   2.396   2.070   7.272 -0.4740  3.1428  1.1553
 3677SOL    HW222491   2.488   2.191   7.271 -1.7836 -1.0416  1.8878
 3678SOL     OW22492   2.344   4.173   7.843 -0.3867 -0.4190  0.0354
 3678SOL    HW122493   2.339   4.130   7.928  0.7996 -1.8770 -0.6228
 3678SOL    HW222494   2.344   4.267   7.860 -0.7542 -0.0935 -1.7101
 3679SOL     OW22495   3.073   1.252   7.483  0.5122  0.8374 -0.9371
 3679SOL    HW122496   3.135   1.230   7.552  0.6706  1.5132 -0.8615
 3679SOL    HW222497   3.037   1.337   7.510 -1.0806 -0.7071  1.8475
 3680SOL     OW22498   1.543   3.890  16.056 -0.6278  0.5647 -0.2698
 3680SOL    HW122499   1.511   3.809  16.097  0.0044 -0.5128 -1.9203
 3680SOL    HW222500   1.617   3.913  16.112  1.4655 -0.7495 -2.5402
 3681SOL     OW22501   2.916   3.289   7.501 -0.0847  0.5790 -0.4422
 3681SOL    HW122502   2.970   3.352   7.549 -0.1852 -0.3089  0.8496
 3681SOL    HW222503   2.931   3.322   7.413 -0.0903  2.2921  0.1932
 3682SOL     OW22504   2.052   4.048   8.130  0.0853 -0.2906 -0.3550
 3682SOL    HW122505   2.044   4.137   8.166 -2.9992 -0.1016 -1.5597
 3682SOL    HW222506   2.120   4.059   8.064  0.1918 -0.7521 -0.3183
 3683SOL     OW22507   2.702   0.782   4.129  0.0336 -0.0098 -0.2322
 3683SOL    HW122508   2.727   0.701   4.086  1.1607  0.9404 -1.3448
 3683SOL    HW222509   2.769   0.844   4.100 -1.3965  2.0812  0.9248
 3684SOL     OW22510   0.283   1.983   2.609 -0.1403 -0.2642 -0.6132
 3684SOL    HW122511   0.189   1.993   2.596 -0.2054  1.6185  1.3297
 3684SOL    HW222512   0.299   1.910   2.670  1.1545 -1.2176 -2.0932
 3685SOL     OW22513   0.065   1.815   1.927  0.2318  0.0094  0.0721
 3685SOL    HW122514   4.702   1.777   1.930  0.8544 -1.2965  1.8155
 3685SOL    HW222515   0.040   1.907   1.936  1.0690 -0.1196  3.7388
 3686SOL     OW22516   1.568   1.235   4.313  0.3756 -0.0534 -0.5211
 3686SOL    HW122517   1.596   1.149   4.343  0.9781  0.4364  0.3170
 3686SOL    HW222518   1.604   1.224   4.225  0.4574 -0.4969 -0.4325
 3687SOL     OW22519   0.190   1.936  14.966 -0.2891  0.4529  0.6976
 3687SOL    HW122520   0.163   1.863  14.911 -0.6498  0.9747  0.1880
 3687SOL    HW222521   0.247   1.982  14.904 -0.5200 -0.5284 -0.2400
 3688SOL     OW22522   0.128   2.562   2.855  0.0371  0.5162 -0.3026
 3688SOL    HW122523   0.186   2.625   2.813 -0.9262  0.0395 -2.3467
 3688SOL    HW222524   0.152   2.482   2.809  0.3350  0.8118 -0.6574
 3689SOL     OW22525   0.174   2.332  10.204 -0.1637 -0.4814  0.1082
 3689SOL    HW122526   0.115   2.393  10.248  0.5765  0.8266 -0.7281
 3689SOL    HW222527   0.213   2.285  10.278  0.1034  0.3698  0.5125
 3690SOL     OW22528   0.322   2.786  11.849  0.4409 -0.3172 -0.8130
 3690SOL    HW122529   0.289   2.843  11.779  0.5554  0.2002 -0.4413
 3690SOL    HW222530   0.287   2.837  11.922  0.8294  0.3722 -1.1096
 3691SOL     OW22531   1.165   3.843   6.560  0.9579 -0.5018  0.0679
 3691SOL    HW122532   1.172   3.848   6.655  0.3004  1.2991  0.0294
 3691SOL    HW222533   1.211   3.920   6.525  0.8784  0.6881  2.6462
 3692SOL     OW22534   3.983   2.825   1.795 -0.5673 -0.2576 -0.2050
 3692SOL    HW122535   4.038   2.856   1.724  2.1465  1.2039  2.5293
 3692SOL    HW222536   4.007   2.895   1.856 -1.9280  0.3444 -0.3770
 3693SOL     OW22537   3.837   3.228   2.161 -0.3050 -0.0835  0.1044
 3693SOL    HW122538   3.783   3.259   2.234 -0.6880  1.9223 -1.0365
 3693SOL    HW222539   3.770   3.209   2.095 -0.5857  1.4951 -0.0452
 3694SOL     OW22540   0.341   1.779   0.692  0.0795 -0.7579 -0.3111
 3694SOL    HW122541   0.425   1.743   0.719  0.0363  1.5420  2.9217
 3694SOL    HW222542   0.372   1.818   0.611  1.3530  1.3532  1.2042
 3695SOL     OW22543   3.279   1.332   0.393  0.5565  0.1008  0.6670
 3695SOL    HW122544   3.240   1.264   0.448 -0.2632  0.1051  0.1031
 3695SOL    HW222545   3.303   1.286   0.313  0.8202  0.9760  0.2428
 3696SOL     OW22546   4.274   3.185   8.143  0.0299  0.0394 -0.0624
 3696SOL    HW122547   4.308   3.163   8.057 -2.9052  1.5853 -1.6081
 3696SOL    HW222548   4.352   3.189   8.199  0.6476  0.3692 -0.9514
 3697SOL     OW22549   1.833   0.868   2.015  0.0529  0.1795 -0.4646
 3697SOL    HW122550   1.848   0.775   1.996 -0.4724 -0.3572  1.7465
 3697SOL    HW222551   1.902   0.876   2.082 -1.0724 -1.4153  0.8597
 3698SOL     OW22552   3.451   4.250   7.451  0.8881 -0.5566 -0.2767
 3698SOL    HW122553   3.359   4.227   7.441  0.1920  2.2323 -0.4417
 3698SOL    HW222554   3.485   4.174   7.498  0.4358 -2.3099 -2.8118
 3699SOL     OW22555   0.868   2.677   6.659 -0.1479 -0.0684  0.6262
 3699SOL    HW122556   0.839   2.596   6.701 -0.2120 -0.3559  0.0276
 3699SOL    HW222557   0.953   2.680   6.703  0.1757 -0.5968  0.0453
 3700SOL     OW22558   1.103   2.804   3.444  0.1756 -0.2345  0.4264
 3700SOL    HW122559   1.053   2.793   3.364  1.1848 -2.7862  0.1389
 3700SOL    HW222560   1.104   2.899   3.432 -1.0086 -0.2277  0.3968
 3701SOL     OW22561   1.151   2.702   1.972 -0.0548  0.0266 -0.2065
 3701SOL    HW122562   1.206   2.778   1.990 -0.2079  0.2290 -0.5902
 3701SOL    HW222563   1.158   2.670   2.061  0.9095 -1.1449 -0.6997
 3702SOL     OW22564   4.034   1.245   5.448 -0.0492  0.0820 -0.1005
 3702SOL    HW122565   4.039   1.177   5.515  1.1759 -0.9330 -1.2149
 3702SOL    HW222566   4.034   1.197   5.365 -1.2720 -0.9246  0.4790
 3703SOL     OW22567   2.480   3.673  10.607  0.1416  0.5980 -0.1282
 3703SOL    HW122568   2.560   3.630  10.581  0.5796  0.5623  1.2565
 3703SOL    HW222569   2.478   3.636  10.695  0.4514 -0.2140 -0.4718
 3704SOL     OW22570   1.065   4.243  10.739  0.0074  0.4483  0.1627
 3704SOL    HW122571   1.000   4.248  10.809 -0.2540  0.9879 -0.1167
 3704SOL    HW222572   1.063   4.336  10.716 -0.5851  0.3602 -0.1553
 3705SOL     OW22573   1.590   1.649   9.369  0.3923  0.4173  0.2265
 3705SOL    HW122574   1.621   1.586   9.434 -0.2228 -1.7323 -1.5637
 3705SOL    HW222575   1.607   1.733   9.411 -0.5413  1.4481 -1.4641
 3706SOL     OW22576   2.546   3.221  12.206  0.5289 -0.2163  0.4381
 3706SOL    HW122577   2.614   3.277  12.167 -1.7787  2.2414 -0.0671
 3706SOL    HW222578   2.490   3.196  12.133 -0.1778  1.5758  0.3858
 3707SOL     OW22579   0.337   3.999   7.849  0.4218  0.2158  0.2800
 3707SOL    HW122580   0.249   4.021   7.818  1.4824  2.5672 -0.9898
 3707SOL    HW222581   0.343   4.042   7.934  0.6743  0.7955 -0.0363
 3708SOL     OW22582   2.398   4.355  16.291 -0.2233 -0.5480  0.4471
 3708SOL    HW122583   2.383   4.266  16.323  2.6369 -0.1073  3.0443
 3708SOL    HW222584   2.488   4.367  16.324 -1.0158  2.2194  1.5894
 3709SOL     OW22585   2.450   4.679  16.751  0.1555  0.7347  0.1243
 3709SOL    HW122586   2.433   4.716  16.837  0.1694  2.3133 -0.5584
 3709SOL    HW222587   2.435   0.036  16.705  0.2222  0.6130 -0.1143
 3710SOL     OW22588   1.969   4.259  15.971  0.2520 -0.1429 -0.0231
 3710SOL    HW122589   1.903   4.190  15.969 -0.4789  0.5786 -0.5655
 3710SOL    HW222590   1.956   4.295  16.058  0.1656 -0.5413  0.1301
 3711SOL     OW22591   3.450   2.399   3.638  0.6206  0.3466 -0.1478
 3711SOL    HW122592   3.495   2.317   3.620  3.1121  1.7445 -0.3568
 3711SOL    HW222593   3.491   2.420   3.722 -1.2163 -0.8902  1.0468
 3712SOL     OW22594   2.045   3.257   4.497  0.0059  0.2047 -0.5370
 3712SOL    HW122595   2.091   3.234   4.416  0.5461 -3.2725  0.7359
 3712SOL    HW222596   2.072   3.346   4.519  2.2852 -0.8177  0.7967
 3713SOL     OW22597   0.558   2.723   9.610 -0.5893 -0.2832  0.3675
 3713SOL    HW122598   0.649   2.744   9.592  0.1129 -1.8122  2.1327
 3713SOL    HW222599   0.537   2.663   9.539  0.2930  0.1489 -0.2611
 3714SOL     OW22600   4.427   0.136   1.908 -0.1742 -0.3564 -0.0059
 3714SOL    HW122601   4.476   0.214   1.881 -1.2035 -0.0401 -0.9557
 3714SOL    HW222602   4.490   0.066   1.893 -2.3539 -2.0687 -1.1368
 3715SOL     OW22603   1.309   2.068   0.670  0.5594 -0.2607  0.0910
 3715SOL    HW122604   1.223   2.028   0.657  0.4973 -0.3097  0.6632
 3715SOL    HW222605   1.371   1.996   0.666 -0.9388 -1.6055  1.5047
 3716SOL     OW22606   4.617   3.947  10.176  0.2719  0.1258  0.0336
 3716SOL    HW122607   4.538   3.959  10.229  0.1262  1.8134 -0.5679
 3716SOL    HW222608   4.586   3.880  10.115 -0.2656 -0.3131  0.7798
 3717SOL     OW22609   0.977   2.256   7.196 -0.2599  0.1742  0.5505
 3717SOL    HW122610   0.912   2.300   7.141 -1.7951  0.4483  2.6113
 3717SOL    HW222611   0.926   2.180   7.225 -1.3456  0.6004 -0.2180
 3718SOL     OW22612   0.805   3.802   1.220 -0.2140  0.1807  0.3321
 3718SOL    HW122613   0.785   3.884   1.175  0.8961 -0.1870 -0.8305
 3718SOL    HW222614   0.778   3.836   1.305 -1.0319 -0.6128  0.3938
 3719SOL     OW22615   1.718   2.934   2.417  0.7602 -0.2889 -0.1801
 3719SOL    HW122616   1.698   2.935   2.511  0.7261  0.4545 -0.2010
 3719SOL    HW222617   1.773   3.011   2.408 -2.1748  2.1994  3.4044
 3720SOL     OW22618   3.524   2.450  11.261  0.5018 -0.1702  0.5039
 3720SOL    HW122619   3.513   2.370  11.312 -0.5817  1.6925  3.2036
 3720SOL    HW222620   3.456   2.510  11.291 -0.4086 -0.4403 -1.0337
 3721SOL     OW22621   0.389   1.153   3.880  0.0981 -0.1776  0.1670
 3721SOL    HW122622   0.484   1.143   3.893  0.1248  1.3094  1.0881
 3721SOL    HW222623   0.356   1.079   3.930 -0.8793  1.4221  1.8837
 3722SOL     OW22624   1.736   1.479   2.728  0.0459  0.1571  0.2282
 3722SOL    HW122625   1.755   1.549   2.666  1.3461 -0.5335 -0.1700
 3722SOL    HW222626   1.704   1.530   2.802 -0.2136 -2.0131  1.6060
 3723SOL     OW22627   3.826   2.509  11.630 -0.3955 -0.4665 -0.1312
 3723SOL    HW122628   3.841   2.468  11.716 -2.1011  0.1738  0.4744
 3723SOL    HW222629   3.903   2.496  11.576  0.2509  0.0179  0.6785
 3724SOL     OW22630   1.296   1.023   1.583 -0.6579  0.1948  0.5909
 3724SOL    HW122631   1.391   1.024   1.587 -0.6184  1.6936 -0.9259
 3724SOL    HW222632   1.267   1.010   1.673  0.0428  2.3378  1.1279
 3725SOL     OW22633   1.435   2.765   3.480  0.2116  0.1109  0.2362
 3725SOL    HW122634   1.511   2.775   3.538 -0.0682 -1.1482  0.8181
 3725SOL    HW222635   1.391   2.684   3.506 -2.4622  1.8596  1.0865
 3726SOL     OW22636   3.091   1.921   8.978  0.9070  1.2963  0.2721
 3726SOL    HW122637   3.153   1.918   9.050 -2.8671  2.7823  3.5665
 3726SOL    HW222638   3.096   2.017   8.977  3.0270  1.1879 -0.2731
 3727SOL     OW22639   3.944   4.576   7.642  0.3919 -0.6075 -0.0166
 3727SOL    HW122640   3.886   4.643   7.677  0.0032  0.3754 -2.5672
 3727SOL    HW222641   3.962   4.526   7.722 -2.2861 -1.6026 -0.0315
 3728SOL     OW22642   2.040   4.042   7.504  0.0509  0.1738 -0.0728
 3728SOL    HW122643   1.991   4.111   7.547  0.1005  1.2386 -1.7276
 3728SOL    HW222644   2.078   4.003   7.583 -0.7504  1.3467  0.8786
 3729SOL     OW22645   2.848   0.739   8.375 -0.6931 -0.5223 -0.1239
 3729SOL    HW122646   2.938   0.760   8.403 -0.8669  0.3777 -0.2471
 3729SOL    HW222647   2.838   0.649   8.408 -3.1676  0.4825  1.8614
 3730SOL     OW22648   3.779   2.028   0.173  0.0038 -0.2481  0.1341
 3730SOL    HW122649   3.814   2.110   0.207 -1.5624 -0.1822  1.5801
 3730SOL    HW222650   3.820   1.969   0.235 -0.6655 -0.8482  0.0060
 3731SOL     OW22651   0.059   3.270   0.133  0.2786  0.0890  0.4189
 3731SOL    HW122652   0.001   3.228   0.197  0.8839 -0.9196  0.3073
 3731SOL    HW222653   0.140   3.219   0.136 -1.4395 -2.6054  1.1374
 3732SOL     OW22654   3.254   2.857   2.999 -0.3375 -0.0836 -0.0355
 3732SOL    HW122655   3.237   2.878   2.908  1.4307  1.1412 -0.0753
 3732SOL    HW222656   3.265   2.947   3.028 -1.0469 -0.2323  0.7171
 3733SOL     OW22657   0.680   1.936  13.802  0.3108 -0.4170 -0.4410
 3733SOL    HW122658   0.591   1.966  13.818  0.8763  0.3320  1.2564
 3733SOL    HW222659   0.661   1.847  13.771  2.3396 -0.7640 -0.6565
 3734SOL     OW22660   0.830   3.937   1.519  0.6364 -0.0324 -0.6076
 3734SOL    HW122661   0.920   3.914   1.497  1.5156  1.9505  0.9936
 3734SOL    HW222662   0.844   4.030   1.535 -0.7134  0.1809 -0.6319
 3735SOL     OW22663   0.253   2.220   6.473 -0.2801  0.6642 -0.4558
 3735SOL    HW122664   0.220   2.155   6.411 -1.4707 -0.3576  1.2575
 3735SOL    HW222665   0.269   2.170   6.553 -1.3130 -0.4795 -0.9720
 3736SOL     OW22666   4.346   0.917   0.820 -0.2897 -0.3339 -0.0854
 3736SOL    HW122667   4.412   0.983   0.841 -1.2373  0.2079  1.1739
 3736SOL    HW222668   4.374   0.878   0.737  0.4149  0.2343 -0.1096
 3737SOL     OW22669   3.769   3.629  10.394 -0.2950  0.2153 -0.1118
 3737SOL    HW122670   3.677   3.629  10.419 -0.0429 -0.1790  0.8050
 3737SOL    HW222671   3.778   3.538  10.364 -1.3713  0.8126 -2.2853
 3738SOL     OW22672   2.851   2.118  14.441  0.4442  0.1850 -0.6033
 3738SOL    HW122673   2.929   2.145  14.392  0.1302 -1.1315 -1.8310
 3738SOL    HW222674   2.792   2.192  14.426  2.4063  2.1666  1.4319
 3739SOL     OW22675   2.216   0.141   7.281 -0.2160 -0.2422 -0.3322
 3739SOL    HW122676   2.282   0.156   7.349  1.6229 -0.1675 -2.1437
 3739SOL    HW222677   2.167   0.072   7.326 -0.1325  0.5046  0.8994
 3740SOL     OW22678   0.375   2.080  15.167  0.2318  0.3905  0.0421
 3740SOL    HW122679   0.389   2.173  15.150 -1.4522  0.7774  0.7152
 3740SOL    HW222680   0.292   2.072  15.120  0.6673 -0.4833 -0.5700
 3741SOL     OW22681   1.682   3.573  12.025 -0.0429  0.4939 -0.4647
 3741SOL    HW122682   1.656   3.496  11.975  0.3387  0.1533 -0.1374
 3741SOL    HW222683   1.685   3.526  12.108 -0.1085  0.0518 -0.7150
 3742SOL     OW22684   2.595   2.412   5.585  0.2310 -0.5925  0.1674
 3742SOL    HW122685   2.600   2.467   5.663  2.0491  0.2707 -0.5664
 3742SOL    HW222686   2.500   2.399   5.590  0.0417  0.4814 -0.6588
 3743SOL     OW22687   1.364   1.422   5.534 -0.2000  0.4495 -0.1776
 3743SOL    HW122688   1.414   1.344   5.511 -0.4509  0.5579 -1.0917
 3743SOL    HW222689   1.434   1.477   5.570 -0.1481 -1.2284  2.3116
 3744SOL     OW22690   3.049   1.351   8.797 -0.2895 -0.0063  0.0066
 3744SOL    HW122691   3.106   1.404   8.742 -0.8291 -0.0497 -0.5838
 3744SOL    HW222692   2.967   1.397   8.812  0.5905  1.1301  1.3355
 3745SOL     OW22693   1.266   1.652   6.355 -0.0466 -0.3295  0.0270
 3745SOL    HW122694   1.342   1.657   6.412 -1.4845  0.7541  1.8433
 3745SOL    HW222695   1.239   1.741   6.333 -0.4058 -0.8329 -1.6121
 3746SOL     OW22696   1.864   2.020   6.287 -0.0339  0.2003 -0.1317
 3746SOL    HW122697   1.858   1.986   6.198  1.2959 -0.6217  0.0914
 3746SOL    HW222698   1.849   1.944   6.344 -0.4822 -0.4294 -1.0869
 3747SOL     OW22699   1.888   0.588   2.994 -0.2551 -0.3899  0.0193
 3747SOL    HW122700   1.834   0.535   2.935 -0.4953  0.7368 -0.7798
 3747SOL    HW222701   1.966   0.605   2.942  0.4615 -0.9387  0.9304
 3748SOL     OW22702   3.338   0.115   9.146 -0.8486  0.1305 -0.7536
 3748SOL    HW122703   3.393   0.188   9.174  0.2501 -0.9137 -0.2038
 3748SOL    HW222704   3.379   0.037   9.185  1.7240 -0.1267 -3.9600
 3749SOL     OW22705   2.581   3.487   5.498  0.2471 -0.0593  0.0576
 3749SOL    HW122706   2.655   3.542   5.527 -2.0626  2.7644  0.5634
 3749SOL    HW222707   2.549   3.448   5.579 -0.6916 -1.1501 -0.8514
 3750SOL     OW22708   4.410   1.129   1.248 -0.5300 -0.2481  0.3451
 3750SOL    HW122709   4.501   1.124   1.280 -0.0805 -2.2582 -1.2146
 3750SOL    HW222710   4.420   1.177   1.166 -1.0505 -1.1339 -0.2391
 3751SOL     OW22711   1.663   1.486  10.104 -0.1184  0.0168 -0.3650
 3751SOL    HW122712   1.752   1.499  10.072 -0.0091 -1.1263 -0.5311
 3751SOL    HW222713   1.672   1.406  10.156 -0.2590 -0.3952 -0.9782
 3752SOL     OW22714   3.867   1.708   3.236  0.0113  0.6337  0.4036
 3752SOL    HW122715   3.859   1.745   3.324  0.2688  2.5194 -0.3668
 3752SOL    HW222716   3.787   1.742   3.196 -0.4932  0.3751  1.2054
 3753SOL     OW22717   3.705   0.759   4.104  0.0374  0.0008 -0.6352
 3753SOL    HW122718   3.780   0.700   4.115  0.1635  0.2104 -0.3827
 3753SOL    HW222719   3.743   0.823   4.044 -0.6043  1.0156  0.0552
 3754SOL     OW22720   3.095   2.543  17.251  0.0687  0.2468 -0.7277
 3754SOL    HW122721   3.159   2.509  17.189  1.5299  1.4214  0.1214
 3754SOL    HW222722   3.022   2.494  17.214 -1.4087  1.6551  0.2908
 3755SOL     OW22723   2.889   3.174  14.906 -0.1762  0.1924  0.1744
 3755SOL    HW122724   2.892   3.144  14.997 -1.7896 -1.3296 -0.2727
 3755SOL    HW222725   2.973   3.141  14.873 -0.6644 -2.1179  1.2678
 3756SOL     OW22726   3.900   2.830   5.872  0.4989  0.3618 -0.1817
 3756SOL    HW122727   3.887   2.759   5.810 -2.0345 -0.5105  1.3626
 3756SOL    HW222728   3.970   2.876   5.826 -0.1118  0.5826 -0.8837
 3757SOL     OW22729   1.067   4.412  12.778 -0.2448 -0.4511  0.0932
 3757SOL    HW122730   1.015   4.452  12.707  0.7457  0.2153 -0.2491
 3757SOL    HW222731   1.012   4.335  12.792  0.5504 -0.7484  1.5295
 3758SOL     OW22732   2.144   1.152   6.798  0.2258 -0.2648  0.7809
 3758SOL    HW122733   2.183   1.184   6.880  1.0876 -1.5832  0.8780
 3758SOL    HW222734   2.181   1.206   6.728 -1.7418  1.1629  0.8378
 3759SOL     OW22735   3.810   1.536   7.715  0.2500  0.3818  0.3311
 3759SOL    HW122736   3.812   1.544   7.619 -2.8812 -1.2144  0.1173
 3759SOL    HW222737   3.773   1.449   7.734 -0.4323  0.2580 -1.4820
 3760SOL     OW22738   3.056   1.582  13.872 -0.1749 -0.0374 -0.1377
 3760SOL    HW122739   2.974   1.619  13.904  1.1874  2.5824  0.2360
 3760SOL    HW222740   3.108   1.607  13.948  0.5816 -2.1571  0.0493
 3761SOL     OW22741   1.084   2.182  17.290  0.5177  0.2370 -0.1082
 3761SOL    HW122742   1.174   2.156  17.270  0.6950 -0.1172  1.1246
 3761SOL    HW222743   1.048   2.094  17.296  1.9322 -0.4467 -1.7367
 3762SOL     OW22744   1.369   1.307   3.707 -0.0658 -0.0134  0.6743
 3762SOL    HW122745   1.338   1.222   3.739 -0.9352 -0.8941 -2.5614
 3762SOL    HW222746   1.330   1.302   3.620  0.4882  0.2034  0.4168
 3763SOL     OW22747   2.169   0.284   8.230  0.0561 -0.1229 -0.0437
 3763SOL    HW122748   2.144   0.250   8.316  0.4379  1.7430  0.8109
 3763SOL    HW222749   2.144   0.377   8.231  2.6529  0.5695  1.3856
 3764SOL     OW22750   1.542   3.483   1.261  0.4030 -0.6705  0.2569
 3764SOL    HW122751   1.506   3.440   1.183  0.1480 -1.8228  1.0041
 3764SOL    HW222752   1.562   3.571   1.229  0.0669 -0.9470 -0.7131
 3765SOL     OW22753   0.982   1.285  17.425 -0.4896 -0.4717 -0.1696
 3765SOL    HW122754   1.040   1.239  17.365 -1.5680  0.7520 -2.1674
 3765SOL    HW222755   0.916   1.317  17.364 -1.9057  0.1921  1.7010
 3766SOL     OW22756   1.259   2.095  15.207  0.2871  0.7231  0.0747
 3766SOL    HW122757   1.294   2.007  15.214 -0.3686  0.6131  2.0310
 3766SOL    HW222758   1.273   2.112  15.114  3.4804 -0.8891  0.2691
 3767SOL     OW22759   3.420   0.067  13.589  0.3313 -0.0392 -0.8665
 3767SOL    HW122760   3.487   0.047  13.524  0.9910  0.5554 -0.3731
 3767SOL    HW222761   3.343   0.089  13.536  0.0577 -3.6796 -1.9897
 3768SOL     OW22762   0.754   3.887   6.781 -0.1102 -0.2248  0.3805
 3768SOL    HW122763   0.660   3.885   6.762  0.2618 -0.4818 -1.4607
 3768SOL    HW222764   0.757   3.887   6.876  1.8248 -1.4197  0.3155
 3769SOL     OW22765   0.389   4.358   4.590  0.1774  0.0230 -0.6066
 3769SOL    HW122766   0.419   4.439   4.632  0.1526 -0.8561  1.0886
 3769SOL    HW222767   0.317   4.336   4.649  0.8068 -0.4848 -0.0210
 3770SOL     OW22768   2.573   3.296   7.263 -0.7757  0.1655 -0.2480
 3770SOL    HW122769   2.614   3.352   7.328 -0.8884  2.5043 -2.1878
 3770SOL    HW222770   2.614   3.321   7.181 -0.6077 -2.8156 -1.0622
 3771SOL     OW22771   0.761   2.789   5.050 -0.3785 -0.1361  0.2808
 3771SOL    HW122772   0.762   2.884   5.056 -1.2754  0.0342 -2.2836
 3771SOL    HW222773   0.688   2.773   4.991 -0.1594  3.9615 -1.0882
 3772SOL     OW22774   0.492   0.556   8.092  0.3108 -0.6056  0.2156
 3772SOL    HW122775   0.454   0.642   8.109 -0.9025 -1.3983  1.5071
 3772SOL    HW222776   0.544   0.589   8.019 -0.9417  1.2196  0.1402
 3773SOL     OW22777   3.109   1.196   5.810 -0.1575 -0.3241  0.1406
 3773SOL    HW122778   3.113   1.126   5.745  0.9729 -0.3613  0.2405
 3773SOL    HW222779   3.180   1.257   5.788  0.1480 -0.1383  1.6156
 3774SOL     OW22780   2.417   2.228   3.151 -0.1840 -0.3986 -0.0200
 3774SOL    HW122781   2.473   2.152   3.166 -0.0189 -0.2955 -0.1215
 3774SOL    HW222782   2.350   2.185   3.098  2.6605 -3.4507 -1.1714
 3775SOL     OW22783   0.694   3.802   5.245  0.0774  0.5583 -0.3402
 3775SOL    HW122784   0.716   3.841   5.161 -0.4550 -3.0141 -2.1482
 3775SOL    HW222785   0.602   3.821   5.262  0.6542  0.4971  2.9131
 3776SOL     OW22786   3.962   0.835   8.512  0.9403 -0.5045  0.0107
 3776SOL    HW122787   3.905   0.773   8.467 -1.6023  1.1823  0.8865
 3776SOL    HW222788   3.967   0.807   8.604 -2.9624 -1.1468  0.0485
 3777SOL     OW22789   2.012   3.141   1.352  0.3458 -0.7020 -0.1239
 3777SOL    HW122790   2.098   3.151   1.393  0.6380  0.7705 -1.0687
 3777SOL    HW222791   1.992   3.221   1.303 -0.8853 -0.8059  0.2034
 3778SOL     OW22792   1.559   3.719  10.380 -0.5160  0.2043  0.2537
 3778SOL    HW122793   1.479   3.676  10.351 -0.0130 -0.7726  0.3208
 3778SOL    HW222794   1.558   3.700  10.473 -0.0134 -2.4920 -0.2784
 3779SOL     OW22795   0.087   1.271   6.260 -0.0810 -0.3002  0.4052
 3779SOL    HW122796   0.022   1.323   6.307  0.5734 -1.7752  2.9324
 3779SOL    HW222797   0.028   1.227   6.199  0.5946  0.5362 -0.8581
 3780SOL     OW22798   0.777   2.869   8.230  0.3190  0.2171 -0.2013
 3780SOL    HW122799   0.859   2.902   8.196  0.4049 -0.0972 -0.3017
 3780SOL    HW222800   0.755   2.801   8.166 -2.0423  0.8484 -0.0544
 3781SOL     OW22801   4.687   2.548   4.027  0.0797  0.1016 -0.2783
 3781SOL    HW122802   0.023   2.613   3.993 -1.5554  0.8738 -1.7263
 3781SOL    HW222803   4.694   2.477   3.963  1.5990 -1.6834  1.8893
 3782SOL     OW22804   4.614   2.366   3.786 -0.0273  0.1639 -0.3573
 3782SOL    HW122805   4.595   2.352   3.693 -0.2245 -0.1820 -0.2660
 3782SOL    HW222806   4.659   2.284   3.809 -2.8437 -1.4764 -0.6049
 3783SOL     OW22807   3.515   0.748   1.783  0.0472 -0.6149  0.1184
 3783SOL    HW122808   3.519   0.723   1.876  0.2941  0.9846  0.5346
 3783SOL    HW222809   3.423   0.727   1.765  0.4243 -1.5074 -0.7884
 3784SOL     OW22810   3.442   1.924  15.729 -0.4289 -0.2340  0.2040
 3784SOL    HW122811   3.518   1.976  15.701 -0.2839 -0.1032  0.8506
 3784SOL    HW222812   3.484   1.839  15.740  0.0546 -0.0528 -0.2094
 3785SOL     OW22813   3.553   1.943   6.470  0.0575  0.3800 -0.1769
 3785SOL    HW122814   3.596   1.934   6.385 -0.0217 -1.3308 -0.0292
 3785SOL    HW222815   3.574   2.034   6.494  1.2887 -0.0239  0.2401
 3786SOL     OW22816   0.406   0.412   3.332 -0.7203  0.2140  0.4186
 3786SOL    HW122817   0.445   0.328   3.358  0.7788  0.4706 -0.9801
 3786SOL    HW222818   0.480   0.455   3.289 -0.5702 -0.7868 -0.3461
 3787SOL     OW22819   2.113   1.527  15.435 -0.3433 -0.5413 -0.5649
 3787SOL    HW122820   2.042   1.550  15.375 -0.1287  1.7080  0.0342
 3787SOL    HW222821   2.183   1.575  15.391  1.1572 -2.5721 -0.3646
 3788SOL     OW22822   3.180   3.828   3.058 -0.1651  0.6854  0.0305
 3788SOL    HW122823   3.217   3.906   3.016 -1.3917  1.1442 -0.2055
 3788SOL    HW222824   3.104   3.866   3.102 -0.6217  1.5914 -1.5552
 3789SOL     OW22825   0.519   1.919   3.422 -0.1769 -0.2038  0.5907
 3789SOL    HW122826   0.551   2.009   3.411 -2.4108  0.3946 -1.0405
 3789SOL    HW222827   0.606   1.882   3.437  0.5810  1.2479 -0.2248
 3790SOL     OW22828   0.514   0.139   2.777 -0.4611 -0.8945 -0.6148
 3790SOL    HW122829   0.481   0.114   2.691  0.0155  2.5541 -1.8252
 3790SOL    HW222830   0.595   0.180   2.745  0.0665 -1.8205 -0.4611
 3791SOL     OW22831   3.024   2.576   3.398  0.6569 -0.5952  0.4563
 3791SOL    HW122832   3.019   2.500   3.340  0.6450  1.9074 -2.8296
 3791SOL    HW222833   3.065   2.530   3.472  2.0179  1.7741  1.1730
 3792SOL     OW22834   0.552   1.342   2.920 -0.0392 -0.3086 -0.2535
 3792SOL    HW122835   0.644   1.365   2.913 -0.7751  2.3854 -1.0618
 3792SOL    HW222836   0.548   1.340   3.015  1.5950  0.6694 -0.1714
 3793SOL     OW22837   2.596   1.260   2.399 -0.5181 -0.4817 -0.3596
 3793SOL    HW122838   2.646   1.204   2.340  0.6837  0.5387 -0.3127
 3793SOL    HW222839   2.523   1.200   2.417  1.2298 -3.2044 -2.4669
 3794SOL     OW22840   3.910   2.428   3.331 -0.5610 -0.2149  0.0703
 3794SOL    HW122841   3.877   2.477   3.256  1.0763 -0.2015 -0.6521
 3794SOL    HW222842   4.003   2.450   3.324 -0.3119 -1.1243  0.5842
 3795SOL     OW22843   2.647   1.639   5.438  0.8747 -0.3741 -0.3768
 3795SOL    HW122844   2.653   1.565   5.498 -0.5826 -1.8365 -2.0477
 3795SOL    HW222845   2.694   1.706   5.487 -1.3501  0.3650  0.7585
 3796SOL     OW22846   3.068   1.036   6.684 -0.2047 -0.4992  0.5535
 3796SOL    HW122847   3.055   1.119   6.639  1.1289 -1.4183 -1.5403
 3796SOL    HW222848   3.157   1.018   6.654 -0.3720 -0.2674 -0.0791
 3797SOL     OW22849   1.779   1.071   8.038  0.1380  0.1905  0.2946
 3797SOL    HW122850   1.783   1.134   7.966 -0.8072 -1.5269 -1.2771
 3797SOL    HW222851   1.745   0.994   7.992  2.0248 -1.2134  1.2613
 3798SOL     OW22852   0.623   0.482   3.222  0.1820 -0.1229  0.3027
 3798SOL    HW122853   0.668   0.437   3.293 -2.9390 -2.8785  0.5476
 3798SOL    HW222854   0.687   0.475   3.151 -0.8525  1.5591 -0.8096
 3799SOL     OW22855   2.684   2.930   4.512 -0.1092  0.1802 -0.2349
 3799SOL    HW122856   2.643   2.853   4.474 -2.7791  1.3584  0.2434
 3799SOL    HW222857   2.663   2.988   4.439  1.4699  1.0221 -0.0301
 3800SOL     OW22858   4.402   1.698   4.304 -0.0337  0.4179  0.0636
 3800SOL    HW122859   4.448   1.781   4.308 -0.5113  0.7919 -2.0076
 3800SOL    HW222860   4.476   1.638   4.312 -0.7172 -0.4374  0.0100
 3801SOL     OW22861   3.147   2.721   8.279 -0.5031  0.0972 -0.0732
 3801SOL    HW122862   3.140   2.752   8.189  0.9214 -0.2494 -0.3163
 3801SOL    HW222863   3.059   2.748   8.304 -0.5335 -1.2128  1.2093
 3802SOL     OW22864   3.104   3.726  12.367 -0.5350  0.4988  0.1297
 3802SOL    HW122865   3.099   3.732  12.272 -0.8892 -1.3618  0.0311
 3802SOL    HW222866   3.034   3.667  12.394 -0.3672  0.3499  0.2414
 3803SOL     OW22867   0.968   2.717   5.212  0.5931  0.1845  0.7046
 3803SOL    HW122868   0.957   2.796   5.264 -3.4931 -0.6262  1.0398
 3803SOL    HW222869   0.918   2.733   5.132  1.5422  2.3655  0.5412
 3804SOL     OW22870   2.885   3.680   6.375 -0.6579  0.6042 -0.4422
 3804SOL    HW122871   2.915   3.759   6.421 -0.3290  0.0880  0.2260
 3804SOL    HW222872   2.850   3.725   6.298 -2.2973 -0.7035 -0.4488
 3805SOL     OW22873   2.776   1.159   5.771  0.5953  0.0714  0.0176
 3805SOL    HW122874   2.820   1.214   5.836  1.5904 -1.1153  0.3407
 3805SOL    HW222875   2.748   1.219   5.701  0.3644 -0.7595 -0.5952
 3806SOL     OW22876   3.608   2.444   8.253 -0.1526 -0.0988 -0.1197
 3806SOL    HW122877   3.636   2.385   8.183  3.5145  2.1970 -0.6017
 3806SOL    HW222878   3.558   2.511   8.205  1.2570 -0.4498 -2.0758
 3807SOL     OW22879   3.590   2.852   1.438  0.3893 -0.7274 -0.0550
 3807SOL    HW122880   3.564   2.774   1.389  0.0508 -1.5107  1.3631
 3807SOL    HW222881   3.553   2.928   1.394 -0.0510 -1.1587 -0.4265
 3808SOL     OW22882   3.560   1.555  14.902  0.1590  0.0062 -0.1874
 3808SOL    HW122883   3.554   1.462  14.882  0.7426  0.0162 -0.4138
 3808SOL    HW222884   3.654   1.570  14.887  0.2829  0.8594  1.4076
 3809SOL     OW22885   2.887   1.403   2.716 -0.2439  0.5440 -0.8342
 3809SOL    HW122886   2.937   1.483   2.700 -0.8260  0.9671 -0.5653
 3809SOL    HW222887   2.941   1.327   2.693  1.7845  1.3358  1.3271
 3810SOL     OW22888   1.538   2.691  12.573  0.3620 -0.2319  0.0913
 3810SOL    HW122889   1.619   2.689  12.623 -0.4864 -0.8966  1.4504
 3810SOL    HW222890   1.532   2.598  12.550 -1.9195 -0.1347  0.3131
 3811SOL     OW22891   1.419   2.518   8.471  0.1030 -0.5115 -0.5644
 3811SOL    HW122892   1.325   2.504   8.476  0.0521 -0.8387 -2.3945
 3811SOL    HW222893   1.432   2.527   8.565 -2.2697 -0.1857 -0.2861
 3812SOL     OW22894   2.668   1.561   0.709  0.0033  0.1361 -0.3485
 3812SOL    HW122895   2.651   1.653   0.690  0.7884  0.1942 -0.7557
 3812SOL    HW222896   2.647   1.555   0.803  2.0414 -0.1685  0.0909
 3813SOL     OW22897   1.998   3.575   0.016 -0.0223 -0.3541  0.4983
 3813SOL    HW122898   1.934   3.566   0.087  0.1520  1.1369  0.8644
 3813SOL    HW222899   1.952   3.558  17.636 -0.1761  2.1553  0.0371
 3814SOL     OW22900   1.268   2.579   0.956  0.0623  0.0385  0.1827
 3814SOL    HW122901   1.349   2.536   0.983 -0.2785 -1.1399 -0.6210
 3814SOL    HW222902   1.290   2.587   0.863  1.7675 -0.3588  0.5532
 3815SOL     OW22903   1.602   4.213  15.209 -0.2518  0.1227  0.7070
 3815SOL    HW122904   1.561   4.295  15.182 -1.7566 -0.6765  0.5032
 3815SOL    HW222905   1.570   4.193  15.297 -1.6853 -0.3029  0.1029
 3816SOL     OW22906   3.605   3.540   8.857  0.5958 -0.2443  0.1752
 3816SOL    HW122907   3.669   3.568   8.923  0.0296  1.1866  0.1155
 3816SOL    HW222908   3.577   3.626   8.825 -1.7310 -0.8033  0.6878
 3817SOL     OW22909   4.366   3.803   6.295 -0.4625 -0.4919  0.0623
 3817SOL    HW122910   4.302   3.776   6.361 -1.4547 -0.6148 -0.9449
 3817SOL    HW222911   4.353   3.745   6.220  2.4460 -0.6412 -0.3303
 3818SOL     OW22912   0.928   3.807   8.734  0.2883  0.1328  0.2328
 3818SOL    HW122913   0.834   3.789   8.736  0.0738  1.2498  0.4997
 3818SOL    HW222914   0.971   3.726   8.758  1.4216  0.1074 -1.8440
 3819SOL     OW22915   0.471   0.584   0.977  0.4970  0.0609  0.6332
 3819SOL    HW122916   0.519   0.531   0.913  1.4522  1.2758  0.3423
 3819SOL    HW222917   0.395   0.539   1.011 -1.1701  1.8526 -0.6903
 3820SOL     OW22918   4.281   1.914  10.675  0.2954 -0.2804  0.3129
 3820SOL    HW122919   4.299   1.849  10.607 -0.5050 -0.1623 -0.0084
 3820SOL    HW222920   4.241   1.874  10.753 -0.6330 -1.0550 -0.5583
 3821SOL     OW22921   0.445   0.199   6.511 -0.0025  0.5232  0.2992
 3821SOL    HW122922   0.462   0.163   6.424 -2.9368  0.0475 -0.0544
 3821SOL    HW222923   0.462   0.291   6.489 -3.5060  0.8721 -0.8439
 3822SOL     OW22924   3.140   3.216   7.052  0.0711 -0.0798  0.0873
 3822SOL    HW122925   3.143   3.307   7.020 -1.9320 -0.1336 -0.2316
 3822SOL    HW222926   3.206   3.217   7.121 -1.0150 -0.3651  1.1293
 3823SOL     OW22927   0.379   0.938   3.457  0.1565  0.4156 -0.2272
 3823SOL    HW122928   0.312   0.898   3.401 -0.9482 -1.1619  2.2343
 3823SOL    HW222929   0.332   0.986   3.525  0.3769  1.6916 -0.9601
 3824SOL     OW22930   3.220   2.055  17.523 -0.0492  0.0729 -0.0163
 3824SOL    HW122931   3.152   2.050  17.591 -0.8045 -0.7410 -0.8324
 3824SOL    HW222932   3.221   2.149  17.505 -0.1449  0.2103  0.6888
 3825SOL     OW22933   2.255   3.631  13.619  0.1137  0.0727  0.5975
 3825SOL    HW122934   2.236   3.538  13.604 -1.6912  0.8042 -1.6820
 3825SOL    HW222935   2.261   3.629  13.714 -0.5335  0.6937  0.6564
 3826SOL     OW22936   3.043   2.130   5.616  0.2959 -0.2214  0.3470
 3826SOL    HW122937   2.960   2.175   5.629 -0.0876 -1.1546  1.0991
 3826SOL    HW222938   3.093   2.163   5.690 -1.0076  0.8661  0.7282
 3827SOL     OW22939   3.835   2.058   4.413  0.0397 -0.1757  0.6109
 3827SOL    HW122940   3.824   2.052   4.318 -0.3866 -0.7394  0.6940
 3827SOL    HW222941   3.748   2.086   4.440 -0.5611 -1.9709  0.5683
 3828SOL     OW22942   3.035   4.456   5.884 -0.2415  0.0955 -0.1733
 3828SOL    HW122943   2.993   4.378   5.921  0.7174  0.5910  1.9103
 3828SOL    HW222944   2.971   4.527   5.883  0.9220  1.1134 -1.7341
 3829SOL     OW22945   2.519   3.354   2.059  0.2635  0.3619  0.2335
 3829SOL    HW122946   2.438   3.360   2.008  0.8267  3.8800 -0.2604
 3829SOL    HW222947   2.589   3.352   1.993  0.3445  1.0872  0.3001
 3830SOL     OW22948   1.821   2.696   5.651 -0.7101  0.7262  0.1083
 3830SOL    HW122949   1.848   2.761   5.586  1.1568  1.1078  1.2748
 3830SOL    HW222950   1.830   2.760   5.721  0.3255 -1.7472  2.2172
 3831SOL     OW22951   4.407   3.598  10.369  0.3337 -0.2282  0.2463
 3831SOL    HW122952   4.342   3.592  10.299 -0.4519 -0.0978  0.9546
 3831SOL    HW222953   4.470   3.529  10.349  1.1553  0.0715  1.7979
 3832SOL     OW22954   2.412   2.809   2.592  0.1749  0.0836  0.2829
 3832SOL    HW122955   2.370   2.752   2.528 -0.8081 -0.8243  1.7334
 3832SOL    HW222956   2.423   2.751   2.667  2.7491  0.4133  0.1805
 3833SOL     OW22957   3.600   1.222  11.303 -0.1490  0.2411  0.5383
 3833SOL    HW122958   3.505   1.226  11.294  0.1077  0.1178 -2.3453
 3833SOL    HW222959   3.624   1.141  11.257 -0.6157 -0.2661  1.2001
 3834SOL     OW22960   2.407   0.141   3.488  0.0962 -0.1437  0.1937
 3834SOL    HW122961   2.329   0.197   3.496 -1.6947 -2.4445 -0.9700
 3834SOL    HW222962   2.364   0.067   3.445  3.1786 -2.8489  1.8088
 3835SOL     OW22963   0.896   4.677   4.738 -0.4842  0.3193  0.2094
 3835SOL    HW122964   0.990   4.692   4.749 -0.4518 -0.3108  0.7950
 3835SOL    HW222965   0.891   4.585   4.764  1.4613  0.7120  1.9656
 3836SOL     OW22966   1.046   0.137   3.401 -0.7601 -0.0039 -0.4180
 3836SOL    HW122967   1.070   0.111   3.312  0.7604 -2.8591  0.8467
 3836SOL    HW222968   1.102   0.214   3.410 -0.6238 -0.4822  2.6641
 3837SOL     OW22969   2.639   4.014  10.434 -0.1741 -0.2048 -0.3909
 3837SOL    HW122970   2.567   4.007  10.497 -0.8951 -0.2493 -1.2181
 3837SOL    HW222971   2.612   3.943  10.376  1.1084  0.3616 -1.6523
 3838SOL     OW22972   1.571   0.128   5.757  0.3996  0.4600 -0.0092
 3838SOL    HW122973   1.637   0.061   5.741 -1.1409 -1.0109 -0.2542
 3838SOL    HW222974   1.598   0.199   5.699  0.6558  2.2641  2.3285
 3839SOL     OW22975   1.374   4.393   5.380 -0.6758  0.4607 -0.0475
 3839SOL    HW122976   1.368   4.306   5.420  0.4905 -0.0094 -0.8931
 3839SOL    HW222977   1.424   4.438   5.447  1.1824 -0.1158 -1.0626
 3840SOL     OW22978   1.133   4.299   8.509  0.1011  0.5816 -0.1940
 3840SOL    HW122979   1.183   4.307   8.590 -0.4357 -2.1522  0.4233
 3840SOL    HW222980   1.086   4.216   8.522  0.3722  0.4483 -0.0641
 3841SOL     OW22981   0.400   3.553  10.919 -0.2908 -0.2289  0.1227
 3841SOL    HW122982   0.429   3.643  10.929 -2.5400  0.5665 -0.4919
 3841SOL    HW222983   0.310   3.569  10.888 -0.5178 -2.9773 -0.7086
 3842SOL     OW22984   3.984   0.899   7.001 -0.2391 -0.0720  0.5910
 3842SOL    HW122985   3.970   0.909   7.095  0.8312 -1.6286  0.8969
 3842SOL    HW222986   3.993   0.991   6.974 -1.7697 -0.1897 -0.3200
 3843SOL     OW22987   3.369   0.516   8.076 -0.0820 -0.1156  0.2480
 3843SOL    HW122988   3.322   0.567   8.010  0.3543  1.6850  1.3329
 3843SOL    HW222989   3.305   0.512   8.147  1.8128 -0.2715  1.9332
 3844SOL     OW22990   2.311   3.538  13.861 -0.1011  0.3620  0.3539
 3844SOL    HW122991   2.245   3.562  13.926  1.7288  0.2912  2.2165
 3844SOL    HW222992   2.379   3.499  13.915 -0.5254 -0.6350  0.1732
 3845SOL     OW22993   3.738   4.356   8.720 -0.4359 -0.6442 -0.5997
 3845SOL    HW122994   3.737   4.260   8.722 -2.1704 -0.6077  1.1473
 3845SOL    HW222995   3.713   4.384   8.632  2.5392  1.8412 -0.6104
 3846SOL     OW22996   2.918   2.843   2.701 -0.3453 -0.4288 -0.7099
 3846SOL    HW122997   2.867   2.790   2.763  0.3224  0.1399  0.3230
 3846SOL    HW222998   2.932   2.770   2.640 -0.7622 -1.9392  0.9804
 3847SOL     OW22999   2.148   2.271  16.833  0.6765 -1.0600  0.4290
 3847SOL    HW123000   2.053   2.268  16.821  0.6182  0.0620  0.5860
 3847SOL    HW223001   2.181   2.350  16.789 -0.5773 -0.0158  1.3385
 3848SOL     OW23002   3.952   1.380   7.393  0.0774  0.4554  0.6994
 3848SOL    HW123003   4.039   1.419   7.398  1.0751 -1.4335 -1.8970
 3848SOL    HW223004   3.902   1.457   7.421 -1.3495  0.3192 -1.4715
 3849SOL     OW23005   0.982   1.547   3.711  0.0908 -0.0235  0.2879
 3849SOL    HW123006   1.013   1.468   3.667 -0.0630  1.2323 -2.0650
 3849SOL    HW223007   1.036   1.555   3.790  0.0003  2.6399  0.0755
 3850SOL     OW23008   1.798   1.223  10.034  0.6002 -0.4963 -0.4298
 3850SOL    HW123009   1.843   1.302  10.004  0.8885  0.0917  1.5425
 3850SOL    HW223010   1.770   1.250  10.121 -1.7998  0.8039 -1.6118
 3851SOL     OW23011   0.659   0.969   2.570  0.2084 -0.1747  0.3990
 3851SOL    HW123012   0.646   0.912   2.494 -0.1482  0.2170  0.1684
 3851SOL    HW223013   0.586   0.948   2.628  0.4611 -0.5286  0.5931
 3852SOL     OW23014   4.712   1.329  12.256  0.0745 -0.1366 -0.1435
 3852SOL    HW123015   0.066   1.307  12.303  0.8266  0.6668 -1.0281
 3852SOL    HW223016   4.654   1.290  12.322  2.1401 -1.6520  0.7583
 3853SOL     OW23017   2.435   3.969   5.209 -0.0261 -0.5124  0.1462
 3853SOL    HW123018   2.437   4.006   5.120 -2.1707 -2.3110 -0.6438
 3853SOL    HW223019   2.487   3.889   5.202  0.0828 -0.4188 -0.1362
 3854SOL     OW23020   4.417   2.774   0.801 -0.5138  0.1842  0.5277
 3854SOL    HW123021   4.399   2.709   0.868 -1.6695 -0.5721 -0.5224
 3854SOL    HW223022   4.340   2.829   0.817 -0.9069 -0.8351  2.1251
 3855SOL     OW23023   1.006   2.419   0.578 -0.1506  0.0721  0.3310
 3855SOL    HW123024   0.938   2.415   0.645  0.4602 -1.1079  0.8793
 3855SOL    HW223025   1.008   2.324   0.582  1.0549  0.0641 -0.5225
 3856SOL     OW23026   1.959   2.455   2.380 -0.3840 -0.1079 -0.5742
 3856SOL    HW123027   1.881   2.430   2.331 -0.3901 -1.1544 -0.0466
 3856SOL    HW223028   2.023   2.391   2.349  0.0185 -0.5852  1.1957
 3857SOL     OW23029   3.562   2.201  10.356  0.0639 -0.0412 -0.1556
 3857SOL    HW123030   3.485   2.174  10.306 -0.7625 -0.3539  1.2938
 3857SOL    HW223031   3.613   2.122  10.336  2.0305  0.5824  2.3472
 3858SOL     OW23032   2.366   4.455   7.925  0.4114  0.7686 -0.2748
 3858SOL    HW123033   2.439   4.509   7.895  0.2480  0.3994 -1.3404
 3858SOL    HW223034   2.284   4.498   7.899 -0.5281 -0.6763  0.2577
 3859SOL     OW23035   2.575   1.921   6.034 -0.1236 -0.1150 -0.4883
 3859SOL    HW123036   2.591   1.832   6.064  3.6871  0.1624 -1.6709
 3859SOL    HW223037   2.484   1.914   6.003 -0.7728 -0.5101  1.5228
 3860SOL     OW23038   0.611   4.686  17.588  0.3364  0.3866  0.3823
 3860SOL    HW123039   0.521   4.653  17.598 -0.0837  1.2156 -0.6517
 3860SOL    HW223040   0.586   0.052  17.570 -0.4852  0.2042  0.5756
 3861SOL     OW23041   2.222   2.802  13.546  0.0367 -0.2204 -0.6085
 3861SOL    HW123042   2.240   2.880  13.494 -1.0880  0.1032 -0.4957
 3861SOL    HW223043   2.222   2.840  13.633  2.1586  1.1616 -1.2083
 3862SOL     OW23044   1.302   0.912  11.249 -0.1303 -0.1450  0.0805
 3862SOL    HW123045   1.244   0.959  11.309 -1.4838 -2.0355  0.2697
 3862SOL    HW223046   1.286   0.953  11.164  0.9989 -2.1886 -1.1372
 3863SOL     OW23047   3.134   1.372  14.458 -0.6308  0.2025  0.1521
 3863SOL    HW123048   3.053   1.342  14.500 -1.6647  1.3430 -1.0406
 3863SOL    HW223049   3.146   1.441  14.524 -1.9258 -0.2410  0.8699
 3864SOL     OW23050   2.914   3.532  13.570 -0.3004 -0.0867  0.2971
 3864SOL    HW123051   2.966   3.464  13.527 -2.2993 -0.1870 -1.9704
 3864SOL    HW223052   2.873   3.573  13.494  0.4255  1.5953  0.8134
 3865SOL     OW23053   1.414   3.614   7.936  0.1979  0.1508  0.5421
 3865SOL    HW123054   1.481   3.602   8.003 -0.4498  0.6503  1.2648
 3865SOL    HW223055   1.408   3.709   7.928 -0.7990  0.0647  0.2990
 3866SOL     OW23056   2.115   4.332   6.718 -0.0337  0.5144  0.0099
 3866SOL    HW123057   2.128   4.255   6.774 -3.0178  0.3885  0.4882
 3866SOL    HW223058   2.044   4.378   6.762 -0.8301 -0.7128  0.0087
 3867SOL     OW23059   0.752   2.888   2.388  0.2017 -0.3555  0.5305
 3867SOL    HW123060   0.814   2.820   2.414  0.9953  0.2237  0.1819
 3867SOL    HW223061   0.808   2.950   2.342 -2.2114  1.5818  0.1956
 3868SOL     OW23062   3.155   4.241   3.176 -0.3572  0.1386 -0.2376
 3868SOL    HW123063   3.063   4.218   3.186 -0.1363 -1.2766 -1.4474
 3868SOL    HW223064   3.148   4.330   3.210 -0.0659  0.1063 -0.0922
 3869SOL     OW23065   2.975   2.392   9.259 -0.1651 -0.5837  0.3121
 3869SOL    HW123066   3.019   2.429   9.335 -1.2914  0.2153  0.5558
 3869SOL    HW223067   2.892   2.372   9.302  0.8735 -2.5982  1.3805
 3870SOL     OW23068   4.536   3.237   4.406 -0.2881  0.1586  0.1624
 3870SOL    HW123069   4.580   3.236   4.321 -1.5166 -0.4888 -0.4765
 3870SOL    HW223070   4.540   3.331   4.425 -1.2801 -0.1571  1.9475
 3871SOL     OW23071   1.443   2.330   8.985 -0.4692 -0.7384 -0.0304
 3871SOL    HW123072   1.494   2.378   9.051  0.5038 -1.7554 -0.0453
 3871SOL    HW223073   1.362   2.380   8.999  0.0609 -0.2696  1.3713
 3872SOL     OW23074   3.654   0.243   9.064 -0.1507 -0.5206  0.1379
 3872SOL    HW123075   3.738   0.249   9.017  0.2295  0.5927  0.9632
 3872SOL    HW223076   3.668   0.317   9.124  1.7360  0.5063 -1.5402
 3873SOL     OW23077   0.634   3.084   4.841  0.0024  0.2562 -0.7717
 3873SOL    HW123078   0.613   3.171   4.807 -1.0501 -0.3903 -1.7752
 3873SOL    HW223079   0.656   3.094   4.934 -0.1687 -0.7183 -0.6226
 3874SOL     OW23080   0.766   2.041   3.250 -0.3209 -0.4997 -0.2889
 3874SOL    HW123081   0.754   1.946   3.241  0.8382 -0.8695  2.0423
 3874SOL    HW223082   0.840   2.053   3.191  0.3200  3.7480  1.4089
 3875SOL     OW23083   2.608   2.451  13.338  0.3773 -0.0682 -0.3286
 3875SOL    HW123084   2.540   2.392  13.372  2.0892 -1.6023  0.4959
 3875SOL    HW223085   2.588   2.444  13.245 -2.9361  1.6765  0.2717
 3876SOL     OW23086   0.149   1.842   7.267  0.5115 -0.4337 -0.4504
 3876SOL    HW123087   0.065   1.802   7.288 -0.4723  1.0187 -1.5872
 3876SOL    HW223088   0.127   1.926   7.225  1.6912 -0.1887 -0.5930
 3877SOL     OW23089   4.507   2.440   6.367  0.5171 -0.3001 -0.0686
 3877SOL    HW123090   4.593   2.438   6.409  0.1187  0.8567  0.8001
 3877SOL    HW223091   4.488   2.360   6.318 -0.4732 -0.7480  1.0686
 3878SOL     OW23092   0.243   4.135   4.059 -0.4803 -0.2076 -0.0808
 3878SOL    HW123093   0.180   4.205   4.078  0.9672  0.9098  0.6671
 3878SOL    HW223094   0.270   4.143   3.968  0.1269  0.1484  0.1289
 3879SOL     OW23095   2.983   2.006   4.143 -0.6230  0.4694 -0.2806
 3879SOL    HW123096   2.939   2.059   4.209 -2.2269 -3.8964  2.2038
 3879SOL    HW223097   3.069   2.047   4.141 -1.1827  1.7679  2.5182
 3880SOL     OW23098   4.002   4.350   2.452  0.2158 -0.3774  0.0165
 3880SOL    HW123099   4.066   4.400   2.503  0.5242 -1.2189  0.4590
 3880SOL    HW223100   4.013   4.385   2.363  3.0542 -3.8474 -1.0019
 3881SOL     OW23101   0.646   3.129  12.758 -0.5184 -0.1493 -0.7983
 3881SOL    HW123102   0.709   3.200  12.745  0.3542 -0.9200 -0.7695
 3881SOL    HW223103   0.609   3.110  12.672 -1.2889  0.0298 -0.5048
 3882SOL     OW23104   0.198   2.117   0.101 -0.2242  0.3165  0.1080
 3882SOL    HW123105   0.149   2.090   0.179  0.5839 -0.6226  0.2940
 3882SOL    HW223106   0.202   2.211   0.117  1.1521  0.2632  0.1269
 3883SOL     OW23107   3.143   1.724   7.420  0.0017  0.0587  0.1385
 3883SOL    HW123108   3.134   1.770   7.504  0.6944 -0.8704  0.7072
 3883SOL    HW223109   3.050   1.717   7.396  0.2514 -1.9977 -0.2189
 3884SOL     OW23110   4.234   0.047   0.175  0.0995  0.8562  0.4722
 3884SOL    HW123111   4.261   0.080   0.261  1.6985 -1.7422  0.9726
 3884SOL    HW223112   4.148   0.007   0.187  0.7789 -0.4056  1.0634
 3885SOL     OW23113   3.549   0.186   7.590  0.2419  1.1486  0.2281
 3885SOL    HW123114   3.554   0.140   7.673 -0.6106  0.1151 -0.2984
 3885SOL    HW223115   3.473   0.243   7.599 -1.3225 -1.1518  1.3831
 3886SOL     OW23116   2.377   0.285  12.737 -0.0488 -0.7729  0.3114
 3886SOL    HW123117   2.388   0.352  12.806 -2.8814 -1.3023  1.2649
 3886SOL    HW223118   2.302   0.326  12.694  0.8677 -0.6334 -1.1467
 3887SOL     OW23119   3.171   2.909   5.581 -0.2861  0.5617  0.6965
 3887SOL    HW123120   3.252   2.910   5.632  1.5006  0.5919 -2.1009
 3887SOL    HW223121   3.214   2.934   5.498 -0.8095 -0.2991  0.1687
 3888SOL     OW23122   2.754   1.727   5.662  0.5975 -0.1947 -0.1360
 3888SOL    HW123123   2.791   1.813   5.682 -0.1914  0.0482  0.2730
 3888SOL    HW223124   2.814   1.670   5.711  1.3080 -0.8635 -1.8022
 3889SOL     OW23125   3.455   0.628   5.640 -0.6223  0.0168 -0.3587
 3889SOL    HW123126   3.459   0.678   5.558  0.5449 -0.9116 -0.8471
 3889SOL    HW223127   3.545   0.596   5.642 -0.9507 -0.8492  0.3930
 3890SOL     OW23128   2.701   0.429   3.175  0.3963 -0.0146 -0.0881
 3890SOL    HW123129   2.619   0.381   3.185  1.5134 -1.7231  0.8945
 3890SOL    HW223130   2.713   0.443   3.268 -3.2957 -2.1596  0.7250
 3891SOL     OW23131   1.199   1.264  12.357  0.0086 -0.2128 -0.6895
 3891SOL    HW123132   1.271   1.218  12.398 -0.4242 -0.1667  0.1219
 3891SOL    HW223133   1.217   1.245  12.264 -0.4695 -1.3288 -0.5583
 3892SOL     OW23134   0.435   2.030   0.795 -0.4178 -0.3639 -0.2683
 3892SOL    HW123135   0.402   2.059   0.880 -1.0351  0.3038 -0.7376
 3892SOL    HW223136   0.414   1.937   0.806 -1.6895  0.0939  1.2829
 3893SOL     OW23137   2.708   1.690  10.003 -0.0951 -0.2012 -0.3624
 3893SOL    HW123138   2.642   1.673   9.936  0.1881  0.9404 -0.9387
 3893SOL    HW223139   2.658   1.674  10.083 -0.2346  1.7384 -0.0481
 3894SOL     OW23140   1.487   1.263   6.149 -0.2318 -0.2805 -0.0307
 3894SOL    HW123141   1.475   1.170   6.126 -0.3988 -0.1520 -0.4563
 3894SOL    HW223142   1.579   1.269   6.173 -0.7912  1.8219  1.6074
 3895SOL     OW23143   4.326   1.918   2.208 -0.7656 -0.0134  0.2197
 3895SOL    HW123144   4.376   1.861   2.267  1.7805  2.5205  0.4673
 3895SOL    HW223145   4.380   1.996   2.199 -1.4115  0.3051 -0.8798
 3896SOL     OW23146   3.272   1.354   2.764 -0.1160  0.0515 -0.2616
 3896SOL    HW123147   3.313   1.331   2.681 -3.5228 -1.0080 -1.6506
 3896SOL    HW223148   3.269   1.449   2.753 -0.4112  0.2508  1.5441
 3897SOL     OW23149   1.435   4.146   3.364  0.1865 -0.1834 -0.8233
 3897SOL    HW123150   1.477   4.082   3.421  0.4657  1.6963  1.0738
 3897SOL    HW223151   1.510   4.177   3.313  0.3747  0.6459 -0.0370
 3898SOL     OW23152   4.376   2.812   7.229  0.0268  0.4143 -0.2283
 3898SOL    HW123153   4.418   2.781   7.309  1.3268  0.0457 -1.0401
 3898SOL    HW223154   4.414   2.760   7.157  2.5072  0.4330  1.0851
 3899SOL     OW23155   3.933   1.949   5.496 -0.4402  0.1795  0.6275
 3899SOL    HW123156   4.016   1.972   5.456 -1.3618  0.7619 -0.9677
 3899SOL    HW223157   3.939   1.854   5.505 -0.3617 -0.1342 -2.6629
 3900SOL     OW23158   1.814   4.624  13.244 -0.2927 -0.3206  0.5768
 3900SOL    HW123159   1.885   4.685  13.264 -0.5965 -0.1823  1.2572
 3900SOL    HW223160   1.746   4.646  13.308  0.7806  0.6880  1.3487
 3901SOL     OW23161   0.833   4.696  15.633  1.0386 -0.5149 -0.7267
 3901SOL    HW123162   0.901   0.031  15.603 -0.4658  1.7756  0.4303
 3901SOL    HW223163   0.754   0.024  15.641  2.3363  1.2068  0.6947
 3902SOL     OW23164   3.960   3.181   5.975  0.7596  0.4019  1.1016
 3902SOL    HW123165   3.896   3.224   6.031  1.1658 -0.2831  2.0960
 3902SOL    HW223166   3.907   3.105   5.952  1.8295  0.0775 -0.3167
 3903SOL     OW23167   2.903   1.630   6.076  0.1389 -0.7511 -0.5707
 3903SOL    HW123168   2.980   1.684   6.059 -1.0646  0.9015 -0.7067
 3903SOL    HW223169   2.897   1.588   5.990  1.2587  1.5483 -1.7616
 3904SOL     OW23170   0.566   2.761   1.025  0.6153  0.1239 -0.1933
 3904SOL    HW123171   0.657   2.791   1.034  1.0720 -1.0110 -0.9914
 3904SOL    HW223172   0.578   2.726   0.936  2.2789  0.6679 -0.1778
 3905SOL     OW23173   3.507   2.714   6.178  0.5188 -0.6076  0.3760
 3905SOL    HW123174   3.499   2.724   6.083  3.5222  0.0180  0.1858
 3905SOL    HW223175   3.594   2.752   6.189 -1.1746  3.4760 -0.3459
 3906SOL     OW23176   3.186   0.716  14.534  0.7125  0.4266  0.5724
 3906SOL    HW123177   3.231   0.638  14.500 -2.1098 -0.7874 -0.3421
 3906SOL    HW223178   3.092   0.699  14.533  0.7181  0.4586 -1.1427
 3907SOL     OW23179   2.972   1.628   9.105 -0.2968  0.0672 -0.3050
 3907SOL    HW123180   2.929   1.675   9.176 -1.6360 -0.2595 -0.8914
 3907SOL    HW223181   3.002   1.706   9.058  0.5246 -0.5989 -0.8893
 3908SOL     OW23182   3.849   0.080   6.243  0.2176  0.1599 -0.2081
 3908SOL    HW123183   3.920   0.136   6.213  0.6558 -0.6879 -0.7322
 3908SOL    HW223184   3.820   0.129   6.321  2.5647  1.0905  0.0796
 3909SOL     OW23185   3.937   1.591  11.317  0.4850 -0.6140 -0.0383
 3909SOL    HW123186   3.966   1.563  11.404 -1.1300  1.9715  1.3043
 3909SOL    HW223187   3.886   1.515  11.288 -3.4588  1.4814  1.5740
 3910SOL     OW23188   0.062   2.945   8.614  0.5192 -0.1710 -0.1156
 3910SOL    HW123189   0.111   3.022   8.640  1.5558 -0.0032 -2.5555
 3910SOL    HW223190   4.696   2.973   8.605  1.0254  1.2626 -0.7137
 3911SOL     OW23191   4.695   1.262   2.406  0.3443  0.6443  0.3491
 3911SOL    HW123192   4.642   1.230   2.479  2.2173  0.5966  1.6929
 3911SOL    HW223193   0.049   1.269   2.459 -0.1532 -1.9648  1.4422
 3912SOL     OW23194   2.464   3.433   2.697 -0.4185 -0.0033  0.2048
 3912SOL    HW123195   2.452   3.528   2.696  1.6877  0.2507  0.1995
 3912SOL    HW223196   2.553   3.415   2.725 -0.5546  0.7262  1.1091
 3913SOL     OW23197   2.486   0.749   7.634  0.0966 -0.5656  0.2319
 3913SOL    HW123198   2.396   0.732   7.660 -0.0481  1.3570  0.9736
 3913SOL    HW223199   2.474   0.813   7.564 -0.5760 -2.0015 -0.9786
 3914SOL     OW23200   4.204   3.635  12.320 -0.0022 -0.5258  0.0813
 3914SOL    HW123201   4.129   3.678  12.359 -0.2597  0.6603 -1.6822
 3914SOL    HW223202   4.149   3.566  12.284 -0.6302 -0.5655  1.1602
 3915SOL     OW23203   1.752   0.135  16.225  0.0967  0.1784 -0.4763
 3915SOL    HW123204   1.786   0.208  16.174  0.5217  0.3268  0.0192
 3915SOL    HW223205   1.659   0.159  16.228 -0.0284  0.0324 -2.8075
 3916SOL     OW23206   3.177   3.116   4.347 -0.0656 -0.7083  0.2073
 3916SOL    HW123207   3.206   3.158   4.266  0.8123 -2.1782 -0.2481
 3916SOL    HW223208   3.082   3.117   4.343 -0.0016  0.8334 -1.0950
 3917SOL     OW23209   1.107   2.431   2.726  0.1484  0.3536 -0.2346
 3917SOL    HW123210   1.021   2.390   2.720  0.5161  0.0073 -3.2166
 3917SOL    HW223211   1.126   2.438   2.633  1.9094  1.6628  0.2191
 3918SOL     OW23212   4.220   3.682   5.363  0.6488  0.4173  0.0942
 3918SOL    HW123213   4.130   3.700   5.388  0.6175  2.1036 -1.2698
 3918SOL    HW223214   4.217   3.701   5.269  1.0143 -0.6014 -0.1252
 3919SOL     OW23215   0.547   3.462   8.644 -0.2427  0.2497 -0.4607
 3919SOL    HW123216   0.586   3.468   8.557  1.9377  0.8377  0.5689
 3919SOL    HW223217   0.455   3.474   8.621 -0.6982 -0.7973  0.8555
 3920SOL     OW23218   2.049   0.566   2.277 -0.3546  0.1456 -0.0419
 3920SOL    HW123219   2.101   0.620   2.217 -1.6922  0.1924 -1.1616
 3920SOL    HW223220   2.079   0.478   2.254  1.9673  1.0902 -0.7002
 3921SOL     OW23221   2.694   1.241  10.358 -0.0171 -0.0702  0.7861
 3921SOL    HW123222   2.603   1.224  10.382  0.3857 -0.8595  1.7644
 3921SOL    HW223223   2.681   1.329  10.322  0.0175 -0.0670  0.7817
 3922SOL     OW23224   3.894   2.723  14.278  0.0631 -0.1255  0.1531
 3922SOL    HW123225   3.933   2.733  14.191  2.3320  0.8326  1.2893
 3922SOL    HW223226   3.948   2.653  14.315 -0.3659 -0.0323  0.9440
 3923SOL     OW23227   2.593   2.921   0.001  0.5379  0.0511 -0.7122
 3923SOL    HW123228   2.650   2.973   0.057  0.4195  1.8928 -2.3108
 3923SOL    HW223229   2.583   2.840   0.051  0.0576 -0.0395 -0.9540
 3924SOL     OW23230   0.795   4.361   6.737  0.6990 -0.1594 -0.0036
 3924SOL    HW123231   0.753   4.362   6.650  0.9909  0.5378 -0.1380
 3924SOL    HW223232   0.763   4.440   6.781 -0.0378 -0.0382 -0.7395
 3925SOL     OW23233   4.462   0.486  15.597 -0.3085  0.5903 -0.8462
 3925SOL    HW123234   4.539   0.478  15.541  1.4587  0.4602  1.6212
 3925SOL    HW223235   4.490   0.530  15.677 -1.6429 -1.6725  0.8600
 3926SOL     OW23236   2.287   0.617   3.341 -0.1598 -0.0746  0.1957
 3926SOL    HW123237   2.305   0.711   3.338  0.9348 -0.2817  0.6507
 3926SOL    HW223238   2.208   0.619   3.285  0.1023 -3.9731 -0.3143
 3927SOL     OW23239   2.313   0.070   7.828  0.1527  0.0270 -0.4403
 3927SOL    HW123240   2.248   0.048   7.896  1.7119 -0.3137  0.9529
 3927SOL    HW223241   2.366   0.130   7.881  2.9944 -2.6587 -0.2235
 3928SOL     OW23242   4.495   2.141   5.988 -0.2527 -0.4672  0.2890
 3928SOL    HW123243   4.488   2.057   5.942  1.8596  0.4197 -1.6566
 3928SOL    HW223244   4.581   2.157   5.949  0.8889 -0.2957  2.8528
 3929SOL     OW23245   1.563   0.033   2.415  0.1526  0.0921 -0.2330
 3929SOL    HW123246   1.592   0.124   2.411  1.8263 -0.3788  1.0564
 3929SOL    HW223247   1.630   4.714   2.362  0.8585  0.0615  0.6872
 3930SOL     OW23248   3.474   0.283   2.549 -0.1785  0.3143  0.1766
 3930SOL    HW123249   3.386   0.318   2.532 -1.9648 -3.9028  0.7030
 3930SOL    HW223250   3.485   0.322   2.636 -0.3914 -0.8833  0.7447
 3931SOL     OW23251   0.327   3.866  10.214  0.4172  0.0360 -0.4952
 3931SOL    HW123252   0.368   3.857  10.300 -0.9633  1.2489  0.2968
 3931SOL    HW223253   0.282   3.951  10.213  0.1509 -0.1053 -0.3794
 3932SOL     OW23254   1.602   2.297   6.244  0.2867 -0.5724 -0.3166
 3932SOL    HW123255   1.621   2.391   6.238 -0.3008 -0.4516 -0.1832
 3932SOL    HW223256   1.634   2.277   6.332 -1.3209 -0.7051  0.2221
 3933SOL     OW23257   1.058   0.277  15.037 -0.3118 -0.3558 -0.4002
 3933SOL    HW123258   1.017   0.195  15.062 -0.0941  0.2343  1.9315
 3933SOL    HW223259   1.151   0.261  15.055 -0.2369 -1.7210 -2.1181
 3934SOL     OW23260   3.620   2.344  10.628 -0.0329 -0.0310 -0.0934
 3934SOL    HW123261   3.612   2.281  10.556 -0.2383  0.4560 -0.4999
 3934SOL    HW223262   3.597   2.293  10.706 -0.8109 -2.0058 -1.6139
 3935SOL     OW23263   3.821   1.586   9.365  0.4215  0.3278 -0.1636
 3935SOL    HW123264   3.851   1.527   9.296  0.5451  1.1635 -0.8057
 3935SOL    HW223265   3.879   1.661   9.356  1.9417 -0.4746  2.7859
 3936SOL     OW23266   2.256   4.650  13.914  0.5460  0.0712  0.2907
 3936SOL    HW123267   2.344   4.649  13.951  0.3334 -1.1119  0.7445
 3936SOL    HW223268   2.229   0.004  13.960  1.1865  0.1205  0.5842
 3937SOL     OW23269   3.665   3.014   3.462 -0.5143 -0.0143 -0.5299
 3937SOL    HW123270   3.720   3.080   3.505  0.0942 -3.1662  3.5208
 3937SOL    HW223271   3.728   2.993   3.393  0.4460  2.6459 -0.4670
 3938SOL     OW23272   0.135   0.214   2.552  0.3013 -0.7436  0.1056
 3938SOL    HW123273   0.128   0.295   2.501 -0.9439  0.3630  2.0558
 3938SOL    HW223274   0.094   0.160   2.484 -0.5953 -0.3856  0.3624
 3939SOL     OW23275   1.731   4.173   0.237  0.1267 -0.2418 -0.2763
 3939SOL    HW123276   1.757   4.181   0.328  2.0094 -0.5631 -0.8011
 3939SOL    HW223277   1.699   4.083   0.226 -1.2203  0.5126 -2.7090
 3940SOL     OW23278   3.567   2.848  17.269 -0.2646  0.4038  0.0889
 3940SOL    HW123279   3.584   2.886  17.182  1.0881  1.6505  0.9088
 3940SOL    HW223280   3.475   2.870  17.284 -0.4618 -1.5120  1.6195
 3941SOL     OW23281   1.305   4.535   3.101 -0.0800 -0.4321 -0.0108
 3941SOL    HW123282   1.299   4.439   3.099  1.3350 -0.5055 -0.2932
 3941SOL    HW223283   1.382   4.552   3.155  0.4809 -0.9167 -0.6549
 3942SOL     OW23284   3.340   4.594  14.327 -0.2480 -0.0576  0.5489
 3942SOL    HW123285   3.402   4.525  14.350 -1.6262 -2.3375 -2.5666
 3942SOL    HW223286   3.370   4.621  14.241  0.3889  0.6621  1.0016
 3943SOL     OW23287   1.693   1.169  13.097 -0.2681 -0.0456 -0.0316
 3943SOL    HW123288   1.788   1.163  13.085 -0.4914  3.2653 -3.5247
 3943SOL    HW223289   1.675   1.255  13.058 -3.3268  0.9047  3.5080
 3944SOL     OW23290   2.527   3.289   4.417 -0.5215  0.5825  0.0368
 3944SOL    HW123291   2.502   3.286   4.509 -2.4123 -0.2325 -0.4977
 3944SOL    HW223292   2.603   3.230   4.415 -3.0520 -2.6897  1.2388
 3945SOL     OW23293   2.066   3.684  10.703 -0.4424 -0.1819 -0.1625
 3945SOL    HW123294   1.998   3.670  10.769  0.8723 -0.7746  1.0762
 3945SOL    HW223295   2.120   3.604  10.703  1.0506  0.8231  0.7095
 3946SOL     OW23296   2.086   3.584   6.318 -0.5358  0.5920  0.2371
 3946SOL    HW123297   2.094   3.516   6.251 -3.3312 -0.3123  0.8113
 3946SOL    HW223298   2.056   3.529   6.390  1.5382 -1.5955 -0.5744
 3947SOL     OW23299   3.800   1.613   5.273  0.1197 -0.4113  0.2748
 3947SOL    HW123300   3.841   1.556   5.208 -0.6690 -1.2578  0.5062
 3947SOL    HW223301   3.726   1.556   5.294 -2.1760  2.1256 -0.9697
 3948SOL     OW23302   3.109   3.635   7.163 -0.5236  0.5322 -0.1655
 3948SOL    HW123303   3.059   3.673   7.091 -1.0616  1.7432  0.8517
 3948SOL    HW223304   3.044   3.585   7.213 -0.6441  0.7839 -0.0757
 3949SOL     OW23305   4.062   3.641   8.024  0.1491  0.6351 -0.7431
 3949SOL    HW123306   4.052   3.560   8.074  0.4009  0.2313 -1.3571
 3949SOL    HW223307   4.156   3.625   8.014 -0.0250 -1.0799  0.3963
 3950SOL     OW23308   3.673   2.360  14.802  0.1382 -0.2562  0.2023
 3950SOL    HW123309   3.591   2.404  14.780  1.4779  1.3588 -1.5930
 3950SOL    HW223310   3.732   2.432  14.781 -0.0884 -0.0070  0.4225
 3951SOL     OW23311   4.539   0.583   6.038 -0.5269 -0.4983  0.8788
 3951SOL    HW123312   4.537   0.617   6.127  0.2102 -0.0139  0.7091
 3951SOL    HW223313   4.540   0.662   5.983 -0.3669 -0.6263  0.6988
 3952SOL     OW23314   0.897   3.371   2.883 -0.1879 -0.2624  0.0743
 3952SOL    HW123315   0.870   3.388   2.793 -1.9495  2.0038  1.0128
 3952SOL    HW223316   0.847   3.290   2.894  0.3571 -0.2720  2.6101
 3953SOL     OW23317   1.620   4.284  12.837 -0.7840  0.0949 -0.1757
 3953SOL    HW123318   1.563   4.282  12.914 -0.3796  0.4830  0.1315
 3953SOL    HW223319   1.676   4.207  12.846 -2.0279 -0.6698  0.9879
 3954SOL     OW23320   0.500   1.768   2.765  0.2778 -0.1521  0.3353
 3954SOL    HW123321   0.413   1.732   2.782  0.4658 -1.1384 -0.7935
 3954SOL    HW223322   0.545   1.694   2.724 -0.9241 -0.0341 -1.1797
 3955SOL     OW23323   0.322   0.876  11.693 -0.3080  0.3883  0.4507
 3955SOL    HW123324   0.385   0.821  11.645  1.1993  2.0315  0.5411
 3955SOL    HW223325   0.373   0.901  11.771  2.5447  0.9258 -1.5743
 3956SOL     OW23326   4.671   4.220  16.588 -0.3861 -0.1032 -0.5631
 3956SOL    HW123327   4.666   4.156  16.658 -0.9762 -0.1921 -0.6861
 3956SOL    HW223328   4.621   4.176  16.519 -0.3038  1.4543 -1.6413
 3957SOL     OW23329   0.930   3.554   1.653  0.4859 -0.0076  0.1992
 3957SOL    HW123330   0.938   3.622   1.719 -0.3793  0.2251  0.0657
 3957SOL    HW223331   0.835   3.564   1.645  0.5970  0.5315 -0.5327
 3958SOL     OW23332   4.494   1.993  14.941 -0.4122 -0.1804 -0.5560
 3958SOL    HW123333   4.425   2.046  14.983 -0.2172  0.7435 -1.3975
 3958SOL    HW223334   4.500   2.055  14.868  1.0490  0.6803  0.3123
 3959SOL     OW23335   4.345   4.212   9.029  0.2027  0.2008 -0.2138
 3959SOL    HW123336   4.257   4.248   9.031 -0.3450 -1.1183 -1.0669
 3959SOL    HW223337   4.374   4.215   8.938 -2.9622  1.4459 -1.1488
 3960SOL     OW23338   2.751   1.288  13.825 -0.5999 -0.5327 -0.1125
 3960SOL    HW123339   2.666   1.300  13.784 -0.5486 -1.3808 -0.4467
 3960SOL    HW223340   2.772   1.376  13.858  0.7924 -0.3395 -1.5478
 3961SOL     OW23341   4.557   0.512   2.573 -0.1263  0.2314 -0.2057
 3961SOL    HW123342   4.485   0.573   2.557 -0.2795  0.1918  0.3559
 3961SOL    HW223343   4.611   0.574   2.622  0.6121 -0.5985  0.0158
 3962SOL     OW23344   3.426   2.655  15.168  0.0641 -0.0736  0.0617
 3962SOL    HW123345   3.509   2.695  15.140  0.1192  0.5358  1.0986
 3962SOL    HW223346   3.465   2.580  15.214  0.1621  1.4954  2.4777
 3963SOL     OW23347   3.794   2.612   3.990 -0.0925 -1.0861  0.1375
 3963SOL    HW123348   3.888   2.603   3.979 -0.1451 -2.1204  0.4797
 3963SOL    HW223349   3.771   2.519   4.002  1.4781 -1.3771  0.8620
 3964SOL     OW23350   3.083   0.711   8.564  0.5276  0.3638 -0.9841
 3964SOL    HW123351   3.130   0.731   8.645  1.9964 -0.4297 -1.6396
 3964SOL    HW223352   3.106   0.619   8.551  2.3487  0.5908  0.5738
 3965SOL     OW23353   3.643   4.398   9.127 -0.0531  0.6231 -0.3702
 3965SOL    HW123354   3.548   4.407   9.121 -0.2059 -0.7294  0.0772
 3965SOL    HW223355   3.661   4.484   9.087  0.7170 -1.5341 -4.6610
 3966SOL     OW23356   1.706   0.160   3.434 -0.0006  0.1282  0.0451
 3966SOL    HW123357   1.725   0.206   3.353  1.0370 -0.4178 -0.0263
 3966SOL    HW223358   1.693   0.067   3.412 -0.4363  0.4225 -0.9500
 3967SOL     OW23359   2.958   3.877   6.535 -0.2287  0.5804 -0.4619
 3967SOL    HW123360   2.924   3.854   6.622 -1.3663 -2.1439 -1.6341
 3967SOL    HW223361   3.043   3.915   6.558  0.8499 -2.4949  0.6902
 3968SOL     OW23362   2.455   3.770  16.149  0.7428  0.5595 -0.5696
 3968SOL    HW123363   2.468   3.709  16.076 -2.0087 -0.1563 -0.4581
 3968SOL    HW223364   2.363   3.752  16.166  1.2629  0.0528  1.7280
 3969SOL     OW23365   2.450   0.002  16.415  0.1259  0.3031 -0.2763
 3969SOL    HW123366   2.454   0.047  16.499 -3.1861 -0.4289  0.2643
 3969SOL    HW223367   2.396   4.653  16.443 -2.6292  1.1691 -3.3772
 3970SOL     OW23368   1.180   3.114  15.408 -0.2091  0.0999  0.0483
 3970SOL    HW123369   1.146   3.117  15.497  3.2239 -0.7141  1.4002
 3970SOL    HW223370   1.275   3.116  15.421  0.0030  3.1452 -1.9183
 3971SOL     OW23371   2.372   1.018   7.972  0.6670  0.3306  0.8585
 3971SOL    HW123372   2.284   1.011   8.008  1.2120 -1.5173  1.8197
 3971SOL    HW223373   2.357   0.986   7.883  0.6789 -0.1277  1.0185
 3972SOL     OW23374   3.005   3.450  17.105 -0.1281 -0.1707  0.3952
 3972SOL    HW123375   3.040   3.376  17.055 -0.4798  0.8781 -1.4155
 3972SOL    HW223376   2.945   3.402  17.162 -1.3292 -1.6871 -2.1629
 3973SOL     OW23377   2.845   3.022  11.879 -0.1437 -0.5968 -0.9125
 3973SOL    HW123378   2.885   2.936  11.888 -1.4563 -1.3819 -2.5143
 3973SOL    HW223379   2.887   3.072  11.949 -0.2717 -2.5619  0.5277
 3974SOL     OW23380   3.601   4.703   9.008 -0.1086 -0.5648 -0.2355
 3974SOL    HW123381   3.640   0.057   9.045 -1.0303 -1.5542  2.8427
 3974SOL    HW223382   3.571   0.006   8.922 -0.8186 -1.7390 -0.3656
 3975SOL     OW23383   1.594   0.071   1.760 -0.0647  0.2880  0.0411
 3975SOL    HW123384   1.649   0.024   1.697  0.0050  0.6694 -0.1835
 3975SOL    HW223385   1.668   0.114   1.803 -0.5410  0.4607  0.6912
 3976SOL     OW23386   2.470   3.204  11.846 -0.0238 -0.2227 -0.2143
 3976SOL    HW123387   2.534   3.150  11.798  0.3558  0.0343  0.0009
 3976SOL    HW223388   2.425   3.146  11.906 -0.2727 -1.0748 -1.2147
 3977SOL     OW23389   3.897   0.862  15.455  0.0682  0.5581  0.4894
 3977SOL    HW123390   3.875   0.786  15.402 -1.5022  0.8738  0.6727
 3977SOL    HW223391   3.984   0.834  15.483  0.6958  1.3274 -0.6795
 3978SOL     OW23392   0.801   0.168   9.147 -0.3931  0.1907  0.0217
 3978SOL    HW123393   0.805   0.137   9.056  0.2968 -0.7742  0.3726
 3978SOL    HW223394   0.762   0.252   9.125 -0.7607 -0.7324 -2.9075
 3979SOL     OW23395   1.140   3.857   2.190 -0.3838 -0.1669  0.1100
 3979SOL    HW123396   1.091   3.916   2.247 -2.9945 -0.8532 -1.4361
 3979SOL    HW223397   1.166   3.916   2.119  1.6467 -2.3721 -0.9553
 3980SOL     OW23398   2.181   0.922  12.543  0.5399  0.2511 -0.0043
 3980SOL    HW123399   2.246   0.949  12.478 -1.9097 -0.1786 -2.6293
 3980SOL    HW223400   2.149   1.008  12.570  0.3032 -0.0560  0.6929
 3981SOL     OW23401   4.413   3.665   4.890 -0.6459  0.1356  0.1170
 3981SOL    HW123402   4.339   3.703   4.842 -0.2585  0.3788 -0.2838
 3981SOL    HW223403   4.407   3.710   4.975  0.0896 -0.7220  0.6233
 3982SOL     OW23404   4.171   1.123   1.615 -0.1181 -0.0036 -0.0943
 3982SOL    HW123405   4.238   1.093   1.553  0.1738  0.9539 -0.2346
 3982SOL    HW223406   4.142   1.043   1.659 -0.1514 -0.0935 -0.2754
 3983SOL     OW23407   2.675   0.973  16.376  0.2463  0.4511  0.0250
 3983SOL    HW123408   2.753   0.959  16.430  2.0547  1.3407 -2.3741
 3983SOL    HW223409   2.719   1.027  16.311  0.7790  0.5527  0.4713
 3984SOL     OW23410   3.605   4.683   7.409  0.2183  0.3952 -0.5185
 3984SOL    HW123411   3.686   4.693   7.359  1.6510  0.1055  1.6908
 3984SOL    HW223412   3.627   0.012   7.485  0.6553  1.9845 -1.7887
 3985SOL     OW23413   3.274   0.604   7.618  0.3524  0.0850 -0.0855
 3985SOL    HW123414   3.219   0.630   7.692  0.3557  0.9962 -0.4150
 3985SOL    HW223415   3.255   0.683   7.568  1.1694  0.7950  0.7224
 3986SOL     OW23416   4.053   0.247   6.175  0.2506 -0.0832  0.2510
 3986SOL    HW123417   4.067   0.276   6.085  0.3241 -1.8665 -0.3216
 3986SOL    HW223418   4.104   0.311   6.224  0.4073  0.9903 -1.3098
 3987SOL     OW23419   2.896   0.609  13.819  0.1508 -0.3643 -0.0211
 3987SOL    HW123420   2.969   0.639  13.766  0.0817  2.0642  1.2814
 3987SOL    HW223421   2.828   0.597  13.753 -1.4134 -1.9911  1.8629
 3988SOL     OW23422   1.105   0.027  15.154  0.2571  0.0123  0.2673
 3988SOL    HW123423   1.144   0.099  15.204  0.9164  0.3322 -0.6992
 3988SOL    HW223424   1.026   0.015  15.207  0.3898  0.2220  0.5079
 3989SOL     OW23425   0.704   4.276   9.932 -0.4344  0.3889  0.1439
 3989SOL    HW123426   0.690   4.202   9.872 -1.7066 -0.5234  1.5833
 3989SOL    HW223427   0.682   4.350   9.876 -1.4185 -0.4821 -0.6265
 3990SOL     OW23428   3.947   2.363  16.286 -0.1812  0.0836 -0.0071
 3990SOL    HW123429   4.014   2.353  16.353 -0.5530 -0.6942  0.2415
 3990SOL    HW223430   3.997   2.431  16.241  0.6002 -0.5608 -0.1051
 3991SOL     OW23431   3.954   0.088  15.758 -0.6170  0.4571 -0.1954
 3991SOL    HW123432   4.040   0.057  15.730 -1.1434  1.6091 -3.0901
 3991SOL    HW223433   3.992   0.129  15.836 -1.8032 -0.4983  0.8713
 3992SOL     OW23434   0.023   2.671  12.105 -0.0850 -0.0920 -0.1532
 3992SOL    HW123435   0.058   2.640  12.188 -1.0883 -1.2463 -0.1650
 3992SOL    HW223436   0.082   2.744  12.087  0.2378 -0.3903 -0.2906
 3993SOL     OW23437   1.768   0.030   7.553 -0.5042  0.0585  0.0368
 3993SOL    HW123438   1.715   4.696   7.607 -2.0993  0.0267 -1.5474
 3993SOL    HW223439   1.702   0.098   7.536 -0.5861 -0.0274  0.0097
 3994SOL     OW23440   1.369   3.798   8.449 -0.1125 -0.1578 -0.3925
 3994SOL    HW123441   1.352   3.720   8.396  1.7264 -0.2008 -0.9293
 3994SOL    HW223442   1.353   3.761   8.536  0.6685 -1.1071 -0.6558
 3995SOL     OW23443   3.939   2.496   0.950 -0.1577  0.2806  0.2759
 3995SOL    HW123444   3.995   2.418   0.953  0.7641  1.1001  3.6762
 3995SOL    HW223445   3.849   2.467   0.961 -0.5472  2.0746  1.6704
 3996SOL     OW23446   0.136   0.124   8.511 -0.1721 -0.0414  0.2002
 3996SOL    HW123447   0.120   0.040   8.469  2.1283  0.0109 -0.7819
 3996SOL    HW223448   0.105   0.179   8.439 -0.9012 -2.7782 -1.5660
 3997SOL     OW23449   3.600   3.811   5.515 -0.1414 -0.0131 -0.1550
 3997SOL    HW123450   3.689   3.819   5.479 -0.3034 -0.0668 -0.5617
 3997SOL    HW223451   3.571   3.901   5.507 -0.2028 -0.1021 -0.9725
 3998SOL     OW23452   2.642   4.231  12.626 -0.5476  0.0284 -0.7112
 3998SOL    HW123453   2.567   4.179  12.597 -1.1863  0.5646 -0.0205
 3998SOL    HW223454   2.684   4.163  12.679 -1.1414 -0.9662 -1.5104
 3999SOL     OW23455   2.220   2.969  11.303 -0.2795  0.4265  0.5106
 3999SOL    HW123456   2.229   3.046  11.359  1.4167  1.5163 -1.2617
 3999SOL    HW223457   2.167   3.005  11.232 -0.9283 -1.1843  0.1876
 4000SOL     OW23458   1.296   3.089   3.367  0.3153  0.2280 -0.1730
 4000SOL    HW123459   1.332   3.176   3.349 -1.0939  0.5609 -1.4529
 4000SOL    HW223460   1.202   3.093   3.349  0.8807  1.2360 -3.0282
 4001SOL     OW23461   4.671   1.714   3.971  0.0690  0.1826 -0.6384
 4001SOL    HW123462   4.689   1.769   4.047  0.9573  0.9966 -1.4354
 4001SOL    HW223463   0.032   1.675   3.958  0.1942  0.0298  0.7143
 4002SOL     OW23464   0.732   4.083   8.997 -0.3733  0.1644 -0.0550
 4002SOL    HW123465   0.636   4.081   8.998 -0.3448 -0.5199  0.8456
 4002SOL    HW223466   0.754   4.074   9.089 -0.8641  2.5027  0.2861
 4003SOL     OW23467   3.639   0.848   8.288  0.0333  0.2926 -1.0082
 4003SOL    HW123468   3.632   0.814   8.198 -0.4358 -0.8167 -0.5508
 4003SOL    HW223469   3.706   0.787   8.319 -0.7078 -1.1029 -2.1323
 4004SOL     OW23470   4.257   2.734   7.734  0.0855  0.4734 -0.3537
 4004SOL    HW123471   4.253   2.669   7.803  0.1861  1.2206  0.3522
 4004SOL    HW223472   4.179   2.718   7.681 -0.7413  1.1748  0.6552
 4005SOL     OW23473   3.421   1.571   8.696 -0.0257 -0.2918 -0.1794
 4005SOL    HW123474   3.500   1.534   8.734  0.1188  0.8464  0.6236
 4005SOL    HW223475   3.426   1.662   8.724 -1.1551 -0.2011 -0.2611
 4006SOL     OW23476   2.627   3.123  10.301 -0.3415 -0.2864 -0.2656
 4006SOL    HW123477   2.593   3.089  10.218 -0.1225 -0.1462 -0.4139
 4006SOL    HW223478   2.554   3.157  10.352  1.3970  0.3704  1.7749
 4007SOL     OW23479   0.103   0.774   7.627  0.6328  0.1731 -1.0131
 4007SOL    HW123480   0.024   0.780   7.573  1.1984 -0.6067 -1.9313
 4007SOL    HW223481   0.130   0.685   7.603  0.8267 -0.3871  1.2827
 4008SOL     OW23482   2.343   2.787   5.051 -0.1652 -0.5909  0.2769
 4008SOL    HW123483   2.317   2.789   5.143  1.2080 -0.6952  0.6681
 4008SOL    HW223484   2.435   2.761   5.053  0.8026  2.7884  0.4880
 4009SOL     OW23485   3.899   2.424   7.531 -0.4693  0.1492 -0.1188
 4009SOL    HW123486   3.815   2.389   7.560  0.8756 -0.4524  3.1317
 4009SOL    HW223487   3.950   2.343   7.535 -0.0369  0.4650  0.9377
 4010SOL     OW23488   0.173   3.877   4.750  0.0668  0.2071  0.0381
 4010SOL    HW123489   0.174   3.813   4.679 -0.0053 -1.0977  1.2097
 4010SOL    HW223490   0.183   3.960   4.703  0.7124  1.6584  2.7248
 4011SOL     OW23491   4.605   2.258   1.880 -0.1604 -0.2249 -0.2833
 4011SOL    HW123492   4.557   2.241   1.799 -1.5159 -2.1695  0.9436
 4011SOL    HW223493   4.548   2.327   1.914 -0.0951  0.1967 -1.0255
 4012SOL     OW23494   1.821   2.795   9.968  0.0737  0.2502 -0.2132
 4012SOL    HW123495   1.851   2.831   9.885 -0.3745  1.3093  0.0782
 4012SOL    HW223496   1.903   2.762  10.006  0.3274  0.0423 -0.9466
 4013SOL     OW23497   1.051   4.184   9.848 -0.3048  0.2543 -0.5174
 4013SOL    HW123498   1.019   4.142   9.768 -0.9408  1.4004 -0.8570
 4013SOL    HW223499   1.145   4.181   9.831 -0.4368 -4.7051 -0.3657
 4014SOL     OW23500   1.874   3.795   7.539  0.0425 -0.5067  0.1600
 4014SOL    HW123501   1.862   3.751   7.455  0.1454 -1.1332  0.4735
 4014SOL    HW223502   1.917   3.874   7.507 -0.7686  0.4475  1.4418
 4015SOL     OW23503   1.374   1.664   3.311  0.5361 -0.0106  0.8187
 4015SOL    HW123504   1.402   1.669   3.219 -0.7864  0.9478  0.4578
 4015SOL    HW223505   1.442   1.609   3.348  0.5940 -0.7384 -0.3416
 4016SOL     OW23506   3.765   2.543   9.583 -0.2152 -0.1307  0.3297
 4016SOL    HW123507   3.812   2.498   9.512  1.2046  1.6732  0.1110
 4016SOL    HW223508   3.785   2.632   9.555 -1.9483  0.4795  1.0575
 4017SOL     OW23509   3.613   1.336   9.141 -0.6472 -0.6065  0.0294
 4017SOL    HW123510   3.657   1.260   9.179 -1.2126 -1.3647 -0.8486
 4017SOL    HW223511   3.687   1.389   9.113  0.5994 -1.7683  1.0789
 4018SOL     OW23512   2.227   0.997   2.212  0.1559 -0.0208 -0.3091
 4018SOL    HW123513   2.181   1.033   2.288 -0.3385  0.0511 -0.6441
 4018SOL    HW223514   2.285   1.071   2.193 -0.8313  0.0779 -2.8757
 4019SOL     OW23515   3.404   3.558   9.403 -0.1685 -0.1835 -0.1185
 4019SOL    HW123516   3.460   3.597   9.335 -2.6348 -0.1417 -2.1163
 4019SOL    HW223517   3.416   3.464   9.389  1.5249  0.1903 -1.1704
 4020SOL     OW23518   0.332   4.031   0.142  0.2876 -0.7508 -0.0231
 4020SOL    HW123519   0.381   4.013   0.062  0.1249 -1.5968  0.0739
 4020SOL    HW223520   0.300   4.119   0.119 -1.2439 -1.6403 -1.2742
 4021SOL     OW23521   3.761   1.746   4.961  0.3520  0.9147  0.1680
 4021SOL    HW123522   3.830   1.681   4.970 -0.0508  0.3653 -0.7300
 4021SOL    HW223523   3.739   1.773   5.050 -0.8007 -1.7245  0.6962
 4022SOL     OW23524   4.371   0.124   6.060  0.4062 -0.3988  0.1587
 4022SOL    HW123525   4.283   0.091   6.042 -0.2188  0.8266  0.9152
 4022SOL    HW223526   4.358   0.219   6.070  0.4045 -0.3738 -0.0891
 4023SOL     OW23527   2.090   4.438   8.194  0.1955  0.4887 -0.7497
 4023SOL    HW123528   2.034   4.376   8.240  0.7059 -0.3154 -1.2208
 4023SOL    HW223529   2.074   4.515   8.248 -4.6918 -0.5350 -0.7062
 4024SOL     OW23530   0.310   2.932  16.722  0.7507  0.0504  0.3800
 4024SOL    HW123531   0.312   2.871  16.796 -1.1386  0.4049  0.7325
 4024SOL    HW223532   0.384   2.990  16.739  0.2385  0.5006  1.0984
 4025SOL     OW23533   4.611   0.760   6.492 -0.2956  0.5437 -0.2466
 4025SOL    HW123534   4.626   0.829   6.428  0.3408 -1.1787 -1.9389
 4025SOL    HW223535   4.633   0.804   6.575  0.3161  1.5336 -0.9359
 4026SOL     OW23536   3.227   2.189  13.547  0.0128 -0.2751 -0.1077
 4026SOL    HW123537   3.219   2.119  13.483  0.9705 -1.0945  0.6744
 4026SOL    HW223538   3.290   2.249  13.506  0.4216  0.0355  0.9759
 4027SOL     OW23539   3.013   2.605   7.697  0.0141  0.9429  0.3231
 4027SOL    HW123540   2.938   2.658   7.669  0.0084  0.4807 -0.5119
 4027SOL    HW223541   3.061   2.593   7.616 -1.0359  1.0099 -0.3067
 4028SOL     OW23542   0.543   1.652  16.122  0.2697  0.0881 -0.0129
 4028SOL    HW123543   0.545   1.684  16.213  1.8934 -2.6705  0.9148
 4028SOL    HW223544   0.624   1.601  16.119 -1.3288 -2.2692 -2.5550
 4029SOL     OW23545   0.453   4.350  17.512 -0.0341  0.6392 -0.2401
 4029SOL    HW123546   0.493   4.302  17.440  2.4136  0.8521  0.9861
 4029SOL    HW223547   0.536   4.364  17.558  0.0011 -2.0226  0.5091
 4030SOL     OW23548   3.909   3.130   6.844  0.5913 -0.1968 -0.0655
 4030SOL    HW123549   3.945   3.043   6.828 -1.2280 -0.9712  0.1488
 4030SOL    HW223550   3.979   3.194   6.826  0.0331  0.8804  1.6257
 4031SOL     OW23551   1.081   0.428   7.273 -0.1093  0.1961  0.4007
 4031SOL    HW123552   1.040   0.502   7.228 -4.0101 -2.4982 -0.4726
 4031SOL    HW223553   1.074   0.356   7.210  0.4679 -0.8774  1.5818
 4032SOL     OW23554   3.851   2.592   1.728 -0.7818  0.7074 -0.5362
 4032SOL    HW123555   3.884   2.680   1.749  2.2591 -0.5204 -0.2779
 4032SOL    HW223556   3.927   2.549   1.690 -1.0391 -0.4984  0.3257
 4033SOL     OW23557   4.447   3.349   0.523 -0.4312  0.3456  0.6458
 4033SOL    HW123558   4.495   3.331   0.604  0.8685  1.2318  0.0768
 4033SOL    HW223559   4.391   3.420   0.554 -0.7464  0.7042 -0.7467
 4034SOL     OW23560   3.414   0.891   9.711  0.1326  0.1882 -0.2150
 4034SOL    HW123561   3.482   0.830   9.684  0.0921 -1.0078  2.3801
 4034SOL    HW223562   3.402   0.877   9.805  2.6687 -1.5712 -0.1701
 4035SOL     OW23563   4.455   3.573   0.061  0.4412  0.1283 -0.0965
 4035SOL    HW123564   4.518   3.502   0.049 -2.4011 -2.1401 -1.5813
 4035SOL    HW223565   4.503   3.655   0.047 -1.4975  1.2114 -0.4435
 4036SOL     OW23566   2.973   3.360   3.375  1.3113 -0.2870  0.1139
 4036SOL    HW123567   3.019   3.281   3.403 -0.1429 -1.6791 -1.4934
 4036SOL    HW223568   2.882   3.340   3.353  1.0409  1.4501 -0.3724
 4037SOL     OW23569   3.050   0.477   5.506 -0.1111  0.4507 -0.2674
 4037SOL    HW123570   3.098   0.460   5.587 -1.9038 -1.3368  0.4071
 4037SOL    HW223571   3.120   0.495   5.444 -0.8542 -0.4700 -1.3623
 4038SOL     OW23572   0.330   0.482   3.703 -0.1867 -0.0566 -0.3626
 4038SOL    HW123573   0.403   0.422   3.693 -1.3055 -1.4835  0.0613
 4038SOL    HW223574   0.312   0.464   3.795  2.5843  0.7597  0.3321
 4039SOL     OW23575   2.508   4.436  13.174 -0.4442  0.1405 -0.1537
 4039SOL    HW123576   2.445   4.401  13.238 -0.1570 -0.0006  0.0520
 4039SOL    HW223577   2.551   4.513  13.211  1.5659 -1.1564  0.2495
 4040SOL     OW23578   1.314   2.674   7.067  0.8068  0.1199  0.4283
 4040SOL    HW123579   1.328   2.579   7.062 -1.3939 -0.2008  0.4057
 4040SOL    HW223580   1.397   2.698   7.108  0.9499  1.9847 -0.9523
 4041SOL     OW23581   4.627   2.822  16.548 -0.0267 -0.2709 -0.7180
 4041SOL    HW123582   4.624   2.891  16.615  1.9278 -1.9828  1.1256
 4041SOL    HW223583   4.722   2.809  16.543 -0.3479 -2.9697  0.0810
 4042SOL     OW23584   1.715   0.550  11.669 -0.0398 -0.9204  0.1731
 4042SOL    HW123585   1.788   0.599  11.707 -1.3845  1.4987 -0.3906
 4042SOL    HW223586   1.644   0.556  11.733 -1.2010 -1.3586 -1.0748
 4043SOL     OW23587   3.320   0.099  12.461 -0.3154 -0.5384 -0.0855
 4043SOL    HW123588   3.359   0.187  12.467 -0.9336 -0.3833  1.4252
 4043SOL    HW223589   3.232   0.128  12.482 -0.3134 -0.8100  0.2980
 4044SOL     OW23590   1.184   3.530   7.835 -0.0708  0.2211 -0.2591
 4044SOL    HW123591   1.268   3.528   7.882  0.5375 -0.5746 -1.3947
 4044SOL    HW223592   1.154   3.616   7.865  0.1087 -0.0039  0.5662
 4045SOL     OW23593   4.590   2.156   5.618  0.0607  0.5203 -0.3241
 4045SOL    HW123594   4.658   2.158   5.551  0.4940 -3.5322 -0.0080
 4045SOL    HW223595   4.518   2.199   5.571 -1.2347  0.9501  2.0333
 4046SOL     OW23596   3.575   0.027   7.813  0.0393 -0.1764  0.3682
 4046SOL    HW123597   3.553   0.003   7.903 -2.3426  2.2879  0.4610
 4046SOL    HW223598   3.603   4.668   7.778 -0.3661 -0.2086  0.1203
 4047SOL     OW23599   1.940   2.218   6.986  0.3319  0.0781  0.0237
 4047SOL    HW123600   1.929   2.313   6.973 -0.3746  0.1885  1.4679
 4047SOL    HW223601   1.914   2.186   6.899  0.9620 -2.0866  0.6421
 4048SOL     OW23602   2.397   2.182   6.631 -0.1350  1.1147  0.5539
 4048SOL    HW123603   2.382   2.122   6.704  0.0882  2.2594  1.5424
 4048SOL    HW223604   2.458   2.241   6.674  0.9032  0.6184 -0.2499
 4049SOL     OW23605   4.421   2.235   7.949 -0.2744 -0.7830 -0.0428
 4049SOL    HW123606   4.415   2.208   7.857 -0.0080 -1.9026  0.2672
 4049SOL    HW223607   4.515   2.218   7.951 -0.2477 -0.8350 -1.9860
 4050SOL     OW23608   3.112   1.799  14.672  0.0782  0.3255  0.2516
 4050SOL    HW123609   3.126   1.806  14.577 -0.1028 -1.9408  0.0560
 4050SOL    HW223610   3.021   1.828  14.674 -0.5236 -1.7319  1.6376
 4051SOL     OW23611   0.858   1.752  11.464 -0.7243  0.2609 -0.3926
 4051SOL    HW123612   0.862   1.744  11.369  1.4139 -0.7798 -0.2256
 4051SOL    HW223613   0.838   1.661  11.488 -1.2807  0.5279  0.1396
 4052SOL     OW23614   4.000   0.704   2.912 -0.4644 -0.1714 -0.0887
 4052SOL    HW123615   4.066   0.710   2.981 -1.7327 -0.9619  1.1878
 4052SOL    HW223616   4.031   0.768   2.848  1.5453  2.2751  3.3419
 4053SOL     OW23617   3.589   4.709   5.509 -0.1116  0.4518  0.1046
 4053SOL    HW123618   3.524   4.667   5.452 -0.9888 -0.0395  1.4913
 4053SOL    HW223619   3.529   0.022   5.572 -0.4918 -0.7445  0.4665
 4054SOL     OW23620   3.184   0.253  13.224  0.3290 -0.1976  0.5985
 4054SOL    HW123621   3.092   0.233  13.241 -0.4997  1.1966 -2.2660
 4054SOL    HW223622   3.227   0.200  13.292 -1.2731 -1.5611  0.5270
 4055SOL     OW23623   4.723   2.088   0.681  0.4577  0.1541  0.4896
 4055SOL    HW123624   0.051   2.009   0.670  0.9961  0.7167 -0.8323
 4055SOL    HW223625   0.063   2.157   0.689  1.0487 -0.4049  0.4904
 4056SOL     OW23626   3.743   1.246   5.734  0.0078  0.1225  0.5544
 4056SOL    HW123627   3.779   1.307   5.670 -0.5818  0.1750  0.2665
 4056SOL    HW223628   3.714   1.307   5.802 -2.3948 -1.3828  0.8657
 4057SOL     OW23629   1.091   2.112   7.857  0.2655 -0.4003  0.2923
 4057SOL    HW123630   1.101   2.206   7.840  3.4596 -0.3689  2.3787
 4057SOL    HW223631   1.182   2.084   7.864  0.6011  0.6572  0.1861
 4058SOL     OW23632   4.026   0.544   5.978  0.0718 -0.0134 -0.0436
 4058SOL    HW123633   3.989   0.520   6.062  0.8174  0.2138  0.3502
 4058SOL    HW223634   4.030   0.639   5.992 -2.2021  0.3168 -1.7024
 4059SOL     OW23635   3.018   2.386   2.197  0.5895  0.1206 -0.3851
 4059SOL    HW123636   2.968   2.395   2.116 -0.6986  1.3305  0.5541
 4059SOL    HW223637   3.053   2.299   2.181 -1.0969 -0.6285  0.0479
 4060SOL     OW23638   2.446   3.445   6.192  0.0467 -0.3909  0.4294
 4060SOL    HW123639   2.436   3.517   6.256  0.4754  0.8789 -0.9390
 4060SOL    HW223640   2.359   3.406   6.205 -1.0676  2.1796  0.8962
 4061SOL     OW23641   0.798   0.946   3.738 -0.5880  0.1230  0.0700
 4061SOL    HW123642   0.763   1.008   3.674 -1.1036 -0.1825  0.0517
 4061SOL    HW223643   0.883   0.933   3.697 -0.5042 -0.3264  0.3894
 4062SOL     OW23644   4.462   3.185   6.217  0.1639 -0.0906  0.4906
 4062SOL    HW123645   4.477   3.163   6.126  0.4564  1.0080  0.2646
 4062SOL    HW223646   4.367   3.194   6.214 -0.0099 -1.8843  0.7282
 4063SOL     OW23647   4.520   0.620   0.639  0.2378  0.5538 -0.0127
 4063SOL    HW123648   4.576   0.687   0.679  1.1615 -1.4779  2.1063
 4063SOL    HW223649   4.470   0.678   0.581  3.4964  1.1613 -2.2182
 4064SOL     OW23650   4.708   0.157   5.013 -0.0080 -0.0956  0.3345
 4064SOL    HW123651   4.700   0.069   5.051  0.3304 -0.7013 -0.9670
 4064SOL    HW223652   0.010   0.134   4.924  1.3434  0.3382  0.6273
 4065SOL     OW23653   0.605   2.873   4.654 -0.5173 -0.8104 -0.1192
 4065SOL    HW123654   0.622   2.958   4.695 -0.7636 -1.5323  1.4735
 4065SOL    HW223655   0.549   2.835   4.722  2.1969 -4.3129  0.1893
 4066SOL     OW23656   2.098   0.634   4.187 -0.3677 -0.6838 -0.2277
 4066SOL    HW123657   2.124   0.703   4.248  1.6364 -0.4868 -1.3305
 4066SOL    HW223658   2.143   0.557   4.222 -0.3866 -1.3554 -1.7031
 4067SOL     OW23659   1.040   0.744   2.947  0.4872 -0.4995 -0.2345
 4067SOL    HW123660   1.047   0.812   3.014 -0.4719 -0.0466 -0.5945
 4067SOL    HW223661   1.103   0.777   2.883 -0.0175 -2.4995 -1.7692
 4068SOL     OW23662   0.216   3.695  14.054 -0.2088 -0.1294 -0.0574
 4068SOL    HW123663   0.297   3.661  14.090  0.0599  1.4108  0.7483
 4068SOL    HW223664   0.156   3.689  14.128 -2.2449 -0.8500 -1.7210
 4069SOL     OW23665   2.659   0.258  12.177  0.4607  0.3965  0.0499
 4069SOL    HW123666   2.669   0.247  12.083 -1.0586  0.1446 -0.0865
 4069SOL    HW223667   2.695   0.173  12.203 -0.4131 -0.0809 -0.3022
 4070SOL     OW23668   3.329   1.247   8.064 -0.0026  0.4607  0.3750
 4070SOL    HW123669   3.343   1.219   8.154  1.4765  0.3627  0.1200
 4070SOL    HW223670   3.340   1.340   8.083 -0.9561  0.2013  2.1818
 4071SOL     OW23671   2.495   0.358   2.007  0.2734  0.5523  0.3056
 4071SOL    HW123672   2.507   0.331   2.098  1.0881 -1.2703 -0.3478
 4071SOL    HW223673   2.582   0.342   1.971  0.6383  0.6590  1.1309
 4072SOL     OW23674   1.044   2.820   2.930  0.5785  0.1509  0.2639
 4072SOL    HW123675   0.993   2.846   3.007  2.2794  2.3656  0.6535
 4072SOL    HW223676   1.080   2.737   2.961 -0.8461 -0.9088 -0.9572
 4073SOL     OW23677   1.919   0.760   0.628 -0.1314  0.4887  0.1274
 4073SOL    HW123678   1.876   0.801   0.704  1.7782  2.3384  0.2053
 4073SOL    HW223679   1.872   0.796   0.553  0.3628  0.5630 -0.1449
 4074SOL     OW23680   1.364   0.181   2.675  0.4131 -0.1922 -0.4341
 4074SOL    HW123681   1.374   0.113   2.742  3.6870  0.5101 -0.1876
 4074SOL    HW223682   1.414   0.251   2.718  2.2810 -1.1545 -1.0263
 4075SOL     OW23683   0.654   1.449  13.794  0.1287 -0.1918  0.0266
 4075SOL    HW123684   0.661   1.491  13.708  1.1176 -1.3211 -0.4482
 4075SOL    HW223685   0.708   1.512  13.842  2.2646 -2.0570  0.0600
 4076SOL     OW23686   3.135   2.691   6.224 -0.0052  0.2057  0.1665
 4076SOL    HW123687   3.197   2.762   6.240 -0.6466 -0.1152  4.0570
 4076SOL    HW223688   3.195   2.619   6.209 -0.9869 -0.9301  1.7288
 4077SOL     OW23689   1.747   4.649   6.001 -0.1377  0.0392  0.2542
 4077SOL    HW123690   1.784   4.703   6.071  1.5082  0.3811 -0.8704
 4077SOL    HW223691   1.824   4.651   5.945 -0.7401  0.7547 -0.5672
 4078SOL     OW23692   1.572   0.411   7.159  0.5882  0.1409 -0.0888
 4078SOL    HW123693   1.659   0.451   7.160  0.3532  0.6554 -0.0265
 4078SOL    HW223694   1.603   0.320   7.163 -2.2569 -0.7721  1.0879
 4079SOL     OW23695   3.307   3.715   7.320 -0.6129 -0.3271 -0.6855
 4079SOL    HW123696   3.227   3.681   7.281 -0.3971 -2.7583  0.9874
 4079SOL    HW223697   3.340   3.635   7.359 -0.1545 -0.7504 -1.9389
 4080SOL     OW23698   3.708   0.387   1.910  0.8858  0.7668 -0.0813
 4080SOL    HW123699   3.717   0.344   1.825 -1.5476 -1.4012  0.7982
 4080SOL    HW223700   3.789   0.370   1.958  0.2534  0.0905  0.7411
 4081SOL     OW23701   1.743   4.560   2.150  0.4149 -0.2590  0.1762
 4081SOL    HW123702   1.660   4.525   2.183  1.6190  0.9848  4.5037
 4081SOL    HW223703   1.740   4.528   2.060  0.0076 -1.1100  0.4874
 4082SOL     OW23704   0.815   1.612   5.072 -0.0331  0.1844  0.1416
 4082SOL    HW123705   0.727   1.627   5.037  0.2092 -3.4541 -2.0388
 4082SOL    HW223706   0.798   1.522   5.099  0.1442  0.0225 -0.2931
 4083SOL     OW23707   0.070   2.500  11.891  0.2897  0.3760  0.2468
 4083SOL    HW123708   0.067   2.557  11.968 -0.9903 -1.5202  1.6327
 4083SOL    HW223709   0.139   2.443  11.923 -0.0132 -0.4583 -0.5899
 4084SOL     OW23710   0.320   1.188  12.854  0.1351  0.0461  0.3376
 4084SOL    HW123711   0.317   1.119  12.788  0.5173 -0.6212  1.0067
 4084SOL    HW223712   0.389   1.245  12.820 -0.3089  1.3924  1.6734
 4085SOL     OW23713   0.180   3.959  16.705 -0.5088  0.0048  0.2498
 4085SOL    HW123714   0.262   3.925  16.669  0.9436  2.0536  1.7071
 4085SOL    HW223715   0.217   4.006  16.779  0.7247 -1.4467  0.5646
 4086SOL     OW23716   1.999   2.212   7.924 -0.2058  0.0432  0.4442
 4086SOL    HW123717   1.972   2.192   8.014  1.5954  2.7002  1.5719
 4086SOL    HW223718   2.070   2.149   7.914  0.4417  0.8914 -0.2838
 4087SOL     OW23719   1.618   4.363   5.972  0.2215 -0.3044 -0.3242
 4087SOL    HW123720   1.640   4.454   5.954  0.6555 -0.5590 -1.1189
 4087SOL    HW223721   1.703   4.320   5.976  0.6739  0.3903 -2.2628
 4088SOL     OW23722   0.970   1.657  12.920  0.2113  0.2227  0.3537
 4088SOL    HW123723   0.946   1.568  12.946  0.2640  0.1611  0.1932
 4088SOL    HW223724   0.943   1.701  13.001  1.3023  2.2438 -0.3930
 4089SOL     OW23725   4.643   3.698   9.131 -0.0574  0.0807  0.0553
 4089SOL    HW123726   4.610   3.636   9.066 -0.0360  0.8780 -0.7100
 4089SOL    HW223727   4.622   3.778   9.083 -1.5558  0.7586  1.8465
 4090SOL     OW23728   0.001   2.112   7.042 -0.5767  0.3704  0.4164
 4090SOL    HW123729   0.027   2.095   6.951  1.7335  0.3294  1.0895
 4090SOL    HW223730   4.658   2.045   7.049 -0.1850 -0.3379 -2.2662
 4091SOL     OW23731   0.193   0.229   5.153  0.1340  0.0188 -0.4910
 4091SOL    HW123732   0.163   0.312   5.189  0.5117  1.2174 -3.0015
 4091SOL    HW223733   0.122   0.198   5.097  1.4273 -0.0704 -2.0730
 4092SOL     OW23734   1.709   2.925   9.297 -0.5432  0.2973  0.1045
 4092SOL    HW123735   1.726   2.938   9.390  1.0067  2.2848 -0.4454
 4092SOL    HW223736   1.796   2.952   9.265 -0.6252 -2.5723 -2.5653
 4093SOL     OW23737   4.264   2.578   5.285  0.3227  0.0779  0.4437
 4093SOL    HW123738   4.317   2.512   5.329 -0.3562 -1.2677 -0.7761
 4093SOL    HW223739   4.335   2.628   5.245  2.7303 -0.9239  3.4472
 4094SOL     OW23740   4.280   1.840   9.319  0.1624  0.4522 -0.2055
 4094SOL    HW123741   4.328   1.883   9.390  0.2398  0.4841 -0.2780
 4094SOL    HW223742   4.347   1.796   9.267 -1.0191 -0.9001 -0.6014
 4095SOL     OW23743   0.496   0.602   5.510  0.9220 -0.4761  0.3899
 4095SOL    HW123744   0.573   0.606   5.453  1.2685  1.6548  1.0119
 4095SOL    HW223745   0.461   0.691   5.515 -4.1420 -2.4756  0.4720
 4096SOL     OW23746   2.471   0.478   7.465  0.5106 -0.0288 -0.3569
 4096SOL    HW123747   2.466   0.573   7.463 -0.2664 -0.0872 -1.1658
 4096SOL    HW223748   2.489   0.462   7.372  0.4671 -1.3359 -0.1431
 4097SOL     OW23749   1.370   1.461   0.397 -0.4207  0.0109 -0.6000
 4097SOL    HW123750   1.416   1.434   0.476 -0.0262 -1.1951 -1.2494
 4097SOL    HW223751   1.383   1.556   0.394  0.5286 -0.1442 -1.5679
 4098SOL     OW23752   0.105   4.579   1.705 -0.2370  0.3393 -0.4185
 4098SOL    HW123753   0.136   4.557   1.617  2.6028 -1.6317  1.0746
 4098SOL    HW223754   0.112   4.675   1.698  0.9835  0.4847  2.3985
 4099SOL     OW23755   0.740   2.109  12.467 -0.1258 -0.4590  0.3274
 4099SOL    HW123756   0.770   2.193  12.431 -0.0250 -0.4065  0.5287
 4099SOL    HW223757   0.713   2.145  12.552  2.0709  1.8594  0.0588
 4100SOL     OW23758   0.098   3.060   3.731  0.3039  0.6954  0.0198
 4100SOL    HW123759   0.086   3.138   3.785 -0.3288  0.2292  0.5495
 4100SOL    HW223760   0.007   3.030   3.725  0.2795  0.0131  3.9268
 4101SOL     OW23761   4.342   0.756   8.099  0.1667 -0.0677 -0.2374
 4101SOL    HW123762   4.261   0.752   8.150  0.9058  0.3063  0.9655
 4101SOL    HW223763   4.417   0.751   8.158  0.3433  1.6364 -0.3083
 4102SOL     OW23764   0.512   3.068  15.771  0.0473  0.8242  0.1568
 4102SOL    HW123765   0.571   3.107  15.707  0.4439  1.8157  1.1229
 4102SOL    HW223766   0.424   3.105  15.759 -0.9630 -0.1975  4.2197
 4103SOL     OW23767   2.092   1.977   4.644  0.1809 -0.2653 -0.7852
 4103SOL    HW123768   2.131   1.988   4.557  0.3391 -1.4421 -0.8652
 4103SOL    HW223769   2.122   1.891   4.676  1.8758  0.0281 -1.5962
 4104SOL     OW23770   4.254   2.198  13.071 -0.4819 -0.0023 -0.0927
 4104SOL    HW123771   4.305   2.212  13.150  1.2440  1.1574 -1.4027
 4104SOL    HW223772   4.195   2.127  13.096 -0.1458  0.4731  2.0114
 4105SOL     OW23773   3.277   0.093   4.068  0.4217 -0.0933 -0.1935
 4105SOL    HW123774   3.305   0.076   3.979  0.6944  0.8871 -0.2878
 4105SOL    HW223775   3.317   0.177   4.090 -0.9938  0.3427  0.7727
 4106SOL     OW23776   2.120   1.131   2.405 -0.2347  0.1635 -0.1260
 4106SOL    HW123777   2.035   1.093   2.382 -0.3185  1.2664 -1.6254
 4106SOL    HW223778   2.115   1.217   2.363  0.5341  1.1066  1.6985
 4107SOL     OW23779   4.075   3.109   3.125  0.0786  0.2585 -0.8085
 4107SOL    HW123780   4.111   3.020   3.123  1.6003  0.8287  0.9566
 4107SOL    HW223781   4.145   3.155   3.078  1.1330 -1.6297 -1.0855
 4108SOL     OW23782   0.028   1.098   4.917  0.1983  0.2665  0.0812
 4108SOL    HW123783   0.102   1.042   4.893 -0.4360 -0.9361  0.9114
 4108SOL    HW223784   0.075   1.181   4.925 -1.5111  1.1041  1.4201
 4109SOL     OW23785   3.908   0.787   7.856  0.9117  0.3490  0.4285
 4109SOL    HW123786   3.938   0.878   7.860 -2.1188  1.4149 -0.8605
 4109SOL    HW223787   3.902   0.767   7.949 -0.8144  0.1871  0.2913
 4110SOL     OW23788   0.713   0.424   0.544 -0.5550 -0.1677 -0.1314
 4110SOL    HW123789   0.701   0.518   0.534 -1.6781  0.0096  2.9211
 4110SOL    HW223790   0.675   0.419   0.631 -1.5301  0.7199 -0.5117
 4111SOL     OW23791   2.169   0.458   1.150 -0.6319  0.2136 -0.1372
 4111SOL    HW123792   2.141   0.500   1.231  1.1653  0.9647  0.1025
 4111SOL    HW223793   2.086   0.415   1.130  0.7756 -2.8028  0.4940
 4112SOL     OW23794   0.217   1.084   7.965  0.5181  0.5393 -0.1275
 4112SOL    HW123795   0.199   0.991   7.952 -2.0968  0.9331  0.7154
 4112SOL    HW223796   0.288   1.096   7.902  1.8611  0.0731  1.3047
 4113SOL     OW23797   4.174   1.721   5.242 -0.2544 -0.4369 -0.0086
 4113SOL    HW123798   4.187   1.762   5.328  0.6010 -1.5592  0.4010
 4113SOL    HW223799   4.200   1.635   5.274  2.5779  0.5027  0.2651
 4114SOL     OW23800   3.671   1.632   0.524 -0.6833 -0.0209  0.2076
 4114SOL    HW123801   3.669   1.728   0.527 -1.0454 -0.0266  0.0744
 4114SOL    HW223802   3.598   1.606   0.468  1.2897 -0.9546 -1.9171
 4115SOL     OW23803   3.254   0.989   1.749  0.4669 -0.3397  0.6978
 4115SOL    HW123804   3.169   0.964   1.786 -0.4101 -0.4274 -1.3727
 4115SOL    HW223805   3.306   1.014   1.825  1.8514 -0.7827 -0.1107
 4116SOL     OW23806   2.010   1.912   1.973  0.7718 -0.4816 -0.7550
 4116SOL    HW123807   1.936   1.893   1.916 -0.6291  1.3437  0.4467
 4116SOL    HW223808   2.035   2.002   1.951 -0.0511  0.0050  0.3109
 4117SOL     OW23809   1.133   1.357   9.311 -0.2620  0.2313  0.0286
 4117SOL    HW123810   1.224   1.352   9.281 -0.1379  0.2697  0.3975
 4117SOL    HW223811   1.082   1.355   9.230 -2.4266  1.2602  1.3843
 4118SOL     OW23812   0.136   1.748   0.322 -0.3490 -0.6537 -0.1213
 4118SOL    HW123813   0.229   1.763   0.308 -0.2678 -2.5393 -1.5280
 4118SOL    HW223814   0.100   1.728   0.236 -1.5990  0.8196  0.0458
 4119SOL     OW23815   2.822   1.487   7.522 -0.8243 -0.1204  0.0271
 4119SOL    HW123816   2.832   1.437   7.603  3.0378  1.5042  0.5628
 4119SOL    HW223817   2.765   1.431   7.469  0.7800 -0.9551 -0.8255
 4120SOL     OW23818   1.520   2.170  16.306  0.2807  0.3575  0.5034
 4120SOL    HW123819   1.469   2.250  16.317  1.9875  1.2824  1.6772
 4120SOL    HW223820   1.548   2.176  16.214 -0.4663 -1.1283  0.1612
 4121SOL     OW23821   1.563   1.038  11.123  0.0437 -0.1129 -0.1755
 4121SOL    HW123822   1.570   1.030  11.218  2.9009  0.4774 -0.3448
 4121SOL    HW223823   1.515   0.961  11.091  0.4292 -0.2912 -0.3142
 4122SOL     OW23824   3.124   1.132  14.037 -0.0132 -0.0956  0.2285
 4122SOL    HW123825   3.151   1.216  14.075 -2.8461  0.0554  1.9309
 4122SOL    HW223826   3.190   1.080  14.083  0.4208  0.0178 -0.2716
 4123SOL     OW23827   3.963   0.585   2.071 -0.0999  0.3370 -0.6079
 4123SOL    HW123828   3.912   0.620   1.999  0.8103  2.4735 -0.1986
 4123SOL    HW223829   3.987   0.497   2.041 -1.8120  0.2966 -1.8201
 4124SOL     OW23830   1.831   2.403  11.152  0.0603  0.1868  0.0141
 4124SOL    HW123831   1.833   2.307  11.156 -0.6547  0.1839  0.2423
 4124SOL    HW223832   1.911   2.419  11.102 -1.0465 -1.0085 -2.1229
 4125SOL     OW23833   2.268   1.760  11.397 -0.4804 -0.3430  0.2745
 4125SOL    HW123834   2.282   1.848  11.432  0.6736 -0.5044  0.2150
 4125SOL    HW223835   2.348   1.762  11.345 -0.6195 -2.3927 -0.0418
 4126SOL     OW23836   4.164   2.625   5.813 -0.1806  0.3782 -0.4577
 4126SOL    HW123837   4.074   2.626   5.781 -1.0281 -0.1858  1.9241
 4126SOL    HW223838   4.156   2.540   5.858 -2.8572 -0.0019 -1.6633
 4127SOL     OW23839   3.043   2.405  16.361  0.7387  0.7423  0.2712
 4127SOL    HW123840   2.965   2.398  16.416 -0.0704 -0.0997 -0.9810
 4127SOL    HW223841   3.077   2.317  16.376  0.5121  0.7976  1.0859
 4128SOL     OW23842   1.718   1.021   0.658 -0.4460  0.3863 -0.1704
 4128SOL    HW123843   1.757   1.099   0.617 -0.8838 -0.2320 -1.7434
 4128SOL    HW223844   1.742   1.038   0.749 -0.7639 -2.3779  0.4319
 4129SOL     OW23845   0.159   0.976  13.230  0.2573  0.0168  0.0667
 4129SOL    HW123846   0.204   0.951  13.310  0.1137  1.2908  0.5538
 4129SOL    HW223847   0.095   0.907  13.215  1.1057 -0.6513 -0.5343
 4130SOL     OW23848   0.764   3.869  16.999  0.3215  0.0747 -0.0080
 4130SOL    HW123849   0.677   3.836  16.975  0.4280 -2.1322  2.5852
 4130SOL    HW223850   0.741   3.952  17.041 -1.0508 -0.0196 -0.5734
 4131SOL     OW23851   1.013   3.929  11.813  0.5212 -0.3519 -0.0282
 4131SOL    HW123852   1.039   3.838  11.800 -0.1002 -0.2930 -1.6928
 4131SOL    HW223853   1.094   3.944  11.862  0.0680  3.3602 -0.4277
 4132SOL     OW23854   4.495   2.637  16.395  0.3251  0.4495  0.0552
 4132SOL    HW123855   4.488   2.595  16.480  0.3700 -1.3138 -0.7955
 4132SOL    HW223856   4.530   2.722  16.422 -1.5499  1.6974 -1.4808
 4133SOL     OW23857   0.288   2.002  10.190  0.0739 -0.7098 -0.2419
 4133SOL    HW123858   0.244   1.944  10.252 -3.1068  1.1510 -0.7779
 4133SOL    HW223859   0.380   1.978  10.204  0.2061  0.7145  1.3279
 4134SOL     OW23860   1.293   0.375   4.934  0.5983  0.3728 -0.2026
 4134SOL    HW123861   1.278   0.368   4.840 -0.7453  2.3710 -0.1487
 4134SOL    HW223862   1.209   0.370   4.980  0.4278  1.0010 -0.4492
 4135SOL     OW23863   1.088   3.793   4.123  0.2307  0.0133  0.5631
 4135SOL    HW123864   1.034   3.746   4.060  2.3067 -1.7536  0.1039
 4135SOL    HW223865   1.050   3.880   4.132 -0.1338 -0.4413  3.3387
 4136SOL     OW23866   0.021   0.198   7.006  0.5045  0.2611 -0.6429
 4136SOL    HW123867   0.040   0.159   6.920 -0.1999  0.5138 -0.9130
 4136SOL    HW223868   4.652   0.212   7.012  0.3052 -1.1191 -0.3860
 4137SOL     OW23869   4.252   2.232   6.799  0.1489  0.0344 -0.3181
 4137SOL    HW123870   4.172   2.223   6.748 -0.6856 -2.2701  1.3694
 4137SOL    HW223871   4.316   2.272   6.741  0.6312  1.7822  1.4152
 4138SOL     OW23872   3.287   0.335  13.002  0.4035  0.3545 -0.2232
 4138SOL    HW123873   3.304   0.428  13.015  3.8718 -0.7441  2.8256
 4138SOL    HW223874   3.247   0.308  13.085  0.2227  0.4597 -0.2751
 4139SOL     OW23875   1.828   4.343  13.361 -0.4097 -0.1449  0.0552
 4139SOL    HW123876   1.802   4.251  13.363 -1.1535  0.0713  0.0910
 4139SOL    HW223877   1.866   4.349  13.449 -0.0083 -1.0805 -0.0619
 4140SOL     OW23878   0.426   0.880   2.709  0.2043 -0.3458  0.4149
 4140SOL    HW123879   0.379   0.796   2.711  1.5808 -1.1798 -2.4955
 4140SOL    HW223880   0.439   0.900   2.802 -1.2683 -1.8139  0.9397
 4141SOL     OW23881   1.235   4.579   8.188 -0.2725  0.2305  0.0935
 4141SOL    HW123882   1.272   4.570   8.101  0.5504  0.7810  0.3802
 4141SOL    HW223883   1.144   4.550   8.190  0.1860 -1.2661 -1.2763
 4142SOL     OW23884   3.212   0.972   7.503 -0.5503  0.2625 -0.0737
 4142SOL    HW123885   3.149   1.025   7.454 -0.8056  0.4322  0.4322
 4142SOL    HW223886   3.213   0.893   7.448  0.0239  0.4165 -0.2810
 4143SOL     OW23887   3.687   2.107  16.949 -0.3196 -0.0515  0.4623
 4143SOL    HW123888   3.709   2.121  17.041 -0.3733 -1.3902  0.6811
 4143SOL    HW223889   3.594   2.085  16.957 -0.5427 -0.1765 -2.5214
 4144SOL     OW23890   4.191   4.702   3.856 -0.0755  0.5085 -0.2294
 4144SOL    HW123891   4.164   4.644   3.927  1.1680  1.5683  1.1033
 4144SOL    HW223892   4.112   4.701   3.802  0.5012  2.7338 -1.0759
 4145SOL     OW23893   2.361   0.470  14.604  0.3875 -0.0454 -0.1309
 4145SOL    HW123894   2.420   0.526  14.554  0.4123  0.8941  0.9567
 4145SOL    HW223895   2.405   0.387  14.589  1.1861  0.3332  0.1208
 4146SOL     OW23896   2.444   3.469   5.770  0.3993 -0.0304  0.4487
 4146SOL    HW123897   2.501   3.487   5.844 -0.4267  0.9444  0.8411
 4146SOL    HW223898   2.458   3.378   5.744  1.1274  0.0359  0.5979
 4147SOL     OW23899   1.436   0.460   8.082  0.3093  0.1279 -0.0226
 4147SOL    HW123900   1.447   0.461   7.987 -2.4820 -4.9228 -0.4051
 4147SOL    HW223901   1.457   0.548   8.113  0.2079  0.3045 -0.4622
 4148SOL     OW23902   4.029   2.286   6.617 -0.0475  0.4183 -0.4745
 4148SOL    HW123903   3.935   2.266   6.621  0.3380 -1.1264  0.9217
 4148SOL    HW223904   4.032   2.363   6.561  3.1671  0.6010 -0.0370
 4149SOL     OW23905   0.724   1.129   6.103  0.1004  0.3123  0.2192
 4149SOL    HW123906   0.726   1.148   6.009 -1.9600  1.5546  0.3965
 4149SOL    HW223907   0.635   1.092   6.100 -0.0425  0.7296 -0.8188
 4150SOL     OW23908   1.884   2.711   2.243 -0.3671 -0.1150 -0.6357
 4150SOL    HW123909   1.848   2.773   2.306  1.9140 -0.3974  0.9247
 4150SOL    HW223910   1.948   2.660   2.292 -1.3128  0.1356  0.8469
 4151SOL     OW23911   0.930   4.169  10.129  0.4039  0.2830  0.7347
 4151SOL    HW123912   0.986   4.183  10.205  0.9639  1.1575  0.1613
 4151SOL    HW223913   0.884   4.087  10.147 -1.1752  0.7308 -1.2429
 4152SOL     OW23914   0.780   1.957   3.592 -0.1483 -0.1450 -0.5061
 4152SOL    HW123915   0.815   1.869   3.577  1.4920  0.7770 -2.0025
 4152SOL    HW223916   0.723   1.947   3.669 -1.7721 -3.1816 -2.0983
 4153SOL     OW23917   2.983   1.921   8.019 -0.7078 -0.6543 -0.1685
 4153SOL    HW123918   2.902   1.905   7.970 -1.5626  0.3737  0.8791
 4153SOL    HW223919   2.986   2.017   8.009 -1.6712 -0.8103 -2.0256
 4154SOL     OW23920   2.570   3.176   0.559  0.6974 -0.4681 -0.4993
 4154SOL    HW123921   2.656   3.164   0.519  2.2029  0.1346  2.5724
 4154SOL    HW223922   2.518   3.146   0.484 -0.6080  1.5251 -0.3969
 4155SOL     OW23923   0.843   1.527  16.509 -0.6809 -0.5345 -0.5695
 4155SOL    HW123924   0.909   1.584  16.547 -0.1787 -0.8503 -0.9631
 4155SOL    HW223925   0.893   1.445  16.512 -1.4528 -0.9708  0.1533
 4156SOL     OW23926   3.126   1.119  13.753 -0.0572 -0.8144  0.0914
 4156SOL    HW123927   3.039   1.122  13.713 -1.0175  1.0817  2.3051
 4156SOL    HW223928   3.103   1.110  13.846 -1.7126  2.5648  0.0044
 4157SOL     OW23929   2.184   4.260   4.239  0.0424 -0.0191  0.1050
 4157SOL    HW123930   2.115   4.198   4.217  0.4055 -0.4303  0.1305
 4157SOL    HW223931   2.249   4.197   4.273  0.7081  0.4588 -0.2714
 4158SOL     OW23932   4.706   2.740   5.931  0.7776 -0.5669 -0.4287
 4158SOL    HW123933   4.637   2.793   5.891  2.2996  1.0718 -0.8528
 4158SOL    HW223934   4.662   2.673   5.983  1.3948 -0.6424 -0.0096
 4159SOL     OW23935   0.218   2.268   6.856 -0.5528  0.3126 -0.1940
 4159SOL    HW123936   0.166   2.345   6.834  1.6886  2.1175  0.8180
 4159SOL    HW223937   0.175   2.199   6.804  1.2444 -0.0385 -1.2262
 4160SOL     OW23938   2.019   1.317  16.775 -0.4172 -0.2243 -0.4509
 4160SOL    HW123939   1.934   1.357  16.794 -0.4770 -0.0803 -1.0229
 4160SOL    HW223940   2.067   1.396  16.750  0.2025 -1.0032 -1.7201
 4161SOL     OW23941   3.405   4.437   5.700 -0.1304  0.0364 -0.2868
 4161SOL    HW123942   3.476   4.418   5.761  0.1433  1.7406 -0.0518
 4161SOL    HW223943   3.409   4.533   5.703  0.8046 -0.0657  1.4520
 4162SOL     OW23944   3.643   0.061   2.473 -0.4775  0.0466 -0.0885
 4162SOL    HW123945   3.616   0.153   2.468  0.2474  0.4232  3.1279
 4162SOL    HW223946   3.659   0.062   2.567  0.6970 -1.7450 -0.2573
 4163SOL     OW23947   4.355   1.487   5.768  0.1174 -0.5382 -0.2220
 4163SOL    HW123948   4.395   1.408   5.805  0.9360  1.1913  2.6487
 4163SOL    HW223949   4.366   1.552   5.838  0.0923  0.3063 -1.0106
 4164SOL     OW23950   2.655   4.241   3.501 -0.5585  0.2493 -0.0551
 4164SOL    HW123951   2.737   4.268   3.459 -0.5540 -0.9175 -0.7966
 4164SOL    HW223952   2.597   4.249   3.426  0.6951  1.4958 -0.9058
 4165SOL     OW23953   2.609   1.161  14.259  0.3823 -0.0824 -0.0705
 4165SOL    HW123954   2.667   1.152  14.183  0.0293  0.7059 -0.4251
 4165SOL    HW223955   2.642   1.247  14.285  2.0127 -0.0255 -2.2910
 4166SOL     OW23956   3.019   0.952   3.570 -0.4220 -0.1281 -0.4603
 4166SOL    HW123957   3.092   0.968   3.630 -2.5455  0.0637  2.0732
 4166SOL    HW223958   3.036   0.863   3.539 -0.8464 -0.1803 -0.5302
 4167SOL     OW23959   1.301   4.608   2.038 -1.3892 -0.4008  0.0397
 4167SOL    HW123960   1.340   4.575   1.958 -0.5605 -0.1423  0.3394
 4167SOL    HW223961   1.220   4.646   2.001 -0.9601 -0.8503 -1.3594
 4168SOL     OW23962   3.123   2.227   5.854 -0.1228 -0.5582 -0.0251
 4168SOL    HW123963   3.127   2.322   5.839 -0.2509 -0.6650 -0.7484
 4168SOL    HW223964   3.101   2.223   5.947 -1.5388  0.4289 -0.3063
 4169SOL     OW23965   4.179   3.648   1.095  0.2261  0.4144  0.0000
 4169SOL    HW123966   4.132   3.586   1.039 -0.0759 -0.0330  0.7479
 4169SOL    HW223967   4.247   3.588   1.125  1.1436  1.0330 -0.8416
 4170SOL     OW23968   4.182   4.223   4.112 -0.2915 -0.1667  0.2565
 4170SOL    HW123969   4.253   4.285   4.130 -1.1866 -0.0056  3.1785
 4170SOL    HW223970   4.132   4.230   4.194  0.9740  0.3575  0.9821
 4171SOL     OW23971   4.566   0.873   0.660 -0.3019  0.1460 -0.1570
 4171SOL    HW123972   4.560   0.917   0.576 -0.9884  0.9192  0.2900
 4171SOL    HW223973   4.596   0.953   0.704 -2.0015  1.9468 -2.2673
 4172SOL     OW23974   0.093   2.798   6.448 -0.2599  0.3838 -0.1287
 4172SOL    HW123975   0.022   2.854   6.417  0.2791  0.9614 -0.3123
 4172SOL    HW223976   0.096   2.727   6.384  3.3469  3.3236 -3.2494
 4173SOL     OW23977   1.583   3.498   6.440 -0.4867  0.0707 -0.0892
 4173SOL    HW123978   1.569   3.511   6.533 -0.0559 -0.2056  0.0139
 4173SOL    HW223979   1.642   3.570   6.417  0.1271 -0.6611 -0.7745
 4174SOL     OW23980   2.801   1.857   9.236 -0.0086 -0.3870 -0.5166
 4174SOL    HW123981   2.768   1.784   9.289 -2.0302  0.5919 -0.4658
 4174SOL    HW223982   2.798   1.924   9.305  0.6573 -0.1754 -0.6946
 4175SOL     OW23983   2.265   2.080   1.896  0.0540  0.1423  0.4986
 4175SOL    HW123984   2.177   2.105   1.868  0.6409  1.4067 -0.2432
 4175SOL    HW223985   2.309   2.162   1.874 -0.5234  0.0418 -1.0229
 4176SOL     OW23986   3.688   4.091   1.085  0.1128 -0.2420  0.8720
 4176SOL    HW123987   3.719   4.029   1.019  0.0702  1.3795 -0.6631
 4176SOL    HW223988   3.629   4.028   1.127 -0.8742 -1.5904 -2.5430
 4177SOL     OW23989   4.336   1.567   3.170  0.3792 -0.6391  0.4098
 4177SOL    HW123990   4.397   1.641   3.165  0.3966 -0.5939  1.2207
 4177SOL    HW223991   4.263   1.585   3.111  0.3347  1.9738  1.2343
 4178SOL     OW23992   0.908   0.416   0.907 -0.0058  0.1757  0.6100
 4178SOL    HW123993   0.974   0.390   0.971 -1.1544 -0.8051  1.3911
 4178SOL    HW223994   0.961   0.422   0.827  0.9716  1.8629  1.3967
 4179SOL     OW23995   1.862   2.911   6.343  0.5907  0.2610 -0.4433
 4179SOL    HW123996   1.893   2.849   6.276 -0.0319 -0.8667  0.3188
 4179SOL    HW223997   1.809   2.863   6.406 -1.3460  0.8369 -1.6193
 4180SOL     OW23998   0.249   1.779  13.790  1.0770 -0.1910 -0.5706
 4180SOL    HW123999   0.229   1.866  13.755 -0.1782 -0.3463 -0.2445
 4180SOL    HW224000   0.344   1.784  13.800  0.9616 -1.3895  1.0922
 4181SOL     OW24001   0.667   3.075   7.484 -0.1378  0.0886 -0.5489
 4181SOL    HW124002   0.590   3.097   7.536 -0.4613 -1.2936 -0.4461
 4181SOL    HW224003   0.723   3.027   7.544 -0.5780  0.4954  0.1936
 4182SOL     OW24004   3.550   3.358  16.081  0.2859  0.7208 -0.4092
 4182SOL    HW124005   3.549   3.263  16.085 -0.6627  0.7097 -1.1073
 4182SOL    HW224006   3.644   3.377  16.070  0.6756 -0.4069  1.0871
 4183SOL     OW24007   0.927   4.536   5.767 -0.1044  0.2742  0.4475
 4183SOL    HW124008   0.866   4.580   5.827 -1.1954 -0.1216 -0.3643
 4183SOL    HW224009   0.875   4.460   5.740 -0.1289  1.2777 -2.3102
 4184SOL     OW24010   3.653   1.188  14.144 -0.1046  0.4879  0.6185
 4184SOL    HW124011   3.579   1.146  14.187  1.1673 -2.1584  0.1976
 4184SOL    HW224012   3.648   1.158  14.053  1.1803 -1.8482  1.3189
 4185SOL     OW24013   4.074   2.897   6.253 -0.7750 -0.7534  0.0691
 4185SOL    HW124014   4.094   2.853   6.171  0.5863  0.7891 -0.4388
 4185SOL    HW224015   4.094   2.989   6.232 -1.9645 -0.6338 -0.4980
 4186SOL     OW24016   4.097   4.692  10.500  0.1170  0.0563  0.6810
 4186SOL    HW124017   4.106   0.062  10.509  1.7514 -0.0373  0.0728
 4186SOL    HW224018   4.069   4.659  10.585  0.2417 -0.9313  0.3416
 4187SOL     OW24019   1.947   3.304   3.893 -0.4127  0.1030  0.4129
 4187SOL    HW124020   1.874   3.245   3.872 -1.0090  1.0686 -0.2350
 4187SOL    HW224021   1.925   3.370   3.827 -1.0134  0.8327  1.3501
 4188SOL     OW24022   3.346   0.512  14.436 -0.1217  0.2595 -0.0879
 4188SOL    HW124023   3.330   0.506  14.530 -0.7088  1.4822 -0.1186
 4188SOL    HW224024   3.362   0.422  14.409  0.0470  0.0351  0.7550
 4189SOL     OW24025   0.581   4.681   1.512 -0.3047  0.3333 -0.0989
 4189SOL    HW124026   0.569   0.041   1.469 -0.7449  0.3306  0.0239
 4189SOL    HW224027   0.568   4.618   1.441  0.3413  1.4081 -1.1856
 4190SOL     OW24028   1.413   2.534   5.680 -0.2397 -0.1403  0.1212
 4190SOL    HW124029   1.342   2.586   5.718  1.8018  1.2718  1.9351
 4190SOL    HW224030   1.359   2.471   5.631 -0.9329  0.5781 -0.0368
 4191SOL     OW24031   4.627   2.900   6.754 -0.2609  0.1458 -0.3619
 4191SOL    HW124032   4.622   2.980   6.702 -1.2421  0.0195 -0.4569
 4191SOL    HW224033   4.649   2.948   6.834  4.4717  0.3611 -1.7709
 4192SOL     OW24034   0.442   2.837   4.220  0.0878 -0.0454  0.3919
 4192SOL    HW124035   0.505   2.790   4.275  0.4438 -1.2458 -1.0440
 4192SOL    HW224036   0.490   2.903   4.171 -0.6068  0.9378  1.0267
 4193SOL     OW24037   3.041   4.259  17.210  0.1352 -0.2909  0.9793
 4193SOL    HW124038   3.129   4.287  17.236  0.7116 -0.2175 -1.0442
 4193SOL    HW224039   3.012   4.203  17.282 -2.0176 -0.9125 -0.3837
 4194SOL     OW24040   1.263   4.722   4.238  0.4465  0.6177  0.5884
 4194SOL    HW124041   1.289   0.064   4.300 -1.2311  0.5101  1.4014
 4194SOL    HW224042   1.223   4.656   4.295 -2.3132  0.2185 -1.7890
 4195SOL     OW24043   1.952   4.371   4.902 -0.1880 -0.4197 -0.4123
 4195SOL    HW124044   1.960   4.291   4.953 -1.6033 -0.7217 -0.6639
 4195SOL    HW224045   1.877   4.345   4.848 -2.0890 -0.4125  2.1954
 4196SOL     OW24046   0.293   2.674  13.351 -0.1197 -0.2825 -0.0539
 4196SOL    HW124047   0.240   2.666  13.431  0.8987 -1.4820  0.5030
 4196SOL    HW224048   0.372   2.624  13.374  0.4502  0.0247 -1.3372
 4197SOL     OW24049   2.877   4.034   5.574 -0.1447 -0.3630  0.0044
 4197SOL    HW124050   2.807   4.089   5.609 -0.9078 -0.6440 -1.0697
 4197SOL    HW224051   2.944   4.021   5.640  2.3097  0.8043 -2.2440
 4198SOL     OW24052   2.719   0.018   1.632  0.6310 -0.8628  0.3899
 4198SOL    HW124053   2.675   4.659   1.622 -0.8348  0.1509 -1.9284
 4198SOL    HW224054   2.706   0.033   1.725  0.6182 -0.3355  0.3059
 4199SOL     OW24055   2.221   3.489   3.982  0.2230  0.1553  0.3123
 4199SOL    HW124056   2.293   3.491   3.918 -0.6163  2.3898 -0.5552
 4199SOL    HW224057   2.156   3.543   3.937 -0.9425  0.3005  2.1855
 4200SOL     OW24058   1.630   0.048  16.613 -0.5513 -0.4741 -0.5413
 4200SOL    HW124059   1.686   0.024  16.686  0.3087 -0.8094 -1.3023
 4200SOL    HW224060   1.544   0.023  16.646 -0.8989  0.1979 -0.9212
 4201SOL     OW24061   0.286   2.027   7.627  0.3330 -0.3655  0.2918
 4201SOL    HW124062   0.337   2.107   7.628  1.2037 -0.9084 -0.1452
 4201SOL    HW224063   0.338   1.969   7.571  1.1464 -0.7066  1.3964
 4202SOL     OW24064   4.643   3.108   7.269 -0.2891 -0.3753  0.6166
 4202SOL    HW124065   4.647   3.094   7.364  1.0766  0.4258  0.6819
 4202SOL    HW224066   4.610   3.197   7.276  0.0021 -0.2816  0.8137
 4203SOL     OW24067   0.755   1.479   8.358 -0.2173  0.5095  0.2122
 4203SOL    HW124068   0.710   1.399   8.383 -1.4103  2.0565  2.9965
 4203SOL    HW224069   0.723   1.540   8.425 -0.9747  0.0806  0.2336
 4204SOL     OW24070   4.231   4.397   0.439  0.1424 -0.1436  0.9664
 4204SOL    HW124071   4.230   4.407   0.344  1.8183 -0.7773  0.8787
 4204SOL    HW224072   4.140   4.415   0.463  0.3192 -0.7183  2.0933
 4205SOL     OW24073   4.139   0.326   7.480 -0.1036  0.0017 -0.1403
 4205SOL    HW124074   4.082   0.392   7.440 -0.0780  0.0998 -0.0154
 4205SOL    HW224075   4.147   0.370   7.564  1.3886 -1.8876  0.6941
 4206SOL     OW24076   2.067   1.014   3.192  0.1112 -0.5447 -0.7990
 4206SOL    HW124077   2.079   1.052   3.105  0.1782 -1.4799 -1.1965
 4206SOL    HW224078   1.978   1.030   3.224  1.1626  0.1289  1.8135
 4207SOL     OW24079   0.749   0.683  10.459  0.1478  0.6448  0.5753
 4207SOL    HW124080   0.713   0.729  10.383 -1.1504  1.6084  1.7666
 4207SOL    HW224081   0.678   0.620  10.472  0.6118  0.6338  2.9684
 4208SOL     OW24082   1.295   3.437  13.246  0.6873  0.3404  0.6785
 4208SOL    HW124083   1.311   3.446  13.340 -2.7644  0.9335  1.2328
 4208SOL    HW224084   1.214   3.385  13.249  0.2577  0.9123 -0.8137
 4209SOL     OW24085   4.295   4.641  14.087 -0.4291 -0.5128 -0.3527
 4209SOL    HW124086   4.205   4.671  14.081  0.0405  0.7573 -1.0350
 4209SOL    HW224087   4.288   4.560  14.036  0.9125 -0.2269 -1.0014
 4210SOL     OW24088   3.904   0.691   6.222 -0.0329  0.1787 -0.1886
 4210SOL    HW124089   3.945   0.767   6.264 -2.7502  2.4018 -1.5663
 4210SOL    HW224090   3.819   0.726   6.196 -0.0209  1.1307  1.0492
 4211SOL     OW24091   2.559   3.545  11.971 -0.4755  0.0683  0.4124
 4211SOL    HW124092   2.501   3.520  11.899  2.2997 -0.6027 -1.5844
 4211SOL    HW224093   2.641   3.508  11.939  0.0825 -1.0157  3.0908
 4212SOL     OW24094   3.781   1.005   5.648 -0.5665 -0.1764 -0.4848
 4212SOL    HW124095   3.699   0.978   5.606 -0.1843 -1.9238 -0.1198
 4212SOL    HW224096   3.757   1.097   5.655  0.3859  0.1483 -1.6242
 4213SOL     OW24097   4.488   0.025  14.277 -0.5851  0.2276  0.4050
 4213SOL    HW124098   4.494   0.112  14.237  0.4024 -0.2235 -0.3965
 4213SOL    HW224099   4.421   4.701  14.229  1.0659 -0.7610 -0.8681
 4214SOL     OW24100   1.698   2.496   7.119  0.2659 -0.5013  0.1182
 4214SOL    HW124101   1.727   2.437   7.188 -0.9602 -2.6848 -1.2427
 4214SOL    HW224102   1.606   2.485   7.143 -0.0608 -0.6521 -1.1942
 4215SOL     OW24103   1.905   1.144   7.046 -0.2812 -0.1482  0.0593
 4215SOL    HW124104   1.827   1.160   6.993 -0.6672 -2.2892 -0.0146
 4215SOL    HW224105   1.917   1.053   7.019  0.5352  0.5453 -1.9583
 4216SOL     OW24106   4.703   2.011   1.105 -0.4308  0.0433  0.1279
 4216SOL    HW124107   4.632   2.071   1.129  0.3189  0.7450  0.6371
 4216SOL    HW224108   4.663   1.926   1.122 -2.7908  0.6157 -2.7093
 4217SOL     OW24109   2.586   4.075   2.629  0.5709  0.4355 -0.1220
 4217SOL    HW124110   2.501   4.119   2.637  0.0902 -0.6979  0.9096
 4217SOL    HW224111   2.638   4.153   2.609 -0.6878  1.5174  0.8517
 4218SOL     OW24112   3.651   3.755   9.033 -0.1172 -0.0838  0.0135
 4218SOL    HW124113   3.695   3.806   8.966 -1.0647  0.3302 -0.2989
 4218SOL    HW224114   3.723   3.760   9.096 -0.7643  1.3249  0.6431
 4219SOL     OW24115   3.629   0.576   8.157 -0.0118 -0.2975 -0.3137
 4219SOL    HW124116   3.626   0.561   8.251 -0.0530  0.1936 -0.2349
 4219SOL    HW224117   3.542   0.552   8.125  0.0717  0.7863 -1.4024
 4220SOL     OW24118   3.021   4.460   8.399  0.2138  0.0088 -0.2604
 4220SOL    HW124119   3.058   4.533   8.349 -2.6930  0.1433 -2.2465
 4220SOL    HW224120   3.064   4.457   8.485 -3.5178  1.3409  1.6356
 4221SOL     OW24121   2.444   1.935   7.745 -0.1815  0.1373 -0.1024
 4221SOL    HW124122   2.460   2.015   7.696  2.8752 -1.5222 -1.8539
 4221SOL    HW224123   2.490   1.875   7.687  1.2421 -0.0697  1.2182
 4222SOL     OW24124   3.006   2.948   1.745  0.4380  0.1468 -0.0698
 4222SOL    HW124125   2.935   2.999   1.782  0.4286  0.1667 -0.1155
 4222SOL    HW224126   2.962   2.866   1.724  1.1259 -0.9514  2.7164
 4223SOL     OW24127   0.773   4.454   7.836  0.2530 -0.6555  0.4111
 4223SOL    HW124128   0.709   4.461   7.907 -0.5171 -1.5104 -0.1919
 4223SOL    HW224129   0.842   4.402   7.876  0.8266  0.0036  0.2750
 4224SOL     OW24130   1.968   0.681   4.761  0.6809 -0.2156 -0.1555
 4224SOL    HW124131   1.880   0.664   4.795  1.4988 -0.6930  1.7189
 4224SOL    HW224132   1.963   0.774   4.737 -0.5031  0.2819  2.0090
 4225SOL     OW24133   0.037   2.287   7.755 -0.0900  0.0443  0.0731
 4225SOL    HW124134   0.127   2.277   7.723 -0.9669  0.4512 -2.5302
 4225SOL    HW224135   0.011   2.202   7.791 -1.4174  0.1574 -0.6295
 4226SOL     OW24136   0.303   1.056   7.097 -0.4338 -0.1751  0.1560
 4226SOL    HW124137   0.328   1.078   7.007  1.2546  0.0122  0.6834
 4226SOL    HW224138   0.277   0.964   7.085  1.2469 -0.4631 -1.2694
 4227SOL     OW24139   2.204   4.464  13.687  0.5245  0.1669 -0.4366
 4227SOL    HW124140   2.193   4.522  13.762 -0.2053 -0.2887 -0.1936
 4227SOL    HW224141   2.269   4.400  13.713 -0.0755 -0.3915 -0.3146
 4228SOL     OW24142   1.079   3.554   8.800  0.3990 -0.0953  0.2791
 4228SOL    HW124143   1.063   3.463   8.826  3.4047 -0.7003  0.0609
 4228SOL    HW224144   1.120   3.580   8.883 -1.3128  0.7564  0.8539
 4229SOL     OW24145   4.428   3.117   1.512 -0.1892  0.6570 -0.1406
 4229SOL    HW124146   4.343   3.124   1.555 -0.7854  1.1441 -1.4313
 4229SOL    HW224147   4.461   3.203   1.538  0.4242  0.3004  0.2631
 4230SOL     OW24148   4.546   3.389  13.347 -0.0544 -0.1636 -0.4710
 4230SOL    HW124149   4.477   3.427  13.401 -0.9382 -1.3945 -0.7366
 4230SOL    HW224150   4.580   3.467  13.304 -2.5211  1.6768  0.9248
 4231SOL     OW24151   3.448   4.316   2.447 -0.4383 -0.0407  0.4951
 4231SOL    HW124152   3.483   4.402   2.424 -2.3962 -0.1340 -2.7895
 4231SOL    HW224153   3.474   4.302   2.538 -1.0324 -0.1614  0.6500
 4232SOL     OW24154   0.580   4.147   7.859 -0.0558 -0.0275  0.2786
 4232SOL    HW124155   0.631   4.138   7.779 -0.2761  0.4934  0.0738
 4232SOL    HW224156   0.512   4.079   7.854 -0.6481  0.6536 -0.8559
 4233SOL     OW24157   3.477   3.228   2.468  0.3898 -0.4883 -0.2638
 4233SOL    HW124158   3.491   3.168   2.541 -1.4297 -0.4669  0.1005
 4233SOL    HW224159   3.475   3.312   2.514 -1.4545 -0.6534 -0.0209
 4234SOL     OW24160   0.402   0.039   8.604 -0.0441 -0.5595 -0.0605
 4234SOL    HW124161   0.333   0.097   8.572 -0.9069 -0.4801  1.9613
 4234SOL    HW224162   0.353   4.681   8.603 -0.1969 -0.4807  2.2474
 4235SOL     OW24163   0.668   3.296   3.522  0.3416 -0.7521 -0.3486
 4235SOL    HW124164   0.643   3.293   3.614 -1.3822  3.1020 -0.6897
 4235SOL    HW224165   0.703   3.385   3.519 -0.4776 -0.3730  1.4463
 4236SOL     OW24166   2.947   1.646  14.170  0.0579 -0.1432  0.2228
 4236SOL    HW124167   2.919   1.729  14.207  0.8385  0.5100 -0.6568
 4236SOL    HW224168   3.035   1.662  14.135 -0.2717  0.5630 -0.2784
 4237SOL     OW24169   2.089   1.077  10.800 -0.0542 -0.0492  0.6780
 4237SOL    HW124170   2.024   1.019  10.762 -0.0766  1.2163 -1.2299
 4237SOL    HW224171   2.085   1.152  10.740  1.2025 -0.4073  0.1289
 4238SOL     OW24172   1.946   0.918   6.906  0.0569  0.2428 -0.0095
 4238SOL    HW124173   1.898   0.836   6.914  3.4881 -1.5298  2.3949
 4238SOL    HW224174   2.034   0.893   6.935  1.2578  1.2121 -2.8090
 4239SOL     OW24175   1.208   1.474  10.206 -0.2545 -0.6443 -0.3193
 4239SOL    HW124176   1.181   1.453  10.116 -0.2887 -0.4505 -0.3544
 4239SOL    HW224177   1.138   1.441  10.261 -0.5246 -2.1394 -1.5284
 4240SOL     OW24178   1.873   3.190   2.472  0.3645  0.1091  0.1517
 4240SOL    HW124179   1.921   3.272   2.466  1.1649 -0.4783 -1.3635
 4240SOL    HW224180   1.911   3.149   2.550 -0.9420 -0.1527  0.6545
 4241SOL     OW24181   2.603   2.669   6.919 -0.0806 -0.8562 -0.7708
 4241SOL    HW124182   2.659   2.741   6.948  1.5270 -1.6693 -1.8947
 4241SOL    HW224183   2.647   2.649   6.837 -2.0525 -1.0908 -1.7698
 4242SOL     OW24184   2.752   2.523   4.572 -0.0912  0.4886 -0.2674
 4242SOL    HW124185   2.827   2.540   4.515 -1.3479  0.4449 -1.9202
 4242SOL    HW224186   2.702   2.471   4.510  1.0052 -0.5803 -0.2586
 4243SOL     OW24187   2.786   4.023   3.645 -0.5645 -0.3830 -0.1138
 4243SOL    HW124188   2.738   4.025   3.728 -0.1915 -0.9305  0.1108
 4243SOL    HW224189   2.741   4.094   3.598 -0.6565 -0.1472  0.3200
 4244SOL     OW24190   3.889   1.724   4.407  0.3377  0.5905  0.2723
 4244SOL    HW124191   3.802   1.761   4.415  0.4779  0.5305  2.0605
 4244SOL    HW224192   3.915   1.729   4.499 -2.0225  1.5394  0.8672
 4245SOL     OW24193   1.524   2.850   5.601  0.2167  0.5814 -0.3749
 4245SOL    HW124194   1.569   2.927   5.634  0.7032  0.3127 -0.4152
 4245SOL    HW224195   1.530   2.792   5.677  2.0431  0.9771 -0.2173
 4246SOL     OW24196   4.170   1.739   7.271 -0.1638 -0.0252  0.5104
 4246SOL    HW124197   4.197   1.826   7.302  2.6260 -0.8819  0.5363
 4246SOL    HW224198   4.185   1.698   7.356 -0.3302  1.1881  1.1205
 4247SOL     OW24199   2.734   3.729   3.413  0.3418 -0.8909  0.4340
 4247SOL    HW124200   2.682   3.669   3.358  1.2268 -1.1492 -0.1230
 4247SOL    HW224201   2.666   3.791   3.439  1.2132 -0.1549  0.9416
 4248SOL     OW24202   2.504   2.429   6.796  0.2624  0.2159 -0.1065
 4248SOL    HW124203   2.582   2.481   6.780 -0.8844  2.1662  0.6284
 4248SOL    HW224204   2.476   2.458   6.883 -3.0440 -0.0298 -1.0670
 4249SOL     OW24205   3.749   1.491  13.290 -1.0603 -0.2282  0.0984
 4249SOL    HW124206   3.799   1.572  13.298 -1.9925  0.2728  0.8559
 4249SOL    HW224207   3.682   1.512  13.355 -1.5542  0.6580 -0.6790
 4250SOL     OW24208   3.071   0.407   1.737 -0.0868  0.0685  0.0136
 4250SOL    HW124209   3.080   0.313   1.719 -1.2636 -0.2265  0.9043
 4250SOL    HW224210   3.152   0.458   1.743  0.7760 -1.3422  0.2988
 4251SOL     OW24211   4.196   1.628   7.507 -0.3656  0.0314  0.1786
 4251SOL    HW124212   4.219   1.535   7.513  1.1566  0.4984  1.5654
 4251SOL    HW224213   4.278   1.668   7.536  0.5207  0.6860 -3.2578
 4252SOL     OW24214   1.029   3.324   8.948 -0.3769  0.6111  0.5696
 4252SOL    HW124215   1.014   3.253   9.010  1.8838 -0.8556 -0.5586
 4252SOL    HW224216   1.051   3.386   9.017  3.0493  0.2410 -0.1567
 4253SOL     OW24217   3.415   3.328   3.374  0.4501  0.2793  0.1042
 4253SOL    HW124218   3.359   3.378   3.433  0.1209  1.0235 -0.8359
 4253SOL    HW224219   3.409   3.238   3.406 -0.5991 -0.0398 -0.9910
 4254SOL     OW24220   4.692   2.296   5.305  0.4107  0.1725 -0.6309
 4254SOL    HW124221   4.717   2.388   5.300  2.8487 -0.3754  2.0859
 4254SOL    HW224222   0.025   2.258   5.370 -2.1448 -0.0486  1.5271
 4255SOL     OW24223   3.639   2.735   1.898  0.0411 -0.3917 -0.0529
 4255SOL    HW124224   3.624   2.772   1.811 -0.5279 -0.7935 -0.1236
 4255SOL    HW224225   3.621   2.815   1.948  0.7681 -0.2890  0.0477
 4256SOL     OW24226   0.142   3.378   7.216 -0.1970  0.2444  0.2014
 4256SOL    HW124227   0.158   3.344   7.304  0.6694  0.0656 -0.0189
 4256SOL    HW224228   0.067   3.433   7.237 -1.3241 -0.9622 -0.6588
 4257SOL     OW24229   1.853   4.251   4.056  0.6712  0.2906  0.1677
 4257SOL    HW124230   1.791   4.208   3.996 -0.0172 -1.0065  1.8228
 4257SOL    HW224231   1.883   4.173   4.102 -1.2686  0.4375  1.7110
 4258SOL     OW24232   1.715   2.360   7.578 -0.5099 -0.5732  0.4490
 4258SOL    HW124233   1.792   2.305   7.593 -0.1932 -0.0613  0.7187
 4258SOL    HW224234   1.657   2.336   7.650 -0.6999 -0.5706  0.2985
 4259SOL     OW24235   0.570   3.194  13.130  0.0100 -0.0409 -0.0371
 4259SOL    HW124236   0.521   3.118  13.098  1.0041  0.7053 -3.2995
 4259SOL    HW224237   0.522   3.270  13.097 -0.2464  0.0944  0.6459
 4260SOL     OW24238   3.783   2.749  15.867  0.4460  0.0677 -0.6332
 4260SOL    HW124239   3.748   2.837  15.859  1.4663  0.4730 -0.6079
 4260SOL    HW224240   3.718   2.702  15.815  0.9137  1.0500 -2.1283
 4261SOL     OW24241   1.809   0.788  11.348 -0.0250  0.1988 -0.3556
 4261SOL    HW124242   1.790   0.696  11.366  0.4105  0.3988  1.0926
 4261SOL    HW224243   1.719   0.816  11.331  0.2795  1.8094  0.6552
 4262SOL     OW24244   0.222   1.346   7.984  0.0092 -0.0136  0.1649
 4262SOL    HW124245   0.212   1.251   7.982  2.1960 -0.2121 -1.1482
 4262SOL    HW224246   0.284   1.360   8.055 -0.4766  3.9747 -0.1931
 4263SOL     OW24247   3.891   4.683   1.775  0.2725 -0.5639 -0.4713
 4263SOL    HW124248   3.845   4.686   1.859 -0.7076  2.9699 -1.0920
 4263SOL    HW224249   3.815   4.690   1.717  0.2305 -0.3084 -0.3861
 4264SOL     OW24250   0.457   0.418   6.329 -0.1291  0.1139 -0.6032
 4264SOL    HW124251   0.400   0.354   6.286 -0.1463  1.7366 -2.9796
 4264SOL    HW224252   0.419   0.502   6.306 -3.4882 -0.8046  1.5551
 4265SOL     OW24253   2.275   0.972   9.165  0.3210  0.0283  0.4544
 4265SOL    HW124254   2.185   0.979   9.197 -0.2169  1.9859 -1.4662
 4265SOL    HW224255   2.305   0.902   9.223  0.6760 -1.4652 -1.5211
 4266SOL     OW24256   4.525   2.575   5.500 -0.1198  0.9264 -0.6387
 4266SOL    HW124257   4.594   2.590   5.564 -1.5670 -0.6716  1.2793
 4266SOL    HW224258   4.442   2.613   5.529 -0.5983 -1.4435  1.0399
 4267SOL     OW24259   2.028   3.187   6.853 -0.4767 -0.2966  0.2127
 4267SOL    HW124260   1.957   3.182   6.917 -0.5652  0.8913  0.2015
 4267SOL    HW224261   1.982   3.179   6.770 -0.5440  2.1994  0.0187
 4268SOL     OW24262   3.705   2.906   2.317  0.2115  0.1320  0.1024
 4268SOL    HW124263   3.667   2.829   2.360 -2.0928  1.5550  0.6621
 4268SOL    HW224264   3.717   2.965   2.392 -0.7196  0.0373  0.3265
 4269SOL     OW24265   3.051   3.708   8.336  0.0997  0.1011 -0.2382
 4269SOL    HW124266   3.083   3.668   8.256 -1.7903 -2.6345  0.3873
 4269SOL    HW224267   3.127   3.756   8.370 -0.2232  0.2502  0.2735
 4270SOL     OW24268   2.144   2.503   0.542 -0.1257 -0.5050  0.1741
 4270SOL    HW124269   2.169   2.411   0.533 -0.5681 -0.4895 -1.1298
 4270SOL    HW224270   2.050   2.487   0.547 -0.5402  2.0000 -0.0300
 4271SOL     OW24271   4.149   3.440   2.647  0.1144 -0.2283  0.3307
 4271SOL    HW124272   4.241   3.468   2.647  0.0424  0.0018  2.9481
 4271SOL    HW224273   4.162   3.346   2.636 -0.9840 -0.4265  0.7002
 4272SOL     OW24274   3.721   3.675   6.547  0.0341  0.3248  0.3090
 4272SOL    HW124275   3.646   3.731   6.526  2.0984  2.3947 -1.4784
 4272SOL    HW224276   3.697   3.660   6.639 -0.7463 -1.4193 -0.1818
 4273SOL     OW24277   1.738   1.287  10.570 -0.8971 -0.1982 -0.5125
 4273SOL    HW124278   1.703   1.198  10.581 -0.2801 -0.6344 -1.9980
 4273SOL    HW224279   1.665   1.342  10.596 -0.2088  0.5775 -0.2510
 4274SOL     OW24280   0.857   3.444   4.027  0.0244 -0.0345  0.5794
 4274SOL    HW124281   0.950   3.420   4.026  0.2627  0.8887  0.3101
 4274SOL    HW224282   0.842   3.435   4.121 -3.1085 -0.9779 -0.0248
 4275SOL     OW24283   0.722   4.163   9.271  0.2581  0.4736 -0.1789
 4275SOL    HW124284   0.637   4.204   9.287 -0.4489 -0.9047 -0.3282
 4275SOL    HW224285   0.785   4.206   9.329  0.7589 -0.1717 -0.2380
 4276SOL     OW24286   0.536   1.309  10.952 -0.2233  0.5920  0.3955
 4276SOL    HW124287   0.462   1.252  10.972 -0.9987  2.0483  1.7246
 4276SOL    HW224288   0.503   1.397  10.931  0.5440  1.2831  2.0564
 4277SOL     OW24289   1.734   1.830   6.620 -0.1476 -0.1797 -0.3875
 4277SOL    HW124290   1.665   1.881   6.579 -0.1140 -1.6032 -2.2425
 4277SOL    HW224291   1.784   1.811   6.540 -0.6262  0.6306 -0.8745
 4278SOL     OW24292   4.720   2.997  11.038 -0.1081  0.1369  0.0212
 4278SOL    HW124293   4.678   2.985  11.123 -0.5048 -1.4404 -0.4028
 4278SOL    HW224294   0.078   2.954  11.055  0.2683  0.1214 -1.7723
 4279SOL     OW24295   0.889   2.696   2.525  0.2825  0.3667 -0.3288
 4279SOL    HW124296   0.925   2.755   2.591  0.8366 -1.5384  1.0303
 4279SOL    HW224297   0.819   2.651   2.573  1.5855 -2.4364 -1.0628
 4280SOL     OW24298   4.584   1.213  12.468  0.4185  0.0658  0.3115
 4280SOL    HW124299   4.585   1.226  12.563  2.8254 -0.2808  0.3225
 4280SOL    HW224300   4.505   1.160  12.456 -0.8822  1.5474  2.1320
 4281SOL     OW24301   1.824   2.521   1.998  0.0769 -0.4984 -0.0885
 4281SOL    HW124302   1.906   2.504   1.952  0.3802  0.6514  0.0135
 4281SOL    HW224303   1.826   2.617   2.008 -0.9821 -0.5502  0.6833
 4282SOL     OW24304   1.651   4.115   8.015 -0.0724  0.3116 -0.3539
 4282SOL    HW124305   1.702   4.043   8.053 -0.6925 -1.7035 -3.3814
 4282SOL    HW224306   1.707   4.136   7.940 -2.6081 -0.7057 -2.5065
 4283SOL     OW24307   2.512   2.030   0.738 -0.0845  0.5303 -0.0225
 4283SOL    HW124308   2.435   2.086   0.730 -0.2085  0.1628 -1.3671
 4283SOL    HW224309   2.566   2.108   0.749  1.0655 -0.3590  0.6447
 4284SOL     OW24310   2.440   3.061   6.299 -0.3224  0.2599  0.3847
 4284SOL    HW124311   2.513   3.083   6.358 -0.3760  1.4535  0.0095
 4284SOL    HW224312   2.478   3.071   6.212  0.1825  0.2137  0.5980
 4285SOL     OW24313   2.056   1.972  13.330  0.2801  0.2872 -0.5195
 4285SOL    HW124314   2.015   1.886  13.320  1.0287 -0.0206 -0.9310
 4285SOL    HW224315   2.079   1.997  13.241  0.3748 -0.4892 -0.7093
 4286SOL     OW24316   0.927   1.462  12.689 -0.4195 -1.0818  0.9944
 4286SOL    HW124317   0.929   1.548  12.731 -1.7428 -0.7304  0.3333
 4286SOL    HW224318   1.002   1.471  12.631 -2.7572  0.4938 -1.7840
 4287SOL     OW24319   4.215   2.809  17.310 -0.3565  0.2549  0.0924
 4287SOL    HW124320   4.119   2.805  17.301 -0.2204  1.8052 -2.1195
 4287SOL    HW224321   4.238   2.760  17.231  0.5396 -3.5677  2.7100
 4288SOL     OW24322   3.074   0.119   9.193  0.2574  0.7042  0.0113
 4288SOL    HW124323   3.168   0.138   9.193  1.0038 -3.0493  0.1474
 4288SOL    HW224324   3.049   0.111   9.285 -0.4762  0.5259 -0.2030
 4289SOL     OW24325   0.941   2.594  11.704 -0.8675  0.0061 -0.2692
 4289SOL    HW124326   1.003   2.649  11.655  0.9056 -1.7758 -0.0368
 4289SOL    HW224327   0.984   2.577  11.787 -1.2194  2.2580  0.3617
 4290SOL     OW24328   4.537   3.118  14.103 -0.1831  0.1759 -0.3420
 4290SOL    HW124329   4.629   3.145  14.110  0.2526 -1.4585  0.1575
 4290SOL    HW224330   4.519   3.192  14.045 -1.4115 -0.4318 -0.7376
 4291SOL     OW24331   0.641   0.507   1.360 -0.7713 -0.0477  0.1074
 4291SOL    HW124332   0.709   0.477   1.300  0.1152  1.5353  0.3204
 4291SOL    HW224333   0.694   0.540   1.433 -0.1150  0.0546 -0.4120
 4292SOL     OW24334   3.353   0.522  12.748  0.4147 -0.1037 -0.0235
 4292SOL    HW124335   3.425   0.577  12.778  0.3921  0.1660 -0.4745
 4292SOL    HW224336   3.329   0.497  12.838  2.6462 -0.4541  0.4662
 4293SOL     OW24337   4.540   2.780   3.480  0.4538  0.5864 -0.0298
 4293SOL    HW124338   4.631   2.808   3.486  0.8721 -0.2748 -2.5153
 4293SOL    HW224339   4.536   2.731   3.562  1.7788 -0.5887 -0.6591
 4294SOL     OW24340   3.982   4.261   3.923  0.0165  0.2016 -0.2618
 4294SOL    HW124341   4.012   4.267   3.833  0.2883  0.1426 -0.1734
 4294SOL    HW224342   4.063   4.235   3.967 -0.7532 -1.2966  0.2512
 4295SOL     OW24343   3.345   4.352   4.592  0.4603 -0.5973 -0.0604
 4295SOL    HW124344   3.386   4.438   4.584  0.4555 -0.1637  4.6134
 4295SOL    HW224345   3.255   4.371   4.618  0.3916  0.7942 -1.3235
 4296SOL     OW24346   4.706   3.548   7.514 -0.1707 -0.1902 -0.1541
 4296SOL    HW124347   0.001   3.557   7.421  0.1385 -0.2147 -0.0870
 4296SOL    HW224348   4.624   3.499   7.510 -0.7204  0.7286 -0.3435
 4297SOL     OW24349   3.717   1.058   4.473  0.1737 -0.4806 -0.2125
 4297SOL    HW124350   3.657   1.127   4.501  0.0904  0.2401 -2.2200
 4297SOL    HW224351   3.776   1.110   4.419  0.1832 -0.7982 -0.5101
 4298SOL     OW24352   0.778   2.385   7.065  0.4800  0.4005  0.0305
 4298SOL    HW124353   0.804   2.429   6.983  0.1074 -0.7867 -0.7174
 4298SOL    HW224354   0.742   2.457   7.117  2.7345  0.0728  2.0465
 4299SOL     OW24355   3.694   4.678  14.315 -0.0037  0.5313 -0.0677
 4299SOL    HW124356   3.706   4.642  14.403 -1.3172  3.6270  1.3811
 4299SOL    HW224357   3.747   4.618  14.263  0.9826 -0.7349  2.3782
 4300SOL     OW24358   1.158   0.478   6.921 -0.6187  0.5656 -0.3516
 4300SOL    HW124359   1.108   0.408   6.964 -0.4819  1.5949  1.4740
 4300SOL    HW224360   1.148   0.460   6.828  2.1923  2.6819 -1.0550
 4301SOL     OW24361   2.823   1.438   0.549  0.6716  0.3669 -0.2873
 4301SOL    HW124362   2.845   1.522   0.508 -0.2427  0.4806 -0.5530
 4301SOL    HW224363   2.758   1.465   0.614  2.0661 -0.2286  1.3301
 4302SOL     OW24364   3.966   1.192   9.899  0.3121  0.1196 -0.2103
 4302SOL    HW124365   4.040   1.242   9.933 -1.7918  3.2198 -0.1357
 4302SOL    HW224366   3.895   1.256   9.909  0.4117  0.2787 -0.5299
 4303SOL     OW24367   0.668   3.184  15.604 -0.0193 -0.6389  0.0238
 4303SOL    HW124368   0.757   3.218  15.594 -0.3840  0.8073  1.7146
 4303SOL    HW224369   0.623   3.234  15.535 -1.6551  1.2550  2.4483
 4304SOL     OW24370   3.254   1.332   4.561  0.4710 -0.0741 -0.3655
 4304SOL    HW124371   3.247   1.362   4.652  0.0559 -1.0719 -0.0690
 4304SOL    HW224372   3.234   1.410   4.509 -1.0703  0.2812  0.7563
 4305SOL     OW24373   3.825   2.309   3.669 -0.3181  0.5547 -0.7497
 4305SOL    HW124374   3.831   2.262   3.586  3.3355  1.4065 -0.9655
 4305SOL    HW224375   3.876   2.243   3.715 -1.5398 -0.0272 -0.2173
 4306SOL     OW24376   3.943   2.520  13.865 -0.0188  0.4802 -0.6814
 4306SOL    HW124377   4.006   2.456  13.899 -0.0932  1.6546  1.6725
 4306SOL    HW224378   3.930   2.485  13.777 -2.0810  0.8723 -0.5246
 4307SOL     OW24379   0.638   0.760   3.171 -0.1061  0.1594 -0.4610
 4307SOL    HW124380   0.583   0.750   3.093  0.4862 -0.5367 -0.7876
 4307SOL    HW224381   0.621   0.675   3.213  2.0894 -0.6361 -1.1594
 4308SOL     OW24382   4.476   4.255   5.173  0.0857 -0.8795 -0.0665
 4308SOL    HW124383   4.519   4.266   5.088 -0.7730  1.9077 -0.1369
 4308SOL    HW224384   4.385   4.241   5.149 -0.0716  4.0669 -2.2527
 4309SOL     OW24385   3.738   4.305   5.335 -0.0901 -0.1923 -0.4025
 4309SOL    HW124386   3.693   4.338   5.413 -3.0922  0.0664 -2.2169
 4309SOL    HW224387   3.662   4.303   5.277 -1.8271 -2.1948  1.9600
 4310SOL     OW24388   2.842   4.336   3.325  0.1297 -0.0639  0.8385
 4310SOL    HW124389   2.924   4.385   3.337  1.0337 -1.0545 -1.1757
 4310SOL    HW224390   2.855   4.290   3.242 -0.7305  1.6600 -0.2366
 4311SOL     OW24391   3.191   4.202   3.582  0.0407  0.6594 -0.2544
 4311SOL    HW124392   3.278   4.163   3.576  0.3253  1.1422  0.8045
 4311SOL    HW224393   3.125   4.136   3.561 -0.2338  0.1610  2.1657
 4312SOL     OW24394   1.387   1.093   4.061  0.5398 -0.2684  0.0616
 4312SOL    HW124395   1.463   1.037   4.075 -0.0708 -1.1618 -0.1998
 4312SOL    HW224396   1.423   1.182   4.062 -0.8125  0.2829  0.8031
 4313SOL     OW24397   4.673   0.230   0.780  0.5315 -0.7580  0.0827
 4313SOL    HW124398   4.696   0.137   0.777  1.8898 -0.4395  0.5528
 4313SOL    HW224399   0.005   0.264   0.849  0.1434 -1.8048  0.9268
 4314SOL     OW24400   1.438   2.430   5.942 -0.4466  0.2254  0.1973
 4314SOL    HW124401   1.438   2.484   5.863  0.0613 -0.2516 -0.1291
 4314SOL    HW224402   1.531   2.411   5.955 -0.4636  0.2758  0.3886
 4315SOL     OW24403   0.596   1.979   6.563 -0.3400 -0.2112  0.2646
 4315SOL    HW124404   0.631   1.949   6.480 -0.7127  0.3977 -0.1143
 4315SOL    HW224405   0.550   1.905   6.603  2.8179 -2.7672 -0.8567
 4316SOL     OW24406   4.064   1.425   4.537  0.1236 -0.2561 -0.5312
 4316SOL    HW124407   4.082   1.413   4.444  0.5866  1.3739 -0.6435
 4316SOL    HW224408   4.101   1.511   4.557  0.0346  0.0742 -1.8166
 4317SOL     OW24409   1.950   3.663   5.067 -0.1443 -0.0513  0.5122
 4317SOL    HW124410   1.996   3.580   5.080  0.0257  0.0556  0.5783
 4317SOL    HW224411   2.014   3.732   5.081  0.1159  0.2965 -2.4308
 4318SOL     OW24412   2.365   4.027   4.666  0.3898 -0.4146 -0.3218
 4318SOL    HW124413   2.318   3.974   4.601 -1.1734 -1.0913  1.3620
 4318SOL    HW224414   2.295   4.083   4.699  1.7918  0.0870  1.7567
 4319SOL     OW24415   3.187   0.512   4.277 -0.2108  0.2372 -0.6473
 4319SOL    HW124416   3.167   0.569   4.203  0.7343  1.1253 -0.2198
 4319SOL    HW224417   3.281   0.500   4.266  0.0777  2.5921 -0.8361
 4320SOL     OW24418   4.020   1.646   2.017  0.2339 -0.1417 -0.4519
 4320SOL    HW124419   4.041   1.587   1.944  2.2441 -1.7990  1.4603
 4320SOL    HW224420   4.107   1.671   2.049 -1.3142  3.1282  1.1719
 4321SOL     OW24421   0.968   4.391   2.686 -0.1469 -0.4476 -0.0323
 4321SOL    HW124422   0.920   4.473   2.696  0.8904  0.5721 -3.4910
 4321SOL    HW224423   1.005   4.384   2.774  1.3810 -2.4562 -0.8396
 4322SOL     OW24424   3.962   3.599   3.094  0.4545 -0.1553  0.3698
 4322SOL    HW124425   3.960   3.536   3.022 -0.3213 -1.1614  1.2684
 4322SOL    HW224426   4.048   3.639   3.080 -0.4268  0.7007 -2.5225
 4323SOL     OW24427   0.448   2.562   1.657 -0.0634 -0.4308  0.2137
 4323SOL    HW124428   0.495   2.594   1.734 -0.3303 -0.0418  0.2111
 4323SOL    HW224429   0.361   2.601   1.660  0.1058  0.1184 -2.3693
 4324SOL     OW24430   1.907   2.014   1.187 -0.1297 -0.4916 -0.3982
 4324SOL    HW124431   1.920   1.980   1.275  0.2206 -1.3605 -0.7865
 4324SOL    HW224432   1.963   2.092   1.187 -1.1260  0.2177 -1.1367
 4325SOL     OW24433   1.433   0.798   8.292  0.0939 -0.2846  0.4889
 4325SOL    HW124434   1.468   0.878   8.253  0.4071 -1.9015 -2.5529
 4325SOL    HW224435   1.379   0.761   8.222 -1.5964  0.3805  1.4495
 4326SOL     OW24436   3.361   1.654  10.848  0.4498 -0.2115 -0.3121
 4326SOL    HW124437   3.431   1.643  10.912 -0.4480  1.1457  0.9140
 4326SOL    HW224438   3.289   1.685  10.902 -0.9684 -2.7088 -0.7919
 4327SOL     OW24439   4.499   4.531   6.372  0.1001  0.2120  0.0961
 4327SOL    HW124440   4.427   4.488   6.325 -0.6295  0.2581  1.1712
 4327SOL    HW224441   4.500   4.477   6.451  1.5052 -0.9532 -0.7379
 4328SOL     OW24442   2.624   3.920   7.367 -0.0527  0.0431 -0.5019
 4328SOL    HW124443   2.669   3.990   7.319  1.8649  0.2192  1.5525
 4328SOL    HW224444   2.533   3.949   7.355  0.8385  3.5371  1.0683
 4329SOL     OW24445   1.467   0.101  14.352  0.1885 -0.0597  0.7072
 4329SOL    HW124446   1.539   0.048  14.385 -0.1271 -0.7939  0.2275
 4329SOL    HW224447   1.396   0.059  14.401 -0.6149 -0.4659 -0.7852
 4330SOL     OW24448   3.618   1.038  15.160  0.6350  0.2360  0.4904
 4330SOL    HW124449   3.655   1.109  15.108 -0.0562  1.2168  1.3346
 4330SOL    HW224450   3.526   1.054  15.138  0.4670 -1.2056  0.1124
 4331SOL     OW24451   2.610   4.109   0.682  0.4686  0.1039  0.1508
 4331SOL    HW124452   2.526   4.075   0.652 -0.1199  0.4997  1.3339
 4331SOL    HW224453   2.600   4.200   0.652 -2.3209 -0.8448 -1.7541
 4332SOL     OW24454   0.367   4.589   1.053  0.3849 -0.0767 -0.2740
 4332SOL    HW124455   0.364   4.512   1.110 -2.1405  1.0782  1.1467
 4332SOL    HW224456   0.321   4.568   0.972  0.8909 -0.9374 -0.3405
 4333SOL     OW24457   4.087   0.719   5.607 -0.0110  0.6822  0.2646
 4333SOL    HW124458   4.048   0.745   5.524  3.0754 -1.1446 -1.7475
 4333SOL    HW224459   4.009   0.702   5.660 -1.0100  1.0307 -1.0924
 4334SOL     OW24460   4.348   0.428  14.471  0.3884 -0.0208 -0.0995
 4334SOL    HW124461   4.270   0.372  14.463  2.7524 -3.1619 -1.1379
 4334SOL    HW224462   4.326   0.461  14.558 -0.1572  0.6406 -0.4912
 4335SOL     OW24463   0.940   1.096   7.030  0.3717 -0.4445 -0.1896
 4335SOL    HW124464   0.940   1.093   6.934  0.4353 -1.0012 -0.1710
 4335SOL    HW224465   0.923   1.004   7.052 -0.6965 -0.3238 -0.4976
 4336SOL     OW24466   3.383   2.136   1.922 -0.3337 -0.3613  0.0496
 4336SOL    HW124467   3.345   2.056   1.957 -2.4678  0.5324 -0.2590
 4336SOL    HW224468   3.418   2.109   1.837  0.7958 -0.2388  0.4735
 4337SOL     OW24469   1.306   0.308   1.799 -0.5405  0.1154 -0.4626
 4337SOL    HW124470   1.393   0.348   1.797 -1.2438  1.6738  0.3491
 4337SOL    HW224471   1.323   0.228   1.748 -0.2774  1.0835 -1.8826
 4338SOL     OW24472   3.296   0.958   8.330 -0.1398 -0.1052 -0.1341
 4338SOL    HW124473   3.238   1.032   8.344 -2.3546 -2.2787  2.2612
 4338SOL    HW224474   3.385   0.994   8.335  0.5153 -2.3334  4.4828
 4339SOL     OW24475   4.382   2.197   7.693  0.4784 -0.1726  0.4568
 4339SOL    HW124476   4.353   2.146   7.617  0.7419 -1.0681  0.9473
 4339SOL    HW224477   4.399   2.285   7.660 -1.1060 -0.0789 -0.1066
 4340SOL     OW24478   0.827   2.286   4.520  0.3458 -0.1505 -0.0927
 4340SOL    HW124479   0.892   2.247   4.578 -0.2011  1.3014  1.4930
 4340SOL    HW224480   0.753   2.227   4.531  0.7969 -0.3925  1.6385
 4341SOL     OW24481   2.438   1.220   3.242 -0.6580 -0.0171 -0.1663
 4341SOL    HW124482   2.453   1.194   3.150 -1.7438  1.8619 -0.8642
 4341SOL    HW224483   2.528   1.251   3.251 -0.4345 -0.7114  0.0222
 4342SOL     OW24484   4.350   2.236   4.934 -0.0024 -0.4686  0.1988
 4342SOL    HW124485   4.313   2.266   5.017  1.5739 -1.3500  1.2229
 4342SOL    HW224486   4.268   2.255   4.888  0.7577 -0.0566 -0.9536
 4343SOL     OW24487   1.702   1.405  14.672 -0.4208  0.1347  0.5903
 4343SOL    HW124488   1.674   1.314  14.686 -1.9708  0.6254  0.6846
 4343SOL    HW224489   1.688   1.403  14.577 -2.5424 -1.8533  0.9368
 4344SOL     OW24490   2.546   2.422   2.443 -0.0832 -0.2147 -0.7464
 4344SOL    HW124491   2.609   2.434   2.514 -0.0131  2.2901 -1.2501
 4344SOL    HW224492   2.492   2.353   2.482  0.4391  0.8859  1.9463
 4345SOL     OW24493   2.638   2.480   0.429 -0.2936 -0.5567 -0.1194
 4345SOL    HW124494   2.573   2.426   0.383  1.2730 -1.7732 -0.8964
 4345SOL    HW224495   2.585   2.530   0.491  0.1606 -0.5969  0.2988
 4346SOL     OW24496   3.834   0.730   5.721  0.0125  0.0792  0.6772
 4346SOL    HW124497   3.789   0.806   5.686  0.2608  0.8048  1.9543
 4346SOL    HW224498   3.851   0.771   5.805  0.4362 -1.6077  1.4108
 4347SOL     OW24499   0.649   0.956   3.365  0.1145 -0.0321  0.4586
 4347SOL    HW124500   0.675   0.897   3.294  1.5769  0.6980  0.3754
 4347SOL    HW224501   0.559   0.933   3.385  0.4355  0.3510  2.3747
 4348SOL     OW24502   3.139   0.814   6.847 -0.0477  0.6235  0.6608
 4348SOL    HW124503   3.110   0.863   6.770  1.2112 -0.0911 -0.2614
 4348SOL    HW224504   3.214   0.779   6.800 -0.0328 -0.6340  1.6376
 4349SOL     OW24505   3.540   2.446   7.196 -0.7586  0.1477  0.0783
 4349SOL    HW124506   3.589   2.367   7.173  1.0356  1.6313 -1.1601
 4349SOL    HW224507   3.542   2.503   7.119 -1.2573 -0.6854 -0.5498
 4350SOL     OW24508   0.314   1.638   7.283  0.0602  0.5825  0.0547
 4350SOL    HW124509   0.226   1.606   7.264 -0.3930  2.1598 -0.5191
 4350SOL    HW224510   0.290   1.731   7.277 -0.3094  0.4833 -0.0467
 4351SOL     OW24511   1.810   0.084   4.433 -0.1360  0.1339 -0.5727
 4351SOL    HW124512   1.752   0.133   4.374 -0.6266  1.4767  1.0327
 4351SOL    HW224513   1.743   0.032   4.477  1.7971 -2.4478 -0.6704
 4352SOL     OW24514   4.587   1.564   6.658  0.0957  0.3722 -0.2454
 4352SOL    HW124515   4.618   1.551   6.748 -1.1149  1.0523  0.2809
 4352SOL    HW224516   4.628   1.493   6.609  1.1692  2.1572 -1.8969
 4353SOL     OW24517   0.847   4.095   2.901 -0.2758  0.1874 -0.4918
 4353SOL    HW124518   0.878   4.035   2.969  0.4824 -1.5361 -2.3475
 4353SOL    HW224519   0.901   4.172   2.919 -0.8439  0.5686 -0.4274
 4354SOL     OW24520   2.791   2.634   3.024  0.3936 -0.2835 -0.5134
 4354SOL    HW124521   2.845   2.691   3.079  2.0465 -1.5362 -0.8547
 4354SOL    HW224522   2.768   2.567   3.088 -1.6574  0.0690 -0.8777
 4355SOL     OW24523   3.020   0.054   7.588 -0.6255  0.4056  0.4118
 4355SOL    HW124524   2.942   0.032   7.640  1.1951 -1.8108  2.1804
 4355SOL    HW224525   3.045   0.136   7.629 -2.9141  1.8561 -1.1086
 4356SOL     OW24526   0.894   3.758   6.368  0.2576 -0.6275 -0.1949
 4356SOL    HW124527   0.948   3.705   6.426 -0.8888 -0.8195  0.7044
 4356SOL    HW224528   0.961   3.790   6.307  1.6542 -1.7835  0.7339
 4357SOL     OW24529   1.147   0.586  13.010 -0.2839 -0.2130  0.3984
 4357SOL    HW124530   1.233   0.626  12.992 -1.2981  1.1586 -1.3339
 4357SOL    HW224531   1.124   0.653  13.075 -1.3949 -1.2452  1.0611
 4358SOL     OW24532   3.076   1.089   7.253  0.1545 -0.0233 -0.3469
 4358SOL    HW124533   3.033   1.137   7.323 -1.9148 -1.1560 -0.8301
 4358SOL    HW224534   3.002   1.038   7.220  0.8510 -2.2597  1.5751
 4359SOL     OW24535   1.245   3.027  12.408 -0.0258  1.2960  0.1593
 4359SOL    HW124536   1.274   3.079  12.483 -0.8741  2.0730 -0.0574
 4359SOL    HW224537   1.242   3.095  12.340  0.2306  2.9971  1.8482
 4360SOL     OW24538   3.017   2.897   7.299  0.2931  0.1167  0.3132
 4360SOL    HW124539   2.948   2.962   7.285 -0.4692 -0.8485 -0.4012
 4360SOL    HW224540   2.973   2.813   7.288  2.4710 -0.8692 -0.9322
 4361SOL     OW24541   1.831   0.705   4.199  0.4208  0.5227 -0.5662
 4361SOL    HW124542   1.791   0.635   4.147  1.4571 -0.5277  0.0496
 4361SOL    HW224543   1.921   0.672   4.194 -0.1574 -1.2198  0.3988
 4362SOL     OW24544   3.272   1.258   3.024 -0.2396 -0.0235 -0.1073
 4362SOL    HW124545   3.330   1.187   2.997 -0.4247  0.0761 -0.7828
 4362SOL    HW224546   3.259   1.309   2.943  1.1204 -2.0957 -1.6318
 4363SOL     OW24547   0.865   3.882   3.636  0.1224 -0.1554  0.1037
 4363SOL    HW124548   0.826   3.968   3.652  0.4315 -0.0084  0.0683
 4363SOL    HW224549   0.798   3.819   3.663 -0.3464 -0.1182 -0.9781
 4364SOL     OW24550   2.095   0.917   5.385  0.3772 -0.6302 -0.2461
 4364SOL    HW124551   2.113   0.988   5.447  0.2465 -0.8435  0.0355
 4364SOL    HW224552   2.182   0.913   5.346 -0.0027  0.3415 -1.1839
 4365SOL     OW24553   0.874   4.538   2.049  0.0056 -0.5240  0.4289
 4365SOL    HW124554   0.876   4.621   2.097  0.3404  0.6398 -1.5877
 4365SOL    HW224555   0.950   4.549   1.993  1.0211  0.6488  2.0290
 4366SOL     OW24556   3.090   4.693   8.230  0.4036  0.3077 -0.2705
 4366SOL    HW124557   3.073   4.684   8.137 -0.1273 -1.4432 -0.0015
 4366SOL    HW224558   3.168   0.025   8.226  0.3413  0.3155 -1.1625
 4367SOL     OW24559   1.108   3.816   7.848  0.0554  0.1388  0.3224
 4367SOL    HW124560   1.119   3.812   7.753 -1.1099  0.3349  0.1760
 4367SOL    HW224561   1.016   3.842   7.846 -0.7802 -2.9056 -1.2556
 4368SOL     OW24562   0.597   0.723   4.027  0.3165  0.5825 -0.0146
 4368SOL    HW124563   0.623   0.675   3.948 -2.6968  0.2602 -0.7935
 4368SOL    HW224564   0.675   0.778   4.037  0.3104  1.0920 -2.7568
 4369SOL     OW24565   3.546   0.963   5.522 -0.5885  0.1726 -0.0750
 4369SOL    HW124566   3.537   0.880   5.476 -0.6240 -0.0540  0.3427
 4369SOL    HW224567   3.477   1.010   5.474 -0.3516  0.4155 -0.1740
 4370SOL     OW24568   1.371   4.716   8.806  0.0470 -0.1003 -0.3300
 4370SOL    HW124569   1.367   4.674   8.720 -1.1536 -0.2709 -0.1907
 4370SOL    HW224570   1.338   4.649   8.866  1.8290 -0.2693  0.4499
 4371SOL     OW24571   2.638   2.520  12.036  0.2158  0.1871 -0.2579
 4371SOL    HW124572   2.670   2.586  12.097 -0.4531 -0.0470  0.3420
 4371SOL    HW224573   2.642   2.436  12.082  1.6427  0.3810 -0.0469
 4372SOL     OW24574   4.611   1.556  17.100  0.7689  0.5637  0.5299
 4372SOL    HW124575   4.563   1.489  17.052 -0.4104  0.7245  1.4931
 4372SOL    HW224576   4.539   1.579  17.159 -0.3915 -0.7103 -0.4072
 4373SOL     OW24577   4.398   2.210   6.248 -0.2478 -0.5959 -0.2519
 4373SOL    HW124578   4.435   2.175   6.167 -1.4627 -1.5854 -0.3764
 4373SOL    HW224579   4.326   2.147   6.256  1.1155 -2.1836 -0.6424
 4374SOL     OW24580   2.842   1.698   6.735 -0.4078 -0.1549 -0.1634
 4374SOL    HW124581   2.792   1.777   6.715 -0.4740 -0.7847 -2.5358
 4374SOL    HW224582   2.929   1.737   6.730  0.2385 -1.3944  1.3043
 4375SOL     OW24583   4.235   3.683   6.483  0.1145 -0.3433 -0.0574
 4375SOL    HW124584   4.238   3.608   6.423  0.4162  0.7904 -1.4668
 4375SOL    HW224585   4.140   3.698   6.481 -0.0431 -1.2551  0.9210
 4376SOL     OW24586   1.374   4.318  10.894 -0.0872  0.1773  0.2094
 4376SOL    HW124587   1.300   4.372  10.922 -0.8214 -0.1226 -1.1644
 4376SOL    HW224588   1.340   4.229  10.879 -0.4926  0.3349  0.1919
 4377SOL     OW24589   4.335   0.720  14.337  0.2409 -0.0683 -0.8154
 4377SOL    HW124590   4.316   0.721  14.244 -1.2133 -0.3162 -0.5177
 4377SOL    HW224591   4.321   0.628  14.360  2.2042 -0.6055 -1.8094
 4378SOL     OW24592   2.260   1.575   6.213  0.6806  1.0629 -0.1052
 4378SOL    HW124593   2.228   1.636   6.279 -0.5593 -1.2655  1.4655
 4378SOL    HW224594   2.295   1.626   6.141  0.0514 -0.9745 -1.8443
 4379SOL     OW24595   2.745   3.415  10.871  0.1139  0.7687 -0.1742
 4379SOL    HW124596   2.675   3.462  10.825  0.3299  1.1700 -0.0896
 4379SOL    HW224597   2.820   3.475  10.872 -0.9508  2.0587  1.6074
 4380SOL     OW24598   1.830   3.705   6.058  0.2013  0.0575  0.0885
 4380SOL    HW124599   1.772   3.667   5.993  0.4562 -0.0890 -0.0540
 4380SOL    HW224600   1.891   3.750   6.000  3.3473 -0.5585  2.9002
 4381SOL     OW24601   4.460   4.165   7.293 -1.0004  0.0367 -0.0091
 4381SOL    HW124602   4.371   4.193   7.271 -1.0611 -0.5856 -0.5577
 4381SOL    HW224603   4.463   4.083   7.244 -0.1562 -0.0391  0.1656
 4382SOL     OW24604   3.534   3.862   6.419 -0.1816  0.0781  0.0660
 4382SOL    HW124605   3.523   3.913   6.339  0.3300  1.6166  0.9899
 4382SOL    HW224606   3.557   3.926   6.487  1.0100 -0.0956 -0.1638
 4383SOL     OW24607   4.259   4.630   8.998 -0.1975 -0.0634  0.1806
 4383SOL    HW124608   4.306   4.618   9.081 -0.1367 -0.9393  0.0165
 4383SOL    HW224609   4.172   4.607   9.030  0.7396 -2.9293  0.7411
 4384SOL     OW24610   3.011   1.453   3.714 -0.3909  0.0727  0.0709
 4384SOL    HW124611   3.040   1.458   3.623 -1.5950 -0.5670 -0.3534
 4384SOL    HW224612   2.981   1.362   3.713 -0.5094  0.1050  1.2745
 4385SOL     OW24613   2.847   1.019  14.598 -0.3802 -0.5004  0.1580
 4385SOL    HW124614   2.893   1.089  14.645 -1.7325  0.6967 -0.2771
 4385SOL    HW224615   2.860   1.048  14.508 -0.1927 -0.8895  0.0607
 4386SOL     OW24616   1.353   2.752  14.189 -0.6762  0.1107 -0.2145
 4386SOL    HW124617   1.365   2.697  14.267 -1.5883 -1.2520 -1.0613
 4386SOL    HW224618   1.442   2.784  14.177 -0.6966  0.7714  1.2881
 4387SOL     OW24619   3.697   4.620   2.703 -0.0862  0.4698 -0.0767
 4387SOL    HW124620   3.773   4.641   2.648 -1.7093  0.3102 -2.3738
 4387SOL    HW224621   3.711   4.661   2.789 -1.2045  1.5212 -0.3979
 4388SOL     OW24622   4.196   4.229   7.339 -0.1083  0.0563  0.1581
 4388SOL    HW124623   4.102   4.237   7.328 -0.1831 -1.1384 -0.0803
 4388SOL    HW224624   4.210   4.170   7.413 -1.2250 -1.9259 -1.2402
 4389SOL     OW24625   0.556   1.298   5.460 -0.1764 -0.1793  0.0462
 4389SOL    HW124626   0.546   1.382   5.504 -0.3110  0.0961 -0.5060
 4389SOL    HW224627   0.478   1.251   5.486  0.1502  0.4577  2.1574
 4390SOL     OW24628   2.722   3.730   1.408 -0.4477 -0.2850 -0.4567
 4390SOL    HW124629   2.742   3.730   1.314  0.3225 -0.0294 -0.2897
 4390SOL    HW224630   2.717   3.822   1.432  3.6924 -0.0268 -0.6788
 4391SOL     OW24631   2.628   4.287   3.898 -0.0102 -0.2848  0.1102
 4391SOL    HW124632   2.643   4.196   3.871 -0.3492 -0.0556 -0.8731
 4391SOL    HW224633   2.683   4.343   3.843 -1.1789  0.8490  0.0903
 4392SOL     OW24634   0.018   0.578   6.757  0.6305  0.0415 -0.2784
 4392SOL    HW124635   0.052   0.514   6.694  0.2667  2.1842 -2.6261
 4392SOL    HW224636   4.659   0.541   6.782  0.4379  1.0939  0.6391
 4393SOL     OW24637   4.015   3.629  17.562  0.1905  0.6623 -0.0599
 4393SOL    HW124638   3.988   3.719  17.544 -0.2427  0.8836  1.6814
 4393SOL    HW224639   3.981   3.573  17.492 -0.7174 -0.6870  1.4588
 4394SOL     OW24640   3.198   4.406   7.276  0.3226 -0.1621  0.4882
 4394SOL    HW124641   3.198   4.325   7.327  1.9252 -0.9774 -0.8170
 4394SOL    HW224642   3.285   4.442   7.293 -0.3479  0.7983  1.8480
 4395SOL     OW24643   2.100   3.825  16.906 -0.2158  0.3316  0.2871
 4395SOL    HW124644   2.176   3.791  16.860 -0.0047 -0.9159  1.5648
 4395SOL    HW224645   2.136   3.907  16.941  3.6193 -1.0779 -0.4846
 4396SOL     OW24646   3.055   4.133   8.043  0.4133  0.2601 -0.0826
 4396SOL    HW124647   3.126   4.158   7.983 -1.7369  1.4832 -2.1080
 4396SOL    HW224648   3.079   4.174   8.126  2.3776  0.8473 -0.9416
 4397SOL     OW24649   0.638   1.086   3.919 -0.3575 -0.5898 -0.7947
 4397SOL    HW124650   0.682   1.027   3.858 -1.7095 -2.1343 -0.2712
 4397SOL    HW224651   0.697   1.162   3.924  0.7710 -1.4718 -0.5792
 4398SOL     OW24652   2.352   4.119   7.571 -0.5639  0.3497  0.4305
 4398SOL    HW124653   2.337   4.208   7.540 -1.0558  0.8695  2.1991
 4398SOL    HW224654   2.363   4.129   7.665 -2.3375  2.0254  0.4703
 4399SOL     OW24655   2.413   3.179  12.448 -0.3578 -0.3674 -0.0949
 4399SOL    HW124656   2.444   3.210  12.364 -0.8944  0.0153 -0.1493
 4399SOL    HW224657   2.333   3.134  12.422  0.2534 -1.2909 -0.3951
 4400SOL     OW24658   0.704   3.503   5.320  0.3827  0.0540  0.2387
 4400SOL    HW124659   0.617   3.485   5.285 -0.4063  0.6923  1.8831
 4400SOL    HW224660   0.711   3.595   5.296 -1.6601  0.7135  2.1861
 4401SOL     OW24661   0.724   0.328   9.360 -0.5365 -0.2718 -0.2144
 4401SOL    HW124662   0.768   0.252   9.321  0.5619  0.8841 -1.2057
 4401SOL    HW224663   0.634   0.322   9.330 -0.5068  1.7766 -0.6626
 4402SOL     OW24664   0.708   0.440  13.717 -0.1017  0.3621 -0.1524
 4402SOL    HW124665   0.708   0.403  13.805  0.2326  0.3638 -0.1538
 4402SOL    HW224666   0.616   0.427  13.694 -0.1605  1.1926 -0.3979
 4403SOL     OW24667   3.120   4.460   3.378  0.4794 -0.1637  0.0936
 4403SOL    HW124668   3.067   4.533   3.410  0.8240  0.7532 -1.3843
 4403SOL    HW224669   3.208   4.497   3.388  0.1868  0.6506 -0.3465
 4404SOL     OW24670   2.062   1.555   1.719 -0.2460 -0.2367 -0.3154
 4404SOL    HW124671   2.104   1.470   1.709  0.4355  0.1602 -0.8167
 4404SOL    HW224672   2.034   1.555   1.810  1.5621 -0.6520  0.2326
 4405SOL     OW24673   3.494   3.297   8.881  0.2550 -0.4764  0.2505
 4405SOL    HW124674   3.557   3.369   8.877 -1.4510  0.8496 -2.4650
 4405SOL    HW224675   3.516   3.257   8.966 -0.3908 -1.5261 -0.0823
 4406SOL     OW24676   0.370   1.710   6.362 -0.3718  0.0097 -0.4059
 4406SOL    HW124677   0.436   1.753   6.308 -0.0597  0.9556  0.7386
 4406SOL    HW224678   0.385   1.617   6.343  0.1012 -0.6729  3.2623
 4407SOL     OW24679   2.085   0.614   0.745  0.5585  0.2781  0.2453
 4407SOL    HW124680   2.047   0.631   0.831 -1.5014  0.0230 -0.5919
 4407SOL    HW224681   2.023   0.654   0.684 -0.0739 -1.8858 -0.5561
 4408SOL     OW24682   0.409   3.767  15.583  0.0263 -0.4185 -0.0983
 4408SOL    HW124683   0.403   3.684  15.630  0.3393 -1.3738 -1.7819
 4408SOL    HW224684   0.492   3.753  15.538 -0.4782  1.0195 -1.4745
 4409SOL     OW24685   1.465   0.513   5.447  0.7056  0.4231 -0.2084
 4409SOL    HW124686   1.432   0.498   5.358 -2.9656  1.3585  1.0320
 4409SOL    HW224687   1.476   0.608   5.440 -1.1537  0.7329  1.1739
 4410SOL     OW24688   3.801   0.699   6.572 -0.3934 -0.1118  0.0131
 4410SOL    HW124689   3.787   0.780   6.622 -1.7780  0.4635 -1.2969
 4410SOL    HW224690   3.832   0.639   6.639 -0.0048 -1.1752 -1.1303
 4411SOL     OW24691   3.241   3.717  12.622 -0.6368 -0.2208  0.6782
 4411SOL    HW124692   3.187   3.654  12.574 -1.1210  1.6505 -1.1916
 4411SOL    HW224693   3.258   3.678  12.708 -1.8736 -0.5134  0.8036
 4412SOL     OW24694   1.310   3.686   8.677  0.1500  0.0063 -0.2151
 4412SOL    HW124695   1.253   3.611   8.694  1.8461 -1.0898  0.5666
 4412SOL    HW224696   1.370   3.676   8.751  0.1116 -2.0610 -0.4766
 4413SOL     OW24697   1.797   1.313   7.279 -0.2540 -0.5923  0.1434
 4413SOL    HW124698   1.836   1.400   7.276  0.6200 -1.0925 -3.7873
 4413SOL    HW224699   1.847   1.273   7.207  0.6368 -1.8537  1.4727
 4414SOL     OW24700   3.802   3.158  15.742 -0.3464  0.2163  0.1282
 4414SOL    HW124701   3.722   3.106  15.755  1.6757 -2.2057  2.7624
 4414SOL    HW224702   3.777   3.241  15.784  0.6499  0.7936 -0.4300
 4415SOL     OW24703   0.185   2.844   6.714  0.7874  0.0701  0.2079
 4415SOL    HW124704   0.092   2.863   6.722  0.7731 -0.2962  0.9286
 4415SOL    HW224705   0.188   2.850   6.619  0.2944 -1.7163  0.0713
 4416SOL     OW24706   1.648   2.788   0.193  0.2023 -0.2703  0.4723
 4416SOL    HW124707   1.727   2.838   0.214  0.6237  0.4154 -2.8021
 4416SOL    HW224708   1.583   2.848   0.157  1.2804  0.4680 -0.2566
 4417SOL     OW24709   0.105   0.078   4.778 -0.0081  0.0703  0.5396
 4417SOL    HW124710   0.069   0.079   4.689  0.3191 -2.1446  0.3622
 4417SOL    HW224711   0.198   0.067   4.758 -0.0663  0.3235  0.1365
 4418SOL     OW24712   3.668   1.308   5.334 -0.5472 -0.0501  0.2338
 4418SOL    HW124713   3.594   1.311   5.274 -0.2501 -0.2704 -0.1466
 4418SOL    HW224714   3.697   1.218   5.321 -1.2514  0.0872 -2.3255
 4419SOL     OW24715   0.016   0.652   9.889  0.0679 -0.7007 -0.0975
 4419SOL    HW124716   0.039   0.665   9.797 -0.0905 -0.6980 -0.1360
 4419SOL    HW224717   4.659   0.604   9.874  1.2100 -2.9655  0.7675
 4420SOL     OW24718   1.095   1.172   6.253 -0.2592  0.6687  0.1069
 4420SOL    HW124719   1.135   1.207   6.333 -1.5547 -0.9106  1.4391
 4420SOL    HW224720   1.006   1.203   6.270  0.0679  1.1904  0.8750
 4421SOL     OW24721   1.008   3.333   1.489 -0.4290 -0.2934 -0.9469
 4421SOL    HW124722   0.967   3.413   1.522 -0.7721 -1.0155  0.3785
 4421SOL    HW224723   0.926   3.283   1.482 -0.8542  0.2129  0.3652
 4422SOL     OW24724   1.748   1.128   4.094  0.2872  0.0431 -0.9727
 4422SOL    HW124725   1.695   1.051   4.073  2.2580 -1.4651 -0.3239
 4422SOL    HW224726   1.757   1.155   4.003 -1.3042  0.7274 -0.9290
 4423SOL     OW24727   1.053   1.047   9.569 -0.6133 -0.1969  0.1916
 4423SOL    HW124728   1.082   1.136   9.587 -1.3631 -0.1467  1.1842
 4423SOL    HW224729   1.143   1.019   9.584 -0.7343 -1.0265 -0.6379
 4424SOL     OW24730   4.154   1.444  13.945 -0.1814  0.2081 -0.0798
 4424SOL    HW124731   4.126   1.384  13.876  3.1580  1.8754 -2.8770
 4424SOL    HW224732   4.098   1.519  13.927  1.4022  1.6211  0.9077
 4425SOL     OW24733   0.807   4.081   7.707 -0.1164  0.2530 -0.3837
 4425SOL    HW124734   0.774   4.044   7.625  1.7015  1.1377 -1.5062
 4425SOL    HW224735   0.889   4.120   7.676  1.1087 -1.9182  0.1443
 4426SOL     OW24736   2.036   0.293   4.438  0.2023  0.2412  0.4703
 4426SOL    HW124737   2.109   0.242   4.472  0.1128  0.0166  0.3230
 4426SOL    HW224738   1.968   0.261   4.497 -0.1775  0.2163  0.0160
 4427SOL     OW24739   2.323   1.979   5.906 -0.0587 -0.3279  0.2979
 4427SOL    HW124740   2.279   1.947   5.828  1.2397  1.4506 -1.1621
 4427SOL    HW224741   2.273   2.061   5.917  1.6840  0.7428  0.2872
 4428SOL     OW24742   2.468   4.267   8.613 -0.0601 -0.2453 -0.1330
 4428SOL    HW124743   2.423   4.220   8.683  0.8677 -0.2430  0.4703
 4428SOL    HW224744   2.389   4.310   8.581 -0.0537  0.4433  0.7853
 4429SOL     OW24745   2.971   0.105   6.165  0.3701 -0.3068 -0.5256
 4429SOL    HW124746   2.876   0.089   6.171  0.0552  2.1479  0.9121
 4429SOL    HW224747   2.974   0.181   6.107 -0.7957  0.4638  0.4147
 4430SOL     OW24748   1.351   0.725   1.752 -0.4967  0.1043  0.7051
 4430SOL    HW124749   1.303   0.736   1.671  0.3156 -0.3626  0.1587
 4430SOL    HW224750   1.282   0.682   1.802 -1.6501  1.3307  0.1599
 4431SOL     OW24751   3.601   4.505   7.062  0.3319  0.0041  0.4086
 4431SOL    HW124752   3.549   4.474   7.136  1.5136 -1.2255  0.7300
 4431SOL    HW224753   3.632   4.424   7.022 -4.1615 -0.0566 -2.9661
 4432SOL     OW24754   1.075   3.730   2.824 -0.0311 -0.4263 -0.5006
 4432SOL    HW124755   1.090   3.667   2.895 -0.4406 -0.6139 -0.5800
 4432SOL    HW224756   0.979   3.737   2.819  0.1799  0.1723 -3.4855
 4433SOL     OW24757   4.152   1.393   3.577 -0.6101 -0.5690 -0.1861
 4433SOL    HW124758   4.234   1.400   3.529  1.0443 -1.4209  2.5094
 4433SOL    HW224759   4.147   1.299   3.596  0.7507 -0.7029 -0.5028
 4434SOL     OW24760   0.917   0.971   2.676  0.0291 -0.0603 -0.3850
 4434SOL    HW124761   0.859   0.982   2.601 -0.4378  2.6993  0.4069
 4434SOL    HW224762   0.883   0.884   2.699  1.0018 -0.5066 -0.6198
 4435SOL     OW24763   4.335   0.101   7.184 -0.0933 -0.1437  0.4136
 4435SOL    HW124764   4.365   0.015   7.156  0.7248 -0.1532  1.2889
 4435SOL    HW224765   4.388   0.158   7.129 -0.7427 -1.7322 -1.8637
 4436SOL     OW24766   0.754   0.123   4.878  0.5678  0.0962  0.0448
 4436SOL    HW124767   0.673   0.094   4.835  0.0309  2.0822 -0.2737
 4436SOL    HW224768   0.822   0.074   4.831 -0.0180 -1.7586  1.1452
 4437SOL     OW24769   0.969   3.457   2.604  0.3781 -0.2920  0.1968
 4437SOL    HW124770   0.938   3.543   2.633  0.7032 -0.0083 -0.3029
 4437SOL    HW224771   0.982   3.474   2.511 -1.7723 -0.0704 -0.0590
 4438SOL     OW24772   4.033   0.884   1.373  0.3430 -0.6011  0.1900
 4438SOL    HW124773   3.986   0.874   1.456  0.0887 -0.5614  0.0496
 4438SOL    HW224774   4.000   0.971   1.352  0.2866 -0.3367  1.3588
 4439SOL     OW24775   0.844   0.223   4.434 -0.0150 -0.0258  1.3288
 4439SOL    HW124776   0.808   0.288   4.494 -0.7895 -0.0270  0.8629
 4439SOL    HW224777   0.884   0.277   4.366 -0.5506 -1.7526 -0.3566
 4440SOL     OW24778   0.949   2.404   3.288  0.1781 -0.2012 -0.0217
 4440SOL    HW124779   1.011   2.388   3.360 -0.2521 -1.5610  0.0556
 4440SOL    HW224780   1.003   2.427   3.212  0.0052  0.4221  0.0448
 4441SOL     OW24781   2.325   1.839   1.541 -0.0515  0.0569  0.6043
 4441SOL    HW124782   2.322   1.934   1.528  0.1627  0.3373  2.5811
 4441SOL    HW224783   2.231   1.824   1.536 -0.2234  1.4970 -0.4525
 4442SOL     OW24784   1.726   0.016   4.842  0.1517  0.2964  0.7708
 4442SOL    HW124785   1.745   0.043   4.932  0.0741  1.1073  0.5388
 4442SOL    HW224786   1.800   4.685   4.819  1.2987  2.5302 -0.8913
 4443SOL     OW24787   3.063   3.966   0.659  0.3836  0.1390  0.2485
 4443SOL    HW124788   3.105   3.996   0.740 -1.3466 -0.9422  1.5532
 4443SOL    HW224789   3.115   3.894   0.623 -0.8143 -0.4961 -0.1903
 4444SOL     OW24790   2.973   1.704  15.408  0.0780  0.5498  0.3660
 4444SOL    HW124791   3.018   1.780  15.445  4.3517 -1.2857 -0.9329
 4444SOL    HW224792   3.039   1.634  15.420  0.3146  0.2571 -2.8332
 4445SOL     OW24793   2.060   2.368   0.923  0.9830  0.5902 -0.1381
 4445SOL    HW124794   2.056   2.305   0.995 -0.2724 -0.4167 -1.0802
 4445SOL    HW224795   1.997   2.436   0.951  1.6294  0.3390  1.8933
 4446SOL     OW24796   3.082   2.400   1.832  0.3863  0.7583 -0.0382
 4446SOL    HW124797   3.034   2.349   1.767 -1.3327  0.4257  1.4606
 4446SOL    HW224798   3.019   2.428   1.900  0.8699 -0.7604  1.0258
 4447SOL     OW24799   1.426   3.805   4.763 -0.1560 -0.0055 -0.2973
 4447SOL    HW124800   1.402   3.763   4.680  0.2720 -0.5685 -0.1296
 4447SOL    HW224801   1.480   3.734   4.796  1.0094  0.2257 -1.6832
 4448SOL     OW24802   0.627   3.489   6.073  0.4457  0.6147  0.3795
 4448SOL    HW124803   0.713   3.503   6.034  0.1005  0.2941 -0.4821
 4448SOL    HW224804   0.635   3.399   6.103  0.7398  0.2158 -0.9174
 4449SOL     OW24805   0.962   2.175   3.533 -0.3610 -0.3388 -0.7088
 4449SOL    HW124806   0.883   2.153   3.483 -0.2846 -0.5317 -0.7450
 4449SOL    HW224807   0.984   2.092   3.576 -3.0199 -0.9215 -0.4221
 4450SOL     OW24808   4.550   2.638   6.735 -0.1087 -0.1659 -0.2168
 4450SOL    HW124809   4.571   2.731   6.735 -3.7165  0.6623  1.1932
 4450SOL    HW224810   4.623   2.612   6.792  1.0473  2.1928 -0.6336
 4451SOL     OW24811   0.659   1.577   7.739  0.1286  0.1991  0.2867
 4451SOL    HW124812   0.676   1.619   7.655 -0.3463  0.2963  0.2401
 4451SOL    HW224813   0.577   1.531   7.724 -1.2626  2.5522  0.6333
 4452SOL     OW24814   4.447   0.107   6.426 -0.3733 -0.0311  0.2263
 4452SOL    HW124815   4.480   0.018   6.419  0.1655  0.1574  0.3239
 4452SOL    HW224816   4.355   0.097   6.405 -0.1979 -0.2245 -0.4316
 4453SOL     OW24817   1.998   0.150   8.383  0.6021 -0.1135  0.0887
 4453SOL    HW124818   1.997   0.175   8.475  2.0764 -0.9240  0.3287
 4453SOL    HW224819   1.905   0.140   8.366  0.7267 -2.4700  0.7626
 4454SOL     OW24820   2.292   0.833   6.415 -0.4301  0.3160 -0.2134
 4454SOL    HW124821   2.377   0.871   6.438 -0.7312  1.0297 -0.2780
 4454SOL    HW224822   2.263   0.811   6.503 -0.2794 -1.4141 -0.5953
 4455SOL     OW24823   3.822   1.479   8.214 -0.0080  0.4190 -0.4049
 4455SOL    HW124824   3.899   1.442   8.171 -1.1797 -2.5199  0.0200
 4455SOL    HW224825   3.777   1.400   8.244  1.2142 -0.2564 -0.3269
 4456SOL     OW24826   1.644   0.820   0.007 -0.4798  0.4648 -0.0528
 4456SOL    HW124827   1.573   0.810  17.646 -1.1952  1.1401  0.6434
 4456SOL    HW224828   1.631   0.748   0.069 -0.3479 -0.5468 -1.2089
 4457SOL     OW24829   1.678   3.327   1.942 -0.3845 -0.2194 -0.4210
 4457SOL    HW124830   1.683   3.233   1.960 -1.1093 -0.1338  0.2224
 4457SOL    HW224831   1.728   3.358   2.017 -0.6215 -1.3141  0.1871
 4458SOL     OW24832   4.643   0.015  11.494  0.3199  0.1146 -0.0358
 4458SOL    HW124833   4.705   0.084  11.516 -0.3609  0.8804 -0.5443
 4458SOL    HW224834   4.682   4.660  11.529 -2.1401 -0.3969  1.5003
 4459SOL     OW24835   4.657   3.542   8.431  0.2583 -0.0549 -0.1272
 4459SOL    HW124836   4.575   3.544   8.479  0.7032 -3.3069  0.7504
 4459SOL    HW224837   4.679   3.450   8.418 -0.8579 -0.3487  0.0599
 4460SOL     OW24838   0.632   0.061   6.261 -0.0897  0.0588 -0.3192
 4460SOL    HW124839   0.719   0.020   6.263 -0.0834  0.0773 -0.2290
 4460SOL    HW224840   0.650   0.148   6.225  1.6289  0.4469  1.4991
 4461SOL     OW24841   2.422   2.566   1.742 -0.6397 -0.3911  0.6105
 4461SOL    HW124842   2.344   2.615   1.718 -0.6893 -0.9476 -0.3791
 4461SOL    HW224843   2.471   2.634   1.788 -2.0865  1.8000 -1.1145
 4462SOL     OW24844   2.920   0.636   8.088  0.5246 -0.1335 -0.2856
 4462SOL    HW124845   2.831   0.654   8.120  0.1671 -1.2338 -0.6508
 4462SOL    HW224846   2.967   0.705   8.135  2.8322 -0.7234 -1.7482
 4463SOL     OW24847   2.506   1.704   5.726 -0.4526  0.1860  0.2466
 4463SOL    HW124848   2.601   1.702   5.714 -0.2801  0.0705  1.6903
 4463SOL    HW224849   2.488   1.794   5.698  1.5309  0.4329 -0.2151
 4464SOL     OW24850   3.405   2.193   8.209 -0.3199  0.5577  0.3864
 4464SOL    HW124851   3.471   2.258   8.232  2.2213 -1.3995 -1.4306
 4464SOL    HW224852   3.321   2.232   8.235 -0.8774  0.0463 -0.6736
 4465SOL     OW24853   4.639   1.710   7.264  0.5478 -0.8761  0.4403
 4465SOL    HW124854   4.565   1.708   7.204 -0.5838  4.5432  1.6429
 4465SOL    HW224855   4.662   1.618   7.271  1.0147 -0.7817  0.1307
 4466SOL     OW24856   0.999   1.288   7.191  0.1921  0.3755 -0.5148
 4466SOL    HW124857   1.093   1.294   7.207 -0.3364  0.2958  2.5993
 4466SOL    HW224858   0.990   1.222   7.122 -2.0241 -0.5473  0.6758
 4467SOL     OW24859   3.714   2.333   1.415 -0.7930 -0.8687 -0.5626
 4467SOL    HW124860   3.649   2.355   1.347 -0.6971  2.6280  0.4415
 4467SOL    HW224861   3.710   2.238   1.414  0.0292 -0.9120  0.5723
 4468SOL     OW24862   0.755   4.045   6.103 -0.2247 -0.2357 -0.1677
 4468SOL    HW124863   0.762   3.950   6.097  0.7492 -0.1227 -0.7830
 4468SOL    HW224864   0.814   4.060   6.177 -0.1404 -1.6134  0.0540
 4469SOL     OW24865   1.969   2.654   5.050 -0.0148  0.0323 -0.5396
 4469SOL    HW124866   2.026   2.639   4.974 -0.3581  0.8681 -0.9636
 4469SOL    HW224867   2.022   2.616   5.120 -2.0390 -1.1922  0.3205
 4470SOL     OW24868   3.907   1.639   7.459  0.1289  0.2459 -0.1604
 4470SOL    HW124869   3.885   1.711   7.399 -3.4270 -1.0970 -0.4859
 4470SOL    HW224870   3.991   1.670   7.493 -0.3060  0.1937  0.9650
 4471SOL     OW24871   2.293   3.232   2.738  0.0324 -0.0941 -0.4843
 4471SOL    HW124872   2.345   3.305   2.705 -0.2561  0.6964  0.8261
 4471SOL    HW224873   2.354   3.158   2.738 -0.3236 -0.3875  3.0392
 4472SOL     OW24874   4.263   1.798   6.474  0.7822 -0.2910  0.0663
 4472SOL    HW124875   4.274   1.720   6.528 -0.6395 -0.7826 -0.3755
 4472SOL    HW224876   4.339   1.797   6.415 -1.0893 -1.0791 -2.3353
 4473SOL     OW24877   1.411   0.161  11.548  0.3709 -0.2637  0.8748
 4473SOL    HW124878   1.337   0.101  11.553 -1.6310  2.0732 -0.8642
 4473SOL    HW224879   1.462   0.137  11.626 -0.4778 -0.4920  1.3514
 4474SOL     OW24880   4.431   4.513   1.629  0.1415 -0.5740 -0.3996
 4474SOL    HW124881   4.369   4.446   1.661 -1.4440  1.4811  0.8350
 4474SOL    HW224882   4.468   4.554   1.707 -1.6847 -1.7032  1.0642
 4475SOL     OW24883   0.672   3.960   7.471  0.2672 -0.1270 -0.1681
 4475SOL    HW124884   0.605   4.022   7.443  0.2279  0.7737  1.9174
 4475SOL    HW224885   0.617   3.882   7.482 -0.0600  0.1585  0.2200
 4476SOL     OW24886   1.757   0.488  11.402 -0.6298  0.5377  0.5667
 4476SOL    HW124887   1.664   0.468  11.395 -0.6644  0.1734  2.0929
 4476SOL    HW224888   1.754   0.491  11.498  2.8754  0.8059  0.6829
 4477SOL     OW24889   0.502   4.528   3.740  0.4978 -0.0834  0.0120
 4477SOL    HW124890   0.469   4.570   3.820  0.1198 -1.5632  0.6435
 4477SOL    HW224891   0.418   4.495   3.707 -0.2108  2.2409 -0.4591
 4478SOL     OW24892   1.612   2.024  15.344  0.2483 -0.4190  0.1028
 4478SOL    HW124893   1.540   2.017  15.406 -1.1232 -0.3645 -1.4920
 4478SOL    HW224894   1.628   1.934  15.316 -0.7451 -0.4333 -0.4043
 4479SOL     OW24895   4.084   1.781  12.977 -0.1541 -0.4101  0.5780
 4479SOL    HW124896   4.070   1.778  13.071 -0.8351 -0.2467  0.4784
 4479SOL    HW224897   4.001   1.809  12.939 -1.1720 -1.9336  1.6831
 4480SOL     OW24898   4.325   0.777   6.527 -0.6871  0.5916 -0.3284
 4480SOL    HW124899   4.420   0.771   6.525 -0.7973 -0.4001 -2.4690
 4480SOL    HW224900   4.323   0.854   6.471 -1.7499  2.5803  2.4126
 4481SOL     OW24901   2.350   0.163  16.623  0.2823  0.5183 -0.2985
 4481SOL    HW124902   2.334   0.255  16.644  1.1457  0.5888  0.0607
 4481SOL    HW224903   2.280   0.139  16.562 -0.1920 -2.0133  1.2577
 4482SOL     OW24904   0.751   3.234   5.296  0.4903 -0.0896 -0.2335
 4482SOL    HW124905   0.743   3.330   5.299  1.7487 -0.0332  1.1060
 4482SOL    HW224906   0.759   3.225   5.391  0.7575 -3.5163 -0.6053
 4483SOL     OW24907   3.170   2.207  12.891  0.2571 -0.3963  0.4705
 4483SOL    HW124908   3.192   2.159  12.970 -2.8661 -1.6317  0.6045
 4483SOL    HW224909   3.237   2.272  12.871  1.2604 -1.7900 -0.6787
 4484SOL     OW24910   4.127   0.437   0.888  0.2191 -0.1395 -0.0856
 4484SOL    HW124911   4.222   0.448   0.883  0.2233  0.8079  1.8976
 4484SOL    HW224912   4.129   0.445   0.983  1.6392 -1.4719  0.0076
 4485SOL     OW24913   1.560   0.454   5.826 -0.1515  0.3303  0.0535
 4485SOL    HW124914   1.602   0.399   5.892 -0.6291  0.2740  0.3022
 4485SOL    HW224915   1.628   0.454   5.757  0.1194  0.5927  0.3219
 4486SOL     OW24916   1.006   0.773   6.734 -0.0369  0.1052  0.5711
 4486SOL    HW124917   1.044   0.749   6.819 -0.4885  0.7285  0.9441
 4486SOL    HW224918   0.939   0.708   6.715  0.2642 -0.1579  0.4054
 4487SOL     OW24919   0.546   0.959   6.622 -0.3920  0.2744  0.1478
 4487SOL    HW124920   0.570   1.037   6.671 -0.6995  0.8019 -0.5448
 4487SOL    HW224921   0.464   0.937   6.665 -0.0730  0.1207  0.6703
 4488SOL     OW24922   2.818   0.103   8.696 -0.7488  0.4754 -0.1957
 4488SOL    HW124923   2.905   0.074   8.725 -1.1543  0.2843  0.8318
 4488SOL    HW224924   2.823   0.197   8.680 -0.1681  0.4148 -0.3826
 4489SOL     OW24925   4.587   2.899  10.816 -0.2436 -0.1676  0.4362
 4489SOL    HW124926   4.647   2.948  10.872  2.7171 -0.9156 -2.0957
 4489SOL    HW224927   4.657   2.868  10.759  2.4820  1.5402  2.8781
 4490SOL     OW24928   3.492   2.025  17.502  0.3964 -0.0664  0.0085
 4490SOL    HW124929   3.400   2.052  17.507 -0.6179 -3.7377  0.7102
 4490SOL    HW224930   3.526   2.071  17.578 -0.7520  1.3905 -0.3506
 4491SOL     OW24931   0.588   3.951   1.819  0.4195  0.0167  0.7697
 4491SOL    HW124932   0.647   3.965   1.892  0.8958 -1.2975  0.6332
 4491SOL    HW224933   0.583   4.041   1.788 -3.3163 -0.5041 -0.1821
 4492SOL     OW24934   0.804   2.375   5.859  0.5888 -0.1303  0.6429
 4492SOL    HW124935   0.725   2.418   5.888  1.7779  2.9967 -0.7231
 4492SOL    HW224936   0.873   2.417   5.911 -0.7231  2.1563  0.5077
 4493SOL     OW24937   0.717   2.181  11.477  0.4037  0.1670 -0.0221
 4493SOL    HW124938   0.631   2.221  11.490  0.3347 -0.0766  0.2818
 4493SOL    HW224939   0.771   2.257  11.496 -0.3975  0.9474 -0.8378
 4494SOL     OW24940   2.827   0.289   2.145 -0.2733 -0.7822 -0.4173
 4494SOL    HW124941   2.761   0.295   2.214  1.2225  0.0201  0.9336
 4494SOL    HW224942   2.812   0.367   2.092  0.3054 -1.6946 -1.9139
 4495SOL     OW24943   2.667   2.253   0.793  0.3260 -0.1252 -0.2949
 4495SOL    HW124944   2.679   2.269   0.886 -0.6628 -1.6041  0.0891
 4495SOL    HW224945   2.716   2.313   0.736  1.1604 -0.2910  0.2517
 4496SOL     OW24946   4.318   1.585  13.013 -0.0254 -0.0486 -0.3668
 4496SOL    HW124947   4.318   1.578  13.109 -0.9115  0.9071 -0.2976
 4496SOL    HW224948   4.227   1.614  13.006 -0.0762  0.4013  2.0530
 4497SOL     OW24949   0.925   2.070   8.426 -0.4726  0.5190  0.2913
 4497SOL    HW124950   0.994   2.097   8.366  1.1360 -1.3870  1.2934
 4497SOL    HW224951   0.974   2.031   8.498  1.8849  1.8263 -0.6165
 4498SOL     OW24952   0.190   1.231   2.923 -0.5642  0.1382  0.6453
 4498SOL    HW124953   0.127   1.226   2.995  1.3016  0.8142  2.3285
 4498SOL    HW224954   0.241   1.307   2.950 -0.1739  1.3072 -3.3013
 4499SOL     OW24955   1.963   3.932   3.638 -0.5203 -0.1761  0.6028
 4499SOL    HW124956   1.921   4.017   3.631  0.2733 -0.0666 -2.5173
 4499SOL    HW224957   1.890   3.870   3.644  1.1229 -1.9735  2.1739
 4500SOL     OW24958   4.318   1.136   3.983 -0.1935 -0.2252 -0.4739
 4500SOL    HW124959   4.352   1.073   4.047  1.7863  2.1195  0.7694
 4500SOL    HW224960   4.367   1.116   3.903  1.0999 -0.3545  0.3386
 4501SOL     OW24961   1.336   3.506   7.242  0.1963 -0.3937  0.0693
 4501SOL    HW124962   1.398   3.446   7.283  0.0585  0.0403  0.9279
 4501SOL    HW224963   1.314   3.463   7.159  1.1031  0.8090 -0.7924
 4502SOL     OW24964   4.093   2.601  16.169 -0.6730  0.5897  0.2359
 4502SOL    HW124965   4.066   2.581  16.079 -0.7430  0.8037  0.2077
 4502SOL    HW224966   4.069   2.694  16.173  1.7490  1.2205  0.5498
 4503SOL     OW24967   2.484   3.922   0.215  0.5485  0.5098  0.0659
 4503SOL    HW124968   2.467   3.900   0.124 -0.7129  0.0774  0.4008
 4503SOL    HW224969   2.478   3.837   0.258 -0.4298  0.5313 -0.0286
 4504SOL     OW24970   1.032   0.550   5.722  0.4029  1.0325 -0.1960
 4504SOL    HW124971   0.983   0.473   5.692  1.8641  0.3265 -0.7447
 4504SOL    HW224972   1.051   0.515   5.808 -0.6755  1.5770  0.2712
 4505SOL     OW24973   0.887   0.722   8.496 -0.7457 -0.5049  0.1858
 4505SOL    HW124974   0.952   0.657   8.468 -0.5904 -1.1306  1.9709
 4505SOL    HW224975   0.888   0.781   8.421  0.0919 -2.0203 -0.9890
 4506SOL     OW24976   3.535   1.993   8.035 -0.2400  0.6376  0.1778
 4506SOL    HW124977   3.544   1.914   8.089 -2.9226  1.4247  1.8053
 4506SOL    HW224978   3.503   2.057   8.099 -0.4903  0.4422  0.2495
 4507SOL     OW24979   4.351   0.495   4.473  0.0600 -0.1862 -0.1268
 4507SOL    HW124980   4.409   0.427   4.438 -1.3578 -1.9674  0.9753
 4507SOL    HW224981   4.320   0.533   4.391  0.6726 -0.6971 -0.5973
 4508SOL     OW24982   2.654   3.646  15.941  0.0204  0.4711  0.1425
 4508SOL    HW124983   2.686   3.657  15.852 -0.6398  2.2445  0.1036
 4508SOL    HW224984   2.591   3.574  15.934  1.0216 -0.3626 -0.1719
 4509SOL     OW24985   4.389   0.694   6.951 -0.0528  0.5425  0.4329
 4509SOL    HW124986   4.385   0.790   6.943 -1.4605  0.3301 -1.5575
 4509SOL    HW224987   4.432   0.685   7.036 -0.1774 -1.0827  0.3110
 4510SOL     OW24988   0.022   0.270   9.044 -0.6842  0.8769  0.2369
 4510SOL    HW124989   0.074   0.191   9.058 -0.7946  0.7863  0.1329
 4510SOL    HW224990   0.067   0.307   8.969 -3.4976  1.1236 -1.3368
 4511SOL     OW24991   1.839   4.556   8.072 -0.2675  0.5328 -0.0328
 4511SOL    HW124992   1.759   4.608   8.060  0.1933  0.9184 -1.3837
 4511SOL    HW224993   1.906   4.625   8.067  1.1798 -0.6566  3.0625
 4512SOL     OW24994   2.895   0.053   2.017  0.2429  0.0559  0.3456
 4512SOL    HW124995   2.806   0.020   2.016  0.2665  0.0027 -0.0047
 4512SOL    HW224996   2.871   0.122   2.079 -0.6299  1.3880 -1.4887
 4513SOL     OW24997   1.778   2.255   5.605  0.1227  0.2485  0.6757
 4513SOL    HW124998   1.742   2.342   5.586  1.3265  0.7287  0.5573
 4513SOL    HW224999   1.701   2.211   5.640 -0.9302  0.7554 -1.0288
 4514SOL     OW25000   1.735   3.129   6.221  0.7540  0.5540  0.2194
 4514SOL    HW125001   1.809   3.108   6.164  0.2292  0.5700 -0.4684
 4514SOL    HW225002   1.754   3.070   6.294 -2.3349 -0.7379  0.0223
 4515SOL     OW25003   4.326   0.667   2.550  0.3546 -0.2035  0.1385
 4515SOL    HW125004   4.307   0.670   2.456 -2.1793  2.4181  0.7300
 4515SOL    HW225005   4.377   0.746   2.567  0.1503 -0.6290  2.6819
 4516SOL     OW25006   4.469   0.675  12.869  0.0853  0.4309  0.3139
 4516SOL    HW125007   4.446   0.582  12.865  0.6373  0.3987 -2.0044
 4516SOL    HW225008   4.391   0.719  12.903 -0.1871 -0.3329  0.6814
 4517SOL     OW25009   4.095   4.502   4.018 -0.2229 -0.1349 -0.2928
 4517SOL    HW125010   4.052   4.528   4.100  0.7713 -1.4557  0.6415
 4517SOL    HW225011   4.041   4.427   3.994 -1.1267  0.1913  0.6970
 4518SOL     OW25012   0.761   4.620   6.816 -0.7302 -0.5634 -0.3072
 4518SOL    HW125013   0.851   4.625   6.847 -0.9166 -0.1073  0.1580
 4518SOL    HW225014   0.715   4.675   6.879 -0.8101 -2.0812  0.9470
 4519SOL     OW25015   3.066   4.322   7.031 -0.4860 -0.4645 -0.3153
 4519SOL    HW125016   3.107   4.326   7.117  0.0839 -0.6906 -0.5697
 4519SOL    HW225017   3.140   4.297   6.975 -1.0871 -3.3350  0.1565
 4520SOL     OW25018   2.130   4.442  17.669 -0.7989  0.3533 -0.4046
 4520SOL    HW125019   2.175   4.488   0.038 -0.1233  0.4532 -0.8996
 4520SOL    HW225020   2.204   4.434  17.609  0.6634  1.1804  1.2914
 4521SOL     OW25021   3.850   1.848   2.137  0.2147  0.9064  0.4224
 4521SOL    HW125022   3.893   1.923   2.094  3.2092 -0.1443  1.5581
 4521SOL    HW225023   3.877   1.772   2.085 -3.4627  0.3968 -0.7103
 4522SOL     OW25024   4.352   4.334   9.547  0.0868 -0.1340  0.2580
 4522SOL    HW125025   4.392   4.421   9.548 -1.8835  0.7763 -0.6803
 4522SOL    HW225026   4.407   4.300   9.618  1.1657  1.4710  0.1895
 4523SOL     OW25027   3.317   0.330   7.621 -0.4028  0.3837  0.0480
 4523SOL    HW125028   3.329   0.424   7.603 -0.2996  0.1240 -1.2046
 4523SOL    HW225029   3.294   0.340   7.713 -3.0101  0.1833 -0.5918
 4524SOL     OW25030   2.780   3.494   6.612  0.1121  0.0809  0.1210
 4524SOL    HW125031   2.790   3.416   6.557  0.0807 -0.5335  0.9945
 4524SOL    HW225032   2.837   3.549   6.558 -0.7618  0.8727 -0.0121
 4525SOL     OW25033   4.026   0.920   6.287  0.8493 -0.1554 -0.2365
 4525SOL    HW125034   4.079   0.980   6.338  2.5297 -3.6222  2.0603
 4525SOL    HW225035   3.959   0.979   6.250 -0.2157 -2.6475 -2.3025
 4526SOL     OW25036   1.032   1.043   9.103 -0.2673 -0.2483  0.0337
 4526SOL    HW125037   1.001   1.132   9.120 -2.7070 -1.3123  1.1318
 4526SOL    HW225038   1.109   1.038   9.159  3.6047  0.6810 -5.1400
 4527SOL     OW25039   1.256   4.014  15.614  0.7490  0.1329 -0.1823
 4527SOL    HW125040   1.289   4.042  15.699 -1.8784 -0.5439  1.0551
 4527SOL    HW225041   1.220   4.096  15.581  1.1370 -0.8536 -3.1115
 4528SOL     OW25042   3.873   2.025   4.698 -0.1867  0.3768  0.2747
 4528SOL    HW125043   3.902   2.039   4.608 -0.6334 -1.2870 -0.1235
 4528SOL    HW225044   3.783   2.058   4.691 -0.2030  0.1961 -0.3624
 4529SOL     OW25045   3.666   2.877   4.736 -0.2979  0.1318  0.2968
 4529SOL    HW125046   3.622   2.951   4.694 -1.3353 -0.5229  0.2287
 4529SOL    HW225047   3.699   2.829   4.660 -1.8890  1.5330 -1.2636
 4530SOL     OW25048   4.112   0.122   6.701 -0.1966  0.4913 -0.3910
 4530SOL    HW125049   4.143   0.213   6.703  2.7970 -0.5387  0.5146
 4530SOL    HW225050   4.024   0.133   6.735 -0.5971  0.9246 -1.5630
 4531SOL     OW25051   2.824   0.637  17.511 -1.0718  0.0857  0.2393
 4531SOL    HW125052   2.874   0.640  17.429 -3.0202 -0.1156 -0.9385
 4531SOL    HW225053   2.875   0.704  17.557  1.4881 -1.4299 -0.3967
 4532SOL     OW25054   3.668   2.555  16.092  0.2686 -0.1624 -0.0061
 4532SOL    HW125055   3.687   2.631  16.037 -0.9711  1.5198  1.9089
 4532SOL    HW225056   3.693   2.592  16.176  2.4454  2.7751 -1.9398
 4533SOL     OW25057   2.366   3.523   4.422  0.3780 -0.0890 -0.3121
 4533SOL    HW125058   2.316   3.502   4.343  1.0121 -4.6756  0.4828
 4533SOL    HW225059   2.429   3.451   4.413  0.9752  0.4129 -0.0550
 4534SOL     OW25060   2.970   3.981   7.246  0.1713  0.2353  0.6659
 4534SOL    HW125061   2.887   4.028   7.249 -0.9463 -1.8068  1.5736
 4534SOL    HW225062   2.958   3.922   7.320 -0.4102  1.8182  1.8178
 4535SOL     OW25063   0.082   0.900   2.800 -0.1837  0.0637 -0.3339
 4535SOL    HW125064   0.113   0.897   2.891  0.1924 -0.7620 -0.4939
 4535SOL    HW225065   0.044   0.988   2.801  0.2914  0.2653  0.0869
 4536SOL     OW25066   0.898   3.525  13.443 -0.1786  0.2070 -0.5593
 4536SOL    HW125067   0.985   3.560  13.429 -0.4455  0.6990 -0.9739
 4536SOL    HW225068   0.860   3.593  13.499  0.4384  0.6000 -0.6177
 4537SOL     OW25069   2.961   2.072  12.155 -0.0877  0.0305 -0.4131
 4537SOL    HW125070   3.017   2.015  12.103  2.1805  0.4269  1.5995
 4537SOL    HW225071   2.890   2.091  12.093  1.1763  3.2694 -0.8847
 4538SOL     OW25072   3.428   2.676  15.530 -0.0183 -0.6314  0.1980
 4538SOL    HW125073   3.515   2.680  15.489 -0.3309  2.0872 -0.1935
 4538SOL    HW225074   3.453   2.726  15.608  0.2056  0.4580 -0.5800
 4539SOL     OW25075   4.164   0.905   3.441  0.6001 -0.8394 -0.2273
 4539SOL    HW125076   4.098   0.880   3.506 -1.3278 -2.2518 -2.7366
 4539SOL    HW225077   4.138   0.864   3.358 -0.4385 -0.4440 -0.1037
 4540SOL     OW25078   3.798   0.424   3.560  0.1399  0.4274  0.1626
 4540SOL    HW125079   3.769   0.480   3.488  0.9812 -0.7814 -1.1229
 4540SOL    HW225080   3.848   0.361   3.507  1.7028  1.1845  0.7291
 4541SOL     OW25081   4.011   1.337   6.069  0.1067  0.1103 -0.4048
 4541SOL    HW125082   4.077   1.390   6.024  1.4868  0.7882  2.4193
 4541SOL    HW225083   3.946   1.400   6.098  2.2879  1.4950  1.4794
 4542SOL     OW25084   3.851   2.014  15.116 -0.2915  0.7242  0.7283
 4542SOL    HW125085   3.855   2.107  15.093  2.3919  0.8779  1.6949
 4542SOL    HW225086   3.779   1.989  15.060  0.2036  1.6687 -0.3289
 4543SOL     OW25087   3.139   0.851   4.712 -0.0752 -0.7269 -0.0458
 4543SOL    HW125088   3.053   0.822   4.742 -0.5021 -0.5844 -1.1111
 4543SOL    HW225089   3.162   0.782   4.649 -0.5974  0.4867 -1.5588
 4544SOL     OW25090   2.524   3.546  16.353 -0.1192 -0.0204  0.1273
 4544SOL    HW125091   2.461   3.575  16.287 -0.1017 -0.1285  0.0628
 4544SOL    HW225092   2.489   3.457  16.361 -3.5977  1.4815  1.2778
 4545SOL     OW25093   2.865   4.191   2.645  0.1050 -0.1962  0.4883
 4545SOL    HW125094   2.937   4.219   2.589  0.7701 -0.0556  1.4322
 4545SOL    HW225095   2.902   4.184   2.732 -0.3665 -3.9451  0.4001
 4546SOL     OW25096   2.252   4.627   7.634 -0.1023  0.2376  0.4270
 4546SOL    HW125097   2.177   4.679   7.606  0.1314  1.2039  1.6119
 4546SOL    HW225098   2.277   4.674   7.714  0.5536  0.3473  0.1617
 4547SOL     OW25099   4.052   4.377   2.166  0.0163 -0.3348  0.8035
 4547SOL    HW125100   4.142   4.345   2.175  1.1946  3.1688  1.8753
 4547SOL    HW225101   4.011   4.338   2.090 -2.0502  1.2815  1.0938
 4548SOL     OW25102   1.645   3.169  10.262 -0.1305 -0.3093  0.1651
 4548SOL    HW125103   1.581   3.240  10.261 -0.3947 -0.5237  1.5555
 4548SOL    HW225104   1.728   3.217  10.257 -0.9193  1.1159  0.8856
 4549SOL     OW25105   1.286   2.268  10.704 -0.0682 -0.8114  0.1713
 4549SOL    HW125106   1.231   2.301  10.633 -0.9796 -1.4041  0.6083
 4549SOL    HW225107   1.268   2.333  10.772  0.3079 -1.5473  0.9699
 4550SOL     OW25108   4.051   2.657   0.359  0.7097  0.0324 -0.0395
 4550SOL    HW125109   4.021   2.567   0.344 -2.5154  1.0164  0.4037
 4550SOL    HW225110   4.074   2.674   0.267  1.3009 -2.3845 -0.3490
 4551SOL     OW25111   3.358   3.296   2.231 -0.3107  0.0810  0.3390
 4551SOL    HW125112   3.302   3.220   2.241  2.4058 -1.7279  1.8980
 4551SOL    HW225113   3.408   3.285   2.312  0.0976 -2.5206 -0.2844
 4552SOL     OW25114   3.915   4.014  10.577  0.2131  0.1185  0.1662
 4552SOL    HW125115   3.968   3.939  10.604 -0.0872 -1.1028 -2.6689
 4552SOL    HW225116   3.883   3.983  10.493 -1.1971 -2.2119  1.5724
 4553SOL     OW25117   0.425   3.749   6.415 -0.6921  0.6127  0.4174
 4553SOL    HW125118   0.498   3.689   6.433 -1.7850 -0.7036  0.5053
 4553SOL    HW225119   0.404   3.732   6.324  0.2261 -2.7054  0.8241
 4554SOL     OW25120   1.516   3.518   6.991 -0.5965  0.5511 -0.2740
 4554SOL    HW125121   1.483   3.432   7.017  1.0999  0.2923  0.9571
 4554SOL    HW225122   1.607   3.502   7.016 -0.1948  4.2316  0.6040
 4555SOL     OW25123   3.809   1.126   5.188  0.4058 -0.2515 -0.3867
 4555SOL    HW125124   3.905   1.125   5.187  0.3734 -1.7302 -1.7666
 4555SOL    HW225125   3.789   1.191   5.121  0.5161 -0.9936 -1.1378
 4556SOL     OW25126   2.790   2.202  15.053 -0.2110  0.4508  0.2169
 4556SOL    HW125127   2.774   2.140  15.125 -0.0698  0.0667 -0.0857
 4556SOL    HW225128   2.705   2.193  15.009 -0.7339 -1.6882  1.6384
 4557SOL     OW25129   1.590   1.459   2.180 -0.2220 -0.3220 -0.1293
 4557SOL    HW125130   1.539   1.450   2.260 -1.8086 -2.2127 -1.3584
 4557SOL    HW225131   1.645   1.381   2.179  3.4564  2.2356  2.6208
 4558SOL     OW25132   1.002   3.050   0.426 -0.5559  0.8511  0.2961
 4558SOL    HW125133   1.044   3.135   0.411 -2.6009  1.5564 -1.4400
 4558SOL    HW225134   1.076   2.991   0.441 -1.6383 -0.7523 -0.5899
 4559SOL     OW25135   1.076   3.107  13.814  0.0937 -0.0498  0.3854
 4559SOL    HW125136   1.136   3.058  13.870  0.8227 -2.3426 -2.4009
 4559SOL    HW225137   0.992   3.098  13.860 -0.9493 -0.5953 -1.6073
 4560SOL     OW25138   0.732   0.084   6.580  0.1394  0.3869  0.1591
 4560SOL    HW125139   0.734   0.003   6.632 -0.3294  0.9771  1.0883
 4560SOL    HW225140   0.648   0.075   6.536  1.1622 -1.7020 -1.3771
 4561SOL     OW25141   3.590   2.250  13.750  0.1072 -0.7052  0.1678
 4561SOL    HW125142   3.593   2.306  13.827  1.4245 -1.4116  0.6269
 4561SOL    HW225143   3.573   2.163  13.785 -3.0016 -0.4059 -0.5859
 4562SOL     OW25144   1.196   0.133   6.179  0.0730 -0.8537  0.4659
 4562SOL    HW125145   1.225   0.224   6.179  0.7706 -1.0952  2.8939
 4562SOL    HW225146   1.282   0.091   6.184  0.4513 -0.3613 -1.6330
 4563SOL     OW25147   0.042   3.458   6.512 -0.3853 -0.5098  0.2080
 4563SOL    HW125148   0.090   3.432   6.434 -0.7441 -1.4995  0.3236
 4563SOL    HW225149   4.680   3.426   6.488 -1.7558  0.7747  3.3873
 4564SOL     OW25150   0.522   0.046   5.420  0.3403 -0.6858  0.4275
 4564SOL    HW125151   0.532   0.093   5.502 -0.9215 -0.9832  0.7470
 4564SOL    HW225152   0.519   4.679   5.443 -2.2657 -0.5974  0.4411
 4565SOL     OW25153   1.170   0.892   2.753  0.4101 -0.6036 -0.1592
 4565SOL    HW125154   1.098   0.928   2.702  0.1570 -0.0019  0.6189
 4565SOL    HW225155   1.230   0.967   2.750 -0.2340 -0.2217 -3.1475
 4566SOL     OW25156   0.413   2.909   5.477 -0.1382 -0.3104 -0.2260
 4566SOL    HW125157   0.436   2.817   5.492  1.6044 -0.0306 -1.2450
 4566SOL    HW225158   0.390   2.914   5.384  0.0032 -1.3681 -0.3147
 4567SOL     OW25159   3.673   0.765   9.454  0.3343 -0.4132  0.2506
 4567SOL    HW125160   3.624   0.811   9.385  2.0387  0.1889 -0.5620
 4567SOL    HW225161   3.760   0.759   9.415  1.0698  0.8137  1.7080
 4568SOL     OW25162   2.906   1.684   7.337 -0.0937  0.0047  0.2871
 4568SOL    HW125163   2.853   1.620   7.385  0.8468  0.0818  1.4448
 4568SOL    HW225164   2.835   1.721   7.285 -1.6325 -0.1221  2.2821
 4569SOL     OW25165   2.249   3.403  10.695  0.1003 -0.1339  0.4380
 4569SOL    HW125166   2.306   3.461  10.745  0.4486  0.3795 -0.5622
 4569SOL    HW225167   2.305   3.326  10.686  1.6963  1.0113  0.6956
 4570SOL     OW25168   0.335   0.151   3.884 -0.1205  0.1964 -0.4200
 4570SOL    HW125169   0.392   0.083   3.919 -0.1236 -0.1142 -1.0243
 4570SOL    HW225170   0.262   0.107   3.840 -0.6405  0.6065  0.0280
 4571SOL     OW25171   1.334   4.642  15.038  0.2717 -0.1347  0.2370
 4571SOL    HW125172   1.360   0.001  15.002 -0.8487  1.4698  3.1477
 4571SOL    HW225173   1.250   4.666  15.077  0.7080  0.9063  0.5517
 4572SOL     OW25174   0.836   1.449   4.206  0.0085  0.3848 -0.0609
 4572SOL    HW125175   0.837   1.394   4.284 -2.1687 -1.3391 -1.2570
 4572SOL    HW225176   0.931   1.452   4.195 -0.2993  0.6131 -2.6212
 4573SOL     OW25177   0.002   0.446   5.888 -0.0508  0.0029 -0.1705
 4573SOL    HW125178   4.716   0.356   5.917 -0.5595  0.1758  0.1703
 4573SOL    HW225179   4.654   0.496   5.926 -0.2018  0.4491 -1.0480
 4574SOL     OW25180   1.610   1.332   7.456 -0.0628  0.6401 -0.2116
 4574SOL    HW125181   1.683   1.312   7.397  0.9949  1.2482  0.9020
 4574SOL    HW225182   1.595   1.426   7.444 -2.2093  0.2214 -0.8500
 4575SOL     OW25183   0.700   2.501   5.225 -0.1663  0.5775  0.2630
 4575SOL    HW125184   0.754   2.448   5.166 -0.0487 -0.7748  1.5625
 4575SOL    HW225185   0.682   2.436   5.293 -0.9175  2.0097  1.4325
 4576SOL     OW25186   2.725   3.510  10.193  0.1618 -0.2298  0.1420
 4576SOL    HW125187   2.703   3.452  10.119 -0.9985 -0.5227  0.7126
 4576SOL    HW225188   2.796   3.462  10.234 -0.0466 -1.2075 -0.6291
 4577SOL     OW25189   0.383   4.445   3.009 -0.1286 -0.0982 -0.2576
 4577SOL    HW125190   0.306   4.486   3.050 -1.9246 -1.9302 -1.7891
 4577SOL    HW225191   0.448   4.514   3.019  1.2186 -1.0907 -2.2108
 4578SOL     OW25192   2.124   1.996   5.696 -0.2106  0.4382  0.0929
 4578SOL    HW125193   2.063   2.065   5.719  1.1486  1.3054  1.0884
 4578SOL    HW225194   2.066   1.963   5.627  2.1411 -0.0120 -1.6744
 4579SOL     OW25195   4.196   1.564  17.087  0.4531 -0.4065 -0.1182
 4579SOL    HW125196   4.210   1.576  16.994 -0.4381  1.1955 -0.0310
 4579SOL    HW225197   4.115   1.613  17.098  0.8870  0.4945 -0.9652
 4580SOL     OW25198   2.759   1.447   6.658  0.5294 -0.1569 -0.0283
 4580SOL    HW125199   2.664   1.457   6.657  0.8006  2.4107 -1.3068
 4580SOL    HW225200   2.790   1.531   6.693 -1.6874  0.0997  1.2901
 4581SOL     OW25201   1.844   3.602   1.441 -0.9393  0.0045 -0.0449
 4581SOL    HW125202   1.803   3.527   1.484 -0.3751 -0.4687 -0.3238
 4581SOL    HW225203   1.810   3.590   1.352  0.2095  0.4002 -0.5404
 4582SOL     OW25204   2.144   0.335  14.707 -0.3541 -0.2284  0.0840
 4582SOL    HW125205   2.216   0.386  14.670 -0.8118  1.0421  0.9239
 4582SOL    HW225206   2.072   0.347  14.646  0.0228 -2.4932 -0.7892
 4583SOL     OW25207   3.513   0.107   4.375  0.4801  0.2676  0.4152
 4583SOL    HW125208   3.473   0.126   4.460 -3.8227 -1.4859 -1.1862
 4583SOL    HW225209   3.437   0.083   4.321 -0.1193 -2.1455  2.3135
 4584SOL     OW25210   0.464   1.203   2.066 -0.9689  0.0992  0.0794
 4584SOL    HW125211   0.487   1.127   2.119  1.6741  0.3866 -0.6494
 4584SOL    HW225212   0.502   1.189   1.980  0.2435  2.1833  0.2691
 4585SOL     OW25213   0.442   1.433   7.663  0.0415 -0.0264  0.1583
 4585SOL    HW125214   0.374   1.418   7.598  0.0956  0.1545  0.0617
 4585SOL    HW225215   0.427   1.363   7.727  0.2270  0.3098  0.5680
 4586SOL     OW25216   3.721   0.922  15.697  0.3789 -0.4142  0.3847
 4586SOL    HW125217   3.756   0.905  15.610  0.0041 -2.6899  0.6874
 4586SOL    HW225218   3.627   0.926  15.682  0.4487  0.8381  0.2380
 4587SOL     OW25219   2.019   3.839  14.794  0.1933  0.5628  0.0543
 4587SOL    HW125220   2.052   3.774  14.856  0.8625  0.2281 -0.6659
 4587SOL    HW225221   1.924   3.837  14.810  0.2560  0.0516  0.3404
 4588SOL     OW25222   2.438   3.723   9.070  0.0938 -0.0169 -0.3531
 4588SOL    HW125223   2.526   3.720   9.032 -0.7549  0.5415 -2.3509
 4588SOL    HW225224   2.462   3.702   9.160 -0.4307  1.1896  0.0591
 4589SOL     OW25225   0.098   0.411   5.331  0.6222  0.1569  0.2595
 4589SOL    HW125226   0.178   0.370   5.364  1.3609  0.6703 -0.8903
 4589SOL    HW225227   0.096   0.487   5.390  0.4114 -0.8693  1.5875
 4590SOL     OW25228   2.979   3.554   7.830 -0.2208  0.0485  0.2086
 4590SOL    HW125229   2.889   3.565   7.800 -0.9897 -4.1564  1.0078
 4590SOL    HW225230   2.996   3.461   7.845 -1.3373 -0.5348 -2.1848
 4591SOL     OW25231   1.849   4.106   6.837 -0.0748  0.3539  0.0203
 4591SOL    HW125232   1.923   4.134   6.892 -1.1323  0.4806  1.3603
 4591SOL    HW225233   1.898   4.102   6.755 -0.0806  0.0627  0.0317
 4592SOL     OW25234   1.301   3.294  10.141 -0.4460 -0.1621 -0.2182
 4592SOL    HW125235   1.319   3.388  10.140 -0.8279 -0.0920 -0.6067
 4592SOL    HW225236   1.211   3.292  10.174 -0.2289 -2.3017  0.2055
 4593SOL     OW25237   1.714   3.771   7.867  0.5689 -0.2932 -0.5894
 4593SOL    HW125238   1.624   3.780   7.898  0.6368 -1.3861 -0.0777
 4593SOL    HW225239   1.750   3.856   7.891  0.5025 -0.7265  1.0413
 4594SOL     OW25240   2.542   1.545   0.156  0.0191 -0.2595 -0.2114
 4594SOL    HW125241   2.592   1.465   0.174  0.4263  0.4998  2.0042
 4594SOL    HW225242   2.586   1.581   0.079  0.7001  1.0918  0.8292
 4595SOL     OW25243   2.570   2.126   5.831  0.0990  0.2637 -1.0036
 4595SOL    HW125244   2.589   2.055   5.893 -1.1720 -0.6667 -1.6791
 4595SOL    HW225245   2.530   2.071   5.764 -0.9597  0.9231 -0.9172
 4596SOL     OW25246   3.776   3.471   8.617  0.2494 -0.3772 -0.2189
 4596SOL    HW125247   3.793   3.383   8.650 -1.1112 -0.5135  0.1439
 4596SOL    HW225248   3.686   3.488   8.644  0.8394 -0.4278  1.8216
 4597SOL     OW25249   3.617   4.725  12.510 -0.5500  0.4006  0.0867
 4597SOL    HW125250   3.544   0.062  12.519  1.5138  3.1181 -2.1411
 4597SOL    HW225251   3.677   0.009  12.584  0.2959 -1.5406 -0.3555
 4598SOL     OW25252   3.448   0.345   2.800  0.4797  0.2745  0.6780
 4598SOL    HW125253   3.539   0.353   2.831  0.8123  2.8325 -0.9288
 4598SOL    HW225254   3.414   0.261   2.831  1.0300 -0.5148 -0.8733
 4599SOL     OW25255   3.305   4.236   9.041 -0.1562  0.5748 -0.2833
 4599SOL    HW125256   3.223   4.187   9.035  0.7652 -1.3182  2.4212
 4599SOL    HW225257   3.329   4.238   8.949 -2.7787  1.5478 -0.9329
 4600SOL     OW25258   2.088   1.291   7.543  0.0819 -0.3778  0.2971
 4600SOL    HW125259   2.105   1.374   7.498  1.1400 -1.1555 -0.7441
 4600SOL    HW225260   2.073   1.224   7.475  1.4410  0.2645 -0.6325
 4601SOL     OW25261   3.243   0.782   3.935 -0.0004  0.3149  0.4389
 4601SOL    HW125262   3.174   0.789   4.001 -1.1339 -0.9116 -0.6285
 4601SOL    HW225263   3.328   0.767   3.976 -0.1647  3.4019  1.9807
 4602SOL     OW25264   3.617   2.581   2.197  0.4526 -0.0913  0.4241
 4602SOL    HW125265   3.695   2.550   2.243  0.5807  0.3816  0.5244
 4602SOL    HW225266   3.558   2.589   2.272 -1.1322  0.2553 -0.8730
 4603SOL     OW25267   3.597   3.782  13.173  0.7543  0.2468 -0.3875
 4603SOL    HW125268   3.527   3.718  13.154  0.8869  0.1523 -0.5608
 4603SOL    HW225269   3.581   3.849  13.106 -0.2784 -0.0997 -0.4963
 4604SOL     OW25270   4.373   2.938   6.918 -0.4098  0.1782 -0.4577
 4604SOL    HW125271   4.380   3.034   6.927 -0.4565  0.3287 -2.1380
 4604SOL    HW225272   4.460   2.900   6.911 -1.1859 -1.5943 -0.2594
 4605SOL     OW25273   3.578   0.823   1.046  0.3535  0.1458 -0.1361
 4605SOL    HW125274   3.649   0.776   1.090 -0.2394  0.3526  1.0545
 4605SOL    HW225275   3.548   0.876   1.120  1.2364  1.3280 -0.6357
 4606SOL     OW25276   1.623   4.507   9.318 -0.5837  0.2844 -0.0696
 4606SOL    HW125277   1.651   4.416   9.328  0.5591  0.7006  0.4871
 4606SOL    HW225278   1.670   4.543   9.393  1.2537  2.9925 -2.4901
 4607SOL     OW25279   2.656   3.959   5.786  0.4407  0.0285  0.1876
 4607SOL    HW125280   2.713   3.983   5.859  0.3174  0.3772  0.1680
 4607SOL    HW225281   2.600   3.898   5.834  1.0055 -1.3295 -0.8756
 4608SOL     OW25282   4.623   1.130   9.628 -1.0243  0.1703 -0.1893
 4608SOL    HW125283   4.673   1.059   9.588  1.2351  1.1617  0.8389
 4608SOL    HW225284   4.657   1.122   9.717 -0.7789  0.9162 -0.2118
 4609SOL     OW25285   2.133   2.987   7.292  0.0793 -0.7029  0.3235
 4609SOL    HW125286   2.096   2.972   7.379 -0.9235  5.8470  1.0385
 4609SOL    HW225287   2.203   3.053   7.301  0.2538 -0.9735  0.9904
 4610SOL     OW25288   1.163   3.135   6.654  0.2547  0.0653 -0.1679
 4610SOL    HW125289   1.165   3.123   6.559 -3.6405 -1.6347 -0.0657
 4610SOL    HW225290   1.085   3.088   6.686  0.5775 -1.9695 -2.3038
 4611SOL     OW25291   1.230   3.336  14.564 -0.0767 -0.2518  0.3962
 4611SOL    HW125292   1.282   3.299  14.493 -2.0574 -0.5528 -0.9053
 4611SOL    HW225293   1.250   3.427  14.585 -2.2690  0.1087  0.9800
 4612SOL     OW25294   1.343   3.038   1.751 -0.1311 -0.3518  0.4116
 4612SOL    HW125295   1.291   3.117   1.733  2.5446  1.5018  0.7700
 4612SOL    HW225296   1.342   3.036   1.847  2.4543  2.8396  0.4780
 4613SOL     OW25297   0.356   0.536   2.122  0.0802  0.2636  0.4569
 4613SOL    HW125298   0.346   0.574   2.210  1.4863 -1.2291  1.2696
 4613SOL    HW225299   0.325   0.605   2.063  1.4811  1.0449  0.6315
 4614SOL     OW25300   1.912   0.802  14.840  0.0543  0.4211 -0.7629
 4614SOL    HW125301   1.932   0.768  14.753 -1.2253  1.3666 -1.4330
 4614SOL    HW225302   1.992   0.782  14.887 -0.4464  0.0312 -0.0806
 4615SOL     OW25303   2.703   2.172   1.139  0.1780 -0.2437 -0.5225
 4615SOL    HW125304   2.779   2.178   1.082  1.6932 -1.9657  1.3197
 4615SOL    HW225305   2.694   2.078   1.148 -2.2274  0.0391  0.1103
 4616SOL     OW25306   1.550   2.258   9.438  0.0944  0.5066  0.2298
 4616SOL    HW125307   1.602   2.337   9.448  0.4007  0.2003  1.0455
 4616SOL    HW225308   1.618   2.193   9.424 -0.2400 -0.0208  1.0360
 4617SOL     OW25309   4.661   1.213   1.913 -0.0402  0.4450  0.2849
 4617SOL    HW125310   4.677   1.203   1.819 -0.9432  3.0781 -0.1615
 4617SOL    HW225311   0.025   1.196   1.942  0.0176  0.3943  0.0780
 4618SOL     OW25312   2.133   2.295   4.604 -0.2868  0.2123 -0.2086
 4618SOL    HW125313   2.138   2.248   4.687  1.3788  1.4374  0.3958
 4618SOL    HW225314   2.089   2.379   4.619  2.1479  1.0914  2.2558
 4619SOL     OW25315   3.735   1.904  14.703  0.5122  0.2805  0.3927
 4619SOL    HW125316   3.685   1.984  14.686  0.5298  0.1545 -0.2313
 4619SOL    HW225317   3.757   1.895  14.611 -1.9925 -0.3132 -0.1470
 4620SOL     OW25318   2.672   0.969   8.413 -0.2459  0.4789 -0.7877
 4620SOL    HW125319   2.740   1.035   8.417  0.0219  0.0954  0.8562
 4620SOL    HW225320   2.726   0.899   8.376 -0.5089 -0.1796  0.0525
 4621SOL     OW25321   0.961   2.584   5.520 -0.2473  0.2199  0.4666
 4621SOL    HW125322   0.957   2.620   5.432 -1.4949  0.5715  0.6660
 4621SOL    HW225323   0.917   2.501   5.500 -2.2889  1.5711 -0.6336
 4622SOL     OW25324   3.726   3.034   3.790  0.5717  0.1791 -0.0766
 4622SOL    HW125325   3.706   2.968   3.856 -0.0326  0.2910 -0.1505
 4622SOL    HW225326   3.745   2.983   3.711  0.2602 -1.6004  1.0109
 4623SOL     OW25327   1.194   1.289   4.862  0.3337  0.0762  0.2018
 4623SOL    HW125328   1.200   1.348   4.937 -0.3283  1.2597 -0.6804
 4623SOL    HW225329   1.099   1.275   4.857 -0.0792  1.7815  3.3894
 4624SOL     OW25330   1.534   3.300   6.272 -0.1704  0.0271 -0.1463
 4624SOL    HW125331   1.615   3.250   6.267 -0.0133  0.3994 -1.2849
 4624SOL    HW225332   1.573   3.367   6.329 -1.2907  0.9562 -0.4605
 4625SOL     OW25333   0.563   3.782   3.698 -0.0729 -0.3908  0.7755
 4625SOL    HW125334   0.529   3.827   3.775 -1.8958  0.0291 -0.2694
 4625SOL    HW225335   0.490   3.784   3.636  0.8461  0.0911 -0.2903
 4626SOL     OW25336   2.778   0.973  11.403  0.4287  0.1643  0.1516
 4626SOL    HW125337   2.823   1.031  11.465 -0.7751 -1.1547  2.2836
 4626SOL    HW225338   2.698   1.023  11.387  0.6882  0.3979 -0.4063
 4627SOL     OW25339   3.910   0.589   4.202 -0.0250 -0.6499 -0.7443
 4627SOL    HW125340   3.939   0.498   4.189 -0.0176 -0.5263 -1.6162
 4627SOL    HW225341   3.959   0.609   4.282  1.3641 -1.0666 -1.4893
 4628SOL     OW25342   4.551   1.318   3.076 -0.0245 -0.7303 -0.4754
 4628SOL    HW125343   4.532   1.396   3.127 -0.1253 -0.8300 -0.3603
 4628SOL    HW225344   4.643   1.302   3.095  0.2290  2.6345  1.0710
 4629SOL     OW25345   0.217   4.086   9.221  0.0241  0.5903 -0.9138
 4629SOL    HW125346   0.182   4.156   9.276  1.5335  0.5713  0.0530
 4629SOL    HW225347   0.181   4.014   9.273  0.4907  0.3648 -0.9068
 4630SOL     OW25348   3.799   0.415  15.348 -0.0936 -0.0877  0.9275
 4630SOL    HW125349   3.850   0.370  15.416 -1.9387 -1.6481  1.2854
 4630SOL    HW225350   3.712   0.422  15.388 -0.3341  0.6911  0.2740
 4631SOL     OW25351   4.373   3.196   2.592 -0.4899 -0.2303 -0.0833
 4631SOL    HW125352   4.456   3.161   2.559  0.1569  0.8071  0.4338
 4631SOL    HW225353   4.320   3.118   2.576 -0.2779 -0.0984 -1.4956
 4632SOL     OW25354   0.119   1.857  10.358 -0.3487  0.6974 -0.1203
 4632SOL    HW125355   0.030   1.875  10.328 -0.2979 -0.5404 -1.0710
 4632SOL    HW225356   0.110   1.814  10.443  0.2516 -1.1777 -0.9829
 4633SOL     OW25357   1.338   0.905   5.214 -0.0456 -0.7047 -0.4197
 4633SOL    HW125358   1.265   0.844   5.223 -1.3343  1.0507  1.1545
 4633SOL    HW225359   1.321   0.930   5.123  2.9211  2.0338 -0.2160
 4634SOL     OW25360   3.228   1.746   3.826 -0.8412 -0.0394 -0.3608
 4634SOL    HW125361   3.213   1.840   3.826 -1.7701 -0.1834 -0.9164
 4634SOL    HW225362   3.145   1.720   3.785 -1.1643 -2.0673  1.5537
 4635SOL     OW25363   3.877   3.104   8.250 -0.3965  0.1730  0.4167
 4635SOL    HW125364   3.815   3.051   8.200 -0.3949  0.9269 -0.3742
 4635SOL    HW225365   3.891   3.186   8.204 -1.5290  1.1856  1.8628
 4636SOL     OW25366   0.458   0.773  16.271  0.1095 -0.1798 -0.3167
 4636SOL    HW125367   0.413   0.857  16.263  1.3172  0.5815  0.8440
 4636SOL    HW225368   0.547   0.805  16.285 -0.7187  1.4249  1.3043
 4637SOL     OW25369   2.281   0.377   6.703  0.1256  0.1690 -0.0924
 4637SOL    HW125370   2.344   0.326   6.753  0.4530  1.3971  0.7568
 4637SOL    HW225371   2.195   0.339   6.721  0.0038 -0.1757 -1.3669
 4638SOL     OW25372   1.106   0.502   9.795  0.0112 -0.4075  0.0750
 4638SOL    HW125373   1.094   0.587   9.837 -0.3917 -0.7198  0.5931
 4638SOL    HW225374   1.051   0.507   9.716 -1.2976 -1.8986  0.9063
 4639SOL     OW25375   0.121   1.967   3.369 -0.2649 -0.2561  0.4007
 4639SOL    HW125376   0.166   1.904   3.426 -0.8904 -1.5582 -0.5342
 4639SOL    HW225377   0.189   2.034   3.362  1.2810 -1.8013  0.6460
 4640SOL     OW25378   4.070   1.770   8.492 -0.7319 -1.2198  0.2094
 4640SOL    HW125379   4.084   1.763   8.398 -1.1772  1.5398 -0.0595
 4640SOL    HW225380   4.089   1.683   8.528  2.0403 -0.4591  0.6267
 4641SOL     OW25381   1.476   1.564   1.563 -0.1759  0.0822 -0.2075
 4641SOL    HW125382   1.447   1.500   1.498  2.6749 -0.3897 -1.0108
 4641SOL    HW225383   1.392   1.609   1.563 -0.4853 -0.5029 -1.9315
 4642SOL     OW25384   3.534   1.620   5.617 -0.5722 -0.6842  0.5524
 4642SOL    HW125385   3.478   1.611   5.694 -2.0450 -0.7917 -0.5312
 4642SOL    HW225386   3.608   1.568   5.646  0.5756  0.9883  0.6012
 4643SOL     OW25387   4.475   0.482   4.996  0.4582  0.3237  0.0315
 4643SOL    HW125388   4.466   0.406   4.938  2.3931  0.3442 -0.2972
 4643SOL    HW225389   4.535   0.526   4.936  2.7641 -3.5335 -0.5408
 4644SOL     OW25390   2.922   0.915   8.704 -0.0877  0.0515 -0.3980
 4644SOL    HW125391   2.870   0.842   8.670 -0.2971  0.9489 -2.0009
 4644SOL    HW225392   2.895   0.907   8.795 -1.4985 -1.9878 -0.9854
 4645SOL     OW25393   3.989   2.410  15.814  0.2652 -0.4713 -0.2389
 4645SOL    HW125394   4.031   2.369  15.739 -0.2516 -0.5445 -0.4920
 4645SOL    HW225395   4.044   2.486  15.828  3.2375 -2.6097 -0.4462
 4646SOL     OW25396   2.445   1.699  11.792 -0.1237 -0.0749  0.6890
 4646SOL    HW125397   2.356   1.690  11.760 -0.2634  1.0429  0.7634
 4646SOL    HW225398   2.464   1.619  11.842  1.9822  0.1807  0.2817
 4647SOL     OW25399   2.474   3.781   7.965 -0.1787 -0.2854  0.4931
 4647SOL    HW125400   2.476   3.724   8.042 -0.0657  1.5759  1.8871
 4647SOL    HW225401   2.565   3.768   7.937  0.4305  1.2098  1.7330
 4648SOL     OW25402   2.855   1.943  14.654  0.7683  0.9988 -0.4135
 4648SOL    HW125403   2.875   2.012  14.718 -0.1659  0.0502  0.8950
 4648SOL    HW225404   2.847   2.001  14.578  1.2092 -0.4144 -1.5266
 4649SOL     OW25405   2.729   2.191   3.112  0.9053  0.1856  0.4256
 4649SOL    HW125406   2.702   2.099   3.120 -0.2883  0.3031 -2.4228
 4649SOL    HW225407   2.783   2.190   3.033 -1.3518  3.0986 -1.1390
 4650SOL     OW25408   2.657   4.295   8.406  0.1057  0.3437  0.1476
 4650SOL    HW125409   2.585   4.284   8.468  1.0061  2.1072  1.5328
 4650SOL    HW225410   2.725   4.305   8.472 -0.3080 -0.3959  0.6794
 4651SOL     OW25411   3.868   0.016   0.852 -0.2316 -0.1344  0.0000
 4651SOL    HW125412   3.960   0.041   0.844 -0.1167  0.2712  2.6837
 4651SOL    HW225413   3.835   0.041   0.766 -0.7166  1.9078  0.7956
 4652SOL     OW25414   3.718   1.072   9.083 -0.5205  0.0517 -0.0188
 4652SOL    HW125415   3.653   1.046   9.018  0.6347  1.0894 -1.5795
 4652SOL    HW225416   3.678   1.032   9.160 -1.9204  0.1315 -0.7085
 4653SOL     OW25417   2.270   2.782   0.566 -0.0590  0.9138  0.3798
 4653SOL    HW125418   2.217   2.841   0.619  0.6528  1.6666  0.2572
 4653SOL    HW225419   2.215   2.707   0.547  0.2498  0.6337  0.5865
 4654SOL     OW25420   2.656   1.848  15.454 -0.1382 -0.3575 -0.5905
 4654SOL    HW125421   2.580   1.790  15.459  0.6183 -1.3389 -0.5996
 4654SOL    HW225422   2.715   1.785  15.413 -1.1029 -0.4401 -1.8451
 4655SOL     OW25423   0.842   1.233   6.321 -0.4506 -0.5409  0.0431
 4655SOL    HW125424   0.835   1.146   6.360  2.6147  0.3102  2.4709
 4655SOL    HW225425   0.793   1.214   6.241  0.5541 -3.2925  0.0913
 4656SOL     OW25426   4.136   1.633   6.186 -0.3349  0.4283 -0.5375
 4656SOL    HW125427   4.228   1.656   6.198 -1.1739  1.8871  2.9021
 4656SOL    HW225428   4.127   1.658   6.094  0.1144  3.8253  0.3379
 4657SOL     OW25429   1.909   3.763   4.793 -0.1800  0.1067  0.2308
 4657SOL    HW125430   1.907   3.752   4.888 -1.5744 -1.9041 -0.0470
 4657SOL    HW225431   1.999   3.796   4.783  0.2447 -1.5685 -1.5800
 4658SOL     OW25432   4.210   3.359   7.865 -0.5385 -0.2355 -0.1236
 4658SOL    HW125433   4.162   3.314   7.935  1.0595 -2.2398 -0.2984
 4658SOL    HW225434   4.262   3.281   7.843 -0.1173  0.1318 -0.4249
 4659SOL     OW25435   4.120   1.575  14.207  0.2895  0.5196 -0.2261
 4659SOL    HW125436   4.187   1.644  14.208 -0.3220  1.1200 -0.3220
 4659SOL    HW225437   4.120   1.533  14.121  1.1980 -0.4758  0.2591
 4660SOL     OW25438   4.459   2.938   5.536 -0.9622 -0.2498 -0.7263
 4660SOL    HW125439   4.388   3.003   5.539 -0.6713  0.0578 -0.3632
 4660SOL    HW225440   4.398   2.865   5.524 -0.9940 -0.4482  0.5525
 4661SOL     OW25441   2.152   2.424  15.290 -0.1209 -0.3637 -0.3339
 4661SOL    HW125442   2.137   2.330  15.300  0.9249 -0.4937  0.0618
 4661SOL    HW225443   2.063   2.455  15.276  0.5884  1.0899 -1.5600
 4662SOL     OW25444   1.058   2.022   1.845 -0.2879 -0.0845 -0.5801
 4662SOL    HW125445   1.138   2.031   1.897 -1.5229  0.0565  1.3231
 4662SOL    HW225446   1.061   1.926   1.844 -1.2259 -0.1160 -0.3605
 4663SOL     OW25447   2.279   4.156   6.316  0.2101 -0.0162  0.1688
 4663SOL    HW125448   2.193   4.190   6.341 -0.3984 -1.4847  0.0687
 4663SOL    HW225449   2.316   4.153   6.404  2.5152 -0.6148 -0.8158
 4664SOL     OW25450   3.146   4.595   0.556 -0.4697 -0.0283  0.2442
 4664SOL    HW125451   3.096   4.675   0.544  2.3399  1.5172 -1.1084
 4664SOL    HW225452   3.229   4.626   0.520  0.2623  0.4177  2.3408
 4665SOL     OW25453   3.792   3.747  13.335  0.0877  0.1311 -0.0068
 4665SOL    HW125454   3.721   3.771  13.275 -0.4040 -0.4799  0.3368
 4665SOL    HW225455   3.755   3.667  13.372  1.3058  0.2139  1.3715
 4666SOL     OW25456   1.214   3.458   6.679  0.5283  0.0520  0.2698
 4666SOL    HW125457   1.199   3.369   6.711 -0.3544  0.1381  0.1008
 4666SOL    HW225458   1.309   3.466   6.686  0.5583  0.5636 -0.7298
 4667SOL     OW25459   2.794   2.059   2.475  0.0172  0.0498 -0.1671
 4667SOL    HW125460   2.806   2.013   2.392  0.9451  2.0575 -1.1694
 4667SOL    HW225461   2.846   2.139   2.466  1.6890 -0.9720  0.3287
 4668SOL     OW25462   3.591   4.239   4.939  0.1843 -0.4748  0.3020
 4668SOL    HW125463   3.502   4.215   4.912  0.2916  0.7077 -1.1534
 4668SOL    HW225464   3.573   4.259   5.031  2.1822  2.1886  0.1240
 4669SOL     OW25465   1.819   0.858   0.866 -0.2031  0.1107  0.3741
 4669SOL    HW125466   1.890   0.830   0.923 -2.5890 -2.2119  2.2542
 4669SOL    HW225467   1.830   0.952   0.878 -1.3508  0.5265 -1.7981
 4670SOL     OW25468   1.810   3.583   9.401 -0.9203 -0.7693 -0.2310
 4670SOL    HW125469   1.796   3.675   9.422  0.9177 -0.1774 -1.5867
 4670SOL    HW225470   1.903   3.578   9.423 -0.8468  0.0978 -0.3651
 4671SOL     OW25471   3.314   0.862  15.299  0.6542  0.3991 -0.3135
 4671SOL    HW125472   3.407   0.859  15.322  0.1313 -0.4113  1.7561
 4671SOL    HW225473   3.318   0.931  15.234 -0.9005  1.5680  0.8248
 4672SOL     OW25474   1.271   0.405   5.268 -0.3327 -0.2557 -0.3718
 4672SOL    HW125475   1.206   0.358   5.216  1.7408 -0.0098 -3.2054
 4672SOL    HW225476   1.354   0.392   5.221  0.5516 -0.0437  1.1237
 4673SOL     OW25477   1.065   3.924   6.260 -0.1575 -0.3208  0.2492
 4673SOL    HW125478   1.070   4.014   6.293 -4.3905  0.1726 -0.4534
 4673SOL    HW225479   1.154   3.897   6.284 -0.2764 -0.1279  0.9090
 4674SOL     OW25480   4.642   1.796   0.850 -0.1333 -0.7481 -0.2376
 4674SOL    HW125481   4.578   1.866   0.841 -0.0327 -0.6065  0.1635
 4674SOL    HW225482   4.617   1.741   0.775  0.3968 -0.9616 -0.2580
 4675SOL     OW25483   1.612   2.320   0.562 -0.0538  0.5540 -0.0352
 4675SOL    HW125484   1.638   2.284   0.647 -0.2534 -3.5692 -1.7165
 4675SOL    HW225485   1.650   2.249   0.510  1.4275  0.9694  0.4662
 4676SOL     OW25486   4.080   0.029   8.026 -0.0566 -0.0801 -0.2039
 4676SOL    HW125487   4.140   4.723   7.958  1.3016  1.2660  0.3790
 4676SOL    HW225488   4.010   0.075   7.980  0.5590 -0.4258 -1.4732
 4677SOL     OW25489   3.601   0.844   4.348 -0.2590  0.5461  0.3483
 4677SOL    HW125490   3.667   0.823   4.283 -2.2830 -1.2027 -1.1349
 4677SOL    HW225491   3.650   0.907   4.402  0.2555  0.1458  0.3415
 4678SOL     OW25492   3.919   1.212   2.199 -0.1388  0.6659 -0.1649
 4678SOL    HW125493   3.987   1.178   2.140 -1.1005  0.3892 -1.1042
 4678SOL    HW225494   3.911   1.298   2.156  0.4801 -0.7494 -3.1370
 4679SOL     OW25495   0.730   2.208   2.181 -0.2313 -0.5028 -0.3626
 4679SOL    HW125496   0.823   2.186   2.182 -0.4044 -1.1233  1.6589
 4679SOL    HW225497   0.699   2.137   2.236 -1.7968 -0.6411 -1.4147
 4680SOL     OW25498   2.583   1.735   2.282  0.3105 -0.2724 -0.3771
 4680SOL    HW125499   2.616   1.647   2.301  1.8351  0.0435 -1.5625
 4680SOL    HW225500   2.635   1.767   2.208  0.2657 -0.5407 -0.5226
 4681SOL     OW25501   3.046   3.810   2.719 -0.5126 -0.3498  0.3283
 4681SOL    HW125502   3.035   3.856   2.802 -0.1465  0.7350 -0.2221
 4681SOL    HW225503   3.062   3.718   2.738  3.4463  0.2687  0.0698
 4682SOL     OW25504   3.878   2.748   6.351 -0.2362 -0.1049  0.7006
 4682SOL    HW125505   3.956   2.800   6.333 -0.4402  0.7731  2.3502
 4682SOL    HW225506   3.847   2.782   6.436 -2.3942  0.9298 -0.4812
 4683SOL     OW25507   0.742   1.774  14.590 -0.2287 -0.2361  0.7021
 4683SOL    HW125508   0.837   1.770  14.604 -0.4646  0.1621  2.4173
 4683SOL    HW225509   0.702   1.797  14.674 -0.1469  0.1765  0.6293
 4684SOL     OW25510   3.366   0.351   4.944 -0.2194  0.0905 -0.0187
 4684SOL    HW125511   3.403   0.411   4.880  1.9438 -1.8246 -0.5426
 4684SOL    HW225512   3.319   0.418   4.995  2.1572  1.0547  0.8678
 4685SOL     OW25513   2.620   0.990   5.913  0.2718 -0.0167  0.0288
 4685SOL    HW125514   2.665   0.918   5.869 -1.6210 -0.8525 -0.5425
 4685SOL    HW225515   2.675   1.062   5.881  0.1652  0.8591  1.8353
 4686SOL     OW25516   1.418   4.571   4.068  0.3341  0.2442 -0.3941
 4686SOL    HW125517   1.363   4.640   4.106 -0.9257 -2.4010  2.5212
 4686SOL    HW225518   1.443   4.521   4.145  2.6909  1.3529 -0.4409
 4687SOL     OW25519   4.137   3.329   6.996  0.6340  0.5675 -0.4144
 4687SOL    HW125520   4.189   3.407   7.016  1.0549  0.8006 -2.4702
 4687SOL    HW225521   4.205   3.265   6.976  0.6766  0.9254 -1.3956
 4688SOL     OW25522   3.044   2.330   3.296  0.0563 -0.4890 -0.2595
 4688SOL    HW125523   3.004   2.256   3.342 -2.7424  2.3262  1.8249
 4688SOL    HW225524   3.135   2.307   3.316  0.1440  0.9150  0.9384
 4689SOL     OW25525   1.031   2.551  11.364  0.0204  0.6405  0.2322
 4689SOL    HW125526   1.069   2.540  11.277  0.2893  1.0003  0.3064
 4689SOL    HW225527   1.082   2.484  11.411  1.4609 -0.0020 -2.2873
 4690SOL     OW25528   2.936   4.194   7.545 -0.1746 -0.2131 -0.5014
 4690SOL    HW125529   2.931   4.289   7.556 -3.3342 -0.3048 -1.2726
 4690SOL    HW225530   2.873   4.157   7.607  2.2427 -1.7564  1.0293
 4691SOL     OW25531   0.022   3.056  16.721  0.4996 -0.1987  0.0352
 4691SOL    HW125532   4.722   3.002  16.795 -1.4395  1.9055  0.9054
 4691SOL    HW225533   0.089   3.002  16.678  0.3235 -0.7662  0.4707
 4692SOL     OW25534   4.238   2.946   2.668  0.4050  0.4098 -0.5844
 4692SOL    HW125535   4.277   2.943   2.755 -0.8840  1.2703  0.0282
 4692SOL    HW225536   4.149   2.975   2.691  0.6447  1.7932 -1.4086
 4693SOL     OW25537   4.622   3.496   2.084  0.8194 -0.2665  0.4793
 4693SOL    HW125538   4.571   3.445   2.147 -0.2642  2.2495  1.6299
 4693SOL    HW225539   4.589   3.465   1.999 -0.0980  0.5595  0.5394
 4694SOL     OW25540   1.403   2.407  14.138 -0.0230  0.3670  0.4274
 4694SOL    HW125541   1.468   2.357  14.188 -0.2087  2.2969  2.6145
 4694SOL    HW225542   1.333   2.343  14.125  2.1100 -1.8827  0.0091
 4695SOL     OW25543   0.376   4.181   4.313  0.4869 -0.3754 -0.3634
 4695SOL    HW125544   0.457   4.203   4.267  0.7722 -1.9376 -0.6217
 4695SOL    HW225545   0.333   4.136   4.240  1.9438 -2.7153  0.2094
 4696SOL     OW25546   1.968   3.052   2.073  0.0881 -0.5134  0.2473
 4696SOL    HW125547   2.021   3.096   2.139  0.7544 -1.6498  0.4674
 4696SOL    HW225548   1.988   3.104   1.995 -1.3466 -0.3154 -0.0071
 4697SOL     OW25549   1.005   1.016   7.418 -0.1426 -0.3038 -0.5622
 4697SOL    HW125550   1.057   0.995   7.340  0.4920  1.3561 -0.5722
 4697SOL    HW225551   0.929   1.049   7.372 -1.1489 -2.2441 -0.2933
 4698SOL     OW25552   3.760   2.176   2.479 -0.6584  0.3979 -0.5572
 4698SOL    HW125553   3.813   2.178   2.399  0.0475 -2.0950 -0.1696
 4698SOL    HW225554   3.683   2.130   2.444 -0.2197 -0.9833  0.2934
 4699SOL     OW25555   1.346   0.522   1.407 -0.5052 -0.0747 -0.0152
 4699SOL    HW125556   1.288   0.508   1.331  0.4538  0.3063 -0.8185
 4699SOL    HW225557   1.320   0.609   1.437 -4.1639 -1.2571  0.2022
 4700SOL     OW25558   0.020   1.958   8.475  0.3734  0.0472  0.3171
 4700SOL    HW125559   0.014   1.890   8.543 -0.6106 -0.8229 -0.6313
 4700SOL    HW225560   0.090   2.013   8.511  0.4029  0.2243 -0.0177
 4701SOL     OW25561   4.479   1.472  16.135  0.2960  0.0009 -0.6157
 4701SOL    HW125562   4.435   1.557  16.145  1.7174  0.5931  0.5476
 4701SOL    HW225563   4.551   1.483  16.197 -0.2527  0.5839 -0.0841
 4702SOL     OW25564   3.126   3.750   4.242  0.1819  0.1055 -0.9026
 4702SOL    HW125565   3.102   3.826   4.189 -0.6739  2.7295  3.1877
 4702SOL    HW225566   3.149   3.699   4.165  0.2699 -1.8676  0.4305
 4703SOL     OW25567   1.651   3.269   7.530 -0.6113 -0.3520  0.8446
 4703SOL    HW125568   1.731   3.242   7.485 -1.7697 -1.1243 -0.7278
 4703SOL    HW225569   1.682   3.248   7.618  2.2940 -0.9566 -0.3214
 4704SOL     OW25570   2.392   0.660   5.142  0.3978  0.5029 -0.2108
 4704SOL    HW125571   2.445   0.580   5.141 -1.7530 -0.9276 -0.6415
 4704SOL    HW225572   2.361   0.672   5.052  2.0259 -1.0077 -0.9660
 4705SOL     OW25573   1.849   2.697   5.318  0.3819 -0.7510 -0.1736
 4705SOL    HW125574   1.782   2.630   5.302  1.3682 -1.1786 -2.4218
 4705SOL    HW225575   1.929   2.663   5.279  0.9982  1.0127 -0.4514
 4706SOL     OW25576   1.684   4.137   1.615  0.1692 -0.0875 -0.1254
 4706SOL    HW125577   1.778   4.146   1.632  0.0106 -0.5884  0.9820
 4706SOL    HW225578   1.694   4.143   1.520  0.1312 -1.9063 -0.2556
 4707SOL     OW25579   1.102   4.635  16.542  0.4569  0.6734  0.2408
 4707SOL    HW125580   1.162   4.637  16.467  0.1845 -0.4795 -0.0003
 4707SOL    HW225581   1.030   4.588  16.502  1.1874  0.3078 -0.6509
 4708SOL     OW25582   3.135   2.337   0.549  0.1881 -0.3221 -0.2926
 4708SOL    HW125583   3.187   2.393   0.490 -0.9543  0.4899 -0.5276
 4708SOL    HW225584   3.201   2.277   0.583  1.5873  0.5181 -1.4816
 4709SOL     OW25585   1.260   2.776   8.904  0.2598  0.2357 -0.1960
 4709SOL    HW125586   1.283   2.766   8.996 -1.0842 -0.2893  0.0812
 4709SOL    HW225587   1.166   2.758   8.899  0.4636 -0.8508  0.0703
 4710SOL     OW25588   3.610   4.010   6.630 -0.5188 -0.3851  0.5003
 4710SOL    HW125589   3.537   4.056   6.672  0.0745  2.9280 -2.0444
 4710SOL    HW225590   3.679   4.040   6.689 -0.3515 -0.1571  0.1869
 4711SOL     OW25591   1.278   4.575   2.442  0.1608 -0.1749  0.0721
 4711SOL    HW125592   1.232   4.571   2.526  0.2567  0.0567  0.1357
 4711SOL    HW225593   1.262   4.662   2.406 -1.6742  0.1274  1.6295
 4712SOL     OW25594   3.363   3.095   3.537 -0.1008 -0.2943 -0.1838
 4712SOL    HW125595   3.452   3.101   3.572 -0.2594 -0.9602  0.3441
 4712SOL    HW225596   3.316   3.109   3.620  1.3155 -0.9193  0.7189
 4713SOL     OW25597   0.121   4.275   5.043  0.0412 -0.0595  0.2615
 4713SOL    HW125598   0.126   4.307   5.133 -3.7763 -1.0317  0.8093
 4713SOL    HW225599   0.026   4.272   5.031 -0.1814  0.8963  1.8621
 4714SOL     OW25600   1.506   3.535  13.598  0.0448  0.4526 -0.8438
 4714SOL    HW125601   1.580   3.510  13.653 -1.5294  0.2655  1.1888
 4714SOL    HW225602   1.553   3.586  13.532  0.8398  0.3438 -0.3579
 4715SOL     OW25603   0.659   0.957   8.511 -0.0810 -0.6958  0.6070
 4715SOL    HW125604   0.629   1.010   8.586 -2.3947  0.1577 -0.9284
 4715SOL    HW225605   0.684   0.875   8.554  1.4425 -0.5376  0.0278
 4716SOL     OW25606   0.165   0.411   3.171 -0.7447  0.2351 -0.6215
 4716SOL    HW125607   0.260   0.423   3.184 -1.5386  3.6698  1.9915
 4716SOL    HW225608   0.175   0.396   3.077  0.8005  1.0269 -0.5943
 4717SOL     OW25609   1.132   1.496   9.774  0.6038 -0.1636  0.1547
 4717SOL    HW125610   1.044   1.532   9.762 -0.0005 -1.8050 -0.2627
 4717SOL    HW225611   1.127   1.453   9.859  0.2453  2.6769  1.5668
 4718SOL     OW25612   3.053   1.354   9.589 -0.3804 -0.5873 -0.7819
 4718SOL    HW125613   3.110   1.395   9.523  0.2518 -1.4472 -0.7678
 4718SOL    HW225614   3.071   1.411   9.664  0.1338 -1.2454 -0.4036
 4719SOL     OW25615   1.838   4.351   2.481  0.3784 -0.5530  0.5099
 4719SOL    HW125616   1.778   4.283   2.452 -0.6987  0.7967 -0.4121
 4719SOL    HW225617   1.920   4.306   2.463  0.1104 -0.7512 -0.1931
 4720SOL     OW25618   0.711   1.231   2.541  0.0440 -0.4245 -0.8860
 4720SOL    HW125619   0.697   1.138   2.556 -1.2430 -0.2196 -0.8042
 4720SOL    HW225620   0.806   1.223   2.531  0.1668  0.3169 -0.3950
 4721SOL     OW25621   3.213   4.485  13.363  0.3713 -0.1549  0.3027
 4721SOL    HW125622   3.160   4.449  13.434 -0.2531 -0.9113 -0.5460
 4721SOL    HW225623   3.301   4.459  13.391  0.9841  0.8262 -0.7099
 4722SOL     OW25624   2.097   3.548   3.018 -0.0270 -0.2966  0.3103
 4722SOL    HW125625   2.031   3.602   3.061  0.4389  0.2784  0.3074
 4722SOL    HW225626   2.130   3.592   2.939  0.4272 -0.0731  0.6236
 4723SOL     OW25627   1.153   3.485  15.294  0.0263  0.1932  0.3312
 4723SOL    HW125628   1.245   3.467  15.313  0.0894  3.8030  3.4055
 4723SOL    HW225629   1.146   3.450  15.205  0.8677 -0.3460  0.4777
 4724SOL     OW25630   2.021   2.981  14.819  0.1084  0.0592 -0.8258
 4724SOL    HW125631   2.092   2.928  14.784  0.3588  0.2930 -0.6673
 4724SOL    HW225632   1.940   2.935  14.794  1.1989 -2.8459  0.9886
 4725SOL     OW25633   3.716   3.589   4.162 -0.2402  0.1334  0.0291
 4725SOL    HW125634   3.744   3.562   4.074 -0.1851  1.0952 -0.2491
 4725SOL    HW225635   3.750   3.514   4.211  0.1480  0.1061 -0.2742
 4726SOL     OW25636   1.445   2.049   4.419  0.2988 -0.1224  0.1150
 4726SOL    HW125637   1.392   2.009   4.351  1.3034 -0.0650 -0.7057
 4726SOL    HW225638   1.478   1.974   4.468 -0.6105 -0.1559  0.6786
 4727SOL     OW25639   0.777   4.203   6.995  0.2353  0.3054  0.8266
 4727SOL    HW125640   0.811   4.250   6.919 -1.4858  0.5545  0.2226
 4727SOL    HW225641   0.689   4.240   6.998  0.2677  0.7426 -3.3689
 4728SOL     OW25642   3.057   3.196   6.469  0.3739  0.0994 -0.0276
 4728SOL    HW125643   2.969   3.201   6.433  1.0743  0.6189 -1.6344
 4728SOL    HW225644   3.034   3.171   6.559  0.4860  0.7315  0.1781
 4729SOL     OW25645   1.366   4.714   7.215  0.1768  0.6582 -0.5487
 4729SOL    HW125646   1.419   4.663   7.276 -1.8606  0.9281  1.4192
 4729SOL    HW225647   1.279   4.695   7.250 -0.5298  2.2852 -1.4472
 4730SOL     OW25648   2.163   2.825   4.144 -0.0506 -0.2387  0.6402
 4730SOL    HW125649   2.125   2.893   4.200 -0.8695 -0.0457 -0.1457
 4730SOL    HW225650   2.207   2.787   4.220  0.0945  0.9959  1.1737
 4731SOL     OW25651   3.053   0.747   4.144 -0.0270 -0.5470 -0.4338
 4731SOL    HW125652   3.006   0.822   4.108 -0.4898 -0.3037  0.6733
 4731SOL    HW225653   2.988   0.676   4.146  1.4062 -1.7593  2.6869
 4732SOL     OW25654   4.008   4.585   9.092  0.0867  0.0097 -0.2695
 4732SOL    HW125655   3.940   4.560   9.030 -0.8186 -1.2562  1.2328
 4732SOL    HW225656   3.971   4.668   9.121  0.9888  0.3550 -0.0925
 4733SOL     OW25657   0.464   0.662   8.656  0.0607  0.2085  0.7521
 4733SOL    HW125658   0.466   0.588   8.594  1.3377  0.1664  0.8453
 4733SOL    HW225659   0.551   0.664   8.695  0.2213 -1.6228  0.5152
 4734SOL     OW25660   1.796   1.658   2.508 -0.8472  0.4194 -0.0466
 4734SOL    HW125661   1.830   1.630   2.423 -0.1518 -0.0134  0.3733
 4734SOL    HW225662   1.851   1.735   2.518  1.0376 -0.8612 -0.4968
 4735SOL     OW25663   3.089   2.010  12.426  0.1946 -0.1435  0.0120
 4735SOL    HW125664   3.089   2.065  12.348  0.7999 -0.2794 -0.0789
 4735SOL    HW225665   3.020   1.945  12.413 -1.1386  1.0031  1.3326
 4736SOL     OW25666   0.692   2.107   6.918 -0.0989 -0.3490  0.2534
 4736SOL    HW125667   0.726   2.165   6.986 -2.2156 -0.3094  1.2781
 4736SOL    HW225668   0.713   2.152   6.836  1.6274 -0.1668  0.8128
 4737SOL     OW25669   0.653   0.286   3.405 -0.3618 -0.0776  0.5098
 4737SOL    HW125670   0.682   0.197   3.386  3.4084  1.4075 -0.7220
 4737SOL    HW225671   0.703   0.304   3.484  0.3105 -0.1123  0.0880
 4738SOL     OW25672   3.164   2.001   1.227  0.1969  0.2268 -0.1593
 4738SOL    HW125673   3.207   2.085   1.241  1.2403  0.0010 -2.0238
 4738SOL    HW225674   3.229   1.956   1.173  0.5637 -1.3326  1.5799
 4739SOL     OW25675   0.263   1.213  17.619 -0.1708  0.2791 -0.3564
 4739SOL    HW125676   0.181   1.261  17.624 -0.3069  0.1004 -0.8438
 4739SOL    HW225677   0.270   1.187  17.527  0.0081  2.3178 -0.9156
 4740SOL     OW25678   3.812   1.679   2.870 -0.6074 -0.2656 -0.4232
 4740SOL    HW125679   3.737   1.625   2.844 -1.1703 -0.1198  0.8852
 4740SOL    HW225680   3.878   1.611   2.870  0.5426  0.8499  1.1406
 4741SOL     OW25681   3.529   2.499  10.380  0.0171  0.5969  0.0363
 4741SOL    HW125682   3.535   2.415  10.426 -0.6021  0.9589  0.7921
 4741SOL    HW225683   3.618   2.511  10.348 -0.6437 -0.1989 -2.1283
 4742SOL     OW25684   0.183   3.997   5.162 -0.0409  0.6672  0.2762
 4742SOL    HW125685   0.201   4.047   5.242 -1.0788 -0.1203  1.0026
 4742SOL    HW225686   0.141   4.066   5.110  2.3041  1.6742 -0.2580
 4743SOL     OW25687   2.820   1.189   4.284 -0.1834  0.0118 -0.4969
 4743SOL    HW125688   2.863   1.216   4.365 -2.3954  0.0402  0.6781
 4743SOL    HW225689   2.738   1.239   4.282 -0.2952 -0.2739 -2.5105
 4744SOL     OW25690   0.257   0.195   1.394 -0.0396 -0.1915 -0.1635
 4744SOL    HW125691   0.220   0.145   1.321  0.7850 -2.6249  1.0744
 4744SOL    HW225692   0.297   0.269   1.347  1.1389 -0.1444  0.9330
 4745SOL     OW25693   1.003   1.512   0.668  0.2418  0.5323 -0.2416
 4745SOL    HW125694   0.954   1.433   0.689 -0.8192  1.1642 -0.3487
 4745SOL    HW225695   0.966   1.530   0.581  1.3580  1.7388 -0.4711
 4746SOL     OW25696   1.728   4.131   7.271 -0.5914 -0.4679  0.4418
 4746SOL    HW125697   1.664   4.173   7.213  3.1383  2.9461 -1.1866
 4746SOL    HW225698   1.670   4.074   7.320  0.8865 -1.0228  1.5295
 4747SOL     OW25699   1.838   1.447   6.955 -1.1696 -0.1677  0.6119
 4747SOL    HW125700   1.798   1.531   6.935 -0.5813  0.2622  1.2435
 4747SOL    HW225701   1.763   1.397   6.989 -1.5357  0.0329  0.1039
 4748SOL     OW25702   1.522   2.117   4.749  0.6759  0.0736  0.0854
 4748SOL    HW125703   1.447   2.085   4.799  1.1784 -0.5876  0.4166
 4748SOL    HW225704   1.577   2.150   4.820 -0.9223  0.2092  1.2637
 4749SOL     OW25705   3.224   2.810   6.916 -0.1997 -0.0364 -0.6031
 4749SOL    HW125706   3.292   2.875   6.899 -0.9020  0.2375 -2.3745
 4749SOL    HW225707   3.254   2.733   6.866  2.0832 -0.7903  1.9100
 4750SOL     OW25708   4.561   2.935   1.813  0.0838  0.3380  0.6562
 4750SOL    HW125709   4.532   2.909   1.725  1.3735  0.2800  0.2436
 4750SOL    HW225710   4.478   2.952   1.857 -1.2451 -0.4771 -1.5181
 4751SOL     OW25711   0.562   0.266   8.971  0.1426 -0.3135 -0.0254
 4751SOL    HW125712   0.551   0.281   8.877 -0.5744  2.1596  0.4467
 4751SOL    HW225713   0.527   0.349   9.005  1.4692  0.7369 -1.2250
 4752SOL     OW25714   2.775   3.689   3.856  0.4351  0.0294 -0.1420
 4752SOL    HW125715   2.701   3.748   3.872  0.1390 -0.5201  0.4992
 4752SOL    HW225716   2.743   3.629   3.789  0.7855 -0.9539  0.5816
 4753SOL     OW25717   0.343   0.011   6.885  0.2043 -0.5865 -0.3508
 4753SOL    HW125718   0.268   0.066   6.862  1.9845  1.5734 -0.9793
 4753SOL    HW225719   0.335   4.680   6.808 -0.2270  0.3398 -0.9825
 4754SOL     OW25720   3.272   4.274   0.602  0.6941 -0.5193 -0.2794
 4754SOL    HW125721   3.319   4.213   0.659 -0.1661 -1.0850 -0.1608
 4754SOL    HW225722   3.342   4.282   0.538  0.3512 -2.1272 -0.8489
 4755SOL     OW25723   2.296   0.411   9.306 -0.4314 -0.4075  0.2077
 4755SOL    HW125724   2.376   0.421   9.254 -0.1605 -0.1647  0.6718
 4755SOL    HW225725   2.236   0.356   9.254 -1.4530  2.4043 -1.5737
 4756SOL     OW25726   3.434   1.094  16.647  0.1595  0.3725 -0.6511
 4756SOL    HW125727   3.522   1.121  16.674  0.4099 -1.1766  0.0814
 4756SOL    HW225728   3.392   1.172  16.612 -2.6429 -1.7701 -2.0187
 4757SOL     OW25729   1.275   1.636   6.991 -0.0156  0.5105  0.0914
 4757SOL    HW125730   1.185   1.631   7.023  0.0159  2.5105  0.4892
 4757SOL    HW225731   1.269   1.731   6.983  0.3297  0.5357  0.1567
 4758SOL     OW25732   2.184   0.833   7.032 -0.6730 -0.1293  0.1849
 4758SOL    HW125733   2.242   0.821   6.957 -0.5848  0.0558  0.2213
 4758SOL    HW225734   2.189   0.746   7.072 -2.2715  0.8429  2.5322
 4759SOL     OW25735   0.489   0.820   7.472 -0.1404  0.1685 -0.1492
 4759SOL    HW125736   0.470   0.773   7.391  1.3164  0.8613 -0.8934
 4759SOL    HW225737   0.521   0.751   7.530  2.1701 -0.9919 -2.8419
 4760SOL     OW25738   3.867   3.185   2.934 -0.0693  0.3521 -0.1856
 4760SOL    HW125739   3.931   3.245   2.972  1.9229 -0.2415 -2.6391
 4760SOL    HW225740   3.784   3.232   2.927 -0.7022 -0.7490 -0.0354
 4761SOL     OW25741   0.276   1.091   3.645  0.1586  0.4281 -0.2705
 4761SOL    HW125742   0.297   1.150   3.718  0.5990  0.9471 -0.8225
 4761SOL    HW225743   0.187   1.063   3.671 -0.1695  1.7540  0.0365
 4762SOL     OW25744   2.098   1.545   7.414  0.7735  0.4999 -0.2805
 4762SOL    HW125745   2.085   1.617   7.477 -0.9010 -0.3207  0.3025
 4762SOL    HW225746   2.037   1.563   7.343  0.3430 -0.3660 -0.1238
 4763SOL     OW25747   3.475   1.084   7.483 -0.2688  0.1354  0.7401
 4763SOL    HW125748   3.526   1.075   7.564  2.4488  2.5437 -0.7249
 4763SOL    HW225749   3.386   1.066   7.513 -0.1595 -1.1995  0.2688
 4764SOL     OW25750   1.875   2.553   0.991  0.3663 -0.0617  0.6979
 4764SOL    HW125751   1.883   2.593   0.904  0.7501  0.3008  0.8994
 4764SOL    HW225752   1.780   2.567   0.996 -0.0190 -1.5052 -2.3618
 4765SOL     OW25753   1.404   3.533   2.865  0.3068  0.2186 -0.4380
 4765SOL    HW125754   1.412   3.612   2.919 -0.6659 -0.3258  0.4894
 4765SOL    HW225755   1.468   3.477   2.908 -3.7410 -2.4615  2.0618
 4766SOL     OW25756   3.603   0.107   2.907  0.2945  0.4936  0.8153
 4766SOL    HW125757   3.659   0.063   2.972  0.6893 -0.7007 -0.3342
 4766SOL    HW225758   3.668   0.158   2.858 -1.6589  2.3544  0.1872
 4767SOL     OW25759   1.469   0.527  12.752  0.3651  0.5549  0.1456
 4767SOL    HW125760   1.409   0.554  12.683 -0.6217 -1.2227  0.3086
 4767SOL    HW225761   1.433   0.441  12.775  2.2370 -0.0481  0.8328
 4768SOL     OW25762   4.380   0.620   0.327 -0.2948 -0.1006  0.4826
 4768SOL    HW125763   4.364   0.689   0.391 -0.9289 -2.5529  3.0160
 4768SOL    HW225764   4.308   0.625   0.264 -0.4159 -1.4327  0.5119
 4769SOL     OW25765   0.309   0.733   9.250 -0.1081  0.2303  0.4713
 4769SOL    HW125766   0.318   0.807   9.189  0.0791 -0.9093 -0.8842
 4769SOL    HW225767   0.314   0.789   9.327 -0.1017  0.2350  0.4676
 4770SOL     OW25768   1.386   3.332   1.985  0.1465 -0.1870  0.1062
 4770SOL    HW125769   1.474   3.335   2.023  0.2607  0.6007 -0.2359
 4770SOL    HW225770   1.396   3.316   1.891 -3.5141  0.9374 -0.4351
 4771SOL     OW25771   3.086   2.423  12.513 -0.5666  0.6648 -0.3591
 4771SOL    HW125772   3.092   2.430  12.608 -2.2251 -0.3153 -0.1759
 4771SOL    HW225773   3.019   2.487  12.490  0.2768  1.8230  0.4365
 4772SOL     OW25774   3.606   2.378  12.722  0.4381  0.6262  0.0339
 4772SOL    HW125775   3.575   2.380  12.631 -2.1414  0.6978  0.9175
 4772SOL    HW225776   3.700   2.363  12.717  0.0296 -1.7367 -0.3539
 4773SOL     OW25777   2.068   4.354   7.801 -0.4014 -0.2703 -0.3512
 4773SOL    HW125778   2.104   4.433   7.843 -2.3199  1.4237 -1.9037
 4773SOL    HW225779   2.137   4.319   7.746  0.7793  0.7642  0.4649
 4774SOL     OW25780   2.831   1.187   5.177 -0.6205 -0.4306 -0.7619
 4774SOL    HW125781   2.796   1.100   5.156  0.8399 -1.1225 -0.3095
 4774SOL    HW225782   2.746   1.228   5.192  1.0437  2.4436  0.6031
 4775SOL     OW25783   2.694   2.983   7.954  0.1530  0.0710 -0.6364
 4775SOL    HW125784   2.660   2.921   8.019  1.4195 -1.8788 -1.8534
 4775SOL    HW225785   2.613   3.030   7.933 -1.8620 -1.9882  2.5251
 4776SOL     OW25786   1.710   0.102   8.358  0.1566  0.0902 -0.3072
 4776SOL    HW125787   1.676   0.039   8.294 -1.6627  1.9812 -1.2501
 4776SOL    HW225788   1.631   0.154   8.375  0.7758  0.5586  1.1287
 4777SOL     OW25789   4.451   1.700   7.512  0.1990 -0.0462 -0.6386
 4777SOL    HW125790   4.499   1.744   7.583  1.0558 -0.9536 -0.6506
 4777SOL    HW225791   4.523   1.644   7.484 -0.0969 -0.0609 -1.3661
 4778SOL     OW25792   1.760   0.534   8.702  0.0400 -0.1971 -0.0406
 4778SOL    HW125793   1.666   0.518   8.710  0.3841 -0.9853  2.4327
 4778SOL    HW225794   1.754   0.578   8.618  1.5682 -0.7344 -0.4321
 4779SOL     OW25795   2.594   1.683   8.613  0.2489  0.1542  0.1230
 4779SOL    HW125796   2.586   1.692   8.518 -3.0691 -1.8693  0.1761
 4779SOL    HW225797   2.524   1.743   8.637  1.1168  0.7604  1.1822
 4780SOL     OW25798   1.490   2.323  12.085 -0.6038  0.5621 -0.1752
 4780SOL    HW125799   1.533   2.310  12.000 -0.2441  1.7935 -0.1755
 4780SOL    HW225800   1.538   2.261  12.140 -0.8617  0.5811  0.0701
 4781SOL     OW25801   0.984   3.486   5.407  0.4368  0.1414  0.7165
 4781SOL    HW125802   1.002   3.522   5.494  1.0433  1.8634 -0.1233
 4781SOL    HW225803   0.901   3.443   5.424  0.2200  0.6126  0.8185
 4782SOL     OW25804   4.291   4.031  10.058  0.3932  0.5145  0.2823
 4782SOL    HW125805   4.350   4.104  10.075 -0.3677  0.6583  2.2299
 4782SOL    HW225806   4.246   4.015  10.141  0.5322 -0.8512  0.1012
 4783SOL     OW25807   1.253   1.679   4.737  0.1533 -0.0134 -0.3175
 4783SOL    HW125808   1.216   1.765   4.720  0.2014 -0.4834 -2.8388
 4783SOL    HW225809   1.175   1.637   4.771 -0.9043 -0.5530 -3.3598
 4784SOL     OW25810   3.770   2.160   3.141 -0.0060 -0.0868  0.5287
 4784SOL    HW125811   3.775   2.094   3.071 -1.3321 -1.0886  1.4002
 4784SOL    HW225812   3.769   2.233   3.078  1.6875 -2.1521 -1.9078
 4785SOL     OW25813   2.595   3.934   3.163 -0.2040  0.5583 -0.6322
 4785SOL    HW125814   2.595   4.019   3.118 -0.1095  2.4702  3.0341
 4785SOL    HW225815   2.679   3.941   3.207 -1.8499  2.2982  2.1907
 4786SOL     OW25816   4.508   3.793   8.799  0.3538  0.5618 -0.0853
 4786SOL    HW125817   4.415   3.775   8.811  0.1546  2.6624  1.6151
 4786SOL    HW225818   4.541   3.709   8.833  2.7066  1.7393  0.5740
 4787SOL     OW25819   1.080   3.633   9.089 -0.7351 -0.2500  0.5627
 4787SOL    HW125820   1.155   3.678   9.128  0.1083 -1.0732 -0.1131
 4787SOL    HW225821   1.032   3.715   9.075 -2.1352 -1.2884 -0.8034
 4788SOL     OW25822   0.338   1.618   1.950  0.2021 -0.3978  0.3015
 4788SOL    HW125823   0.290   1.630   1.868  0.9928  1.0651  0.0415
 4788SOL    HW225824   0.414   1.571   1.913 -0.7990 -2.2502  0.5938
 4789SOL     OW25825   2.182   1.905   3.724 -0.4783 -0.0017  0.4651
 4789SOL    HW125826   2.240   1.877   3.653 -1.1548 -2.4447  0.8526
 4789SOL    HW225827   2.205   1.830   3.779 -2.1832 -1.3707 -0.6976
 4790SOL     OW25828   0.058   2.064  14.521 -0.1442 -0.4035  0.3026
 4790SOL    HW125829   0.016   2.144  14.490 -1.0259  0.5170  3.8635
 4790SOL    HW225830   0.133   2.057  14.462 -0.6206 -3.4798  0.0629
 4791SOL     OW25831   3.461   3.644   4.036 -0.0382 -0.5236  0.1640
 4791SOL    HW125832   3.440   3.737   4.047  0.7439 -0.5257  1.7154
 4791SOL    HW225833   3.539   3.628   4.090  0.2989  0.3622 -0.0485
 4792SOL     OW25834   0.611   0.046   6.993  0.1217  0.1320 -0.2291
 4792SOL    HW125835   0.597   0.084   7.080 -0.6030  1.3258 -0.8648
 4792SOL    HW225836   0.521   0.032   6.963 -0.6781  0.2784  2.1510
 4793SOL     OW25837   2.645   0.400   9.819 -0.0145  0.3109 -0.3537
 4793SOL    HW125838   2.707   0.337   9.856  1.3523  0.6337 -2.1076
 4793SOL    HW225839   2.571   0.394   9.878  2.3010 -2.8928  2.2119
 4794SOL     OW25840   0.891   0.097   1.025  0.3666 -0.3242 -0.0619
 4794SOL    HW125841   0.895   0.045   1.105 -2.0168  1.7691  1.4060
 4794SOL    HW225842   0.943   0.175   1.048 -1.0430  0.7636 -0.5492
 4795SOL     OW25843   1.993   3.543   7.046 -0.3234 -0.2847  0.6573
 4795SOL    HW125844   2.043   3.619   7.016 -0.5351  0.0572  1.1628
 4795SOL    HW225845   2.050   3.466   7.049 -0.1651 -0.1832  0.1557
 4796SOL     OW25846   3.753   1.629  10.969 -0.5876  1.1491  0.0445
 4796SOL    HW125847   3.755   1.569  10.894  1.7607 -0.1077  1.1115
 4796SOL    HW225848   3.720   1.576  11.042 -2.0640  2.7433  0.5346
 4797SOL     OW25849   3.689   3.198   6.641 -0.4723 -0.2508  0.1353
 4797SOL    HW125850   3.736   3.201   6.724  0.2065 -1.6857 -0.1956
 4797SOL    HW225851   3.749   3.253   6.590 -2.9574  3.0606  0.7934
 4798SOL     OW25852   2.933   0.547   2.732  0.2193  0.4761 -0.3328
 4798SOL    HW125853   3.018   0.581   2.703  0.2533  1.0996  0.4899
 4798SOL    HW225854   2.966   0.468   2.773  1.0688  2.8123  3.4819
 4799SOL     OW25855   1.380   2.645   4.415  0.3991  0.5073  0.3243
 4799SOL    HW125856   1.304   2.648   4.473 -0.3489 -0.7741 -0.5772
 4799SOL    HW225857   1.349   2.640   4.324 -0.7721  1.1561  0.6855
 4800SOL     OW25858   4.597   3.983   2.805  0.1419 -0.2187  0.4693
 4800SOL    HW125859   4.565   3.904   2.850 -0.1452 -0.4119 -0.0713
 4800SOL    HW225860   4.681   3.955   2.769  0.5652  2.2581 -0.4502
 4801SOL     OW25861   0.774   3.088   3.394  0.2503  0.0827  0.5977
 4801SOL    HW125862   0.709   3.025   3.425  1.6043 -1.0776  1.1033
 4801SOL    HW225863   0.736   3.171   3.423 -0.6597 -0.0721 -0.1365
 4802SOL     OW25864   2.030   1.362   2.303 -0.0303 -0.5414 -0.1755
 4802SOL    HW125865   1.972   1.439   2.293  0.9249  0.4118  1.7409
 4802SOL    HW225866   2.011   1.325   2.217 -0.1674  0.0201 -0.3916
 4803SOL     OW25867   0.623   3.808   8.033  0.5132 -0.2727  0.5074
 4803SOL    HW125868   0.643   3.838   8.122  2.4679  0.0089 -0.0065
 4803SOL    HW225869   0.529   3.817   8.025  0.4874 -1.6512 -0.6602
 4804SOL     OW25870   1.062   3.559   3.042  0.4029 -0.1167 -0.3719
 4804SOL    HW125871   0.986   3.501   3.031 -0.8785  1.5320 -0.1890
 4804SOL    HW225872   1.102   3.522   3.121  1.4681  3.7904  0.9001
 4805SOL     OW25873   0.456   4.480  16.210  0.4075 -0.0635  0.1678
 4805SOL    HW125874   0.439   4.432  16.291 -1.0741 -2.8704 -1.7989
 4805SOL    HW225875   0.370   4.471  16.168  1.4272 -0.5744 -1.7998
 4806SOL     OW25876   1.600   4.090   8.355 -0.6189  0.3928 -0.2986
 4806SOL    HW125877   1.564   4.103   8.443  2.0241  1.2589  0.6497
 4806SOL    HW225878   1.552   4.162   8.315 -1.2504 -0.7981 -1.7134
 4807SOL     OW25879   3.585   2.238  16.655 -0.0171  0.2146 -0.1435
 4807SOL    HW125880   3.656   2.227  16.591 -0.2968  0.3386 -0.4767
 4807SOL    HW225881   3.608   2.164  16.711 -1.0159 -0.5962 -0.7746
 4808SOL     OW25882   3.758   3.905   4.573  0.1235  0.4054 -0.0331
 4808SOL    HW125883   3.780   3.866   4.488  0.9927  0.2583  0.2617
 4808SOL    HW225884   3.669   3.871   4.586  0.1186 -0.4867 -2.3051
 4809SOL     OW25885   1.071   4.254   2.000 -0.6231 -0.4464 -0.4958
 4809SOL    HW125886   1.066   4.331   2.057 -0.0661 -2.1342  1.8585
 4809SOL    HW225887   1.034   4.190   2.061  1.8082 -0.8056  0.6119
 4810SOL     OW25888   3.465   0.732   5.400  0.5394 -0.3233 -0.0233
 4810SOL    HW125889   3.492   0.652   5.354  0.1826 -0.8372  0.6612
 4810SOL    HW225890   3.406   0.768   5.334 -0.3961  0.4328  1.2341
 4811SOL     OW25891   1.076   1.806   4.035  0.2319  0.0245 -0.3116
 4811SOL    HW125892   1.086   1.718   4.000  1.2822  0.0004  0.0422
 4811SOL    HW225893   1.103   1.851   3.955 -0.0195 -0.1192 -0.4777
 4812SOL     OW25894   3.500   4.564   4.475 -0.0506  0.0272  0.0426
 4812SOL    HW125895   3.517   4.651   4.437  2.0609 -0.1841  0.5061
 4812SOL    HW225896   3.570   4.554   4.540  0.3723  3.1021  0.0910
 4813SOL     OW25897   0.907   3.426   6.297 -0.0643  0.4918 -0.5594
 4813SOL    HW125898   0.812   3.426   6.306  0.0630  0.0909  0.7276
 4813SOL    HW225899   0.943   3.452   6.382 -0.6018 -3.3920  0.8505
 4814SOL     OW25900   4.484   3.136  12.110  0.1628 -0.5898  0.4284
 4814SOL    HW125901   4.425   3.211  12.114 -0.8166 -1.4165  1.3168
 4814SOL    HW225902   4.432   3.066  12.071 -1.1390  0.5522  0.1096
 4815SOL     OW25903   3.837   2.483   1.999 -0.5641 -0.2334  0.0417
 4815SOL    HW125904   3.890   2.484   1.919 -1.7347 -0.8820 -0.7382
 4815SOL    HW225905   3.905   2.502   2.063 -1.1525 -1.6207  1.0727
 4816SOL     OW25906   3.044   2.439   9.510 -0.2123 -0.0758 -0.0280
 4816SOL    HW125907   3.017   2.453   9.600 -0.7504 -2.8290  0.2403
 4816SOL    HW225908   3.139   2.438   9.525 -0.3306  0.5575  0.7047
 4817SOL     OW25909   2.341   3.748  14.298 -0.6475  0.4559 -0.3966
 4817SOL    HW125910   2.264   3.777  14.346  1.5341 -0.1948  3.4883
 4817SOL    HW225911   2.406   3.809  14.334 -2.0211  1.8634 -0.3290
 4818SOL     OW25912   2.275   2.876   8.110  0.0011 -0.0242  0.4887
 4818SOL    HW125913   2.199   2.828   8.142  1.1936 -1.7896  0.6769
 4818SOL    HW225914   2.285   2.957   8.160  0.6537 -0.6933  1.4424
 4819SOL     OW25915   2.634   0.169   5.193  0.5314 -0.1229 -0.1828
 4819SOL    HW125916   2.675   0.160   5.107  0.0806 -0.2722 -0.3821
 4819SOL    HW225917   2.558   0.111   5.188  1.1455 -1.1185  1.6877
 4820SOL     OW25918   0.460   1.261   2.663  0.1318 -0.4198  0.1304
 4820SOL    HW125919   0.546   1.262   2.621  0.1952 -0.1737  0.2651
 4820SOL    HW225920   0.488   1.282   2.752 -0.5359 -1.5777  0.6060
 4821SOL     OW25921   2.597   0.079   4.777  0.6900  0.3314  0.0533
 4821SOL    HW125922   2.560   4.718   4.796  0.4001  0.0818 -1.6271
 4821SOL    HW225923   2.597   0.075   4.681  0.4040 -0.3408  0.0790
 4822SOL     OW25924   0.531   3.033   3.010  0.0821  0.2426 -0.1744
 4822SOL    HW125925   0.567   3.114   3.046  0.2269  0.2986 -0.4511
 4822SOL    HW225926   0.603   2.974   3.034 -0.0623  0.6212  1.2119
 4823SOL     OW25927   4.391   0.707   1.044  0.1272 -0.0911  0.1290
 4823SOL    HW125928   4.316   0.695   1.102  1.4775  1.8044  2.2515
 4823SOL    HW225929   4.362   0.769   0.978  0.1357  0.0510  0.2606
 4824SOL     OW25930   0.276   1.371  16.383 -0.4186 -0.4516  0.3094
 4824SOL    HW125931   0.215   1.400  16.451  1.3322 -0.7079  1.9840
 4824SOL    HW225932   0.337   1.322  16.438  0.2135 -1.4150 -1.2645
 4825SOL     OW25933   1.399   0.704   5.813  0.6221 -0.4730 -0.1168
 4825SOL    HW125934   1.344   0.694   5.891  0.6542  2.0971  0.2665
 4825SOL    HW225935   1.450   0.624   5.805  2.0827  0.5560 -1.1878
 4826SOL     OW25936   2.921   3.558   3.551 -0.2572 -0.2516  0.1785
 4826SOL    HW125937   2.862   3.606   3.494 -1.2629 -1.0083  0.5797
 4826SOL    HW225938   2.948   3.490   3.489  1.6436  1.3148 -0.7199
 4827SOL     OW25939   2.480   3.098   3.676  0.1720 -0.0552  0.6564
 4827SOL    HW125940   2.437   3.022   3.714 -2.8890  0.1496 -2.4065
 4827SOL    HW225941   2.409   3.159   3.656 -0.7013 -1.9195 -1.9641
 4828SOL     OW25942   2.042   3.944  12.009  0.4050 -0.3461  0.0082
 4828SOL    HW125943   1.973   3.902  11.958 -1.5450  1.4228  1.1628
 4828SOL    HW225944   2.014   4.035  12.011  0.6206 -0.2857  0.2530
 4829SOL     OW25945   1.614   1.282  14.957  0.5172 -0.0741 -0.2106
 4829SOL    HW125946   1.660   1.279  15.041 -2.1887  0.7992  1.3001
 4829SOL    HW225947   1.650   1.198  14.927 -0.4931  0.1221 -1.9759
 4830SOL     OW25948   3.372   2.100   8.554  0.3803  0.2528 -0.2775
 4830SOL    HW125949   3.411   2.088   8.641 -2.2113 -2.3594  0.5464
 4830SOL    HW225950   3.375   2.195   8.553 -1.7844  0.3379  0.8937
 4831SOL     OW25951   4.719   4.298   3.117  0.2057  0.2948 -0.0850
 4831SOL    HW125952   4.702   4.383   3.155 -1.2938 -0.4857  0.9844
 4831SOL    HW225953   4.648   4.239   3.144 -0.3052  0.5642 -0.8393
 4832SOL     OW25954   4.150   0.950   0.039  0.2142  0.3201  0.1588
 4832SOL    HW125955   4.054   0.940   0.039  0.2507  0.0222  3.1847
 4832SOL    HW225956   4.151   1.036  17.701 -0.0149  1.1228  1.8779
 4833SOL     OW25957   1.331   1.713   5.143  0.0433 -0.0785 -0.4776
 4833SOL    HW125958   1.295   1.666   5.068  1.8935 -1.5775 -0.4148
 4833SOL    HW225959   1.244   1.729   5.180  0.3411  1.9288 -0.6384
 4834SOL     OW25960   3.538   3.456   2.611  0.3082 -0.4127  0.1009
 4834SOL    HW125961   3.547   3.487   2.701 -2.5629 -1.6046  0.7791
 4834SOL    HW225962   3.631   3.471   2.591  0.2381 -0.6787 -0.4031
 4835SOL     OW25963   2.887   0.640  12.241  0.6018 -0.1745 -0.8210
 4835SOL    HW125964   2.910   0.709  12.179  0.2291  1.6321  1.0389
 4835SOL    HW225965   2.882   0.566  12.181 -2.8023 -1.5878  1.2453
 4836SOL     OW25966   4.396   1.642   5.528 -0.4819  0.1068  0.0634
 4836SOL    HW125967   4.405   1.585   5.605  0.7012 -0.0835 -0.2210
 4836SOL    HW225968   4.331   1.597   5.474  1.8646 -0.9146 -1.8888
 4837SOL     OW25969   2.582   1.500   7.257  0.6035  0.8657  0.0355
 4837SOL    HW125970   2.583   1.575   7.197 -0.3925  1.1335  0.3531
 4837SOL    HW225971   2.518   1.531   7.321  1.9998  0.4550  1.6318
 4838SOL     OW25972   4.356   1.433   3.420  0.0355 -0.5245 -0.0544
 4838SOL    HW125973   4.370   1.527   3.433 -1.8068 -0.6286  2.5246
 4838SOL    HW225974   4.347   1.432   3.324  0.1488  2.8144 -0.1021
 4839SOL     OW25975   3.917   4.428   0.478  0.3378  0.0106 -0.3954
 4839SOL    HW125976   3.826   4.401   0.483  0.4448 -0.3565 -0.4726
 4839SOL    HW225977   3.931   4.402   0.569 -0.3160  0.5405 -0.1420
 4840SOL     OW25978   3.620   0.806   2.163  0.5029 -0.1120  0.2453
 4840SOL    HW125979   3.681   0.829   2.093  1.3157  0.9997  1.3226
 4840SOL    HW225980   3.595   0.716   2.141  1.4746  0.3015 -2.5881
 4841SOL     OW25981   4.533   2.323   3.288  0.4634 -0.1255 -0.8207
 4841SOL    HW125982   4.483   2.358   3.214  0.9203 -0.9921 -1.5278
 4841SOL    HW225983   4.570   2.406   3.321 -0.6258  0.8310 -1.9947
 4842SOL     OW25984   2.204   2.028   7.886  0.0523  0.2559  0.4732
 4842SOL    HW125985   2.270   1.978   7.837 -0.4540  0.7810 -0.7400
 4842SOL    HW225986   2.205   1.981   7.969 -0.7354 -1.7198 -0.6403
 4843SOL     OW25987   0.585   3.605  12.542 -0.2226 -0.1523  0.1351
 4843SOL    HW125988   0.661   3.551  12.564 -1.0889 -0.7844  1.6325
 4843SOL    HW225989   0.582   3.594  12.447 -0.4896 -0.7980  0.2209
 4844SOL     OW25990   2.669   3.731   0.860  0.0693  0.5838  0.3359
 4844SOL    HW125991   2.624   3.679   0.793 -1.5718  1.8128  0.4678
 4844SOL    HW225992   2.727   3.788   0.810  0.8732  1.0406  1.7743
 4845SOL     OW25993   1.659   2.983   1.772 -0.1778 -0.1525  0.3150
 4845SOL    HW125994   1.739   3.011   1.727 -0.8272  0.2269 -0.6117
 4845SOL    HW225995   1.611   2.959   1.693  0.3363  1.0236 -0.3713
 4846SOL     OW25996   3.913   4.338   4.694 -0.3836 -0.1620  0.0471
 4846SOL    HW125997   3.914   4.409   4.630 -1.6914 -3.1263 -3.3286
 4846SOL    HW225998   3.829   4.294   4.680 -1.1257  1.2105  0.2247
 4847SOL     OW25999   3.392   1.927  10.407  0.7507  0.2788 -0.2411
 4847SOL    HW126000   3.353   2.011  10.386 -0.8277 -1.2219 -3.2297
 4847SOL    HW226001   3.471   1.924  10.353 -0.3068 -1.7995 -1.6663
 4848SOL     OW26002   1.033   1.116   5.213 -0.0089 -0.2451  0.8827
 4848SOL    HW126003   1.112   1.110   5.266  0.4338  0.0140  0.2507
 4848SOL    HW226004   0.993   1.183   5.269  1.9288 -0.2048  2.2190
 4849SOL     OW26005   1.102   3.818   7.568  0.2785 -0.1513 -0.1307
 4849SOL    HW126006   1.195   3.840   7.561  0.1277  0.5116 -0.1417
 4849SOL    HW226007   1.059   3.893   7.526 -2.1021 -0.2830  2.1067
 4850SOL     OW26008   1.747   4.090  15.976  0.1376 -0.2686 -0.0251
 4850SOL    HW126009   1.793   4.044  16.046  0.4767  2.6043  1.6134
 4850SOL    HW226010   1.684   4.025  15.945 -0.7530  0.0861  1.0220
 4851SOL     OW26011   0.257   4.586   9.946  0.2932 -0.4039  0.4180
 4851SOL    HW126012   0.203   4.511   9.974  0.4853 -0.8522 -0.4261
 4851SOL    HW226013   0.213   4.599   9.862  1.0330  2.1485  0.4284
 4852SOL     OW26014   2.859   1.513   4.271 -0.5218  0.7497 -0.0973
 4852SOL    HW126015   2.788   1.458   4.238  1.0399 -2.8031  2.4725
 4852SOL    HW226016   2.939   1.463   4.258 -0.3510  0.9686  0.0962
 4853SOL     OW26017   0.573   0.974  13.387 -0.2111  0.6526  0.0011
 4853SOL    HW126018   0.600   0.948  13.475 -0.2834  2.9708  0.7012
 4853SOL    HW226019   0.485   0.935  13.386  0.0291  0.1347 -1.4471
 4854SOL     OW26020   0.872   1.396   6.945  0.1133  0.1044  0.0908
 4854SOL    HW126021   0.897   1.372   7.034  1.5995  1.2431 -0.0255
 4854SOL    HW226022   0.868   1.306   6.914 -1.4741 -0.0128  0.6230
 4855SOL     OW26023   3.575   0.846   5.878 -0.0455 -0.2554  0.6108
 4855SOL    HW126024   3.509   0.876   5.815  0.8794  1.5500  0.5190
 4855SOL    HW226025   3.618   0.927   5.903 -1.6663  1.1956 -1.3114
 4856SOL     OW26026   3.937   2.355   2.672  0.3914 -0.5781 -0.3317
 4856SOL    HW126027   3.950   2.409   2.594 -0.7728 -0.2506 -0.2964
 4856SOL    HW226028   4.000   2.385   2.737 -1.2511 -0.2644  1.0880
 4857SOL     OW26029   4.570   2.182   0.482  0.0390  0.4043 -0.1969
 4857SOL    HW126030   4.605   2.134   0.407 -3.4929 -2.0723 -0.2385
 4857SOL    HW226031   4.606   2.131   0.554 -0.9907 -0.7425 -0.5023
 4858SOL     OW26032   3.733   0.493   6.375 -0.3096  0.1268 -0.4923
 4858SOL    HW126033   3.790   0.526   6.306 -2.2666  0.2658 -2.0359
 4858SOL    HW226034   3.721   0.567   6.434  1.6995  0.2584 -0.2435
 4859SOL     OW26035   0.142   0.325   1.856 -0.1061 -0.5025 -0.0081
 4859SOL    HW126036   0.084   0.399   1.876 -0.0536 -0.5443  0.3021
 4859SOL    HW226037   0.100   0.263   1.916 -0.6716  0.1978  0.3189
 4860SOL     OW26038   4.456   3.429   1.192  0.1547  0.0516 -0.3035
 4860SOL    HW126039   4.528   3.472   1.240  0.5000 -0.8178 -0.0422
 4860SOL    HW226040   4.397   3.415   1.266 -0.8311  0.6436 -0.9951
 4861SOL     OW26041   2.646   3.490   7.443 -0.0116 -0.3848  0.7312
 4861SOL    HW126042   2.576   3.467   7.504 -1.1735 -0.1119 -0.4901
 4861SOL    HW226043   2.677   3.574   7.476 -0.2360 -0.1662  0.3927
 4862SOL     OW26044   1.096   0.664   1.866 -0.0811  0.4547  0.2676
 4862SOL    HW126045   1.098   0.593   1.802 -0.4513  0.9244 -0.2614
 4862SOL    HW226046   1.069   0.734   1.806 -0.2947  1.1016  1.1080
 4863SOL     OW26047   0.205   3.274  10.021  0.4901 -0.0025 -0.0462
 4863SOL    HW126048   0.264   3.239   9.954  0.5805  2.2597 -1.1581
 4863SOL    HW226049   0.135   3.209  10.030  0.0874 -0.0861 -3.7513
 4864SOL     OW26050   0.391   0.077   3.503  0.0710 -0.3653  0.0848
 4864SOL    HW126051   0.440   0.036   3.431  0.2328  1.2054 -0.7250
 4864SOL    HW226052   0.457   0.095   3.570  1.3915  1.4269 -1.6864
 4865SOL     OW26053   3.912   1.969  16.884 -0.1004 -0.2498 -0.5001
 4865SOL    HW126054   3.909   1.961  16.789  1.8434 -4.2167 -0.2134
 4865SOL    HW226055   3.829   2.012  16.907  0.8171  1.0520  0.3698
 4866SOL     OW26056   3.880   4.117   9.532 -0.4339 -0.7236 -0.3757
 4866SOL    HW126057   3.958   4.172   9.547  0.3854 -1.7387 -0.9234
 4866SOL    HW226058   3.823   4.181   9.489  0.7053  0.2861 -0.3912
 4867SOL     OW26059   3.761   3.099   7.936  0.1014  0.0938  0.5223
 4867SOL    HW126060   3.818   3.033   7.897  1.2329  0.2121  1.9511
 4867SOL    HW226061   3.677   3.066   7.903 -0.4745 -0.3993  2.4667
 4868SOL     OW26062   1.890   3.247  11.814  0.1502  0.1923  1.0005
 4868SOL    HW126063   1.868   3.235  11.906  0.5972 -0.3955  1.0316
 4868SOL    HW226064   1.838   3.326  11.797  0.2115 -0.8663 -4.0804
 4869SOL     OW26065   3.427   2.372   8.604  0.5589  0.9177 -1.0048
 4869SOL    HW126066   3.388   2.442   8.552  0.9776 -0.9984 -3.9344
 4869SOL    HW226067   3.391   2.377   8.692 -1.8836 -0.3392 -1.9194
 4870SOL     OW26068   2.120   3.538   4.538 -0.8305 -0.0357 -0.2158
 4870SOL    HW126069   2.052   3.597   4.506  1.6268  2.8604 -0.1192
 4870SOL    HW226070   2.180   3.544   4.463 -1.6524 -1.0495 -0.9532
 4871SOL     OW26071   1.020   3.366   2.257 -0.7129  0.5896  0.5105
 4871SOL    HW126072   0.942   3.347   2.206 -0.9499 -1.8661  1.8267
 4871SOL    HW226073   0.999   3.453   2.293  0.0436  1.6100 -1.4785
 4872SOL     OW26074   1.602   2.757   1.970  0.6448 -0.1333  0.4354
 4872SOL    HW126075   1.646   2.825   1.919  1.0015 -0.0934  0.7920
 4872SOL    HW226076   1.569   2.694   1.906  0.8439 -1.5259  1.7024
 4873SOL     OW26077   1.182   1.076   9.891 -0.4374 -0.5173 -0.2695
 4873SOL    HW126078   1.165   1.080   9.986  0.7791 -0.9345 -0.0328
 4873SOL    HW226079   1.225   1.162   9.884 -2.0771  0.0867 -2.8529
 4874SOL     OW26080   2.532   1.679  15.773  0.8198 -0.2294 -0.3200
 4874SOL    HW126081   2.616   1.633  15.781  1.0952  0.0961 -1.3136
 4874SOL    HW226082   2.481   1.629  15.836 -1.0329  1.1086 -0.7519
 4875SOL     OW26083   3.280   1.786  16.887 -0.1574 -0.4558  0.5152
 4875SOL    HW126084   3.285   1.784  16.983 -2.6138  1.7247  0.6987
 4875SOL    HW226085   3.306   1.874  16.858 -2.7401  0.3127  0.5930
 4876SOL     OW26086   0.198   3.825  15.366 -0.3477  0.1756 -0.4310
 4876SOL    HW126087   0.201   3.895  15.432 -2.0757  0.5529 -0.7389
 4876SOL    HW226088   0.223   3.745  15.413 -1.4170  1.4435  2.3134
 4877SOL     OW26089   4.025   4.418  13.331 -0.0725  0.5303 -0.5391
 4877SOL    HW126090   3.938   4.445  13.301 -0.7709 -0.2319  0.7933
 4877SOL    HW226091   4.071   4.501  13.323 -1.6031  1.4728  0.4324
 4878SOL     OW26092   4.517   0.550   9.834 -0.1546 -0.6441 -0.2763
 4878SOL    HW126093   4.436   0.560   9.786  2.2839  3.2498 -3.5774
 4878SOL    HW226094   4.492   0.488   9.903 -1.8037 -1.8263 -1.9609
 4879SOL     OW26095   3.598   0.368   8.692  0.4896 -0.1763 -0.1250
 4879SOL    HW126096   3.534   0.305   8.727  0.2739 -0.2875 -0.7148
 4879SOL    HW226097   3.571   0.451   8.731  0.3648 -1.6473  2.9916
 4880SOL     OW26098   3.531   2.653  12.611  0.0892  0.2216  0.3324
 4880SOL    HW126099   3.569   2.729  12.566  1.2908  0.1921  1.2990
 4880SOL    HW226100   3.575   2.661  12.696 -1.1148 -2.4847  1.2007
 4881SOL     OW26101   4.284   0.736  11.565 -0.0418 -0.1102 -0.2972
 4881SOL    HW126102   4.236   0.656  11.544 -0.7653  0.2364  0.0377
 4881SOL    HW226103   4.325   0.747  11.479  2.1605  1.1696  0.9192
 4882SOL     OW26104   2.262   3.837   6.892  0.0737  0.1767 -0.2840
 4882SOL    HW126105   2.296   3.867   6.976  0.3050  0.1089 -0.3534
 4882SOL    HW226106   2.171   3.864   6.905 -0.2338 -0.0103 -2.0511
 4883SOL     OW26107   0.778   3.274   1.715  0.0855  0.9834 -0.5565
 4883SOL    HW126108   0.869   3.274   1.744  0.0364  1.3427 -0.4012
 4883SOL    HW226109   0.763   3.368   1.726 -2.2147  0.5503  0.1647
 4884SOL     OW26110   0.010   2.517   2.082  0.1178  0.3809 -0.1075
 4884SOL    HW126111   0.071   2.573   2.034 -1.4315  1.2565 -1.0246
 4884SOL    HW226112   4.673   2.583   2.113 -0.3612  0.0885 -0.4436
 4885SOL     OW26113   4.512   2.690   2.161  0.4574  0.0965  0.3395
 4885SOL    HW126114   4.486   2.782   2.159  0.0638  0.0014  1.2937
 4885SOL    HW226115   4.428   2.646   2.146  1.3888 -1.2833 -0.9376
 4886SOL     OW26116   1.853   1.645   8.428  0.3993 -0.4706 -0.1508
 4886SOL    HW126117   1.838   1.552   8.415  4.1288 -0.9834 -0.6695
 4886SOL    HW226118   1.841   1.648   8.523 -0.5700 -1.3234 -0.2447
 4887SOL     OW26119   3.724   2.405   4.645  0.0775 -0.3259 -0.0107
 4887SOL    HW126120   3.724   2.366   4.733 -0.0935  2.4273  1.1915
 4887SOL    HW226121   3.802   2.460   4.646  0.5977 -1.1039  2.5827
 4888SOL     OW26122   3.188   0.507   3.937 -0.2653 -0.1654 -0.0086
 4888SOL    HW126123   3.192   0.593   3.895 -1.5740 -0.8027 -1.4800
 4888SOL    HW226124   3.257   0.454   3.897 -0.3702  0.4573 -1.0310
 4889SOL     OW26125   3.027   1.131   0.406 -0.0787  0.2544 -0.0005
 4889SOL    HW126126   2.979   1.065   0.457 -0.7270  1.1876  0.5941
 4889SOL    HW226127   3.067   1.083   0.334 -0.7612  1.2137 -1.0109
 4890SOL     OW26128   2.029   3.745   4.308 -0.7148 -0.1078 -0.1005
 4890SOL    HW126129   2.063   3.772   4.223 -3.1762  2.6331 -0.2120
 4890SOL    HW226130   1.947   3.794   4.315  0.1954  1.4340 -0.1791
 4891SOL     OW26131   1.382   3.458   9.139 -0.7716 -0.0128  0.2569
 4891SOL    HW126132   1.293   3.434   9.163 -0.8012 -0.1195  0.0434
 4891SOL    HW226133   1.428   3.484   9.219 -0.8055 -1.8866  0.8709
 4892SOL     OW26134   4.308   0.228   2.300 -0.3168 -0.1915  0.0973
 4892SOL    HW126135   4.223   0.240   2.343  1.2951 -1.6171  3.6342
 4892SOL    HW226136   4.288   0.159   2.237  0.1499 -1.3685  1.2671
 4893SOL     OW26137   3.191   1.000   8.723 -0.0169 -0.4127 -0.0456
 4893SOL    HW126138   3.107   0.973   8.686  0.9490 -1.3535 -1.5143
 4893SOL    HW226139   3.170   1.049   8.803 -0.9531  0.2473 -0.7041
 4894SOL     OW26140   0.128   4.051  10.252  0.2279  0.0819 -0.2609
 4894SOL    HW126141   0.046   4.006  10.231  0.7517 -0.8781 -0.2498
 4894SOL    HW226142   0.100   4.139  10.277 -2.3641 -0.5466 -0.9555
 4895SOL     OW26143   4.051   4.003   3.507  0.2649 -0.2321 -0.3985
 4895SOL    HW126144   4.007   3.997   3.423 -0.8254 -0.2909  0.1726
 4895SOL    HW226145   4.141   4.020   3.479  0.3737 -0.3531 -0.1212
 4896SOL     OW26146   3.970   3.497  17.326  0.6308 -0.0293  0.0798
 4896SOL    HW126147   4.038   3.488  17.260  0.8162 -2.1324  0.5782
 4896SOL    HW226148   3.938   3.584  17.300  0.2395 -0.6712 -1.6008
 4897SOL     OW26149   2.125   2.804   7.747  0.3315 -0.0061 -0.4322
 4897SOL    HW126150   2.114   2.863   7.672  1.3430  0.0379 -0.5471
 4897SOL    HW226151   2.211   2.771   7.722  1.6057  0.6254  3.1867
 4898SOL     OW26152   3.036   0.787  16.344  0.1940  1.0825  0.4643
 4898SOL    HW126153   3.126   0.767  16.320  0.3192 -0.2515  2.0392
 4898SOL    HW226154   2.987   0.722  16.294  0.4323  2.5383 -1.6386
 4899SOL     OW26155   0.427   0.738   5.843 -0.2408 -0.0628 -0.1757
 4899SOL    HW126156   0.447   0.651   5.809  0.0853 -0.3500  0.7461
 4899SOL    HW226157   0.349   0.711   5.892 -0.8429  3.8139  1.0180
 4900SOL     OW26158   4.081   0.459  15.770  0.2310 -0.3457 -0.4213
 4900SOL    HW126159   4.160   0.406  15.759 -0.0921 -0.5762 -1.6041
 4900SOL    HW226160   4.024   0.407  15.826  2.0009 -2.1565 -0.2871
 4901SOL     OW26161   2.071   1.516   1.122  0.0149  0.5127  0.2115
 4901SOL    HW126162   2.121   1.447   1.079  1.0673  1.6958 -0.4619
 4901SOL    HW226163   1.999   1.525   1.060  0.0478  0.2935  0.1414
 4902SOL     OW26164   0.802   1.552   1.935 -0.1431 -0.2864  0.2277
 4902SOL    HW126165   0.827   1.460   1.942  0.6940 -0.0617  0.2093
 4902SOL    HW226166   0.781   1.572   2.026 -1.3381 -1.0630  0.1384
 4903SOL     OW26167   1.715   2.893  10.219 -0.5427  0.5283  0.1398
 4903SOL    HW126168   1.757   2.885  10.133 -0.2997  0.3637  0.2738
 4903SOL    HW226169   1.721   2.988  10.233  0.9977  0.2828  1.1349
 4904SOL     OW26170   3.278   1.858   1.489  0.1040 -0.0013 -0.2008
 4904SOL    HW126171   3.231   1.895   1.414 -3.0547 -0.5785  1.4952
 4904SOL    HW226172   3.362   1.902   1.477 -0.8339  0.8972 -3.4996
 4905SOL     OW26173   3.257   1.181  16.386 -0.0602  0.3015 -0.1806
 4905SOL    HW126174   3.190   1.117  16.365  1.5622 -1.5443  0.2190
 4905SOL    HW226175   3.210   1.264  16.376  1.0470  0.9294 -0.2035
 4906SOL     OW26176   1.287   0.496  16.542 -0.0256  0.2020  0.1675
 4906SOL    HW126177   1.281   0.401  16.539  0.2872  0.1489  1.2035
 4906SOL    HW226178   1.328   0.505  16.456 -0.1984  1.8407  0.2474
 4907SOL     OW26179   4.701   1.367   5.998 -0.2802 -0.3994 -0.2239
 4907SOL    HW126180   0.069   1.356   6.020  0.2270  0.0323 -2.0651
 4907SOL    HW226181   4.711   1.439   5.934 -3.0293  0.1729 -0.0011
 4908SOL     OW26182   3.176   1.582   4.328 -0.2330 -0.0265  0.2924
 4908SOL    HW126183   3.167   1.494   4.292 -2.4151  0.4707 -0.4020
 4908SOL    HW226184   3.133   1.637   4.262 -0.4939  0.6378  1.0276
 4909SOL     OW26185   0.441   1.961  12.507 -0.2915  0.4664  0.0309
 4909SOL    HW126186   0.488   1.882  12.481 -0.6250  0.3838 -0.3274
 4909SOL    HW226187   0.489   2.041  12.485  0.7513 -0.2728 -0.3835
 4910SOL     OW26188   0.785   2.064   3.865 -0.1955  0.7868  0.0964
 4910SOL    HW126189   0.723   2.092   3.798 -0.0769 -1.0057 -0.7496
 4910SOL    HW226190   0.859   2.124   3.856 -2.3601  3.5874  1.0958
 4911SOL     OW26191   3.427   3.078  16.601  0.5229 -0.1791 -0.3718
 4911SOL    HW126192   3.377   3.118  16.672 -1.9127  0.2787 -2.3123
 4911SOL    HW226193   3.459   3.000  16.646  0.2316 -0.1285 -0.0713
 4912SOL     OW26194   3.259   2.428   9.245 -0.0911 -0.3065  0.1543
 4912SOL    HW126195   3.175   2.384   9.236 -0.2428 -0.4407  2.1971
 4912SOL    HW226196   3.322   2.355   9.249 -0.0779 -0.4906 -2.9833
 4913SOL     OW26197   2.631   2.858   5.376 -0.4110 -0.6524 -0.0748
 4913SOL    HW126198   2.710   2.893   5.418  0.1529 -0.2888 -1.4629
 4913SOL    HW226199   2.560   2.902   5.422 -0.5802  0.3997 -1.3610
 4914SOL     OW26200   3.836   3.674  12.255 -0.1084  0.0698 -0.1852
 4914SOL    HW126201   3.898   3.731  12.301  1.3851 -2.3269  0.8032
 4914SOL    HW226202   3.894   3.616  12.205  0.2797  0.1889  0.1253
 4915SOL     OW26203   1.983   3.853   6.924  0.1898  0.1010 -0.6239
 4915SOL    HW126204   1.998   3.879   6.833  0.2490 -0.8535 -0.8840
 4915SOL    HW226205   1.890   3.855   6.947  0.0937 -1.5936 -0.8407
 4916SOL     OW26206   2.687   2.940  17.438 -0.2631  0.2845 -0.2977
 4916SOL    HW126207   2.752   3.009  17.452  1.4336 -1.5808  1.1295
 4916SOL    HW226208   2.639   2.942  17.521  0.3118 -3.4249  0.1181
 4917SOL     OW26209   2.416   1.491  11.435 -0.0023  0.5495  0.0172
 4917SOL    HW126210   2.420   1.585  11.415  2.3956  0.3460 -0.5609
 4917SOL    HW226211   2.466   1.490  11.517  2.2112 -1.2438 -1.3634
 4918SOL     OW26212   3.872   1.527   4.199 -0.0604  0.5031  0.9300
 4918SOL    HW126213   3.917   1.593   4.252  2.6645 -0.9553  0.4453
 4918SOL    HW226214   3.785   1.532   4.240 -1.0414  1.1152 -1.2707
 4919SOL     OW26215   2.721   3.283   6.429 -0.0468  0.2750 -0.2959
 4919SOL    HW126216   2.652   3.345   6.456 -0.3666 -0.3268  0.2608
 4919SOL    HW226217   2.714   3.210   6.490  1.9210 -0.3750 -0.8695
 4920SOL     OW26218   2.112   1.927   2.232  0.2313  0.2758  0.4546
 4920SOL    HW126219   2.200   1.889   2.229  0.2015  0.1644  1.0131
 4920SOL    HW226220   2.088   1.922   2.140 -0.5181 -0.3344  0.6825
 4921SOL     OW26221   4.530   4.285   3.749 -0.3211  0.1117 -0.9539
 4921SOL    HW126222   4.449   4.336   3.744 -0.0798  0.4713 -1.1668
 4921SOL    HW226223   4.506   4.210   3.804  1.2172 -0.8656 -1.6202
 4922SOL     OW26224   2.650   4.052  10.812  0.0529  0.1050 -0.3104
 4922SOL    HW126225   2.593   4.088  10.880 -1.3988  1.4968 -2.2677
 4922SOL    HW226226   2.581   4.035  10.746 -2.4471  1.2926  2.0134
 4923SOL     OW26227   4.538   2.610   3.710 -0.3505  0.2500  0.0731
 4923SOL    HW126228   4.602   2.540   3.694 -0.7863  0.0600 -0.8426
 4923SOL    HW226229   4.513   2.565   3.791 -0.8918  1.4696  0.5792
 4924SOL     OW26230   1.980   3.502   6.585  0.7347 -0.0944 -0.1221
 4924SOL    HW126231   1.947   3.437   6.522  2.6947  0.0869 -1.3357
 4924SOL    HW226232   1.917   3.505   6.657 -3.1384  0.5934 -3.5522
 4925SOL     OW26233   2.668   1.679   1.739 -0.5982  0.3198 -0.1201
 4925SOL    HW126234   2.674   1.774   1.732 -0.8115  0.5021  2.0223
 4925SOL    HW226235   2.574   1.669   1.724 -0.5908  0.0979 -0.0194
 4926SOL     OW26236   0.474   1.578   4.109  0.1545 -0.5150 -0.0407
 4926SOL    HW126237   0.478   1.673   4.120 -3.5417 -0.4772  1.1224
 4926SOL    HW226238   0.537   1.542   4.171 -0.5839  0.2147  1.1353
 4927SOL     OW26239   0.646   3.778   3.258  0.1367 -0.0473  0.1892
 4927SOL    HW126240   0.594   3.844   3.303  0.3800 -0.8092  1.5942
 4927SOL    HW226241   0.668   3.820   3.175  1.2969  0.3013  0.6728
 4928SOL     OW26242   0.210   0.463   8.245 -0.0035 -0.3039  0.2135
 4928SOL    HW126243   0.270   0.388   8.251 -0.2210 -0.4149  1.0816
 4928SOL    HW226244   0.228   0.500   8.158 -1.3721 -0.5532 -0.1674
 4929SOL     OW26245   3.058   4.723   2.966 -0.4746 -0.7192  0.4436
 4929SOL    HW126246   3.065   4.677   3.050 -1.0297 -2.5857 -0.5144
 4929SOL    HW226247   2.998   0.065   2.996 -1.0730 -0.1400 -2.0786
 4930SOL     OW26248   4.649   3.740   3.559  0.2278 -0.2324 -0.7712
 4930SOL    HW126249   4.585   3.809   3.570  0.1718 -0.0735 -2.1118
 4930SOL    HW226250   4.615   3.675   3.620  0.9232 -0.0792 -0.2223
 4931SOL     OW26251   1.846   3.129  12.068  0.2096 -0.3364 -0.3643
 4931SOL    HW126252   1.820   3.043  12.035 -0.5051 -0.6800  1.1075
 4931SOL    HW226253   1.794   3.148  12.146 -0.2194 -1.5008 -0.3685
 4932SOL     OW26254   2.620   1.370   4.231  0.0861 -0.2355  0.1661
 4932SOL    HW126255   2.551   1.331   4.284 -0.6905  0.0859 -0.6068
 4932SOL    HW226256   2.587   1.343   4.146  1.4602 -1.0556 -0.1011
 4933SOL     OW26257   2.884   3.093   5.755  0.0094  0.0766  0.8222
 4933SOL    HW126258   2.905   3.014   5.704 -0.2715  0.7805 -0.3923
 4933SOL    HW226259   2.862   3.063   5.843  0.2133 -0.1219  0.8071
 4934SOL     OW26260   3.036   3.121   9.582  0.6006  0.0301 -0.0141
 4934SOL    HW126261   2.975   3.185   9.545  1.2854  0.0213 -1.1573
 4934SOL    HW226262   3.025   3.050   9.519 -1.5593 -0.4739  0.9270
 4935SOL     OW26263   2.485   1.603   0.931 -0.1855 -0.0765  0.6654
 4935SOL    HW126264   2.461   1.696   0.932 -2.9164 -0.8018  0.8924
 4935SOL    HW226265   2.553   1.602   0.999 -0.2265  0.9218  0.7257
 4936SOL     OW26266   3.255   3.273   3.781  1.1270 -0.0272 -0.1611
 4936SOL    HW126267   3.282   3.334   3.850 -0.6892 -1.4994  1.8880
 4936SOL    HW226268   3.178   3.311   3.739  1.4209  2.2603  1.3733
 4937SOL     OW26269   4.625   1.792  13.139 -0.3286  0.0181  0.2468
 4937SOL    HW126270   4.534   1.811  13.160 -1.7095 -2.7185 -3.3484
 4937SOL    HW226271   4.653   1.869  13.090  0.8507  0.2442  1.2763
 4938SOL     OW26272   1.227   4.121   3.536  0.3296 -0.3428 -0.1331
 4938SOL    HW126273   1.284   4.108   3.460  0.3604  0.9624 -0.3383
 4938SOL    HW226274   1.189   4.204   3.507  3.7576  1.1770 -0.3697
 4939SOL     OW26275   2.650   1.070  12.222 -0.1399  0.3133  0.0048
 4939SOL    HW126276   2.601   1.099  12.299  0.9984  0.1718  0.7938
 4939SOL    HW226277   2.729   1.122  12.240 -0.2476 -0.0629  1.6250
 4940SOL     OW26278   0.635   2.644  15.011  0.0318 -0.1297  0.6835
 4940SOL    HW126279   0.700   2.578  14.987  1.0873  1.1326  0.0566
 4940SOL    HW226280   0.686   2.719  14.980  1.1088 -0.5707  1.3918
 4941SOL     OW26281   2.243   2.482   6.599  0.2849  0.7862 -0.0330
 4941SOL    HW126282   2.329   2.456   6.631 -0.3318 -1.5801 -0.2806
 4941SOL    HW226283   2.204   2.504   6.684 -0.4054 -2.0012  0.3889
 4942SOL     OW26284   2.534   4.306   0.961 -0.1653 -0.2062  0.0005
 4942SOL    HW126285   2.544   4.212   0.942 -0.7410 -0.3934  0.6420
 4942SOL    HW226286   2.439   4.307   0.951 -0.1788  0.5484  0.2608
 4943SOL     OW26287   2.801   3.312   4.282 -0.5060 -0.1199 -0.8108
 4943SOL    HW126288   2.806   3.400   4.320  2.3517 -0.2433 -0.9177
 4943SOL    HW226289   2.773   3.340   4.195 -0.4250 -0.8175 -1.0585
 4944SOL     OW26290   0.667   3.537   7.007 -0.1743 -0.0019 -0.0352
 4944SOL    HW126291   0.755   3.533   6.969 -0.0262  0.7787  0.2085
 4944SOL    HW226292   0.683   3.512   7.098  0.0362 -1.6341 -0.5305
 4945SOL     OW26293   3.318   0.462   1.145 -0.0372  0.6445  0.1959
 4945SOL    HW126294   3.233   0.445   1.104  0.3594  1.5907 -1.0078
 4945SOL    HW226295   3.376   0.396   1.106 -2.9481 -2.6494  1.3938
 4946SOL     OW26296   4.209   0.107   3.217  0.1856  0.3329 -0.1500
 4946SOL    HW126297   4.294   0.068   3.198 -0.6864 -2.2816  1.3191
 4946SOL    HW226298   4.190   0.060   3.298  2.6718 -0.8219 -0.2328
 4947SOL     OW26299   0.411   3.787   8.836 -0.6743 -0.1885 -0.0685
 4947SOL    HW126300   0.351   3.766   8.764  0.1653 -2.7311 -0.0358
 4947SOL    HW226301   0.376   3.871   8.866 -0.7702  0.1389 -1.0896
 4948SOL     OW26302   3.150   3.795  13.167 -0.1971  0.1586 -0.0019
 4948SOL    HW126303   3.115   3.714  13.129 -1.4805  1.0971 -0.7860
 4948SOL    HW226304   3.184   3.836  13.088  2.3548  2.8443  2.4864
 4949SOL     OW26305   1.150   3.381   3.967 -0.6768 -0.4382  0.3004
 4949SOL    HW126306   1.206   3.449   4.005  0.1374  0.0385 -1.7409
 4949SOL    HW226307   1.212   3.331   3.915 -0.9419  1.1155 -1.5358
 4950SOL     OW26308   0.412   2.665   0.464  0.1130 -0.6446  0.3296
 4950SOL    HW126309   0.400   2.759   0.479  0.3962 -0.4518 -0.6764
 4950SOL    HW226310   0.499   2.651   0.502  1.0534  2.8284 -0.5986
 4951SOL     OW26311   2.484   3.497   6.505 -0.0889 -0.5202 -0.3372
 4951SOL    HW126312   2.432   3.551   6.446 -1.9915 -0.1514  1.6733
 4951SOL    HW226313   2.418   3.479   6.573  0.8904 -0.5477  0.6126
 4952SOL     OW26314   2.931   3.854   7.507 -0.3097 -0.3915 -0.2758
 4952SOL    HW126315   2.845   3.863   7.548 -1.3995 -4.1011 -1.6975
 4952SOL    HW226316   2.992   3.833   7.577 -1.3800 -0.5305  0.6177
 4953SOL     OW26317   1.448   0.576   4.976  0.0193  0.3167 -0.3184
 4953SOL    HW126318   1.412   0.656   4.938  0.0491 -0.0388 -1.1161
 4953SOL    HW226319   1.379   0.513   4.954  0.6838 -0.4623 -0.1924
 4954SOL     OW26320   2.144   2.935   2.516  0.6039 -0.0883 -0.7242
 4954SOL    HW126321   2.222   2.886   2.490 -0.0539 -0.7297 -1.5054
 4954SOL    HW226322   2.076   2.869   2.530  0.2169  0.5269  0.3324
 4955SOL     OW26323   2.211   2.886   5.720  0.7113  0.1581  0.3783
 4955SOL    HW126324   2.162   2.826   5.777  0.0749  1.9913  1.7596
 4955SOL    HW226325   2.275   2.833   5.673 -1.2710 -0.5045 -1.6100
 4956SOL     OW26326   2.676   1.257  17.158 -0.0346  0.7932  0.0858
 4956SOL    HW126327   2.723   1.189  17.110 -0.5357  0.2975  0.2815
 4956SOL    HW226328   2.604   1.203  17.193  1.0217 -0.1079  0.8719
 4957SOL     OW26329   4.604   4.193   1.969  0.4638 -0.6095  0.4985
 4957SOL    HW126330   4.569   4.145   1.894  1.8421 -1.9214  0.7036
 4957SOL    HW226331   4.670   4.249   1.928  0.8433 -1.8162 -0.5469
 4958SOL     OW26332   1.794   1.329   1.799 -0.3552  0.1922 -0.0122
 4958SOL    HW126333   1.844   1.354   1.877  2.6587 -0.5326 -1.7219
 4958SOL    HW226334   1.791   1.235   1.812 -1.6716 -0.0503 -2.1690
 4959SOL     OW26335   1.318   1.344   1.779 -0.5669 -0.5421 -0.7385
 4959SOL    HW126336   1.408   1.331   1.807 -0.8732 -0.1889  0.4277
 4959SOL    HW226337   1.330   1.310   1.690  0.3279  0.8237 -1.1398
 4960SOL     OW26338   2.190   0.585   5.310 -1.3062 -0.0946 -0.1253
 4960SOL    HW126339   2.175   0.665   5.359 -2.5531  1.9617 -3.8368
 4960SOL    HW226340   2.269   0.612   5.263 -0.9440  0.5209  0.8509
 4961SOL     OW26341   0.829   0.929  12.740  0.0282  0.1395  0.1422
 4961SOL    HW126342   0.881   0.995  12.694 -0.4428  2.6365  3.1909
 4961SOL    HW226343   0.807   0.985  12.814  1.9266  1.8019 -0.5535
 4962SOL     OW26344   0.078   2.290   3.208 -0.0030 -0.5392 -0.6933
 4962SOL    HW126345   0.086   2.380   3.238 -0.7626 -1.8417  3.5149
 4962SOL    HW226346   4.720   2.272   3.252  1.1515 -2.8405  0.5619
 4963SOL     OW26347   3.869   2.734   6.959 -0.0900  0.4433  0.0092
 4963SOL    HW126348   3.862   2.666   7.026 -2.1981  0.8355  0.1765
 4963SOL    HW226349   3.962   2.759   6.967  0.1074 -0.4128  0.3582
 4964SOL     OW26350   2.892   1.602  17.372 -0.0666  0.3990 -0.2256
 4964SOL    HW126351   2.862   1.651  17.295 -2.3049 -0.1208  0.3125
 4964SOL    HW226352   2.826   1.623  17.437  0.3731  2.2170 -0.3788
 4965SOL     OW26353   0.023   3.010   3.081 -0.3429  0.3054  0.0746
 4965SOL    HW126354   4.707   2.924   3.092 -0.4062  0.4166  0.7333
 4965SOL    HW226355   0.117   2.989   3.087 -0.8201 -1.9978 -0.6251
 4966SOL     OW26356   4.176   0.991   7.224 -0.1498 -0.4532  0.6050
 4966SOL    HW126357   4.225   0.941   7.289  1.9218 -0.1221 -0.7240
 4966SOL    HW226358   4.096   0.939   7.221 -1.6229  1.8207  0.5482
 4967SOL     OW26359   4.042   1.976  11.012 -0.1206 -0.1569 -0.5618
 4967SOL    HW126360   4.007   2.061  11.039 -0.2669  0.0381 -1.3504
 4967SOL    HW226361   3.974   1.925  11.057 -1.6272  0.9689 -1.5370
 4968SOL     OW26362   4.525   3.590   6.853  0.0691  0.3519  0.5122
 4968SOL    HW126363   4.608   3.633   6.831  0.1026 -0.2561 -0.5149
 4968SOL    HW226364   4.521   3.521   6.787 -3.0109  0.2552  0.8131
 4969SOL     OW26365   1.632   4.032   2.547  0.1083  0.6930  0.0720
 4969SOL    HW126366   1.581   3.954   2.570  0.7643  0.8774  2.1637
 4969SOL    HW226367   1.560   4.083   2.511 -0.1101 -0.5036 -1.2009
 4970SOL     OW26368   4.004   3.663  12.488 -0.0649  0.5201  0.4413
 4970SOL    HW126369   4.015   3.724  12.560  0.4722  1.6075 -0.5665
 4970SOL    HW226370   3.982   3.580  12.531  0.8434  0.1022  0.1070
 4971SOL     OW26371   4.149   3.775   5.122  0.5526 -0.5003 -0.4193
 4971SOL    HW126372   4.211   3.830   5.074 -0.3421 -0.3528 -1.3993
 4971SOL    HW226373   4.117   3.710   5.059  0.1095 -0.6852 -0.0023
 4972SOL     OW26374   0.364   1.028  16.319  0.2829  0.3355  0.0798
 4972SOL    HW126375   0.321   1.060  16.398 -0.3382 -1.5124  0.4990
 4972SOL    HW226376   0.398   1.106  16.275  0.9598 -0.7072 -1.2535
 4973SOL     OW26377   2.964   1.187  10.367 -0.5065 -0.0547 -0.5129
 4973SOL    HW126378   3.001   1.175  10.280  0.4025 -2.3892  0.1800
 4973SOL    HW226379   2.872   1.209  10.352 -0.4676  0.4613 -0.0000
 4974SOL     OW26380   2.814   2.577   6.063  0.2084  0.1898 -0.0504
 4974SOL    HW126381   2.783   2.494   6.100  0.6209 -0.6233 -1.5054
 4974SOL    HW226382   2.899   2.596   6.104  1.3734 -1.8588 -1.5165
 4975SOL     OW26383   1.166   4.580   1.351  0.0906 -0.4684 -0.4800
 4975SOL    HW126384   1.104   4.638   1.307  1.3906  0.8217 -0.5814
 4975SOL    HW226385   1.154   4.501   1.298 -0.7879  0.0460 -1.0396
 4976SOL     OW26386   0.503   4.535   2.745 -0.5479 -0.2003  0.5924
 4976SOL    HW126387   0.457   4.496   2.671  2.0478  0.7125 -1.5065
 4976SOL    HW226388   0.442   4.514   2.816 -0.8969  1.5802  0.8123
 4977SOL     OW26389   1.267   0.686   3.164  0.4095  0.3009 -0.1512
 4977SOL    HW126390   1.252   0.652   3.252 -1.9717 -0.7886 -0.9656
 4977SOL    HW226391   1.183   0.731   3.151  0.4180  0.2583 -0.3533
 4978SOL     OW26392   1.095   0.147   7.626  0.0044 -0.0923  0.0913
 4978SOL    HW126393   1.152   0.160   7.701 -1.2811  0.1084  1.0290
 4978SOL    HW226394   1.018   0.105   7.664  0.5781 -2.7283 -1.6077
 4979SOL     OW26395   0.601   4.263  10.885  0.0272  0.3659  0.5670
 4979SOL    HW126396   0.533   4.223  10.940  0.7440  0.0159  1.1983
 4979SOL    HW226397   0.579   4.353  10.906  1.0212 -0.0777  3.4739
 4980SOL     OW26398   2.088   3.106  11.631  0.4397  0.5332 -0.0593
 4980SOL    HW126399   2.034   3.178  11.660  0.7763  0.8500 -0.2163
 4980SOL    HW226400   2.122   3.138  11.547  1.6658 -1.0431 -0.1802
 4981SOL     OW26401   2.809   2.533   1.129  0.2438 -0.4065  0.0633
 4981SOL    HW126402   2.765   2.612   1.160  0.7634 -0.8418  1.8616
 4981SOL    HW226403   2.826   2.554   1.037 -0.0079 -1.3763 -0.2066
 4982SOL     OW26404   3.374   0.626  13.014  0.1559 -0.2288  0.2422
 4982SOL    HW126405   3.344   0.701  12.963 -1.0958  1.0982  2.9644
 4982SOL    HW226406   3.467   0.649  13.009 -0.3132  1.4462 -0.5193
 4983SOL     OW26407   4.711   0.038   2.376  0.0433 -0.1947 -0.1615
 4983SOL    HW126408   0.065   4.710   2.379  0.7641  0.8672 -0.0670
 4983SOL    HW226409   4.689   0.049   2.469  0.4601  1.2453 -0.2318
 4984SOL     OW26410   3.091   1.378   5.344 -0.3425  0.2941 -0.2134
 4984SOL    HW126411   3.086   1.284   5.362 -0.7748  0.6258  1.3733
 4984SOL    HW226412   3.170   1.379   5.291 -0.1652  1.2473  0.0705
 4985SOL     OW26413   4.393   0.436  14.120  0.2633 -0.0326 -0.1103
 4985SOL    HW126414   4.326   0.492  14.081  3.0364  0.5682 -3.9676
 4985SOL    HW226415   4.388   0.360  14.062 -0.9788  0.4738 -0.6646
 4986SOL     OW26416   1.448   4.366   3.579  0.1035 -0.7518  0.3914
 4986SOL    HW126417   1.459   4.282   3.625  1.5189 -0.7364  0.0801
 4986SOL    HW226418   1.484   4.346   3.493  1.0716  0.7460  0.4539
 4987SOL     OW26419   1.809   3.476   0.915 -0.3188 -0.1776 -0.1167
 4987SOL    HW126420   1.859   3.416   0.859  0.7687  1.0135 -0.4226
 4987SOL    HW226421   1.723   3.471   0.875 -0.6539  0.0354  0.5897
 4988SOL     OW26422   3.838   0.594   0.521  0.7856  0.4737  0.2827
 4988SOL    HW126423   3.793   0.672   0.488 -0.3481 -1.0965 -1.9071
 4988SOL    HW226424   3.778   0.561   0.588 -0.7082 -0.8475 -1.6988
 4989SOL     OW26425   0.992   3.675  13.834 -0.4957  0.5917  0.2259
 4989SOL    HW126426   0.989   3.733  13.758  0.1702  2.0530  1.3299
 4989SOL    HW226427   0.948   3.601  13.792  1.4243 -0.0706 -0.6078
 4990SOL     OW26428   2.857   2.246   4.945 -0.1339  0.3596  0.0892
 4990SOL    HW126429   2.775   2.210   4.913 -0.2787  0.0864  0.7825
 4990SOL    HW226430   2.856   2.330   4.898 -0.3200 -0.9162 -2.1740
 4991SOL     OW26431   1.575   2.392   9.756 -0.1836  0.0275  0.0011
 4991SOL    HW126432   1.654   2.343   9.734 -0.9925 -2.2283  2.0283
 4991SOL    HW226433   1.616   2.459   9.811 -0.9236  0.5474 -0.0724
 4992SOL     OW26434   4.552   2.993   2.535  0.1055 -0.3688  0.3630
 4992SOL    HW126435   4.496   2.916   2.542 -0.9599  0.6632  3.0651
 4992SOL    HW226436   4.623   2.975   2.596  1.3744  0.0298 -0.9965
 4993SOL     OW26437   2.912   3.883  16.353 -1.2144 -0.8190 -0.4540
 4993SOL    HW126438   2.839   3.912  16.298 -1.4887  1.9830  1.4311
 4993SOL    HW226439   2.962   3.961  16.374  0.3108 -1.8377 -0.3097
 4994SOL     OW26440   1.979   4.427   0.251 -0.1077  0.1520  0.2718
 4994SOL    HW126441   2.015   4.376   0.324  0.6201  0.7610  0.3398
 4994SOL    HW226442   2.033   4.390   0.181 -0.8040  1.0196 -0.7130
 4995SOL     OW26443   3.955   0.661  10.982 -0.4965  0.2638 -0.1121
 4995SOL    HW126444   3.912   0.580  10.955 -0.1379  0.0389 -0.0037
 4995SOL    HW226445   3.881   0.719  10.964 -2.1877 -1.5102  1.0834
 4996SOL     OW26446   0.748   3.503   4.730 -0.8451 -0.3788  0.8055
 4996SOL    HW126447   0.807   3.435   4.765  0.4204  0.4527  0.2883
 4996SOL    HW226448   0.679   3.510   4.796  0.1731  0.9362  1.7382
 4997SOL     OW26449   3.797   1.683   8.050  0.0998  0.5249  0.7016
 4997SOL    HW126450   3.783   1.603   8.101 -0.0753  0.7982  1.0887
 4997SOL    HW226451   3.848   1.657   7.974 -0.0133 -3.3989  1.9785
 4998SOL     OW26452   4.162   1.387   4.268 -0.2908  0.0947  0.1472
 4998SOL    HW126453   4.157   1.406   4.174  2.6955 -1.5054 -0.3394
 4998SOL    HW226454   4.227   1.317   4.270  1.3441  1.5485 -1.4532
 4999SOL     OW26455   2.969   1.593   3.270  0.1907  0.0932 -0.1419
 4999SOL    HW126456   3.022   1.631   3.200 -0.0015  2.0361  0.7742
 4999SOL    HW226457   2.879   1.608   3.242  1.1828  2.9581 -1.7611
 5000SOL     OW26458   1.047   1.109  15.781 -0.8889 -0.1729 -0.4838
 5000SOL    HW126459   1.051   1.013  15.781  1.6878 -0.0810 -1.3498
 5000SOL    HW226460   1.118   1.126  15.719  1.9264  0.4230  2.8874
 5001SOL     OW26461   3.524   0.439   4.555  0.2545 -0.5895 -0.4021
 5001SOL    HW126462   3.530   0.472   4.644 -0.1306  0.8298 -0.8885
 5001SOL    HW226463   3.511   0.345   4.564  1.5680 -0.9495 -2.3024
 5002SOL     OW26464   2.016   3.885  12.907  0.3777  0.5182 -0.7345
 5002SOL    HW126465   1.942   3.889  12.967 -1.0143  3.9840 -2.6802
 5002SOL    HW226466   2.025   3.981  12.904  0.1433  0.5391 -0.7124
 5003SOL     OW26467   1.099   2.666   0.513 -0.1149 -0.0676  0.2755
 5003SOL    HW126468   1.029   2.670   0.448 -0.0283  2.5915  0.3452
 5003SOL    HW226469   1.068   2.589   0.561  1.6162 -1.5925 -1.0236
 5004SOL     OW26470   3.627   0.342   2.317 -0.5395  0.4327  0.0156
 5004SOL    HW126471   3.552   0.357   2.259 -0.6215 -3.8576 -0.9967
 5004SOL    HW226472   3.591   0.334   2.405 -0.5818 -2.2849 -0.2269
 5005SOL     OW26473   2.040   2.511   8.634 -0.0633  0.5714  0.2193
 5005SOL    HW126474   2.121   2.510   8.685  0.3311 -3.7279 -0.5062
 5005SOL    HW226475   1.992   2.579   8.682  0.1919 -0.4162  1.8652
 5006SOL     OW26476   3.660   1.231  12.342  0.4191  0.4307 -0.0020
 5006SOL    HW126477   3.753   1.219  12.321  0.7373 -0.5043  1.8968
 5006SOL    HW226478   3.627   1.143  12.360  0.3696  0.6836  1.1898
 5007SOL     OW26479   1.147   1.611   6.098  0.2281 -0.0354  0.3491
 5007SOL    HW126480   1.232   1.576   6.071  1.2215  1.2556  1.8097
 5007SOL    HW226481   1.170   1.654   6.180 -0.2158  0.1098  0.3964
 5008SOL     OW26482   2.013   1.760   7.545  0.3367 -0.2098  0.1983
 5008SOL    HW126483   1.923   1.787   7.562  0.6208  1.1666 -0.4558
 5008SOL    HW226484   2.041   1.733   7.633 -3.4350  0.5859  1.6572
 5009SOL     OW26485   2.387   4.404   3.938  0.1893 -0.3816 -0.1555
 5009SOL    HW126486   2.454   4.337   3.924  0.3732  0.1013 -1.4857
 5009SOL    HW226487   2.440   4.480   3.915 -2.2506  1.7042  1.1220
 5010SOL     OW26488   2.160   1.373   6.413 -0.1377 -0.2287 -0.4571
 5010SOL    HW126489   2.170   1.466   6.396  0.3392  0.1166  1.6581
 5010SOL    HW226490   2.109   1.351   6.335 -1.1220 -1.8909  0.6363
 5011SOL     OW26491   0.207   0.555   3.470 -0.0137 -0.0363  0.0754
 5011SOL    HW126492   0.248   0.489   3.414  2.1923  0.2169  1.3773
 5011SOL    HW226493   0.224   0.521   3.558  2.7021  0.9149 -0.0786
 5012SOL     OW26494   2.684   1.068  12.559 -0.3115  0.5220 -0.0740
 5012SOL    HW126495   2.704   0.986  12.514  0.1379 -0.5074  2.0225
 5012SOL    HW226496   2.612   1.094  12.500 -1.0248  0.6471  0.8557
 5013SOL     OW26497   3.001   0.427  17.022 -0.2594 -0.1253 -0.4869
 5013SOL    HW126498   3.007   0.501  16.961  1.2141 -0.3137 -0.5593
 5013SOL    HW226499   3.067   0.372  16.980 -0.4991 -0.8576  0.1044
 5014SOL     OW26500   2.634   0.683   8.166 -0.2834 -0.0047  0.3209
 5014SOL    HW126501   2.689   0.729   8.229  0.0668 -1.4112  1.0442
 5014SOL    HW226502   2.604   0.748   8.102 -1.4591 -1.2416 -0.3967
 5015SOL     OW26503   0.056   1.687  14.449  0.7201 -0.4258 -0.1242
 5015SOL    HW126504   0.028   1.754  14.387  1.3502  0.7687  0.8774
 5015SOL    HW226505   4.705   1.630  14.457  1.2966 -1.1477  0.1730
 5016SOL     OW26506   1.519   3.316  10.885  0.0478 -0.3335 -0.2381
 5016SOL    HW126507   1.592   3.363  10.925 -1.1999  1.7372 -0.4313
 5016SOL    HW226508   1.538   3.334  10.793 -0.4292 -1.3072 -0.5215
 5017SOL     OW26509   1.036   3.061   3.332  0.3723 -0.0556 -0.0352
 5017SOL    HW126510   1.043   3.100   3.245 -2.1950  0.4311 -0.0221
 5017SOL    HW226511   0.942   3.078   3.343  0.3299  0.1350 -0.6679
 5018SOL     OW26512   2.518   0.748  10.794  0.2633  0.1227 -0.0735
 5018SOL    HW126513   2.463   0.819  10.828 -0.9132  0.4921 -2.7767
 5018SOL    HW226514   2.515   0.685  10.867  1.6834  1.0630  0.8012
 5019SOL     OW26515   2.056   2.243   6.218 -0.4905 -0.7969  0.1910
 5019SOL    HW126516   2.085   2.278   6.302  0.8246 -1.4762  0.0345
 5019SOL    HW226517   1.988   2.178   6.234 -0.9262 -0.2868  0.3931
 5020SOL     OW26518   1.373   1.700  16.866 -0.8583 -0.0054 -0.4086
 5020SOL    HW126519   1.441   1.636  16.848 -0.8976 -0.2794  0.4191
 5020SOL    HW226520   1.416   1.767  16.812 -0.0986  0.2037  0.4673
 5021SOL     OW26521   1.396   2.183  13.035  0.0852  0.0992 -0.5714
 5021SOL    HW126522   1.312   2.208  12.997 -0.9732  0.5424  2.1037
 5021SOL    HW226523   1.381   2.213  13.124  2.1157 -0.3592 -0.0681
 5022SOL     OW26524   3.191   3.591   1.716  0.2235  0.3422  0.2599
 5022SOL    HW126525   3.124   3.657   1.701  1.3885  1.6739  0.8984
 5022SOL    HW226526   3.147   3.537   1.782  0.8668 -1.0691 -0.4611
 5023SOL     OW26527   0.528   2.227   4.473 -0.1482  0.2901 -0.0377
 5023SOL    HW126528   0.528   2.219   4.569 -1.5913  0.7975  0.0077
 5023SOL    HW226529   0.542   2.321   4.460  0.4581  0.6205  2.9743
 5024SOL     OW26530   2.586   1.791  11.495 -0.5508 -0.3403 -0.9929
 5024SOL    HW126531   2.671   1.833  11.481  0.1188 -1.4918 -0.3942
 5024SOL    HW226532   2.554   1.772  11.407 -0.6942  0.9104 -1.2118
 5025SOL     OW26533   1.785   3.773  12.274  0.4230  0.2345  0.2621
 5025SOL    HW126534   1.797   3.678  12.285 -0.7485 -0.1075 -1.4213
 5025SOL    HW226535   1.782   3.784  12.179  1.7663 -0.3506  0.1515
 5026SOL     OW26536   3.158   1.853   7.660  0.1772  0.3115 -0.1932
 5026SOL    HW126537   3.193   1.941   7.675  0.8011 -0.3497  2.2065
 5026SOL    HW226538   3.160   1.802   7.741  0.0860 -0.0333 -0.4067
 5027SOL     OW26539   0.943   3.865   5.326  0.4769  0.5923  0.5051
 5027SOL    HW126540   0.932   3.815   5.245 -2.1712  0.8334  0.7232
 5027SOL    HW226541   0.849   3.862   5.344  0.4947 -0.4613  0.4028
 5028SOL     OW26542   3.383   0.921  17.515 -0.1362 -0.4795 -0.0999
 5028SOL    HW126543   3.473   0.951  17.499 -0.4638  1.0479  0.9186
 5028SOL    HW226544   3.358   0.877  17.434 -1.2036  0.7574 -0.4459
 5029SOL     OW26545   4.618   2.017   1.973 -0.1142  1.1785 -0.3631
 5029SOL    HW126546   4.615   2.044   2.064  1.9355 -0.6716  0.2384
 5029SOL    HW226547   4.625   2.103   1.931  0.7527  1.1253 -0.3139
 5030SOL     OW26548   0.904   4.522   6.208  0.3955  0.0250  0.1130
 5030SOL    HW126549   0.894   4.468   6.286  1.2932  0.2749  0.4054
 5030SOL    HW226550   0.975   4.486   6.154 -0.8103 -2.1138 -0.0708
 5031SOL     OW26551   3.571   1.303   4.523  0.2568 -0.1294 -0.3941
 5031SOL    HW126552   3.648   1.359   4.521  0.7815 -0.8244  0.7862
 5031SOL    HW226553   3.505   1.348   4.470 -0.3289 -2.7559 -1.8944
 5032SOL     OW26554   4.204   2.959  16.433 -0.5793 -0.0215 -0.2146
 5032SOL    HW126555   4.281   2.973  16.377 -3.0152 -1.6363 -3.9429
 5032SOL    HW226556   4.147   2.904  16.379 -0.2870 -0.0411 -0.5047
 5033SOL     OW26557   0.778   3.676  14.587  0.3014  0.5308 -0.0885
 5033SOL    HW126558   0.753   3.767  14.571  2.4549  0.9063 -1.3018
 5033SOL    HW226559   0.832   3.687  14.665  1.7628 -0.5356 -0.9625
 5034SOL     OW26560   0.352   4.079   8.367  0.1428  0.3541  0.3229
 5034SOL    HW126561   0.392   4.023   8.435  1.4132  1.2019  0.2726
 5034SOL    HW226562   0.411   4.066   8.293  0.8391  2.2662  0.5403
 5035SOL     OW26563   0.673   1.615   5.623  0.5106  0.0114 -0.1063
 5035SOL    HW126564   0.699   1.538   5.673  2.4205  0.8064  0.1282
 5035SOL    HW226565   0.760   1.656   5.620  1.8349 -2.9298 -1.9408
 5036SOL     OW26566   0.926   1.509   0.398  0.5979 -0.0720  0.4513
 5036SOL    HW126567   0.942   1.577   0.332  2.0687  0.2291  1.1291
 5036SOL    HW226568   0.982   1.444   0.356  1.2968  1.5601 -1.1317
 5037SOL     OW26569   2.386   0.622  13.300 -0.2806 -0.2908 -0.2867
 5037SOL    HW126570   2.325   0.552  13.324 -0.4938 -0.6353 -1.8311
 5037SOL    HW226571   2.329   0.678  13.246 -2.3117 -2.4379 -0.3655
 5038SOL     OW26572   3.170   1.642   4.904 -0.7760 -0.0511  0.6550
 5038SOL    HW126573   3.157   1.728   4.863  0.0626  0.2952  1.1256
 5038SOL    HW226574   3.095   1.592   4.871 -1.1346 -0.0518  1.4859
 5039SOL     OW26575   3.380   2.591   1.677 -0.1418 -0.2810  0.1625
 5039SOL    HW126576   3.473   2.596   1.654 -0.0159  0.9722  1.0241
 5039SOL    HW226577   3.343   2.658   1.620  1.3858 -0.9804 -1.6575
 5040SOL     OW26578   2.248   2.086   9.896 -0.4533  0.2599  0.0242
 5040SOL    HW126579   2.271   2.000   9.861  0.0097  0.7803 -0.9525
 5040SOL    HW226580   2.312   2.086   9.966  0.1780 -1.0134 -0.5531
 5041SOL     OW26581   3.480   3.352   8.202  1.0006  0.2178 -0.0366
 5041SOL    HW126582   3.554   3.392   8.156 -0.6027  0.4235 -2.4412
 5041SOL    HW226583   3.431   3.432   8.220 -0.9520 -0.8424 -0.6619
 5042SOL     OW26584   3.282   0.300  11.535 -0.4262  0.4695 -0.1090
 5042SOL    HW126585   3.257   0.222  11.485  0.8355  0.7125 -1.1156
 5042SOL    HW226586   3.312   0.257  11.615  2.4580  0.0050 -1.4272
 5043SOL     OW26587   3.844   1.374   3.989 -0.0231  0.1790 -0.2406
 5043SOL    HW126588   3.890   1.399   3.908  0.9405 -2.2535 -0.4354
 5043SOL    HW226589   3.890   1.425   4.056 -1.6401 -0.4663  1.3497
 5044SOL     OW26590   1.056   2.943   7.271 -0.6409 -0.2008  0.3903
 5044SOL    HW126591   1.128   2.981   7.221 -0.5619  0.6991  1.1970
 5044SOL    HW226592   1.103   2.869   7.309 -1.1200  0.3408  2.0133
 5045SOL     OW26593   3.270   2.659   2.158 -0.2405 -0.1366  0.5305
 5045SOL    HW126594   3.262   2.737   2.103  3.8584  1.2536  1.9579
 5045SOL    HW226595   3.293   2.597   2.088 -2.9501 -1.3875  0.7214
 5046SOL     OW26596   4.497   1.281   2.142  0.5907  0.1200 -0.3454
 5046SOL    HW126597   4.564   1.272   2.074  0.0212  0.9044 -1.0155
 5046SOL    HW226598   4.527   1.351   2.200  0.9689  1.3998 -2.0824
 5047SOL     OW26599   1.835   2.287  11.975 -0.0351  0.5935 -0.1578
 5047SOL    HW126600   1.835   2.371  11.930 -3.5742  1.4601  1.4995
 5047SOL    HW226601   1.839   2.327  12.061  1.3177 -1.8564  0.9127
 5048SOL     OW26602   1.306   1.485  13.079 -0.1164 -0.1835 -0.4537
 5048SOL    HW126603   1.303   1.575  13.046  0.9455  0.0701  0.1619
 5048SOL    HW226604   1.351   1.446  13.004  0.7981  0.5409 -0.2714
 5049SOL     OW26605   0.700   1.224  10.751  0.0977 -0.2654  0.1961
 5049SOL    HW126606   0.640   1.274  10.696 -1.4415 -0.9345  1.2707
 5049SOL    HW226607   0.660   1.248  10.834 -1.9908  0.4145 -1.0065
 5050SOL     OW26608   3.130   3.098   6.238  0.1190 -0.1427  0.2326
 5050SOL    HW126609   3.049   3.148   6.229 -0.6893 -1.5644 -0.5630
 5050SOL    HW226610   3.144   3.113   6.332 -0.7173 -0.4728  0.4096
 5051SOL     OW26611   0.336   4.372   2.566  0.4361  0.1120  0.3754
 5051SOL    HW126612   0.397   4.356   2.494 -0.2945 -1.6112  0.1331
 5051SOL    HW226613   0.283   4.440   2.524  0.0153 -0.2354  0.3514
 5052SOL     OW26614   3.669   1.271   1.329  0.0790  0.2320  0.1873
 5052SOL    HW126615   3.644   1.303   1.415 -1.3440  1.1360 -0.5653
 5052SOL    HW226616   3.630   1.339   1.275  0.0582  0.6295  0.7123
 5053SOL     OW26617   1.066   4.058  15.983 -0.4645  1.0849  0.7485
 5053SOL    HW126618   1.021   4.088  15.903  1.4883  0.1846 -0.6831
 5053SOL    HW226619   1.154   4.047  15.946 -0.6701 -0.8270  0.8203
 5054SOL     OW26620   3.673   1.467  11.227 -0.3285  0.3996 -0.2699
 5054SOL    HW126621   3.676   1.383  11.273 -0.7293  1.3916  1.5610
 5054SOL    HW226622   3.587   1.492  11.261  0.1454  1.7291 -0.0611
 5055SOL     OW26623   0.943   3.401   3.355 -0.2948 -0.1710  0.3047
 5055SOL    HW126624   0.869   3.410   3.295 -0.6559 -0.5703  0.6898
 5055SOL    HW226625   1.008   3.445   3.300 -1.8166  3.3174  1.2446
 5056SOL     OW26626   1.843   2.243   2.171 -0.1726  0.0959 -0.5114
 5056SOL    HW126627   1.786   2.176   2.134  0.8450  0.2353 -2.3072
 5056SOL    HW226628   1.776   2.306   2.198  0.4648  0.4163  0.3328
 5057SOL     OW26629   4.239   1.802   5.708  0.6712  0.3911 -0.3052
 5057SOL    HW126630   4.252   1.890   5.673 -0.6043  0.8944  0.4647
 5057SOL    HW226631   4.294   1.760   5.642  2.6873  2.5882 -0.0031
 5058SOL     OW26632   3.353   4.523   5.969  0.2403 -0.8054  0.1318
 5058SOL    HW126633   3.280   4.522   6.031  0.5889 -1.9415  0.5316
 5058SOL    HW226634   3.305   4.483   5.896 -0.4808  1.2233 -0.5237
 5059SOL     OW26635   1.049   1.327   3.587 -0.2534 -0.4038 -0.2172
 5059SOL    HW126636   0.979   1.264   3.571  1.6873 -3.2624  2.5885
 5059SOL    HW226637   1.104   1.334   3.509 -1.0202 -1.3505 -0.8314
 5060SOL     OW26638   3.536   1.239   9.889 -0.7253 -0.0604  0.0104
 5060SOL    HW126639   3.516   1.186   9.966 -2.8781 -0.3442 -0.7469
 5060SOL    HW226640   3.462   1.226   9.830  0.3071 -0.3262 -1.2426
 5061SOL     OW26641   2.667   3.506  11.623 -0.1465 -0.3235  0.0609
 5061SOL    HW126642   2.662   3.593  11.660  2.0140 -0.2055  0.0691
 5061SOL    HW226643   2.693   3.519  11.531 -0.8557 -0.6158 -0.1843
 5062SOL     OW26644   0.311   3.519   6.729  0.3371  0.3459 -0.3837
 5062SOL    HW126645   0.352   3.570   6.799 -0.4823  1.8282 -0.9749
 5062SOL    HW226646   0.258   3.585   6.684  1.3802  0.5145 -1.3869
 5063SOL     OW26647   0.671   1.832   6.887 -0.0203 -0.0187 -0.2819
 5063SOL    HW126648   0.691   1.794   6.972 -0.3356  0.3822 -0.0316
 5063SOL    HW226649   0.677   1.926   6.903 -2.0987 -0.2548  1.7809
 5064SOL     OW26650   1.408   1.564   3.706 -0.2345 -0.7761 -0.2310
 5064SOL    HW126651   1.442   1.531   3.623  2.4098 -1.9164  1.2871
 5064SOL    HW226652   1.366   1.486   3.744 -0.3225  0.0499  1.3976
 5065SOL     OW26653   2.068   1.274   5.240 -0.0052 -0.2242  0.3723
 5065SOL    HW126654   2.040   1.261   5.331 -0.5944  0.3432  0.2722
 5065SOL    HW226655   1.990   1.229   5.206 -1.4424  1.3290  1.6212
 5066SOL     OW26656   0.325   2.525   2.050 -0.6978  0.3829  0.4597
 5066SOL    HW126657   0.362   2.455   2.104  0.8961  1.2227  0.4744
 5066SOL    HW226658   0.343   2.469   1.974  0.3183 -1.6735  2.2127
 5067SOL     OW26659   2.890   4.343  12.599 -0.1954 -0.1535 -0.5346
 5067SOL    HW126660   2.797   4.321  12.591 -0.6751  1.6342  0.2218
 5067SOL    HW226661   2.875   4.437  12.588 -0.9893  0.2734  4.4515
 5068SOL     OW26662   0.159   2.528  10.628  0.1972 -0.0762  0.2089
 5068SOL    HW126663   0.249   2.543  10.658  0.6028 -0.4357 -0.8290
 5068SOL    HW226664   0.159   2.433  10.637  1.7663 -0.0544  0.3652
 5069SOL     OW26665   4.058   2.285   3.989  0.4229 -0.1164 -0.1141
 5069SOL    HW126666   4.078   2.370   3.949  0.1180  0.2060  0.4173
 5069SOL    HW226667   4.058   2.230   3.911  0.4053  0.0352 -0.2211
 5070SOL     OW26668   3.970   1.186   4.659  0.0056  0.1037 -0.9177
 5070SOL    HW126669   3.886   1.206   4.618 -1.2126 -1.5245  0.7527
 5070SOL    HW226670   4.021   1.231   4.592 -1.2855 -0.1041 -2.0188
 5071SOL     OW26671   1.860   4.709  16.760  0.3845  0.5423 -0.0858
 5071SOL    HW126672   1.946   4.682  16.729 -0.2256 -0.8628 -0.5544
 5071SOL    HW226673   1.881   0.067  16.803  1.5045 -0.3257  1.0249
 5072SOL     OW26674   2.398   1.752   3.065 -0.0084  0.5534  0.7907
 5072SOL    HW126675   2.465   1.684   3.056 -1.4677 -0.5834 -1.3422
 5072SOL    HW226676   2.373   1.747   2.973  0.2457  1.5554  0.6613
 5073SOL     OW26677   1.023   2.281   9.039 -0.0277 -0.0130 -0.0109
 5073SOL    HW126678   0.999   2.311   9.127 -1.9255 -0.6927 -0.2978
 5073SOL    HW226679   1.074   2.357   9.010 -0.1430 -0.5613 -1.6047
 5074SOL     OW26680   1.306   0.788   1.444 -0.3760 -0.1248 -0.2689
 5074SOL    HW126681   1.307   0.868   1.496  2.0942 -0.8359  0.7428
 5074SOL    HW226682   1.240   0.808   1.377  1.1901  2.6417 -0.9459
 5075SOL     OW26683   0.485   0.173   7.693 -0.0083 -0.2819  0.9030
 5075SOL    HW126684   0.477   0.226   7.772 -0.0841 -0.0147  0.7146
 5075SOL    HW226685   0.399   0.178   7.652  0.4661  1.3972  0.1019
 5076SOL     OW26686   3.573   3.444  17.682  0.2978  0.2413  0.4814
 5076SOL    HW126687   3.557   3.384   0.054 -0.9472  2.1227  1.7276
 5076SOL    HW226688   3.657   3.417  17.644  0.1218  1.2249 -0.5907
 5077SOL     OW26689   0.100   2.000   4.612  0.3081  0.1165 -0.1557
 5077SOL    HW126690   0.119   2.074   4.670  1.5079  0.5682 -1.1302
 5077SOL    HW226691   0.096   1.940   4.687  0.5913 -1.2534 -1.2393
 5078SOL     OW26692   1.702   3.167   3.064 -0.5524 -0.1547 -0.1866
 5078SOL    HW126693   1.779   3.120   3.096 -0.2261  0.1544 -0.5238
 5078SOL    HW226694   1.645   3.092   3.044 -1.6404  0.7158 -0.4076
 5079SOL     OW26695   3.051   3.331   2.578  0.0534 -0.2827  0.0469
 5079SOL    HW126696   2.977   3.271   2.576  0.0701 -0.3797  1.8502
 5079SOL    HW226697   3.123   3.272   2.558  1.9716  1.6665  1.1135
 5080SOL     OW26698   3.791   3.795   4.322 -0.1970  0.0134  0.5130
 5080SOL    HW126699   3.740   3.747   4.256 -1.3154  1.3649  0.3731
 5080SOL    HW226700   3.875   3.765   4.289 -0.0640  2.5529 -1.5286
 5081SOL     OW26701   3.910   4.090   7.556 -0.2377 -0.1265  0.4347
 5081SOL    HW126702   3.905   4.105   7.650 -3.5061 -0.7972  0.3776
 5081SOL    HW226703   3.982   4.028   7.545  0.1327  0.4190 -0.2519
 5082SOL     OW26704   2.022   4.041  14.588  0.3875 -0.0309 -1.2879
 5082SOL    HW126705   2.051   4.096  14.661  0.1460  0.1456 -1.3244
 5082SOL    HW226706   2.019   3.956  14.632  1.0208  0.9624  0.6700
 5083SOL     OW26707   3.105   1.412   7.813  0.1771  0.2992  0.2761
 5083SOL    HW126708   3.098   1.486   7.873  4.1844  1.0033 -0.1201
 5083SOL    HW226709   3.142   1.452   7.734  2.1122 -2.8259 -0.3899
 5084SOL     OW26710   3.580   4.366   3.392  0.2905  0.0141 -0.0449
 5084SOL    HW126711   3.540   4.287   3.356 -2.4145  1.2863  0.1802
 5084SOL    HW226712   3.506   4.426   3.387 -0.3833 -0.6371  2.1780
 5085SOL     OW26713   1.345   4.364   9.337  0.2183  0.4775 -0.7683
 5085SOL    HW126714   1.437   4.368   9.361  0.4859 -1.0069 -1.5575
 5085SOL    HW226715   1.305   4.435   9.386  0.6090 -0.6963  1.2480
 5086SOL     OW26716   0.744   3.698   2.899  0.3425 -0.4540  0.2739
 5086SOL    HW126717   0.775   3.698   2.808  1.4492  0.2717  0.6414
 5086SOL    HW226718   0.649   3.705   2.891  0.3614 -0.4880  0.0201
 5087SOL     OW26719   4.679   0.937   7.447  0.4974 -0.2832 -0.1233
 5087SOL    HW126720   4.596   0.964   7.407  0.8314  1.4041  0.3209
 5087SOL    HW226721   4.687   1.023   7.489  1.3611  0.0111 -0.8976
 5088SOL     OW26722   3.654   1.396   6.984  0.2421  0.1968 -0.8574
 5088SOL    HW126723   3.612   1.475   7.019 -0.0128  0.5385 -1.9140
 5088SOL    HW226724   3.697   1.375   7.066 -1.1512 -0.1089 -0.2068
 5089SOL     OW26725   0.137   1.863   4.845  0.5874 -0.6976  0.1267
 5089SOL    HW126726   0.224   1.861   4.884  0.5766  0.5797  0.1968
 5089SOL    HW226727   0.126   1.768   4.834 -0.9562 -0.5047  0.0633
 5090SOL     OW26728   3.092   4.069   4.723 -0.1648 -0.1677 -0.3741
 5090SOL    HW126729   3.127   4.104   4.640  3.6749  0.8443  1.7097
 5090SOL    HW226730   3.077   3.982   4.686 -0.6910  1.2869 -3.6868
 5091SOL     OW26731   1.369   4.141   5.497 -0.1936 -0.3124 -0.1967
 5091SOL    HW126732   1.443   4.094   5.536 -1.0458 -0.8145  0.8282
 5091SOL    HW226733   1.319   4.172   5.573 -1.0946 -0.3025 -0.8068
 5092SOL     OW26734   4.138   1.560   9.184  0.3944  0.2150 -0.8560
 5092SOL    HW126735   4.124   1.654   9.169 -1.8312  0.5005  3.0766
 5092SOL    HW226736   4.134   1.538   9.091  0.7234 -1.0778 -0.5635
 5093SOL     OW26737   1.026   1.798   6.517 -0.3036  0.0259 -0.2221
 5093SOL    HW126738   1.004   1.865   6.452  0.6750 -1.6705 -2.2987
 5093SOL    HW226739   0.951   1.739   6.503 -1.3071  1.3554 -0.4494
 5094SOL     OW26740   2.621   2.701   6.220  0.0959 -0.0991 -0.0273
 5094SOL    HW126741   2.571   2.629   6.182  0.1536  0.0708 -0.4273
 5094SOL    HW226742   2.687   2.712   6.152  2.5664  0.3805  2.4551
 5095SOL     OW26743   1.613   1.637  12.260  0.2301 -0.1715  0.0732
 5095SOL    HW126744   1.699   1.633  12.219  1.0759 -3.8594  2.2587
 5095SOL    HW226745   1.634   1.642  12.353  1.0671 -0.9115 -0.0715
 5096SOL     OW26746   4.011   1.329   6.529  0.4031 -0.1821  0.1361
 5096SOL    HW126747   3.949   1.331   6.602 -1.2743 -1.8700 -1.2451
 5096SOL    HW226748   3.988   1.415   6.493  1.5474 -0.7537 -1.9382
 5097SOL     OW26749   4.113   4.613  17.452  0.4762 -0.1768  0.3578
 5097SOL    HW126750   4.188   4.673  17.448 -1.4848  2.1039 -2.2417
 5097SOL    HW226751   4.040   4.669  17.478 -0.9270 -1.4174 -0.9482
 5098SOL     OW26752   1.198   4.135   9.414  0.4138  0.2943 -0.4322
 5098SOL    HW126753   1.255   4.064   9.387  1.3367  1.5062 -1.6147
 5098SOL    HW226754   1.243   4.218   9.400  0.7392  0.3027  0.6304
 5099SOL     OW26755   4.180   4.149  16.996  0.5859 -0.1624  0.0145
 5099SOL    HW126756   4.243   4.137  16.925  1.1129 -2.8388  0.9305
 5099SOL    HW226757   4.121   4.220  16.968  0.9265 -0.0934 -0.5313
 5100SOL     OW26758   3.701   1.174   2.394  0.1350  0.5477  0.1705
 5100SOL    HW126759   3.685   1.173   2.300 -0.1513  0.2364  0.2231
 5100SOL    HW226760   3.797   1.175   2.399  0.1947  0.8974 -0.9228
 5101SOL     OW26761   3.724   4.466  14.772 -0.1082  0.2221 -0.2596
 5101SOL    HW126762   3.714   4.371  14.777 -1.2819  0.3661 -0.0827
 5101SOL    HW226763   3.785   4.476  14.698  0.1824  1.7759  0.1914
 5102SOL     OW26764   4.417   2.040   3.717  0.8317  0.0198  0.0501
 5102SOL    HW126765   4.448   2.120   3.675  1.6171 -0.5080 -0.3964
 5102SOL    HW226766   4.369   2.001   3.644  1.5420  2.1138 -1.5253
 5103SOL     OW26767   2.452   3.884   8.359 -0.0233 -0.2511 -0.4587
 5103SOL    HW126768   2.380   3.931   8.401  0.1366  0.2215 -0.7112
 5103SOL    HW226769   2.482   3.948   8.294  0.3322  1.1995  1.1643
 5104SOL     OW26770   0.271   4.436   2.036 -0.7092 -0.1680 -0.5845
 5104SOL    HW126771   0.277   4.457   2.129 -4.0052 -1.0985 -0.1405
 5104SOL    HW226772   0.361   4.448   2.007 -0.1803 -0.6781  0.8732
 5105SOL     OW26773   4.705   3.304   8.615 -0.0734 -0.4009  0.0023
 5105SOL    HW126774   4.640   3.350   8.669  0.1462  0.4872 -0.4775
 5105SOL    HW226775   0.058   3.323   8.667 -0.1208  0.0978 -0.1033
 5106SOL     OW26776   0.337   4.695   0.377  0.1057 -0.0108  0.5250
 5106SOL    HW126777   0.266   0.026   0.406 -0.5759 -0.5115 -0.1603
 5106SOL    HW226778   0.325   4.695   0.282 -1.6051  0.1145  0.7447
 5107SOL     OW26779   0.841   2.036   5.876 -0.1478  0.3932  0.2656
 5107SOL    HW126780   0.913   2.089   5.842 -0.4167  0.2133 -0.5830
 5107SOL    HW226781   0.884   1.963   5.920  1.0924  0.0786 -1.4564
 5108SOL     OW26782   3.030   0.954   2.630  0.5677  0.5397 -0.1575
 5108SOL    HW126783   2.955   0.991   2.583  1.4152  2.2444 -0.1964
 5108SOL    HW226784   3.046   1.033   2.683  1.2122  0.8131 -0.7585
 5109SOL     OW26785   1.147   2.476  11.149 -0.0007  0.1136  0.3592
 5109SOL    HW126786   1.132   2.547  11.086 -2.3788 -1.2761 -0.6480
 5109SOL    HW226787   1.219   2.429  11.106 -0.0138  1.5164 -1.2297
 5110SOL     OW26788   1.569   0.235   7.466  0.2604  0.1112  0.2032
 5110SOL    HW126789   1.486   0.277   7.441  0.7419  0.5652 -0.6593
 5110SOL    HW226790   1.544   0.194   7.549 -1.3452  1.2341  0.2822
 5111SOL     OW26791   2.255   3.982   3.665  0.8470  0.6191  0.4460
 5111SOL    HW126792   2.233   4.067   3.703  1.0630  1.8830 -2.2146
 5111SOL    HW226793   2.171   3.964   3.623  0.8569 -0.3919  0.8690
 5112SOL     OW26794   1.739   3.609   8.549 -0.0406  0.1520 -0.6153
 5112SOL    HW126795   1.664   3.550   8.557  2.2674 -2.5524  1.4056
 5112SOL    HW226796   1.696   3.695   8.552 -0.2281  0.0822 -1.5929
 5113SOL     OW26797   1.033   1.063   4.365 -0.0471 -0.0973 -0.0591
 5113SOL    HW126798   0.972   0.992   4.385  0.2130 -0.2443  0.2056
 5113SOL    HW226799   1.072   1.034   4.283  0.9787  0.1569  0.3306
 5114SOL     OW26800   3.363   0.127   5.990 -0.1245 -0.3674  0.2253
 5114SOL    HW126801   3.457   0.130   6.008 -0.2800  1.3417  0.7630
 5114SOL    HW226802   3.361   0.045   5.940  2.8748 -1.3083  1.6451
 5115SOL     OW26803   0.005   1.662   7.588  0.5762  0.2673  0.4173
 5115SOL    HW126804   0.093   1.637   7.618  0.5513 -0.9670 -0.5543
 5115SOL    HW226805   4.675   1.639   7.663 -1.2021  1.5742 -0.4967
 5116SOL     OW26806   2.957   3.484   8.124  0.7182 -0.3778  0.0479
 5116SOL    HW126807   2.969   3.414   8.060 -0.7849  0.9774 -1.7314
 5116SOL    HW226808   2.904   3.442   8.191  0.7684 -0.0817  0.2747
 5117SOL     OW26809   3.381   4.546   1.901 -0.1166 -0.1315  0.1544
 5117SOL    HW126810   3.289   4.570   1.893 -0.0721  0.5233  1.7505
 5117SOL    HW226811   3.408   4.596   1.978  0.8791 -1.4317  0.6424
 5118SOL     OW26812   2.374   2.119   9.104 -0.5555  0.2955  0.7339
 5118SOL    HW126813   2.317   2.169   9.162 -1.3048  1.7540 -1.2625
 5118SOL    HW226814   2.432   2.189   9.073  1.9618 -2.1733 -0.1101
 5119SOL     OW26815   0.490   3.536  17.172  0.5121 -0.2451 -0.0423
 5119SOL    HW126816   0.440   3.525  17.253 -1.5717 -0.1486 -1.3200
 5119SOL    HW226817   0.555   3.604  17.190  0.8036 -0.7072  0.6498
 5120SOL     OW26818   2.353   1.171   1.917  0.1571 -0.3618  0.4041
 5120SOL    HW126819   2.418   1.231   1.880  0.7449 -1.6381 -0.6202
 5120SOL    HW226820   2.361   1.189   2.011  2.1573  0.5738  0.0511
 5121SOL     OW26821   3.497   2.646   6.989 -0.2162  0.0131 -0.0705
 5121SOL    HW126822   3.517   2.658   6.896 -1.8661 -1.6057 -0.6466
 5121SOL    HW226823   3.516   2.734   7.023  1.4343 -1.0136  1.7168
 5122SOL     OW26824   0.140   2.005   6.081 -0.0614 -0.2816 -0.4089
 5122SOL    HW126825   0.065   2.034   6.027 -1.3534  0.6847  1.9131
 5122SOL    HW226826   0.196   1.969   6.012  1.1366 -0.0288  0.4311
 5123SOL     OW26827   1.260   2.523   7.478  0.5950  0.1829 -0.9951
 5123SOL    HW126828   1.207   2.445   7.498  0.7572  0.1767 -0.5767
 5123SOL    HW226829   1.328   2.493   7.418  1.6451 -0.4381  0.4959
 5124SOL     OW26830   4.664   2.876   1.195 -0.0909 -0.0506 -0.2022
 5124SOL    HW126831   0.005   2.887   1.263 -1.3052  1.8322  0.6585
 5124SOL    HW226832   4.588   2.914   1.239 -1.4625 -0.9521 -1.7495
 5125SOL     OW26833   2.806   0.143  11.226 -0.3101 -0.3486 -0.0375
 5125SOL    HW126834   2.864   0.219  11.224 -1.4953  0.5932  1.1324
 5125SOL    HW226835   2.724   0.188  11.208 -0.8102 -0.1135  2.7626
 5126SOL     OW26836   4.676   0.493   5.611  0.4251  0.6273 -0.1497
 5126SOL    HW126837   4.592   0.460   5.579  0.7983  0.8686 -1.3626
 5126SOL    HW226838   4.663   0.499   5.706 -3.5338 -0.7836 -0.6223
 5127SOL     OW26839   2.099   0.139   6.681 -0.4123  0.4072  0.1893
 5127SOL    HW126840   2.104   0.077   6.754  1.2476 -0.3109 -0.5331
 5127SOL    HW226841   2.010   0.173   6.689  0.5130  2.5611  1.2101
 5128SOL     OW26842   0.598   0.235   1.389 -0.5864 -0.3751 -0.2366
 5128SOL    HW126843   0.602   0.329   1.405 -0.8954 -0.2639 -0.8052
 5128SOL    HW226844   0.573   0.227   1.297  1.8965 -0.2953 -0.9158
 5129SOL     OW26845   3.747   4.520   8.359 -0.2442 -0.2704 -0.3618
 5129SOL    HW126846   3.830   4.518   8.405 -0.5522 -0.9602  0.1699
 5129SOL    HW226847   3.756   4.610   8.328  0.4376 -0.0135  0.5771
 5130SOL     OW26848   0.228   0.105   7.902 -0.0875 -0.2285  0.0540
 5130SOL    HW126849   0.221   0.028   7.846  0.4957  0.9156 -1.6015
 5130SOL    HW226850   0.156   0.155   7.865  0.0215  0.1462  0.3589
 5131SOL     OW26851   4.281   0.765   0.549 -0.2689 -0.2138  0.0441
 5131SOL    HW126852   4.215   0.782   0.482 -1.2797 -1.1200  0.8075
 5131SOL    HW226853   4.233   0.699   0.600  0.3082  0.3527  1.3374
 5132SOL     OW26854   1.614   1.280  11.019  0.3701  0.2074 -0.0685
 5132SOL    HW126855   1.702   1.282  10.982  0.9698 -0.2351  1.3219
 5132SOL    HW226856   1.588   1.189  11.030 -0.2507  0.4106  0.1274
 5133SOL     OW26857   3.307   0.066   5.247 -0.3969 -0.1389 -0.5062
 5133SOL    HW126858   3.379   0.006   5.231 -0.0675 -0.3232  1.7124
 5133SOL    HW226859   3.250   0.070   5.170  0.5951  3.2113 -1.0743
 5134SOL     OW26860   2.729   3.075   2.848  0.9704  0.0775  0.1988
 5134SOL    HW126861   2.753   2.982   2.856  1.7289  0.1098 -1.6296
 5134SOL    HW226862   2.784   3.112   2.917  1.2770 -0.4223  0.2218
 5135SOL     OW26863   3.636   3.181  13.391  0.2178  0.3937 -0.8709
 5135SOL    HW126864   3.679   3.118  13.334  1.1418  0.8388 -0.6605
 5135SOL    HW226865   3.565   3.188  13.328 -1.0577  2.3576  0.7867
 5136SOL     OW26866   4.641   3.803  12.090 -0.1335 -0.0930  0.0241
 5136SOL    HW126867   4.577   3.762  12.148  1.3415 -1.2888  0.8159
 5136SOL    HW226868   4.712   3.744  12.114 -0.8627 -0.3409  1.5428
 5137SOL     OW26869   0.662   1.454   6.049 -0.3901 -0.3626  0.1438
 5137SOL    HW126870   0.757   1.438   6.051  0.2542  3.8908  1.9825
 5137SOL    HW226871   0.655   1.543   6.016 -2.1168  0.2229  2.1242
 5138SOL     OW26872   0.814   3.295   5.560  0.2733  0.6886 -0.2382
 5138SOL    HW126873   0.758   3.302   5.637 -1.2327  0.8150 -1.3470
 5138SOL    HW226874   0.894   3.330   5.598  1.2644 -1.4748 -0.2988
 5139SOL     OW26875   0.190   3.009   1.748 -0.1122  0.3587  0.3233
 5139SOL    HW126876   0.228   2.996   1.835  0.6116 -0.3967 -0.1117
 5139SOL    HW226877   0.124   3.078   1.753 -0.8079 -0.4321  2.2497
 5140SOL     OW26878   1.164   1.925   9.383  0.5408  0.1404 -0.0496
 5140SOL    HW126879   1.247   1.939   9.336  0.3220 -0.4152 -0.6079
 5140SOL    HW226880   1.156   1.829   9.382 -1.3746  0.3112 -0.1461
 5141SOL     OW26881   0.989   1.278  10.741 -0.0035  0.4375  0.2177
 5141SOL    HW126882   0.894   1.270  10.741  0.2147 -2.0982 -1.3956
 5141SOL    HW226883   1.009   1.186  10.759 -0.6891 -0.0423 -1.5663
 5142SOL     OW26884   3.857   4.695  14.911 -0.3041  0.7870 -0.2649
 5142SOL    HW126885   3.787   0.034  14.922 -1.5814 -0.5324 -0.6686
 5142SOL    HW226886   3.810   4.617  14.879  1.1249  0.6808 -2.1160
 5143SOL     OW26887   2.227   2.183  13.534  0.2566 -0.4279 -0.4120
 5143SOL    HW126888   2.216   2.262  13.482 -2.5439 -1.4030 -1.2622
 5143SOL    HW226889   2.306   2.210  13.581  0.9515 -2.1816 -0.5433
 5144SOL     OW26890   2.476   1.914  16.512 -0.2937  0.4066  0.6140
 5144SOL    HW126891   2.512   1.826  16.521  3.1936  1.3446 -3.9919
 5144SOL    HW226892   2.545   1.964  16.468 -2.6977  0.8529 -2.6412
 5145SOL     OW26893   0.632   2.880  10.505  0.0975  0.5794  0.4436
 5145SOL    HW126894   0.572   2.920  10.568  1.8673 -0.8807  3.0915
 5145SOL    HW226895   0.576   2.846  10.436  1.7006  0.0837 -0.6287
 5146SOL     OW26896   1.593   0.506  11.895  0.2280 -0.0812 -0.2750
 5146SOL    HW126897   1.641   0.433  11.932  0.9802  1.2973  1.4443
 5146SOL    HW226898   1.574   0.559  11.972 -0.7027 -1.3766  0.3821
 5147SOL     OW26899   0.188   4.664   3.057  0.4499 -0.1953 -0.2599
 5147SOL    HW126900   0.110   4.719   3.055  0.2822 -0.3779  1.0112
 5147SOL    HW226901   0.224   4.684   3.143 -0.6617  2.1470 -0.3584
 5148SOL     OW26902   4.399   2.832   6.214  0.0371 -0.1195  0.3436
 5148SOL    HW126903   4.325   2.834   6.274 -0.2885  1.9207 -0.1079
 5148SOL    HW226904   4.357   2.871   6.138 -0.2190  0.3175  0.7093
 5149SOL     OW26905   4.208   3.039   6.599  0.2047 -0.5470 -0.2908
 5149SOL    HW126906   4.116   3.011   6.598  0.1405 -0.5012  3.4553
 5149SOL    HW226907   4.256   2.957   6.588 -0.7412 -1.1489 -0.0268
 5150SOL     OW26908   2.706   3.498   3.682 -0.0080 -0.4062  0.5988
 5150SOL    HW126909   2.789   3.518   3.638 -0.4114  0.3273  0.1800
 5150SOL    HW226910   2.697   3.404   3.663 -1.9199  0.2830 -1.8710
 5151SOL     OW26911   3.883   0.304  15.110  0.0597 -0.2349 -0.2269
 5151SOL    HW126912   3.855   0.356  15.185  1.7424 -1.6418  1.3754
 5151SOL    HW226913   3.797   0.306  15.067  0.9591 -1.9716 -2.0879
 5152SOL     OW26914   4.360   0.504  16.511 -0.1321 -0.1755 -0.3418
 5152SOL    HW126915   4.272   0.469  16.519  0.6381 -2.6774 -2.7863
 5152SOL    HW226916   4.409   0.450  16.449 -0.0983 -0.6849  0.1338
 5153SOL     OW26917   4.307   4.434   6.172 -0.0669  0.7463  0.2087
 5153SOL    HW126918   4.252   4.357   6.191 -1.0396  0.9002 -1.9286
 5153SOL    HW226919   4.237   4.499   6.165 -0.9823 -0.0821  1.5223
 5154SOL     OW26920   3.420   3.171   8.635 -0.3138  0.0927  0.4337
 5154SOL    HW126921   3.406   3.084   8.673 -2.4636  0.8548  1.3899
 5154SOL    HW226922   3.431   3.226   8.713  0.2002  0.0203  0.4097
 5155SOL     OW26923   1.518   2.458   3.998  0.4015 -0.1444 -0.4687
 5155SOL    HW126924   1.580   2.519   3.958 -1.8473  2.2044 -0.3879
 5155SOL    HW226925   1.453   2.481   3.932  0.4506  2.9034  0.5209
 5156SOL     OW26926   0.614   4.317   3.892  0.5772  0.2192 -0.4798
 5156SOL    HW126927   0.706   4.318   3.864  0.7434  0.1540  0.0626
 5156SOL    HW226928   0.574   4.372   3.825 -0.8125  1.1052  1.1033
 5157SOL     OW26929   3.596   2.945   2.080 -0.5799 -0.5255 -0.0121
 5157SOL    HW126930   3.622   2.930   2.171 -2.4248 -0.9164  0.4368
 5157SOL    HW226931   3.579   3.039   2.091  1.2641 -0.0688 -0.9851
 5158SOL     OW26932   3.493   4.156   5.223  0.4373  0.1292 -0.9511
 5158SOL    HW126933   3.440   4.232   5.200 -0.7510 -0.6147 -0.6578
 5158SOL    HW226934   3.487   4.164   5.318  0.1124 -0.1129 -0.9497
 5159SOL     OW26935   0.632   2.555   2.152  0.1685  0.1326 -0.3774
 5159SOL    HW126936   0.571   2.482   2.163  0.3112 -0.0798 -0.9771
 5159SOL    HW226937   0.590   2.620   2.208 -1.2293 -0.4047 -0.8058
 5160SOL     OW26938   4.509   3.410   4.173  0.3243 -0.3805  0.2792
 5160SOL    HW126939   4.490   3.346   4.105  0.5473 -0.2577  0.1008
 5160SOL    HW226940   4.422   3.444   4.193 -0.0784 -0.7345 -0.8970
 5161SOL     OW26941   0.671   2.911   5.826  0.7486 -0.5828  0.6692
 5161SOL    HW126942   0.746   2.971   5.823  1.0662 -0.9620  1.0781
 5161SOL    HW226943   0.677   2.853   5.749 -1.7457  1.2464 -0.8848
 5162SOL     OW26944   2.620   4.226   5.351  0.4374 -0.2345 -0.1339
 5162SOL    HW126945   2.601   4.133   5.342  1.0540 -0.0501 -3.0613
 5162SOL    HW226946   2.673   4.248   5.274 -1.9829 -1.7879 -2.2231
 5163SOL     OW26947   4.516   1.317   7.330 -0.2134  0.1504 -0.3631
 5163SOL    HW126948   4.468   1.329   7.412 -2.6921  0.4357 -1.8414
 5163SOL    HW226949   4.440   1.308   7.272 -1.6270 -1.6282  1.7539
 5164SOL     OW26950   3.978   0.213   5.008  0.1192  0.7735  0.2381
 5164SOL    HW126951   3.927   0.159   5.068  0.4076  0.8382  0.5392
 5164SOL    HW226952   4.072   0.199   5.018  0.0372  0.4168  0.5095
 5165SOL     OW26953   1.813   2.440   4.455 -0.3613 -0.7746 -0.0831
 5165SOL    HW126954   1.876   2.456   4.526 -1.5943  0.3410  0.7655
 5165SOL    HW226955   1.803   2.347   4.474  1.5414 -0.9699  0.0174
 5166SOL     OW26956   3.264   2.581   3.725 -0.1185  0.7292 -0.2344
 5166SOL    HW126957   3.322   2.533   3.666 -1.5603 -0.0702 -1.0076
 5166SOL    HW226958   3.293   2.554   3.812 -0.9299  0.6995  0.0278
 5167SOL     OW26959   3.940   2.576   9.321  0.2361 -0.0493 -0.0898
 5167SOL    HW126960   3.938   2.493   9.273 -0.8995  1.1639 -2.1673
 5167SOL    HW226961   3.852   2.612   9.311  0.3260  1.0448  3.0382
 5168SOL     OW26962   0.296   1.109   8.382  0.8732  0.1228 -0.3106
 5168SOL    HW126963   0.282   1.051   8.457  0.9562  2.1295  1.2665
 5168SOL    HW226964   0.342   1.056   8.317  1.9120 -0.0105  0.5354
 5169SOL     OW26965   2.630   2.053   6.287  0.1541 -0.1598 -0.5428
 5169SOL    HW126966   2.613   2.001   6.209 -2.5112  1.8339 -1.2775
 5169SOL    HW226967   2.705   2.005   6.323 -0.3062 -0.4824 -0.0073
 5170SOL     OW26968   2.212   1.734   4.748 -0.1823 -0.6274 -0.1416
 5170SOL    HW126969   2.299   1.768   4.728 -0.6898  1.0508  0.5346
 5170SOL    HW226970   2.227   1.654   4.798  0.2566  0.6018  1.7061
 5171SOL     OW26971   2.579   4.426  11.098  0.2381  0.2795 -0.3295
 5171SOL    HW126972   2.661   4.380  11.114  1.6681  2.9439  0.1247
 5171SOL    HW226973   2.621   4.507  11.128  1.2546 -0.4467  0.2196
 5172SOL     OW26974   0.694   1.843   4.376 -0.1472 -0.0633 -0.2820
 5172SOL    HW126975   0.770   1.862   4.322  2.2726 -2.9877  2.0676
 5172SOL    HW226976   0.676   1.749   4.370 -3.1480  0.4650  0.4033
 5173SOL     OW26977   3.436   1.550   3.059  0.6121  0.1363  0.1199
 5173SOL    HW126978   3.485   1.630   3.080  1.6989 -0.8189  1.2533
 5173SOL    HW226979   3.441   1.547   2.963 -1.8402 -2.4058  0.0873
 5174SOL     OW26980   3.509   4.502   6.365 -0.2992  0.1631 -0.3797
 5174SOL    HW126981   3.528   4.588   6.402  2.1432 -1.0870  1.2294
 5174SOL    HW226982   3.434   4.527   6.309 -0.3987  0.4134 -0.1334
 5175SOL     OW26983   2.983   2.403   2.663  0.9500 -0.2750 -0.7075
 5175SOL    HW126984   3.060   2.459   2.663  0.8440 -0.1293 -1.1354
 5175SOL    HW226985   3.010   2.345   2.591 -0.7356 -1.0638 -0.7216
 5176SOL     OW26986   3.616   0.862   6.895  0.5461 -0.0074 -0.4674
 5176SOL    HW126987   3.605   0.796   6.964 -0.5596 -0.9386 -1.5316
 5176SOL    HW226988   3.559   0.832   6.824  1.2103  3.9233 -2.5912
 5177SOL     OW26989   1.949   4.388   2.903 -0.0007 -0.1859 -0.0476
 5177SOL    HW126990   1.924   4.434   2.823  0.0382  0.7236  0.4616
 5177SOL    HW226991   2.044   4.388   2.889 -0.2928  0.6693 -2.0033
 5178SOL     OW26992   1.003   3.048   2.617  1.0218  0.2390  0.0760
 5178SOL    HW126993   1.036   3.136   2.632 -2.2288  1.6118 -0.8566
 5178SOL    HW226994   1.004   3.038   2.522  2.1479 -1.0047  0.2185
 5179SOL     OW26995   0.200   1.253   5.286  0.2301 -0.1108  0.3627
 5179SOL    HW126996   0.208   1.306   5.206 -0.5326 -0.9165 -0.2466
 5179SOL    HW226997   0.215   1.168   5.245 -0.9321  1.0750 -2.5440
 5180SOL     OW26998   4.554   3.330   7.446 -0.3992  0.1061 -0.0795
 5180SOL    HW126999   4.548   3.278   7.526 -0.3058  0.0153 -0.1313
 5180SOL    HW227000   4.464   3.317   7.416 -1.9125  2.9647  3.1625
 5181SOL     OW27001   4.311   0.845  11.809  0.2939  0.0732  0.6339
 5181SOL    HW127002   4.390   0.810  11.850  1.7109  1.1043 -1.2496
 5181SOL    HW227003   4.325   0.804  11.724 -1.4524  0.6725  0.0442
 5182SOL     OW27004   4.549   2.799   4.855 -0.0079  0.6638  0.2271
 5182SOL    HW127005   4.588   2.722   4.814  1.5311  1.9349 -0.6848
 5182SOL    HW227006   4.629   2.852   4.860 -0.2468  0.9776  0.7205
 5183SOL     OW27007   4.405   0.833   7.828  0.3757 -0.0694  0.1881
 5183SOL    HW127008   4.437   0.922   7.842 -1.0807  0.5094 -0.1557
 5183SOL    HW227009   4.353   0.826   7.908 -0.2021  1.7247 -0.0381
 5184SOL     OW27010   0.174   1.353   4.890  0.0032  0.4512  0.1921
 5184SOL    HW127011   0.161   1.399   4.973 -0.1485  1.5578 -0.4307
 5184SOL    HW227012   0.161   1.415   4.818 -0.7524 -0.9355 -0.8629
 5185SOL     OW27013   2.415   2.765   4.579  0.0658  0.2360  0.4024
 5185SOL    HW127014   2.397   2.720   4.497 -2.8444  1.6578  0.2292
 5185SOL    HW227015   2.388   2.857   4.576  1.2151  0.5246 -0.6958
 5186SOL     OW27016   1.388   3.039  16.555  0.1993  0.5255 -0.3863
 5186SOL    HW127017   1.362   3.028  16.463  2.4378 -2.5913 -0.6500
 5186SOL    HW227018   1.325   3.104  16.585 -1.6061 -1.2742 -0.2488
 5187SOL     OW27019   1.505   4.541   7.349 -0.1978 -0.0341 -0.0958
 5187SOL    HW127020   1.454   4.470   7.388  0.5675 -0.8785 -0.6279
 5187SOL    HW227021   1.572   4.560   7.414  0.5971  0.0930 -0.9473
 5188SOL     OW27022   1.341   0.087   4.967  0.0538  0.3149  0.5123
 5188SOL    HW127023   1.310   0.178   4.976  1.4774  0.8031  0.4854
 5188SOL    HW227024   1.296   0.048   5.041  2.1227  1.0792  2.1599
 5189SOL     OW27025   0.119   3.964   7.329  0.0600 -0.4310  0.4383
 5189SOL    HW127026   0.157   3.929   7.410 -1.5618 -0.2219  1.2764
 5189SOL    HW227027   0.151   4.055   7.328  0.1765 -0.4629  1.2245
 5190SOL     OW27028   1.851   4.633   2.378  0.1610 -0.3327  0.3909
 5190SOL    HW127029   1.840   4.601   2.289 -1.6720  0.5191  0.3316
 5190SOL    HW227030   1.861   4.546   2.417  1.3598 -0.4197 -0.0993
 5191SOL     OW27031   0.473   0.272   9.296 -0.0722 -0.2310  0.5327
 5191SOL    HW127032   0.386   0.264   9.336 -0.4695  0.2956 -0.2249
 5191SOL    HW227033   0.446   0.331   9.226 -1.0437  0.9157  1.8591
 5192SOL     OW27034   2.906   3.345   1.756  1.1394 -0.3421 -0.2516
 5192SOL    HW127035   2.835   3.379   1.812 -0.2082 -0.6007 -1.8110
 5192SOL    HW227036   2.909   3.410   1.686  0.8049 -0.6193 -0.5242
 5193SOL     OW27037   2.789   2.968   3.924 -0.3137  0.2399  0.3467
 5193SOL    HW127038   2.716   2.907   3.920 -0.1345  0.0343  0.2129
 5193SOL    HW227039   2.745   3.049   3.899 -0.8594 -0.8849 -2.3501
 5194SOL     OW27040   1.146   3.386   9.272  0.8063 -0.0976 -0.1359
 5194SOL    HW127041   1.100   3.469   9.262  0.6509  0.2363  3.3310
 5194SOL    HW227042   1.208   3.406   9.342 -2.0394 -0.0738  2.4273
 5195SOL     OW27043   0.765   4.467   8.847 -0.0075 -0.3458  0.4537
 5195SOL    HW127044   0.736   4.556   8.865 -2.1506 -0.4419 -2.3803
 5195SOL    HW227045   0.749   4.430   8.934 -0.7862  0.3298  0.5965
 5196SOL     OW27046   2.492   1.965   5.599 -0.2670  0.1499 -0.1621
 5196SOL    HW127047   2.561   1.978   5.534  0.0489 -0.4852  0.0408
 5196SOL    HW227048   2.432   1.915   5.543  0.4935 -0.9879  0.0238
 5197SOL     OW27049   2.676   2.222  16.898  0.3265  0.0635  0.3669
 5197SOL    HW127050   2.669   2.150  16.836 -0.5956  0.3982  0.0899
 5197SOL    HW227051   2.746   2.278  16.866 -0.3759 -0.1902 -1.5883
 5198SOL     OW27052   3.067   4.412   4.663 -0.5951 -0.3004  0.4314
 5198SOL    HW127053   2.987   4.417   4.611 -0.7243  0.7135  0.7304
 5198SOL    HW227054   3.051   4.486   4.722 -1.4797 -0.7200  0.7074
 5199SOL     OW27055   0.697   4.660  12.918 -0.1109 -0.0040 -0.2240
 5199SOL    HW127056   0.616   4.705  12.937  1.1334  1.6917  1.0184
 5199SOL    HW227057   0.754   0.009  12.899  0.8411 -0.2506  1.6469
 5200SOL     OW27058   0.115   3.712   3.109  0.2381  0.2418 -0.0236
 5200SOL    HW127059   0.135   3.708   3.202  0.7707 -0.0863 -0.1523
 5200SOL    HW227060   0.187   3.762   3.071  0.4855  0.2427  0.4506
 5201SOL     OW27061   3.282   0.684   0.241  0.1187  0.5010 -0.6260
 5201SOL    HW127062   3.374   0.656   0.235  0.7955  2.1237  2.1062
 5201SOL    HW227063   3.268   0.725   0.155 -2.3541 -2.1943 -1.4711
 5202SOL     OW27064   4.688   0.033   5.422  0.0694  0.0073 -0.3236
 5202SOL    HW127065   4.634   0.010   5.497  0.9565 -2.1587 -0.3364
 5202SOL    HW227066   0.040   0.075   5.460 -0.5515  1.2922 -0.4774
 5203SOL     OW27067   3.374   0.346   2.155  0.6118 -0.2977 -0.4158
 5203SOL    HW127068   3.334   0.428   2.128  2.7006  0.6148 -0.7460
 5203SOL    HW227069   3.302   0.290   2.185  0.2955  1.1041  1.4068
 5204SOL     OW27070   3.267   2.088  15.088  0.5499  0.3159 -0.5047
 5204SOL    HW127071   3.207   2.024  15.050 -1.4266  0.2698  2.7431
 5204SOL    HW227072   3.228   2.174  15.074 -1.0394 -0.3763 -0.2831
 5205SOL     OW27073   3.712   0.382   6.909 -0.0740  0.2147  0.1932
 5205SOL    HW127074   3.775   0.368   6.979  0.1623  2.0404  0.3362
 5205SOL    HW227075   3.757   0.457   6.869 -0.0692  0.0704 -0.0792
 5206SOL     OW27076   2.247   1.444   4.560 -0.1601 -0.0809 -0.7003
 5206SOL    HW127077   2.261   1.350   4.556  2.1578  0.2416 -0.3193
 5206SOL    HW227078   2.177   1.451   4.496  0.9284  0.2852 -1.8536
 5207SOL     OW27079   2.006   1.237   8.591 -1.0183  0.3633  0.5858
 5207SOL    HW127080   1.970   1.157   8.553 -0.3633 -0.3754  1.5466
 5207SOL    HW227081   1.993   1.224   8.685  0.1735 -2.1401  0.3987
 5208SOL     OW27082   4.243   0.363   9.750 -0.0110  0.0944  0.2892
 5208SOL    HW127083   4.215   0.438   9.803  0.1705 -0.7679  1.6046
 5208SOL    HW227084   4.312   0.327   9.805  0.8767 -1.1244 -1.6469
 5209SOL     OW27085   4.298   4.007   4.280  0.1584 -0.2443  0.0465
 5209SOL    HW127086   4.238   4.039   4.213  1.4347  1.6994 -0.1575
 5209SOL    HW227087   4.309   3.919   4.243  0.4511 -1.1899  2.3819
 5210SOL     OW27088   4.351   0.551  12.566 -0.0258  0.4647 -0.4221
 5210SOL    HW127089   4.346   0.515  12.654 -3.4180 -0.4899 -1.0239
 5210SOL    HW227090   4.446   0.560  12.558 -0.3772  3.5583 -0.8707
 5211SOL     OW27091   4.387   1.365   7.557 -0.3818  0.4661 -0.2116
 5211SOL    HW127092   4.368   1.273   7.571  0.7873  0.3260  0.3840
 5211SOL    HW227093   4.393   1.396   7.647 -0.5761  0.2009 -0.1075
 5212SOL     OW27094   1.837   4.703   7.294 -0.2414  0.6609  0.2859
 5212SOL    HW127095   1.831   4.713   7.389  0.8746 -1.7545  0.6104
 5212SOL    HW227096   1.865   4.611   7.291 -0.3496  0.6176  0.6675
 5213SOL     OW27097   0.789   1.057  13.209  0.5135  0.0030  0.1637
 5213SOL    HW127098   0.853   1.109  13.258  0.3349  1.6085 -1.2888
 5213SOL    HW227099   0.718   1.037  13.270 -1.1317  1.5469 -1.2578
 5214SOL     OW27100   3.724   1.743   3.984 -0.4596 -0.0165 -0.1587
 5214SOL    HW127101   3.750   1.660   4.025  0.0542  0.2825  0.1217
 5214SOL    HW227102   3.629   1.744   3.986 -0.5144 -0.1611 -3.2091
 5215SOL     OW27103   3.927   0.851   5.001  0.5823 -0.2262 -0.2950
 5215SOL    HW127104   3.993   0.788   4.972 -1.0091 -0.0822 -4.1804
 5215SOL    HW227105   3.897   0.872   4.913  0.4331 -2.6671 -0.8361
 5216SOL     OW27106   4.699   0.636   3.577 -0.4627  0.0510  0.1636
 5216SOL    HW127107   0.058   0.625   3.533 -0.7632  0.1834 -0.4510
 5216SOL    HW227108   4.649   0.661   3.499 -1.3601 -1.0852  0.3785
 5217SOL     OW27109   0.867   1.734   8.201  0.0431 -0.4795  0.3322
 5217SOL    HW127110   0.923   1.740   8.279  2.4553 -1.9406 -1.2794
 5217SOL    HW227111   0.889   1.815   8.156 -1.4947  0.4009  1.1500
 5218SOL     OW27112   4.432   3.002   1.236 -0.6820 -0.4700 -0.8061
 5218SOL    HW127113   4.405   3.089   1.265 -0.3095 -0.7522  0.3919
 5218SOL    HW227114   4.436   2.954   1.319 -1.7137  2.2468  0.8021
 5219SOL     OW27115   0.354   3.495   2.129 -0.6922  0.2520 -0.5646
 5219SOL    HW127116   0.296   3.572   2.128  1.1652  1.6423 -0.4587
 5219SOL    HW227117   0.294   3.432   2.088 -0.7254  0.2615 -0.5316
 5220SOL     OW27118   1.040   2.020   4.504  0.0532 -0.4886 -0.0911
 5220SOL    HW127119   1.020   1.951   4.441  0.3767 -0.0364 -0.6806
 5220SOL    HW227120   0.948   2.030   4.532 -0.1185 -0.1942 -0.7652
 5221SOL     OW27121   1.627   4.225   2.289 -0.0416 -0.2846 -0.0388
 5221SOL    HW127122   1.571   4.148   2.276 -3.6600  2.5204 -0.8018
 5221SOL    HW227123   1.564   4.290   2.258  1.5797  1.0862 -0.4460
 5222SOL     OW27124   4.017   2.505   2.437  0.1396 -0.2383  0.0008
 5222SOL    HW127125   4.057   2.430   2.394  0.6324 -0.1020  0.2249
 5222SOL    HW227126   3.927   2.502   2.404  0.2190 -1.6876 -0.0853
 5223SOL     OW27127   2.718   4.238   5.091  0.5618 -0.7111  0.1848
 5223SOL    HW127128   2.641   4.203   5.045  1.2377 -2.5933  0.4729
 5223SOL    HW227129   2.781   4.270   5.027  0.0407  0.1988  0.1346
 5224SOL     OW27130   1.855   1.297  10.928  0.4387  0.4825 -0.2895
 5224SOL    HW127131   1.873   1.305  10.834  1.5460 -0.4439 -0.1593
 5224SOL    HW227132   1.921   1.357  10.962  2.2060 -0.9815 -1.1181
 5225SOL     OW27133   2.119   3.103  12.131  0.3132 -0.4503 -0.6049
 5225SOL    HW127134   2.117   3.136  12.221  1.2299  0.7457 -1.0290
 5225SOL    HW227135   2.042   3.146  12.096  0.6334  2.1743  1.8911
 5226SOL     OW27136   3.617   1.328   3.120 -0.1139  0.0884 -0.4254
 5226SOL    HW127137   3.624   1.259   3.054  0.6249  0.0681 -0.3248
 5226SOL    HW227138   3.538   1.373   3.090 -0.0513  0.1522 -0.4962
 5227SOL     OW27139   0.963   2.285  16.960  0.7397 -0.2432 -0.3193
 5227SOL    HW127140   0.994   2.246  17.042  1.9631 -0.6780 -0.9973
 5227SOL    HW227141   0.872   2.256  16.956  1.3949 -2.0829 -1.8515
 5228SOL     OW27142   1.501   2.157   7.074 -0.0896  0.1462 -0.0729
 5228SOL    HW127143   1.572   2.193   7.128 -0.1696 -1.6053  1.1822
 5228SOL    HW227144   1.475   2.071   7.106 -1.9716  0.7732  0.1108
 5229SOL     OW27145   2.158   4.382  11.007 -0.3838  0.1577  0.2840
 5229SOL    HW127146   2.178   4.301  10.960 -0.6475  0.2460  0.0194
 5229SOL    HW227147   2.081   4.410  10.958 -0.7370 -0.5318  0.4456
 5230SOL     OW27148   0.294   3.231   5.163  0.4837 -0.3282  0.2244
 5230SOL    HW127149   0.218   3.213   5.219  0.9298 -0.8499  0.6539
 5230SOL    HW227150   0.365   3.257   5.220  1.1673 -0.6941 -0.4584
 5231SOL     OW27151   0.788   1.888   1.377 -0.1385 -0.1365  0.3526
 5231SOL    HW127152   0.808   1.802   1.339  0.3402 -1.1537  2.8826
 5231SOL    HW227153   0.784   1.945   1.300  1.0126  0.3315  0.6389
 5232SOL     OW27154   1.713   2.316   3.254  0.7613 -0.3551  0.0540
 5232SOL    HW127155   1.695   2.314   3.348  1.9782  1.1454  0.3086
 5232SOL    HW227156   1.623   2.324   3.223  0.8165  0.1878  0.0384
 5233SOL     OW27157   0.574   0.030   9.243  0.0485  0.0542 -0.3103
 5233SOL    HW127158   0.562   0.124   9.257  1.0025 -0.5076  4.1582
 5233SOL    HW227159   0.666   0.009   9.228 -1.0174 -2.1763 -3.8359
 5234SOL     OW27160   0.169   0.189   0.512 -0.3034 -0.3578 -0.1998
 5234SOL    HW127161   0.130   0.276   0.522 -0.2044 -0.1768 -1.3735
 5234SOL    HW227162   0.087   0.140   0.498  0.1021 -1.5176  1.4483
 5235SOL     OW27163   0.997   0.224   9.446  0.3016  0.9300 -0.3029
 5235SOL    HW127164   0.932   0.153   9.447  0.1072  1.1382  1.1745
 5235SOL    HW227165   1.068   0.185   9.395  1.6229  2.2185  0.5638
 5236SOL     OW27166   1.025   4.079   4.020 -0.2394 -0.1557 -0.3728
 5236SOL    HW127167   1.076   4.056   3.942  1.0155 -1.5678  0.8597
 5236SOL    HW227168   0.936   4.054   3.995 -0.2331  0.0837 -0.6317
 5237SOL     OW27169   4.073   0.087   4.138  0.3466  0.3302 -0.6059
 5237SOL    HW127170   4.167   0.089   4.159 -0.1819  1.1135  1.5779
 5237SOL    HW227171   4.049   0.004   4.178 -2.0398  1.4661  0.2648
 5238SOL     OW27172   3.412   0.168   4.626 -0.2184 -0.7223 -0.2622
 5238SOL    HW127173   3.317   0.169   4.622 -0.2040  0.1133 -0.3694
 5238SOL    HW227174   3.421   0.135   4.716  2.8772  0.0998 -0.2511
 5239SOL     OW27175   2.941   0.309   7.651 -0.1902  0.9945 -0.6774
 5239SOL    HW127176   2.995   0.369   7.703  1.4565  0.2294 -1.5130
 5239SOL    HW227177   2.871   0.371   7.630  0.5330  1.4281 -1.7784
 5240SOL     OW27178   2.217   4.171   3.163 -0.5249  0.3036  0.1290
 5240SOL    HW127179   2.135   4.221   3.164  0.3200  1.7231 -0.7763
 5240SOL    HW227180   2.191   4.091   3.117  1.2383 -0.5257  0.5614
 5241SOL     OW27181   2.795   1.354  16.855 -0.4004  0.1941 -0.1229
 5241SOL    HW127182   2.785   1.282  16.917  0.0319 -1.4341 -1.9898
 5241SOL    HW227183   2.855   1.320  16.790  1.1241  0.1492  1.3075
 5242SOL     OW27184   1.810   1.021   7.438  0.5866  0.7998  0.6029
 5242SOL    HW127185   1.836   1.011   7.347 -1.3249  2.0833 -0.0843
 5242SOL    HW227186   1.772   1.108   7.448  2.8219  1.9117 -0.5634
 5243SOL     OW27187   1.956   3.357   4.179  0.0906 -0.0812  0.2650
 5243SOL    HW127188   1.943   3.353   4.084  1.7569  2.3881 -0.0617
 5243SOL    HW227189   1.870   3.372   4.218 -0.6768 -3.2586 -0.2321
 5244SOL     OW27190   3.843   0.010  17.566 -0.6413 -0.4396  0.6553
 5244SOL    HW127191   3.764   0.063  17.559  0.4974  0.6298 -4.1274
 5244SOL    HW227192   3.898   0.064  17.623 -1.3585  0.9905 -0.0067
 5245SOL     OW27193   2.253   3.142   4.345  0.8569 -0.0787 -0.1974
 5245SOL    HW127194   2.273   3.221   4.294  0.7919  0.9525  1.3635
 5245SOL    HW227195   2.200   3.099   4.278  0.9620  0.9568 -0.9522
 5246SOL     OW27196   0.057   1.385   1.521  0.6472  0.2433 -0.3176
 5246SOL    HW127197   0.006   1.368   1.441  0.7228 -1.1603 -0.0577
 5246SOL    HW227198   0.045   1.306   1.573  0.9430 -0.5139 -1.4008
 5247SOL     OW27199   1.734   1.887   2.169  0.1147  0.1939  0.2836
 5247SOL    HW127200   1.713   1.871   2.261  0.5010  2.6276  0.7960
 5247SOL    HW227201   1.699   1.811   2.123  1.9402 -1.4940  1.7143
 5248SOL     OW27202   1.889   0.528   3.920  0.8282 -0.7968  0.4604
 5248SOL    HW127203   1.965   0.581   3.894 -0.2461 -0.4647 -1.9979
 5248SOL    HW227204   1.875   0.502   3.829  2.7191  0.5347 -0.2220
 5249SOL     OW27205   0.682   2.933   9.879  0.4722 -0.2705 -0.1091
 5249SOL    HW127206   0.651   2.862   9.935  0.2802 -0.1975 -0.1257
 5249SOL    HW227207   0.761   2.953   9.931 -0.1067  0.6496  0.4213
 5250SOL     OW27208   0.932   3.496   6.892 -0.3569 -0.2841 -0.4468
 5250SOL    HW127209   0.936   3.429   6.960  0.5449 -1.4546 -1.6655
 5250SOL    HW227210   1.023   3.492   6.862 -0.3792 -0.7641 -0.4438
 5251SOL     OW27211   3.925   2.628   5.651  0.4084  0.2664 -0.0291
 5251SOL    HW127212   3.832   2.631   5.630  0.2077 -3.7125  0.4008
 5251SOL    HW227213   3.968   2.648   5.567  0.3614  1.3265  0.2010
 5252SOL     OW27214   1.560   2.462   7.392 -0.8371  0.0877  0.0876
 5252SOL    HW127215   1.626   2.434   7.456 -0.4588  1.6289  0.3577
 5252SOL    HW227216   1.572   2.557   7.395  1.0329 -0.1117 -0.9176
 5253SOL     OW27217   0.063   2.773   7.738 -0.6034  0.4332  0.4760
 5253SOL    HW127218   0.042   2.736   7.652  1.0570  0.6302 -0.0242
 5253SOL    HW227219   0.101   2.699   7.786  0.8199  1.3751  0.8180
 5254SOL     OW27220   0.899   2.738  14.297 -0.0229  0.2482  0.4371
 5254SOL    HW127221   0.838   2.783  14.354  0.7728  3.3769 -1.1949
 5254SOL    HW227222   0.843   2.692  14.234  0.8345  2.4897 -1.9806
 5255SOL     OW27223   2.083   4.212   2.061 -0.1418 -0.5149 -0.4109
 5255SOL    HW127224   2.089   4.136   2.003  0.4096  0.7767 -2.0406
 5255SOL    HW227225   2.042   4.277   2.003 -2.9336 -1.3204  0.6678
 5256SOL     OW27226   3.640   0.739   7.790 -0.4039 -0.1355 -1.2204
 5256SOL    HW127227   3.634   0.684   7.712  0.0122 -3.6664  1.2099
 5256SOL    HW227228   3.735   0.731   7.800 -0.3867  1.9749  0.4212
 5257SOL     OW27229   1.234   1.571   1.919  0.1877  0.0564  0.1814
 5257SOL    HW127230   1.282   1.490   1.899  0.6174  0.1692  0.7570
 5257SOL    HW227231   1.282   1.638   1.871  0.6762 -0.2434  0.2436
 5258SOL     OW27232   0.865   2.377  10.430  0.3374  0.1188  0.6151
 5258SOL    HW127233   0.778   2.395  10.394  0.5262  0.2975  0.2432
 5258SOL    HW227234   0.876   2.435  10.505  1.3401 -0.4419  0.9052
 5259SOL     OW27235   4.614   0.185   5.943 -0.2813  0.5595 -0.5099
 5259SOL    HW127236   4.555   0.153   6.011 -1.0510  0.7299 -1.0913
 5259SOL    HW227237   4.551   0.207   5.874 -0.4488  0.6267 -0.3354
 5260SOL     OW27238   0.793   3.051   5.111 -0.1307 -0.2778 -0.6597
 5260SOL    HW127239   0.875   3.087   5.078 -1.7692  1.9906 -2.2302
 5260SOL    HW227240   0.767   3.122   5.170 -0.0735 -1.9393  1.3672
 5261SOL     OW27241   2.984   0.674  13.355 -0.3034  0.0954 -0.5232
 5261SOL    HW127242   2.990   0.721  13.438  1.9194  0.1386 -0.7080
 5261SOL    HW227243   2.994   0.584  13.388 -0.7135 -0.0651 -0.8296
 5262SOL     OW27244   1.046   0.021   4.456  0.1445 -0.1438  0.0115
 5262SOL    HW127245   1.122   0.059   4.498  0.6399 -0.4642 -0.5902
 5262SOL    HW227246   0.985   0.094   4.465  0.0095 -0.5541  2.2170
 5263SOL     OW27247   4.719   3.341   5.680 -0.1925 -0.1026  0.1933
 5263SOL    HW127248   0.008   3.290   5.759 -2.3218  0.6651  1.0542
 5263SOL    HW227249   0.080   3.351   5.639 -0.1130  0.1051  0.4123
 5264SOL     OW27250   4.392   1.754  12.206  0.2989  0.1062 -0.1263
 5264SOL    HW127251   4.413   1.703  12.284 -0.3809  0.4616  0.2907
 5264SOL    HW227252   4.370   1.839  12.245 -1.0786 -0.3524  0.0738
 5265SOL     OW27253   0.104   0.715   4.937  0.2807  0.4296 -0.3875
 5265SOL    HW127254   0.078   0.786   4.996 -0.7452 -1.2550  1.1681
 5265SOL    HW227255   0.021   0.696   4.893 -0.9881  1.1447  1.7140
 5266SOL     OW27256   1.457   4.519   8.344 -0.0719  0.2939  0.0825
 5266SOL    HW127257   1.425   4.501   8.432  1.9486 -1.2339  0.4919
 5266SOL    HW227258   1.374   4.539   8.299 -0.5771  0.8472  1.2484
 5267SOL     OW27259   1.466   2.213   7.435  0.0769 -0.4643  0.7019
 5267SOL    HW127260   1.381   2.238   7.397 -0.9719 -1.0763  2.6406
 5267SOL    HW227261   1.502   2.301   7.425 -1.8802  0.6343  3.0988
 5268SOL     OW27262   3.863   4.253  15.680  0.9536  0.5620  0.1120
 5268SOL    HW127263   3.947   4.225  15.643  1.1807  0.4980  0.6670
 5268SOL    HW227264   3.890   4.337  15.716  0.9058  1.0246 -0.9267
 5269SOL     OW27265   3.229   3.735   2.091 -0.3807  0.2631 -0.0394
 5269SOL    HW127266   3.211   3.646   2.122  1.7101 -0.4166 -0.7747
 5269SOL    HW227267   3.312   3.768   2.126 -0.7603  1.5464 -0.3561
 5270SOL     OW27268   3.575   4.474  15.001 -0.3458 -0.1813 -0.6295
 5270SOL    HW127269   3.631   4.461  14.925  0.5778  1.8598 -0.3033
 5270SOL    HW227270   3.557   4.567  14.988 -0.4920 -0.2410 -0.8359
 5271SOL     OW27271   1.768   3.943   8.185 -0.0468 -0.3339  0.5109
 5271SOL    HW127272   1.861   3.959   8.201 -0.0955  1.0366 -0.5612
 5271SOL    HW227273   1.725   4.007   8.241  2.9048  1.9119  0.1977
 5272SOL     OW27274   2.308   4.027  13.687  0.0573  0.0789  0.1813
 5272SOL    HW127275   2.391   3.995  13.721  0.6189  0.9958 -0.3295
 5272SOL    HW227276   2.254   3.950  13.706 -0.2381 -0.1528 -1.5893
 5273SOL     OW27277   1.345   1.459   8.497  0.6014  0.7618 -0.4989
 5273SOL    HW127278   1.369   1.528   8.559  2.0207  0.1413 -0.3663
 5273SOL    HW227279   1.406   1.483   8.427  1.3861  0.0429 -0.0593
 5274SOL     OW27280   0.901   4.133  16.675 -0.3751 -0.4500 -0.7093
 5274SOL    HW127281   0.910   4.133  16.580  1.1434 -4.3145 -0.5836
 5274SOL    HW227282   0.990   4.109  16.703 -0.6277  1.0237  1.3522
 5275SOL     OW27283   0.546   1.086   4.617  0.5905  0.5313  0.1626
 5275SOL    HW127284   0.586   1.082   4.530 -1.3686  1.0644 -0.7626
 5275SOL    HW227285   0.477   1.021   4.615  0.7427  0.3850 -0.2590
 5276SOL     OW27286   2.423   3.792   0.975  0.1224  0.6285 -0.1194
 5276SOL    HW127287   2.504   3.757   0.937  0.1070  1.2082 -0.6968
 5276SOL    HW227288   2.359   3.725   0.954  0.4407  0.1350  0.4817
 5277SOL     OW27289   2.311   3.433   3.480 -0.4761  0.6280  0.0473
 5277SOL    HW127290   2.238   3.380   3.446 -1.9312  2.0060  1.0270
 5277SOL    HW227291   2.305   3.394   3.567  0.2682  0.0847 -0.1463
 5278SOL     OW27292   1.562   3.548   4.708 -0.0411  0.1134  0.0726
 5278SOL    HW127293   1.616   3.609   4.657 -1.0155  0.1929 -0.8631
 5278SOL    HW227294   1.488   3.545   4.648  0.2887  0.3225 -0.3511
 5279SOL     OW27295   0.786   0.667   0.986  0.2129  0.0122  0.2664
 5279SOL    HW127296   0.700   0.634   0.960 -0.3259  1.2050  0.5539
 5279SOL    HW227297   0.837   0.586   0.988  0.5073  0.1675 -2.0276
 5280SOL     OW27298   4.116   0.769   0.341 -0.5430 -0.2112  0.4777
 5280SOL    HW127299   4.080   0.720   0.267  0.1402  2.6475 -1.7758
 5280SOL    HW227300   4.055   0.843   0.337  1.4055  1.3577 -0.0898
 5281SOL     OW27301   0.905   3.103   6.783 -0.5167  0.1095  0.2910
 5281SOL    HW127302   0.888   3.169   6.850  3.1669  0.2987  1.0226
 5281SOL    HW227303   0.824   3.059   6.756 -0.4094  0.8992 -1.3751
 5282SOL     OW27304   2.874   0.616  12.503  0.1161  0.1445  0.4105
 5282SOL    HW127305   2.893   0.628  12.410  1.9713 -1.2411  0.6092
 5282SOL    HW227306   2.779   0.604  12.502  0.6291 -3.8038 -1.0987
 5283SOL     OW27307   2.742   3.700   5.615 -0.0228 -0.1875  0.0511
 5283SOL    HW127308   2.805   3.643   5.659  0.1220  0.1824  0.3254
 5283SOL    HW227309   2.739   3.772   5.679 -0.6346  0.5999 -0.8629
 5284SOL     OW27310   4.420   0.559   8.583  0.0147 -0.3511  0.0941
 5284SOL    HW127311   4.497   0.510   8.555  2.0214  2.6022  0.4808
 5284SOL    HW227312   4.417   0.543   8.677 -2.1018  4.5352  0.8707
 5285SOL     OW27313   3.159   0.452   3.044 -0.3252 -0.7723 -0.4972
 5285SOL    HW127314   3.068   0.479   3.031 -0.3908 -0.8163 -0.1215
 5285SOL    HW227315   3.165   0.477   3.136  0.9642 -1.0966 -0.4936
 5286SOL     OW27316   3.672   2.690   5.131 -0.2611 -0.1162  1.1596
 5286SOL    HW127317   3.708   2.730   5.052 -2.2135 -0.6594 -0.0194
 5286SOL    HW227318   3.724   2.609   5.125  2.0386  1.5438 -1.3816
 5287SOL     OW27319   1.889   2.589  10.640 -0.8147  0.1142 -0.9249
 5287SOL    HW127320   1.860   2.555  10.725  1.2217  0.7661  0.0360
 5287SOL    HW227321   1.827   2.542  10.585 -0.8125 -0.4231 -0.4745
 5288SOL     OW27322   3.280   0.686   2.920  0.0029  0.4319  0.2582
 5288SOL    HW127323   3.236   0.702   2.836  0.9226  0.4449 -0.2256
 5288SOL    HW227324   3.245   0.602   2.949 -1.4933  0.4519 -1.4475
 5289SOL     OW27325   3.395   0.117  14.093 -0.2480  0.8782 -0.5449
 5289SOL    HW127326   3.444   0.034  14.095 -0.0586  0.9374 -2.6049
 5289SOL    HW227327   3.392   0.130  13.999 -1.9045  2.6151 -0.2390
 5290SOL     OW27328   3.233   2.881   8.777  0.2158  0.0809  0.0946
 5290SOL    HW127329   3.275   2.881   8.691  0.3934 -0.5741  0.1823
 5290SOL    HW227330   3.227   2.791   8.808  0.4841 -0.0196 -0.1429
 5291SOL     OW27331   0.607   2.633  13.631 -0.4224  0.0780 -0.4110
 5291SOL    HW127332   0.544   2.700  13.607 -0.6956 -0.1863 -0.4327
 5291SOL    HW227333   0.592   2.559  13.572  1.3127  0.3754 -1.2287
 5292SOL     OW27334   2.673   0.639   7.309 -0.3183  1.0218 -0.1732
 5292SOL    HW127335   2.669   0.553   7.265  0.1288  0.6055  0.6005
 5292SOL    HW227336   2.624   0.688   7.243  1.7513  2.9327 -0.2865
 5293SOL     OW27337   4.394   0.001   2.905  0.2581  0.3385 -0.0794
 5293SOL    HW127338   4.383   4.639   2.868  3.7239 -0.1497 -0.0249
 5293SOL    HW227339   4.435   4.709   2.990  0.4543 -2.6591 -0.7948
 5294SOL     OW27340   3.784   1.208   8.260  0.4951  0.0972 -0.0458
 5294SOL    HW127341   3.814   1.162   8.182 -0.7969  0.1534 -0.5782
 5294SOL    HW227342   3.826   1.161   8.331 -0.7991  2.6108  2.3761
 5295SOL     OW27343   0.490   4.494   7.928 -0.9997  0.4964  0.2093
 5295SOL    HW127344   0.481   4.508   7.834  0.7427 -0.7640 -0.1459
 5295SOL    HW227345   0.470   4.581   7.961 -0.3473  0.7138  0.0301
 5296SOL     OW27346   4.113   4.153   9.890  0.1349  0.0677 -0.0583
 5296SOL    HW127347   4.105   4.236   9.938 -1.9441 -0.0558 -0.1976
 5296SOL    HW227348   4.189   4.124   9.940 -0.8719  0.4013  1.6848
 5297SOL     OW27349   2.434   3.923  13.925  0.0665  0.2288 -0.0041
 5297SOL    HW127350   2.460   3.836  13.956  0.5271  0.7559  1.0884
 5297SOL    HW227351   2.345   3.942  13.953 -0.1030 -0.9652  0.2838
 5298SOL     OW27352   1.587   3.641   5.475  0.2435 -0.3599  0.1416
 5298SOL    HW127353   1.516   3.586   5.442 -0.9847  0.9111  0.7162
 5298SOL    HW227354   1.547   3.649   5.561  0.5591 -0.3192  0.2875
 5299SOL     OW27355   3.799   2.330   4.038  0.4224  0.0628 -0.2478
 5299SOL    HW127356   3.803   2.345   4.132 -1.1207 -2.2103  0.1573
 5299SOL    HW227357   3.892   2.314   4.019  0.5726  0.6891 -0.0528
 5300SOL     OW27358   2.129   4.509   3.234 -0.2821  0.4612  0.5493
 5300SOL    HW127359   2.088   4.579   3.286  2.4377  3.1261 -0.9467
 5300SOL    HW227360   2.219   4.539   3.237 -0.9429  2.3274  1.6847
 5301SOL     OW27361   3.135   4.452   8.639 -0.0534 -0.4736  0.3273
 5301SOL    HW127362   3.104   4.380   8.695  1.0626 -1.2285 -0.0183
 5301SOL    HW227363   3.225   4.471   8.666 -0.2870 -1.0313  1.4878
 5302SOL     OW27364   2.437   0.488   6.956 -0.4455  0.1874 -0.1458
 5302SOL    HW127365   2.511   0.528   6.911  1.7096 -1.7236  1.6492
 5302SOL    HW227366   2.440   0.407   6.905 -0.8975  1.2943 -1.9103
 5303SOL     OW27367   2.735   2.111   3.447 -0.1303 -0.2737 -0.6649
 5303SOL    HW127368   2.819   2.155   3.434 -1.7666  3.3801  0.9540
 5303SOL    HW227369   2.769   2.042   3.503 -0.4874  0.4644  0.4798
 5304SOL     OW27370   3.275   1.658  10.574  0.3536 -0.9262  0.2534
 5304SOL    HW127371   3.295   1.751  10.569 -0.0703 -0.8007  0.7915
 5304SOL    HW227372   3.307   1.631  10.661 -1.3359 -2.2915  0.4558
 5305SOL     OW27373   1.953   2.955   5.599 -0.1523 -0.2285  0.0106
 5305SOL    HW127374   1.947   2.979   5.506 -1.8801 -0.3186  0.0955
 5305SOL    HW227375   2.046   2.940   5.613 -0.1770 -1.2457 -0.9523
 5306SOL     OW27376   3.423   0.291   4.151  0.3519  0.0283 -0.6246
 5306SOL    HW127377   3.477   0.358   4.109 -1.7094  0.9316 -1.8489
 5306SOL    HW227378   3.453   0.314   4.238 -1.1859 -2.2239  0.5167
 5307SOL     OW27379   0.029   0.816  12.872 -0.2803 -1.0170  0.1490
 5307SOL    HW127380   4.703   0.820  12.791  1.0897  0.4613 -0.6457
 5307SOL    HW227381   0.089   0.747  12.843 -1.3694 -1.6303 -0.6435
 5308SOL     OW27382   3.597   3.846   3.156  0.0869 -0.0511 -0.0289
 5308SOL    HW127383   3.590   3.850   3.061  0.7475  1.8268 -0.0125
 5308SOL    HW227384   3.634   3.934   3.170  1.7965 -0.5209 -1.6818
 5309SOL     OW27385   0.237   4.212  17.651 -0.4771  0.0544 -0.0169
 5309SOL    HW127386   0.309   4.245  17.597  0.4945  0.2120  1.3604
 5309SOL    HW227387   0.166   4.178  17.597  0.0621 -0.8832 -0.1405
 5310SOL     OW27388   2.232   0.722   1.213  0.2530  0.0347  0.3381
 5310SOL    HW127389   2.287   0.702   1.288  1.9745  1.4407 -0.5261
 5310SOL    HW227390   2.288   0.790   1.174  0.7335  0.8749  2.5111
 5311SOL     OW27391   3.211   1.258  10.474 -0.2273 -0.0338 -0.1607
 5311SOL    HW127392   3.131   1.241  10.425 -0.1278  0.8569 -0.6229
 5311SOL    HW227393   3.189   1.229  10.562 -0.7872 -1.4725 -0.7623
 5312SOL     OW27394   0.230   2.011  11.834  0.2240  0.2075  0.2102
 5312SOL    HW127395   0.153   1.955  11.823 -0.2820  0.8223  0.5761
 5312SOL    HW227396   0.265   1.978  11.751  0.7677 -1.8636  1.2631
 5313SOL     OW27397   3.525   1.899  15.213  0.0238 -0.0220  0.2432
 5313SOL    HW127398   3.587   1.906  15.141  0.3410 -4.5778  0.0893
 5313SOL    HW227399   3.459   1.833  15.192 -0.6687 -0.0392  2.4722
 5314SOL     OW27400   3.441   2.462   4.224  0.2762 -1.2040  0.4310
 5314SOL    HW127401   3.361   2.411   4.239 -1.5086  1.5706  0.2969
 5314SOL    HW227402   3.487   2.448   4.307 -0.5464 -0.2739  1.0423
 5315SOL     OW27403   4.306   0.245   3.822  0.1084 -0.4665  0.3474
 5315SOL    HW127404   4.377   0.265   3.884  1.9777 -1.7786 -1.3978
 5315SOL    HW227405   4.265   0.167   3.860 -3.9602  1.8100  0.7188
 5316SOL     OW27406   4.110   1.070   5.880  0.4178 -0.2358  0.2347
 5316SOL    HW127407   4.160   1.101   5.956  0.4346 -0.1653  0.1946
 5316SOL    HW227408   4.090   1.157   5.847 -0.8373 -0.3698  0.6534
 5317SOL     OW27409   0.008   3.180   2.792 -0.1426 -0.4936 -0.3081
 5317SOL    HW127410   0.029   3.101   2.742 -3.6673 -0.2592 -2.1970
 5317SOL    HW227411   0.073   3.170   2.861 -0.6948 -0.6701  0.1816
 5318SOL     OW27412   4.137   0.325   5.895  0.3593  0.0717 -0.2461
 5318SOL    HW127413   4.136   0.319   5.800  0.0713  0.7989 -0.2924
 5318SOL    HW227414   4.094   0.409   5.910  0.4041 -0.4087  2.5208
 5319SOL     OW27415   4.548   2.238   0.845  0.2439  0.0556  0.1020
 5319SOL    HW127416   4.608   2.271   0.912  0.5335 -0.0706 -0.0973
 5319SOL    HW227417   4.610   2.179   0.802  0.2957 -0.1870  0.5088
 5320SOL     OW27418   2.152   2.088  12.619 -0.1126 -0.2643 -0.2407
 5320SOL    HW127419   2.220   2.111  12.682 -0.5771 -0.8653  0.4956
 5320SOL    HW227420   2.211   2.047  12.557 -0.3999  0.6910 -1.1448
 5321SOL     OW27421   2.416   1.868   6.624  0.0825 -0.5312 -0.2605
 5321SOL    HW127422   2.484   1.826   6.571  0.3321 -1.2002  0.5844
 5321SOL    HW227423   2.403   1.954   6.585  1.5157  0.3318  1.1446
 5322SOL     OW27424   3.840   2.122   3.471  0.3846  0.1486 -0.2654
 5322SOL    HW127425   3.902   2.059   3.507  0.1410  1.3087  2.1356
 5322SOL    HW227426   3.896   2.170   3.411  3.7311  0.6590  3.2988
 5323SOL     OW27427   2.316   3.703   8.188  0.1166  0.2477  0.2745
 5323SOL    HW127428   2.275   3.640   8.247  0.7856 -0.4879 -0.0597
 5323SOL    HW227429   2.354   3.773   8.241  0.1143 -0.6239  1.4146
 5324SOL     OW27430   0.238   1.893   3.807 -0.0978  0.0440  0.2930
 5324SOL    HW127431   0.224   1.871   3.715 -1.0003 -0.5947  0.5762
 5324SOL    HW227432   0.222   1.809   3.850  2.0681 -0.2346  0.5448
 5325SOL     OW27433   1.955   1.776   1.350  0.3595  0.5443 -0.2299
 5325SOL    HW127434   1.958   1.810   1.440  1.0390 -0.2973  0.0783
 5325SOL    HW227435   2.046   1.746   1.345 -0.4399 -1.6341 -1.4918
 5326SOL     OW27436   0.444   0.781   1.162  0.5975  0.5268  0.2713
 5326SOL    HW127437   0.442   0.710   1.097  0.6543  1.2927 -0.5730
 5326SOL    HW227438   0.461   0.854   1.102  0.3375 -0.6897 -1.2910
 5327SOL     OW27439   0.520   2.917   3.710  0.1428 -0.1501 -0.2244
 5327SOL    HW127440   0.459   2.983   3.677  1.1092  0.5796 -0.5697
 5327SOL    HW227441   0.567   2.901   3.628  1.0375  1.2108  0.0240
 5328SOL     OW27442   4.680   1.430   7.961  0.8266 -0.2520 -0.1055
 5328SOL    HW127443   4.693   1.425   8.056  0.8307 -1.4309 -0.1695
 5328SOL    HW227444   0.044   1.461   7.941  1.0013 -1.0080 -0.4938
 5329SOL     OW27445   2.872   2.071   9.093  0.2332 -0.0543 -0.0902
 5329SOL    HW127446   2.852   1.978   9.082  0.2918  0.0773 -1.2530
 5329SOL    HW227447   2.857   2.083   9.187  1.0942 -0.6238  0.1200
 5330SOL     OW27448   4.222   1.993   7.349  0.3802  0.1298  0.2633
 5330SOL    HW127449   4.313   2.012   7.370  1.1412  0.5671 -3.4873
 5330SOL    HW227450   4.186   2.008   7.437  0.6326  0.8935  0.2297
 5331SOL     OW27451   3.223   0.478   5.714  0.1246  0.2151  0.0819
 5331SOL    HW127452   3.302   0.522   5.682 -2.4657  4.6743 -0.1091
 5331SOL    HW227453   3.260   0.446   5.796  2.3951 -0.5063 -1.1917
 5332SOL     OW27454   4.096   3.603  10.615  0.1645 -0.1905 -0.0959
 5332SOL    HW127455   4.179   3.636  10.648 -0.3166  1.2055 -0.2992
 5332SOL    HW227456   4.099   3.507  10.617 -1.0450 -0.2109  1.0837
 5333SOL     OW27457   0.799   3.643   0.386  0.5679 -0.0907  0.2618
 5333SOL    HW127458   0.846   3.713   0.431  0.6586 -1.4436  2.2572
 5333SOL    HW227459   0.875   3.606   0.341  0.2707  3.4318 -3.1558
 5334SOL     OW27460   3.997   1.142   0.822  0.1672 -0.9160 -0.1965
 5334SOL    HW127461   4.072   1.151   0.881  1.0263 -1.3239 -1.2217
 5334SOL    HW227462   3.994   1.047   0.834 -0.0373 -1.0413 -1.2952
 5335SOL     OW27463   3.369   1.607  11.915  0.1933 -0.0172 -0.1996
 5335SOL    HW127464   3.309   1.556  11.860 -0.5586  1.3359 -0.6263
 5335SOL    HW227465   3.316   1.629  11.991 -0.0159  2.4768 -1.0699
 5336SOL     OW27466   3.733   3.828   2.345  1.0339  0.0363 -0.4456
 5336SOL    HW127467   3.642   3.806   2.324  0.6291 -0.0096  1.3617
 5336SOL    HW227468   3.722   3.922   2.357  0.1742 -0.3077  1.3830
 5337SOL     OW27469   2.496   1.171   2.995  0.1272  0.2262 -0.7578
 5337SOL    HW127470   2.499   1.082   2.961 -1.8855 -0.2452  0.2316
 5337SOL    HW227471   2.579   1.208   2.967  0.9028 -0.8284  0.1629
 5338SOL     OW27472   1.979   3.236   3.452  0.2969 -0.3087  1.0161
 5338SOL    HW127473   2.038   3.252   3.378 -0.5787  2.4081  0.9020
 5338SOL    HW227474   1.898   3.226   3.403 -0.7024  0.3632  2.5246
 5339SOL     OW27475   4.223   0.573   5.097 -0.7285 -0.1229  0.1841
 5339SOL    HW127476   4.207   0.509   5.166 -2.3794 -0.2497 -0.3169
 5339SOL    HW227477   4.301   0.535   5.057 -1.1224 -1.6712  0.8860
 5340SOL     OW27478   4.131   0.539   4.022 -0.1432 -0.0482 -0.1778
 5340SOL    HW127479   4.069   0.469   4.000 -1.3188  0.8856  0.1857
 5340SOL    HW227480   4.167   0.555   3.935 -2.7813 -0.4256 -1.3313
 5341SOL     OW27481   0.517   2.274   7.792  0.4001 -0.0867 -0.0676
 5341SOL    HW127482   0.535   2.355   7.744  0.5423 -0.7529 -1.1352
 5341SOL    HW227483   0.505   2.200   7.732 -3.9281  0.7720 -0.2551
 5342SOL     OW27484   3.821   4.401   7.888 -0.5594  0.1668 -0.2180
 5342SOL    HW127485   3.843   4.308   7.895  3.3220  1.1539  0.9145
 5342SOL    HW227486   3.775   4.403   7.972 -1.6716 -2.7297 -0.7862
 5343SOL     OW27487   1.610   4.256   3.211  0.4972  0.3399  0.0350
 5343SOL    HW127488   1.631   4.336   3.163 -1.2482  1.6009  1.3544
 5343SOL    HW227489   1.652   4.192   3.153 -0.8406 -0.5286  0.0347
 5344SOL     OW27490   3.681   2.635  15.445 -0.2120  0.5936 -0.1738
 5344SOL    HW127491   3.758   2.637  15.501  1.0752 -0.4903 -1.9259
 5344SOL    HW227492   3.691   2.550  15.401 -0.5593  0.4994 -0.0714
 5345SOL     OW27493   1.254   2.520   9.092 -0.0577 -0.4713 -0.3458
 5345SOL    HW127494   1.164   2.554   9.092 -1.2472 -3.5987  1.2857
 5345SOL    HW227495   1.296   2.606   9.094  0.2789 -0.7511  4.0970
 5346SOL     OW27496   2.192   2.115  11.239  0.3930 -0.1753  0.6208
 5346SOL    HW127497   2.221   2.064  11.315 -0.7311 -0.7579  0.6750
 5346SOL    HW227498   2.272   2.155  11.207 -0.4281  1.9097  1.1489
 5347SOL     OW27499   3.842   0.181   4.770 -0.5693  0.2718  0.3506
 5347SOL    HW127500   3.784   0.229   4.828  0.8536 -0.8442  2.6670
 5347SOL    HW227501   3.924   0.185   4.818  0.2676  1.0471 -1.1189
 5348SOL     OW27502   3.273   2.915  17.404  0.1908  0.0698 -0.0508
 5348SOL    HW127503   3.194   2.967  17.392  1.1500  1.5651  0.1618
 5348SOL    HW227504   3.235   2.828  17.415 -1.1062  0.6556  0.0859
 5349SOL     OW27505   2.313   0.364   7.683  0.1924  0.1130  0.2319
 5349SOL    HW127506   2.382   0.387   7.621 -2.5141 -0.3551 -2.9574
 5349SOL    HW227507   2.370   0.342   7.757 -0.2948 -0.1282  0.5427
 5350SOL     OW27508   2.496   0.765   7.116 -0.4588  0.3286 -0.5408
 5350SOL    HW127509   2.543   0.847   7.124  0.4690 -0.3814  1.2008
 5350SOL    HW227510   2.510   0.742   7.024 -2.0782 -1.1012 -0.4352
 5351SOL     OW27511   2.569   0.381   6.102 -0.0607  0.5545 -0.2250
 5351SOL    HW127512   2.604   0.469   6.118 -0.3473  0.3940  1.2270
 5351SOL    HW227513   2.620   0.325   6.160 -0.6432  0.2356 -0.0202
 5352SOL     OW27514   3.522   0.934   2.413 -0.5106 -0.2365 -0.7790
 5352SOL    HW127515   3.551   1.026   2.421  1.0405 -0.7212 -0.7738
 5352SOL    HW227516   3.587   0.910   2.347  1.0269  2.0342 -0.1109
 5353SOL     OW27517   3.534   1.612   7.854  0.2917 -0.5758 -0.5976
 5353SOL    HW127518   3.500   1.667   7.783 -2.5049 -0.0009  1.1592
 5353SOL    HW227519   3.593   1.673   7.896  2.2776 -1.5138 -2.0426
 5354SOL     OW27520   0.414   1.808   4.945 -0.1183 -0.1449 -0.0583
 5354SOL    HW127521   0.423   1.830   5.037 -1.2134 -0.8441  0.2207
 5354SOL    HW227522   0.454   1.721   4.946  1.9632  0.8371  1.5540
 5355SOL     OW27523   3.714   2.069   7.817 -0.7690 -0.2741 -0.0775
 5355SOL    HW127524   3.655   2.047   7.889 -0.9336 -0.2407 -0.2025
 5355SOL    HW227525   3.724   1.984   7.773  1.0196  0.3588 -0.9022
 5356SOL     OW27526   1.565   1.025   3.660 -1.1903 -0.1965  0.4717
 5356SOL    HW127527   1.558   1.110   3.615 -0.1561  0.3160  1.2738
 5356SOL    HW227528   1.658   1.016   3.636 -1.6596 -0.6979 -1.1508
 5357SOL     OW27529   4.645   1.004   3.370  0.5257 -0.5858  0.3366
 5357SOL    HW127530   4.551   1.004   3.350  0.6703 -1.7242 -0.3648
 5357SOL    HW227531   4.652   0.918   3.412  0.5353  0.2630  2.0953
 5358SOL     OW27532   2.712   0.021   7.670  0.2841 -0.6067  0.2325
 5358SOL    HW127533   2.677   0.106   7.643 -1.5150 -1.3897  0.1042
 5358SOL    HW227534   2.690   0.018   7.763  0.4542 -2.7256  0.2081
 5359SOL     OW27535   4.551   0.413   0.302  0.1936 -0.2378 -0.5440
 5359SOL    HW127536   4.574   0.400   0.394 -0.0567 -1.0984 -0.5968
 5359SOL    HW227537   4.498   0.493   0.302 -0.3959 -0.6208  0.5857
 5360SOL     OW27538   3.595   0.243   3.686  0.2715 -0.0202 -0.5452
 5360SOL    HW127539   3.632   0.320   3.641  1.9127 -0.3122  0.2768
 5360SOL    HW227540   3.646   0.176   3.640  0.3453  0.5338 -1.2764
 5361SOL     OW27541   1.603   4.094   6.902  0.3570 -0.2638  0.2094
 5361SOL    HW127542   1.601   4.164   6.967  1.5557 -0.4045  0.3971
 5361SOL    HW227543   1.693   4.111   6.873  0.0450  1.6411  0.3336
 5362SOL     OW27544   3.169   3.939   8.762 -0.2559  0.4001 -0.1745
 5362SOL    HW127545   3.163   3.922   8.856 -0.3092  0.0399 -0.2413
 5362SOL    HW227546   3.091   3.899   8.723  0.2999  0.2182 -1.0937
 5363SOL     OW27547   0.847   3.125  12.983 -0.1812 -0.3279  0.1102
 5363SOL    HW127548   0.752   3.130  12.971 -0.1321 -0.5031 -0.3141
 5363SOL    HW227549   0.869   3.218  12.993 -1.2166 -0.0931  0.2202
 5364SOL     OW27550   4.021   2.641  16.656 -0.4156  0.2351 -0.7315
 5364SOL    HW127551   3.981   2.724  16.679 -1.8520 -0.5747 -0.3324
 5364SOL    HW227552   4.076   2.662  16.581  0.3702  1.9191  0.2984
 5365SOL     OW27553   1.290   2.806   3.219  0.0767 -0.3639  0.5061
 5365SOL    HW127554   1.301   2.889   3.264 -0.2109  0.0239 -0.1382
 5365SOL    HW227555   1.285   2.737   3.285 -1.4907 -1.2741 -0.5717
 5366SOL     OW27556   1.662   4.655   8.610  0.8834  0.0006  0.4739
 5366SOL    HW127557   1.630   4.716   8.677 -0.0216  0.0977 -0.0586
 5366SOL    HW227558   1.676   4.712   8.534 -1.7534  0.7212  0.5497
 5367SOL     OW27559   1.779   1.184   3.836  0.1428 -0.0435  0.8973
 5367SOL    HW127560   1.773   1.127   3.760 -1.3566  1.1523  0.1027
 5367SOL    HW227561   1.759   1.268   3.794 -1.4894 -1.0856 -0.4232
 5368SOL     OW27562   2.108   4.033  16.703  0.0602 -0.0861 -0.4567
 5368SOL    HW127563   2.048   4.055  16.775  3.4279  2.2381  1.6376
 5368SOL    HW227564   2.119   3.940  16.721  0.3830  0.4338  1.9915
 5369SOL     OW27565   1.104   0.710   6.446  0.4314  0.1323 -0.3945
 5369SOL    HW127566   1.075   0.726   6.536 -1.4232 -1.1682 -0.7597
 5369SOL    HW227567   1.041   0.649   6.408 -0.3383  0.4995  0.2906
 5370SOL     OW27568   0.266   3.515   2.593 -0.1692  0.0801 -0.3340
 5370SOL    HW127569   0.269   3.456   2.519 -1.0807  0.3819 -0.6029
 5370SOL    HW227570   0.189   3.476   2.634 -0.4239  0.4694 -0.4373
 5371SOL     OW27571   2.569   2.602   5.325 -0.5855 -0.1918 -0.4191
 5371SOL    HW127572   2.551   2.686   5.367  0.4351 -0.4515  0.5387
 5371SOL    HW227573   2.608   2.632   5.242  0.0292 -0.7965 -0.3532
 5372SOL     OW27574   2.746   2.616  15.994 -0.5933 -0.0725  0.4165
 5372SOL    HW127575   2.652   2.608  15.980 -0.1865 -0.0423 -2.2361
 5372SOL    HW227576   2.762   2.525  15.968 -1.9814 -0.0906 -0.3661
 5373SOL     OW27577   4.224   0.346   8.551 -0.0536  0.0999 -0.0006
 5373SOL    HW127578   4.271   0.429   8.543  0.3996 -0.2709 -1.2579
 5373SOL    HW227579   4.285   0.280   8.517 -0.9543 -0.3520 -0.7152
 5374SOL     OW27580   1.526   2.954  12.665  0.5271  0.2848  0.3505
 5374SOL    HW127581   1.596   2.950  12.730 -1.0890 -1.3189  1.9604
 5374SOL    HW227582   1.519   2.860  12.650 -1.2613  0.3811  0.6524
 5375SOL     OW27583   1.452   2.037   3.615 -0.1315  0.0559  0.1430
 5375SOL    HW127584   1.423   1.946   3.609 -0.0476  0.0014  0.5469
 5375SOL    HW227585   1.540   2.022   3.649 -0.4375 -1.2041  0.3912
 5376SOL     OW27586   4.390   1.554  17.270  0.4384  0.4060 -0.3794
 5376SOL    HW127587   4.353   1.576  17.355  1.6412  0.3975  0.1394
 5376SOL    HW227588   4.318   1.582  17.213  0.6675 -1.4656 -1.6013
 5377SOL     OW27589   3.579   0.983   9.322  0.6920  0.5133 -0.5875
 5377SOL    HW127590   3.487   1.000   9.304  0.7921  2.1643  0.4789
 5377SOL    HW227591   3.589   1.015   9.411 -0.5618 -0.1775 -0.2143
 5378SOL     OW27592   3.835   4.052   9.794 -0.0442  0.4394  0.4295
 5378SOL    HW127593   3.847   4.073   9.701  0.3394  1.5479  0.7339
 5378SOL    HW227594   3.921   4.072   9.830 -0.1465 -0.0381  0.9456
 5379SOL     OW27595   3.205   0.292   6.623 -0.4236 -0.5053 -0.3428
 5379SOL    HW127596   3.147   0.339   6.562 -0.9621  1.4447  1.6848
 5379SOL    HW227597   3.154   0.218   6.656  1.0646 -1.0960  0.6271
 5380SOL     OW27598   2.695   0.533   5.699  0.0393 -0.2515  0.2463
 5380SOL    HW127599   2.785   0.556   5.720  0.0362  0.5495 -0.6657
 5380SOL    HW227600   2.716   0.517   5.607 -3.3846  2.0859 -0.9393
 5381SOL     OW27601   2.365   4.482  16.576  0.4997  0.2563  0.0308
 5381SOL    HW127602   2.379   4.545  16.647 -0.6199 -1.3362  1.6561
 5381SOL    HW227603   2.370   4.401  16.626 -0.3411  0.4061  0.3608
 5382SOL     OW27604   3.837   2.344  12.355  0.4454 -0.3775  0.5256
 5382SOL    HW127605   3.802   2.257  12.335 -0.4493 -0.1082  0.9574
 5382SOL    HW227606   3.758   2.392  12.379  0.8926 -0.1634  1.5640
 5383SOL     OW27607   0.792   3.494   3.123  0.3645 -1.0198 -0.1193
 5383SOL    HW127608   0.770   3.466   3.034  0.3687 -0.5487 -0.2703
 5383SOL    HW227609   0.793   3.587   3.102  0.3109 -0.6350  1.5573
 5384SOL     OW27610   2.595   1.717   6.493 -0.6473 -0.2646 -0.1298
 5384SOL    HW127611   2.544   1.636   6.491 -2.1777  0.7812 -3.3106
 5384SOL    HW227612   2.685   1.687   6.481  1.0825  4.7364 -0.0211
 5385SOL     OW27613   2.117   2.975   8.423 -0.0888  0.0401  0.0306
 5385SOL    HW127614   2.091   2.903   8.365  0.4287 -0.3652  0.2961
 5385SOL    HW227615   2.087   3.060   8.390 -1.1286  0.1794  1.3746
 5386SOL     OW27616   3.174   4.170   7.449  0.3794 -0.0586 -0.3590
 5386SOL    HW127617   3.180   4.081   7.414  2.7448  0.0024 -0.0569
 5386SOL    HW227618   3.081   4.175   7.470  0.8202 -1.6193  1.9676
 5387SOL     OW27619   0.214   1.878   8.688  0.1419  0.6133 -0.7407
 5387SOL    HW127620   0.221   1.897   8.782  0.9467 -1.7977 -0.3311
 5387SOL    HW227621   0.197   1.784   8.682 -1.2487  0.8004  0.2682
 5388SOL     OW27622   0.345   0.398   2.606 -0.0436  0.8346  0.1175
 5388SOL    HW127623   0.270   0.338   2.601 -0.2628  0.9682  1.8209
 5388SOL    HW227624   0.407   0.346   2.557 -1.1954 -0.3414 -0.0839
 5389SOL     OW27625   3.524   1.936  13.852 -0.2830 -0.7571 -0.2540
 5389SOL    HW127626   3.447   1.909  13.900 -0.5255 -1.5827 -1.1059
 5389SOL    HW227627   3.489   1.935  13.763 -2.4769  1.3254  0.5975
 5390SOL     OW27628   0.027   3.176   5.202 -0.7425 -0.2010  0.2091
 5390SOL    HW127629   0.013   3.115   5.274  0.3362 -0.0245  0.5685
 5390SOL    HW227630   4.661   3.178   5.172 -0.7024  1.4171  0.2024
 5391SOL     OW27631   1.501   1.609   7.697 -0.1570 -0.0984  0.1619
 5391SOL    HW127632   1.407   1.623   7.698  0.0175  1.0719  0.4587
 5391SOL    HW227633   1.521   1.681   7.757  1.5578 -0.6767  0.2776
 5392SOL     OW27634   2.185   2.752   7.102  0.4368  0.0541 -0.0211
 5392SOL    HW127635   2.151   2.809   7.171 -0.1606  1.6470 -1.6283
 5392SOL    HW227636   2.233   2.692   7.159 -0.8650  0.3234  1.3653
 5393SOL     OW27637   4.526   2.886  17.646  0.2152 -0.3217 -0.2741
 5393SOL    HW127638   4.573   2.953  17.697 -2.9246  1.6840  0.0015
 5393SOL    HW227639   4.435   2.917  17.647  0.0803 -0.8006  1.5619
 5394SOL     OW27640   1.943   3.977   5.989 -0.1384  0.2931 -0.3107
 5394SOL    HW127641   1.989   4.042   6.042  0.5423  0.6779 -1.3750
 5394SOL    HW227642   2.009   3.948   5.925  0.7128  2.5403 -0.4562
 5395SOL     OW27643   3.050   1.368   6.946 -0.6829 -0.1366 -0.0937
 5395SOL    HW127644   2.993   1.433   6.986 -0.3202  0.2466 -0.1932
 5395SOL    HW227645   3.094   1.333   7.023  2.4839 -0.1467 -1.8953
 5396SOL     OW27646   3.634   2.535  15.758  0.0546  0.1656  0.6572
 5396SOL    HW127647   3.725   2.521  15.733 -0.3770 -1.2148 -0.1891
 5396SOL    HW227648   3.591   2.461  15.713 -0.1931  0.6607  0.0794
 5397SOL     OW27649   2.198   1.502   4.991 -0.5321 -0.0383  0.0064
 5397SOL    HW127650   2.148   1.422   4.978 -1.3074  0.4976 -0.2924
 5397SOL    HW227651   2.148   1.556   5.052 -0.1355  0.0981  0.2157
 5398SOL     OW27652   0.214   4.503   0.522  0.3700 -0.3795  0.6047
 5398SOL    HW127653   0.151   4.497   0.450  2.7713 -2.4455 -1.3486
 5398SOL    HW227654   0.294   4.538   0.482  1.6613 -1.1113  2.5189
 5399SOL     OW27655   2.574   3.418   8.700  0.5058 -0.5343  0.1718
 5399SOL    HW127656   2.583   3.483   8.769 -0.2714  0.1664 -0.3816
 5399SOL    HW227657   2.500   3.369   8.736  0.7126 -1.8023 -1.1135
 5400SOL     OW27658   1.704   0.589   2.226 -0.5319  0.5270 -0.3748
 5400SOL    HW127659   1.644   0.522   2.256 -0.2596  0.3062 -0.3280
 5400SOL    HW227660   1.758   0.533   2.171 -0.0728 -0.3843  1.0260
 5401SOL     OW27661   0.734   1.476   2.447  0.1039  0.3634  0.2252
 5401SOL    HW127662   0.731   1.391   2.490 -0.7707  0.4068  0.2376
 5401SOL    HW227663   0.657   1.521   2.481 -1.0111  0.6106 -2.6744
 5402SOL     OW27664   1.696   2.636   3.926  0.2412  0.0842 -0.2789
 5402SOL    HW127665   1.791   2.628   3.935  0.2904  0.1717 -0.7049
 5402SOL    HW227666   1.691   2.726   3.957  2.7473 -0.0237  0.3900
 5403SOL     OW27667   0.307   0.416  17.542 -0.1741  0.1040 -0.0542
 5403SOL    HW127668   0.246   0.445  17.611  2.2702  1.7323  1.4111
 5403SOL    HW227669   0.259   0.337  17.518 -0.0273 -0.2291  0.7539
 5404SOL     OW27670   2.466   1.407   4.739 -0.6016 -1.1435  0.2581
 5404SOL    HW127671   2.526   1.461   4.688 -0.0678 -0.9418  1.1019
 5404SOL    HW227672   2.388   1.402   4.685 -0.4438 -0.8250  0.0042
 5405SOL     OW27673   1.037   1.498  10.892  0.9468  0.3455  0.5027
 5405SOL    HW127674   1.076   1.463  10.973 -0.3191  0.7731  1.3030
 5405SOL    HW227675   1.011   1.418  10.846 -1.2779  0.4500  1.6065
 5406SOL     OW27676   0.630   1.458   4.575  0.2344 -0.0397 -0.8257
 5406SOL    HW127677   0.535   1.451   4.570  0.0667  1.3676  0.2994
 5406SOL    HW227678   0.638   1.430   4.666 -0.7058 -0.2823 -0.8151
 5407SOL     OW27679   1.131   0.138   0.434  0.3019  0.0415  0.0350
 5407SOL    HW127680   1.052   0.186   0.458  0.1300 -0.6793  0.9231
 5407SOL    HW227681   1.198   0.203   0.414  0.4366 -0.5786 -1.5059
 5408SOL     OW27682   0.447   3.429   6.306 -0.5183 -0.5399 -0.0141
 5408SOL    HW127683   0.491   3.384   6.234 -0.4419 -0.3626 -0.0787
 5408SOL    HW227684   0.527   3.464   6.344 -1.3416  0.6653  0.6002
 5409SOL     OW27685   0.279   2.378   3.567 -0.4923 -0.1091 -0.3197
 5409SOL    HW127686   0.321   2.360   3.651 -2.3433  0.8990  0.8314
 5409SOL    HW227687   0.281   2.293   3.524 -0.4023 -1.1297  1.7188
 5410SOL     OW27688   2.953   0.215   2.611  0.1247 -0.2214 -0.1347
 5410SOL    HW127689   3.015   0.232   2.540  1.0396 -2.5753  0.0778
 5410SOL    HW227690   2.987   0.256   2.690 -1.6863 -0.5302  0.8222
 5411SOL     OW27691   0.762   3.725   2.101  0.3712 -0.4888 -0.0201
 5411SOL    HW127692   0.738   3.813   2.074 -0.3422 -0.6778 -0.0209
 5411SOL    HW227693   0.682   3.692   2.143 -0.3786 -2.0971 -2.7024
 5412SOL     OW27694   3.890   0.125  16.439  0.6385  0.0696 -0.0879
 5412SOL    HW127695   3.969   0.147  16.488  1.0814 -0.6018 -0.4944
 5412SOL    HW227696   3.876   0.203  16.384 -1.6785 -0.2992  0.0017
 5413SOL     OW27697   2.682   2.323   7.377  0.0008  0.4009 -0.2679
 5413SOL    HW127698   2.743   2.326   7.451  0.9115  1.3450 -1.0560
 5413SOL    HW227699   2.689   2.413   7.347 -1.7938  0.7714  0.4432
 5414SOL     OW27700   3.420   2.550   5.370 -0.4114 -0.3982  0.1247
 5414SOL    HW127701   3.476   2.627   5.363 -0.0507 -0.6597  0.1400
 5414SOL    HW227702   3.340   2.594   5.343  1.4880  4.6623  2.8097
 5415SOL     OW27703   1.075   4.709   8.900 -0.1058 -0.2745 -0.4411
 5415SOL    HW127704   1.001   0.044   8.898 -1.1009 -1.4696  0.8610
 5415SOL    HW227705   1.059   4.664   8.816 -1.2455 -2.3559  0.8821
 5416SOL     OW27706   1.529   2.036  17.665  0.3064 -0.9305 -0.1281
 5416SOL    HW127707   1.450   1.992  17.634 -0.2314  1.1697 -1.7471
 5416SOL    HW227708   1.549   2.092  17.590 -3.7739 -0.1265 -0.6086
 5417SOL     OW27709   1.675   1.629   4.956 -0.0673 -0.4938  0.0617
 5417SOL    HW127710   1.622   1.704   4.984 -1.9002 -1.8497  0.2596
 5417SOL    HW227711   1.629   1.593   4.880  1.3290 -1.7544 -0.1917
 5418SOL     OW27712   0.576   2.163   1.865 -0.2214  0.2149  0.3258
 5418SOL    HW127713   0.638   2.183   1.795 -1.7783  2.2858 -0.4921
 5418SOL    HW227714   0.629   2.162   1.945 -0.0876 -1.3127  0.2067
 5419SOL     OW27715   1.654   3.999   5.374 -0.2693  0.1075 -0.1404
 5419SOL    HW127716   1.743   3.966   5.365 -0.3519 -0.1189 -0.1416
 5419SOL    HW227717   1.611   3.926   5.420  0.2740 -0.0526  0.1095
 5420SOL     OW27718   4.335   4.406   8.108 -0.3956 -0.4186 -0.1385
 5420SOL    HW127719   4.246   4.430   8.135  0.4137  2.7447 -0.3102
 5420SOL    HW227720   4.315   4.330   8.053  0.3092 -1.5738  1.2040
 5421SOL     OW27721   3.769   4.061   8.691 -0.5115 -0.0395 -0.4333
 5421SOL    HW127722   3.848   4.063   8.638  0.9987  0.5860  1.8687
 5421SOL    HW227723   3.800   4.033   8.777  0.4661 -1.7104 -1.3276
 5422SOL     OW27724   1.269   2.775   7.910  0.4401  0.2673  0.0602
 5422SOL    HW127725   1.289   2.850   7.965  1.8171 -0.2499  0.2707
 5422SOL    HW227726   1.233   2.820   7.834  1.2385  0.7978 -0.0002
 5423SOL     OW27727   2.063   1.074   5.874  0.2992  0.0877 -0.2568
 5423SOL    HW127728   2.156   1.094   5.884 -0.0091  0.3121  2.1706
 5423SOL    HW227729   2.073   0.990   5.828  0.2755  0.0982 -0.2814
 5424SOL     OW27730   2.526   0.830   1.915  0.3236 -0.4553 -0.2588
 5424SOL    HW127731   2.453   0.775   1.945  1.0261 -1.7305 -0.8938
 5424SOL    HW227732   2.514   0.829   1.820  0.6514 -0.8098 -0.2977
 5425SOL     OW27733   4.416   4.372   2.463  0.1004  0.4413  0.4851
 5425SOL    HW127734   4.411   4.309   2.391 -2.4933  1.2310 -0.0124
 5425SOL    HW227735   4.376   4.446   2.418  1.2179 -0.5170 -2.1172
 5426SOL     OW27736   2.177   3.137   3.948 -0.1429 -0.0161  0.6116
 5426SOL    HW127737   2.194   3.095   4.032 -0.5015  0.2350  0.8123
 5426SOL    HW227738   2.086   3.167   3.949 -0.0962  0.1735 -1.8009
 5427SOL     OW27739   0.609   3.118   7.028  0.1705 -0.2637 -0.2171
 5427SOL    HW127740   0.610   3.179   6.954  0.1133 -1.6344 -1.3447
 5427SOL    HW227741   0.693   3.135   7.070  0.0879  1.5145 -0.7615
 5428SOL     OW27742   0.671   4.202  11.160 -0.3529 -0.1869 -0.1607
 5428SOL    HW127743   0.750   4.176  11.206  0.1316  2.8425  0.6752
 5428SOL    HW227744   0.680   4.297  11.153 -2.9884  0.0690 -0.2934
 5429SOL     OW27745   0.108   2.208   4.784  0.0947  0.1460  0.1254
 5429SOL    HW127746   0.106   2.151   4.861 -3.8362  0.1903  0.0480
 5429SOL    HW227747   0.182   2.264   4.807  0.2444 -0.5140  1.2584
 5430SOL     OW27748   1.711   1.115   3.023 -0.1043 -0.0434  0.2645
 5430SOL    HW127749   1.627   1.071   3.031  0.6707 -1.7191 -0.6685
 5430SOL    HW227750   1.716   1.127   2.928 -2.5502  1.0793  0.2904
 5431SOL     OW27751   4.716   3.118   1.907 -0.4638 -0.1763  0.1721
 5431SOL    HW127752   4.667   3.044   1.872  1.7762 -0.8371 -1.5452
 5431SOL    HW227753   4.668   3.197   1.881 -0.6716  0.5979  2.8310
 5432SOL     OW27754   2.765   2.675  10.560 -0.3285 -0.0088 -0.1259
 5432SOL    HW127755   2.731   2.765  10.563  0.5834  0.3281  0.3327
 5432SOL    HW227756   2.836   2.684  10.495 -1.1741 -2.6532 -1.4086
 5433SOL     OW27757   1.657   0.513   3.151 -0.0642  0.1582 -0.2983
 5433SOL    HW127758   1.613   0.563   3.220 -0.7927 -1.3418  0.3250
 5433SOL    HW227759   1.737   0.564   3.135  0.2154 -1.6396 -4.7191
 5434SOL     OW27760   2.979   2.316   5.185 -0.5141 -0.1555 -0.7133
 5434SOL    HW127761   2.900   2.355   5.223 -0.3928 -0.9968  0.4116
 5434SOL    HW227762   2.938   2.266   5.114  1.0625 -3.1292  0.4744
 5435SOL     OW27763   2.714   1.297  11.453 -0.2063 -0.8542 -0.7012
 5435SOL    HW127764   2.760   1.254  11.525  3.0644  0.5009 -1.9605
 5435SOL    HW227765   2.669   1.368  11.499  0.1930 -1.1133  0.0898
 5436SOL     OW27766   4.553   1.774   4.679 -0.1645  0.0672  0.3432
 5436SOL    HW127767   4.545   1.869   4.683 -1.0651  0.0977 -2.3341
 5436SOL    HW227768   4.617   1.754   4.611  1.0663  2.4813  0.7780
 5437SOL     OW27769   3.998   3.531   6.807  0.0195  0.0527  0.1675
 5437SOL    HW127770   4.032   3.468   6.870 -0.6389 -0.7233 -0.2476
 5437SOL    HW227771   3.913   3.562   6.840 -0.2109 -0.2130 -0.1708
 5438SOL     OW27772   1.655   2.414   6.591  0.1180  0.1052  0.8781
 5438SOL    HW127773   1.684   2.473   6.522  1.4044 -2.8766 -1.1503
 5438SOL    HW227774   1.682   2.328   6.558 -1.7927 -1.1393  2.4834
 5439SOL     OW27775   4.051   2.467  14.619  0.6668  0.3585 -0.2900
 5439SOL    HW127776   4.019   2.505  14.537  0.8950 -0.5930 -0.8094
 5439SOL    HW227777   3.973   2.501  14.663  2.0770  0.3028  2.2690
 5440SOL     OW27778   0.034   0.815   4.582  0.3045  0.1013  0.2462
 5440SOL    HW127779   4.682   0.764   4.558 -0.3503  1.4378 -0.5104
 5440SOL    HW227780   4.723   0.904   4.588  0.6271  0.1040  2.2221
 5441SOL     OW27781   3.177   2.457   5.076  0.3122  0.2704 -0.0050
 5441SOL    HW127782   3.239   2.388   5.101 -0.8423  0.2147  2.6770
 5441SOL    HW227783   3.100   2.422   5.120  0.9965 -1.0066  0.1687
 5442SOL     OW27784   0.512   0.705  13.730 -0.1539 -0.4795 -0.6475
 5442SOL    HW127785   0.490   0.656  13.809  2.2964 -1.1733 -0.3912
 5442SOL    HW227786   0.602   0.722  13.756  0.3635 -0.5948 -2.3326
 5443SOL     OW27787   0.544   1.515   1.833  0.6415 -0.1513  0.2481
 5443SOL    HW127788   0.636   1.537   1.844  0.7100  0.1795 -0.9784
 5443SOL    HW227789   0.555   1.423   1.811  1.5304  0.1517 -0.6004
 5444SOL     OW27790   3.507   0.056   3.875 -0.4711 -0.5062 -0.1313
 5444SOL    HW127791   3.537   0.138   3.835 -1.2182 -0.6178 -0.9134
 5444SOL    HW227792   3.551   0.056   3.960  3.0750  1.4341 -1.9961
 5445SOL     OW27793   2.035   4.173  15.729 -0.2903 -0.6148 -0.0546
 5445SOL    HW127794   2.126   4.203  15.726  0.7751 -3.7629  1.4461
 5445SOL    HW227795   2.015   4.209  15.816 -1.7368 -0.4395 -0.4634
 5446SOL     OW27796   0.027   0.839   7.190  0.2091  0.4591 -0.2209
 5446SOL    HW127797   0.098   0.785   7.225 -0.7095 -1.5203 -1.4118
 5446SOL    HW227798   0.019   0.903   7.261  0.4502  0.2354  0.0077
 5447SOL     OW27799   0.737   4.037   2.376  0.8329 -0.4292 -0.1522
 5447SOL    HW127800   0.729   3.946   2.404  2.0897 -0.4520  0.1428
 5447SOL    HW227801   0.770   4.074   2.458 -3.9802  1.0311  1.1479
 5448SOL     OW27802   4.372   3.953  10.910 -0.2276  0.1035 -0.1316
 5448SOL    HW127803   4.378   4.047  10.927  0.1290  0.0833 -0.1404
 5448SOL    HW227804   4.415   3.899  10.976 -0.3238  3.1328  2.3749
 5449SOL     OW27805   2.270   0.639   6.660 -0.2012  0.6922 -0.5149
 5449SOL    HW127806   2.288   0.549   6.685 -1.7337  0.6763  0.5617
 5449SOL    HW227807   2.201   0.620   6.596  0.1628 -0.2668 -0.6106
 5450SOL     OW27808   4.473   4.180   8.760 -0.4031  0.1227 -0.5592
 5450SOL    HW127809   4.473   4.095   8.715  0.2155 -0.6819  0.9783
 5450SOL    HW227810   4.558   4.215   8.733 -0.0738 -1.8930 -2.2176
 5451SOL     OW27811   3.408   1.602   5.371 -0.0770  0.2268 -0.0493
 5451SOL    HW127812   3.358   1.680   5.394 -0.3393  0.0165  0.0945
 5451SOL    HW227813   3.459   1.594   5.451  1.3923 -1.6186 -1.1657
 5452SOL     OW27814   3.563   0.225   8.132 -0.2879  0.2002 -0.0656
 5452SOL    HW127815   3.577   0.251   8.041 -2.2689 -2.6588 -1.2064
 5452SOL    HW227816   3.572   0.306   8.183  0.4394  0.9105 -1.3360
 5453SOL     OW27817   3.940   0.303  15.538  0.3473  0.3765  1.0364
 5453SOL    HW127818   3.963   0.377  15.594  0.7822 -1.7425  3.6924
 5453SOL    HW227819   3.955   0.227  15.594 -1.6826 -0.8409 -0.0871
 5454SOL     OW27820   3.719   0.723   2.882  0.6478  0.5197  0.4211
 5454SOL    HW127821   3.717   0.792   2.816  1.2130 -0.4659 -0.6190
 5454SOL    HW227822   3.807   0.692   2.860 -0.3354 -1.1592 -1.1132
 5455SOL     OW27823   3.243   4.567   6.273 -0.0058  0.0848  0.5447
 5455SOL    HW127824   3.167   4.573   6.330  0.3969 -4.1494  1.5212
 5455SOL    HW227825   3.253   4.661   6.261 -1.7196  0.2501  0.5102
 5456SOL     OW27826   1.125   1.294   8.871  0.0451 -0.6362 -0.1021
 5456SOL    HW127827   1.203   1.250   8.905 -0.7965  0.7572  3.6646
 5456SOL    HW227828   1.167   1.378   8.852  2.1505 -1.4769  0.8102
 5457SOL     OW27829   3.583   0.460   8.407  0.4890  0.0020 -0.6537
 5457SOL    HW127830   3.490   0.481   8.414  0.5618  0.4074 -0.8638
 5457SOL    HW227831   3.593   0.400   8.481 -0.3207  1.1821  0.4045
 5458SOL     OW27832   3.086   1.350   4.200  0.3361  0.7550  0.1222
 5458SOL    HW127833   3.070   1.307   4.116 -1.7524  2.5131 -0.3611
 5458SOL    HW227834   3.142   1.278   4.231 -0.5884  0.1370  0.3533
 5459SOL     OW27835   3.660   4.337   5.867 -0.0028 -0.2194 -0.1856
 5459SOL    HW127836   3.606   4.292   5.932 -2.8508  0.9486 -1.7294
 5459SOL    HW227837   3.747   4.298   5.879  0.8615  1.8969  0.4225
 5460SOL     OW27838   4.658   0.036   3.972  0.1359  0.0971  0.3841
 5460SOL    HW127839   0.005   4.700   3.978  0.5434  0.7003  1.7458
 5460SOL    HW227840   4.654   0.045   3.877  1.2032  0.6343  0.3862
 5461SOL     OW27841   1.837   1.651   0.851  0.1256  0.1447 -0.2138
 5461SOL    HW127842   1.759   1.694   0.887 -0.0287 -0.2624 -0.0679
 5461SOL    HW227843   1.898   1.725   0.852  2.3531 -1.6849 -1.3966
 5462SOL     OW27844   0.443   4.336  16.421  0.4113 -0.3635  0.1452
 5462SOL    HW127845   0.368   4.277  16.414  0.8892 -0.8262 -1.0279
 5462SOL    HW227846   0.475   4.323  16.510  0.3190  1.2658  0.4274
 5463SOL     OW27847   1.325   0.108   8.317 -0.5199 -0.3098 -0.1727
 5463SOL    HW127848   1.392   0.099   8.385 -0.3221 -0.0228 -0.3237
 5463SOL    HW227849   1.296   0.020   8.296 -0.5064 -0.3842  0.1329
 5464SOL     OW27850   1.239   4.562  16.332 -0.4602 -0.3326 -0.0679
 5464SOL    HW127851   1.316   4.514  16.363  1.4384  0.6678 -3.1438
 5464SOL    HW227852   1.208   4.504  16.262 -0.1404  0.8617 -1.2127
 5465SOL     OW27853   2.723   2.730   6.471 -0.6433  0.4579 -0.3441
 5465SOL    HW127854   2.698   2.750   6.381 -0.7342  1.9421  0.0173
 5465SOL    HW227855   2.792   2.672   6.438 -0.3181 -0.2375  1.5749
 5466SOL     OW27856   2.625   0.164   3.313  0.3493  0.0798  0.0456
 5466SOL    HW127857   2.552   0.170   3.374 -0.5129  1.3259 -1.0867
 5466SOL    HW227858   2.695   0.199   3.368  0.5503 -2.1358  1.2103
 5467SOL     OW27859   1.031   0.715   8.761 -0.7494  0.1797 -0.0721
 5467SOL    HW127860   0.990   0.628   8.760  0.3778 -0.2892 -3.0648
 5467SOL    HW227861   0.998   0.754   8.680  0.3138 -0.1734 -0.6782
 5468SOL     OW27862   1.440   0.482   7.832 -0.3386  0.6639  0.3721
 5468SOL    HW127863   1.360   0.500   7.782 -0.3674  1.4506  0.7067
 5468SOL    HW227864   1.496   0.460   7.757 -0.6571  0.7871  0.0941
 5469SOL     OW27865   4.081   2.054   1.193  0.1754  0.2778 -0.1917
 5469SOL    HW127866   4.177   2.051   1.199  0.0408 -2.6597  0.4007
 5469SOL    HW227867   4.061   1.968   1.229  0.3687  1.4314  2.7228
 5470SOL     OW27868   0.240   1.839   1.702 -0.2816  0.4287 -0.0060
 5470SOL    HW127869   0.305   1.880   1.757  0.3091 -0.4941 -0.0156
 5470SOL    HW227870   0.171   1.804   1.759  0.1798  0.9555  0.8691
 5471SOL     OW27871   1.606   2.372   0.024  0.1065 -0.4804  0.3590
 5471SOL    HW127872   1.671   2.308  17.697  1.0312 -0.6926  2.8662
 5471SOL    HW227873   1.573   2.413  17.646  2.2266  1.0985  0.2748
 5472SOL     OW27874   3.313   4.172  12.893 -0.2681 -0.1164  0.3955
 5472SOL    HW127875   3.384   4.217  12.846 -1.3351 -0.3600 -1.4840
 5472SOL    HW227876   3.231   4.205  12.855 -1.4832 -1.8823  1.4871
 5473SOL     OW27877   3.886   0.799   9.253  0.6209  0.4450  0.2770
 5473SOL    HW127878   3.900   0.858   9.327 -2.8351  0.5857  0.8299
 5473SOL    HW227879   3.956   0.826   9.193 -0.2901  0.7916 -0.6401
 5474SOL     OW27880   0.516   2.556   5.650  0.0071 -0.3395  0.2289
 5474SOL    HW127881   0.539   2.475   5.694 -1.0803 -0.1414  1.1710
 5474SOL    HW227882   0.443   2.584   5.705 -0.7459 -1.4695 -0.2163
 5475SOL     OW27883   1.268   3.920   6.809  0.1889 -0.2719  0.0087
 5475SOL    HW127884   1.341   3.865   6.840  3.4859  3.6811 -0.7594
 5475SOL    HW227885   1.211   3.935   6.884 -2.1136 -1.4849 -1.5124
 5476SOL     OW27886   1.799   2.759   1.270 -0.3653 -0.0649 -0.5749
 5476SOL    HW127887   1.758   2.839   1.303  1.3286  0.1815  0.9643
 5476SOL    HW227888   1.778   2.691   1.334  0.3150  1.9936  1.8640
 5477SOL     OW27889   1.294   1.789  13.816  0.1637  0.4334 -0.1706
 5477SOL    HW127890   1.230   1.761  13.751 -1.3151 -0.4871  1.6834
 5477SOL    HW227891   1.350   1.712  13.828  1.1806  1.0223 -1.1216
 5478SOL     OW27892   2.374   3.868   8.843  0.2697  0.3864  0.1585
 5478SOL    HW127893   2.325   3.934   8.892  2.3437  0.5814  1.9935
 5478SOL    HW227894   2.397   3.800   8.906  0.4178  2.4092  2.3211
 5479SOL     OW27895   0.572   3.757   4.951  0.2822  0.3436  0.1044
 5479SOL    HW127896   0.646   3.815   4.935 -0.3969  1.0441 -0.4635
 5479SOL    HW227897   0.505   3.800   4.899 -0.9769 -2.8889 -0.9082
 5480SOL     OW27898   0.386   1.643  15.906 -0.8785 -0.2348  0.2018
 5480SOL    HW127899   0.461   1.653  15.848 -0.6377 -2.8677  0.0525
 5480SOL    HW227900   0.432   1.642  15.991 -2.0677  4.9541  0.9454
 5481SOL     OW27901   4.306   1.990   8.125 -0.2341  0.3976 -0.1581
 5481SOL    HW127902   4.221   2.020   8.157  0.8983  4.2619 -0.7863
 5481SOL    HW227903   4.350   2.072   8.102 -2.6246  2.2384  1.9657
 5482SOL     OW27904   3.507   0.136  15.741  0.2715 -0.0653 -0.6602
 5482SOL    HW127905   3.577   0.201  15.737  1.0400 -0.8043  0.6831
 5482SOL    HW227906   3.429   0.191  15.743 -0.0858 -0.5293 -1.9291
 5483SOL     OW27907   2.245   1.695   8.434  0.1048  0.0340 -0.0427
 5483SOL    HW127908   2.180   1.678   8.366  0.9672 -0.9678 -0.6191
 5483SOL    HW227909   2.198   1.752   8.495  0.8066  0.3123  0.2360
 5484SOL     OW27910   4.523   0.446  17.382  0.6093  0.5946  0.6426
 5484SOL    HW127911   4.481   0.456  17.467  0.8795 -1.0072  0.9555
 5484SOL    HW227912   4.454   0.477  17.323 -1.3858 -1.2062  2.0179
 5485SOL     OW27913   3.908   2.695  15.595 -0.4539 -0.2550  0.4971
 5485SOL    HW127914   3.892   2.789  15.592  2.0328  0.1342  0.0337
 5485SOL    HW227915   3.961   2.685  15.674  0.0479 -2.8414 -0.1889
 5486SOL     OW27916   4.549   3.212  10.698  0.4109  0.2577 -0.1995
 5486SOL    HW127917   4.530   3.301  10.727  1.7217  0.2376  0.6930
 5486SOL    HW227918   4.461   3.207  10.661 -0.0266 -0.3727  0.9073
 5487SOL     OW27919   3.273   0.822  13.317 -0.1916 -0.7373 -0.5101
 5487SOL    HW127920   3.231   0.766  13.383  0.3098 -1.4160 -0.7641
 5487SOL    HW227921   3.200   0.836  13.256  0.2347  1.8161 -0.4048
 5488SOL     OW27922   0.544   2.217  10.287 -0.0710 -0.4226  0.7579
 5488SOL    HW127923   0.549   2.127  10.254 -0.4625 -0.8577  1.9047
 5488SOL    HW227924   0.580   2.253  10.206 -0.4756  0.7290  1.0924
 5489SOL     OW27925   3.043   4.695   1.636  0.2235  0.0456 -0.1895
 5489SOL    HW127926   2.956   4.698   1.597 -0.2519  1.5305  0.9990
 5489SOL    HW227927   3.083   4.638   1.571 -0.4386 -1.2084  0.5105
 5490SOL     OW27928   1.660   3.944   5.939  0.0232 -0.0437  0.0470
 5490SOL    HW127929   1.752   3.940   5.965 -0.0973 -1.0988  0.3078
 5490SOL    HW227930   1.625   3.994   6.012 -1.0215  2.9791 -2.5596
 5491SOL     OW27931   2.059   2.186   1.507 -0.6981 -0.1968  0.4153
 5491SOL    HW127932   2.143   2.139   1.507 -0.6027 -0.0259  0.2133
 5491SOL    HW227933   1.996   2.114   1.505 -0.2556 -0.5445 -1.1131
 5492SOL     OW27934   3.216   3.841  10.861 -0.3010 -0.3644 -0.4107
 5492SOL    HW127935   3.272   3.816  10.934  1.3964  0.9812 -1.2704
 5492SOL    HW227936   3.189   3.930  10.884 -0.6608 -0.2890 -1.1219
 5493SOL     OW27937   4.320   1.991   1.327 -0.5787 -0.7246  0.7110
 5493SOL    HW127938   4.390   1.937   1.290  2.5820  2.7085  1.7130
 5493SOL    HW227939   4.364   2.076   1.325 -3.9603  0.9474 -3.0583
 5494SOL     OW27940   0.227   1.081   4.585  0.0913  0.3535 -0.2382
 5494SOL    HW127941   0.244   1.030   4.506  1.4835  1.0493 -0.3898
 5494SOL    HW227942   0.132   1.079   4.593  0.0464 -2.1418 -1.3033
 5495SOL     OW27943   4.218   0.906   8.484  0.5608  0.3732 -0.4309
 5495SOL    HW127944   4.135   0.864   8.462  0.8913  1.0988 -3.1363
 5495SOL    HW227945   4.195   0.958   8.561  0.8905  0.1688 -0.1977
 5496SOL     OW27946   4.313   4.330   2.089  0.2978 -0.2273  0.0599
 5496SOL    HW127947   4.396   4.283   2.082  0.9551  0.7893  0.9561
 5496SOL    HW227948   4.351   4.403   2.138  0.6385 -0.5384  0.2647
 5497SOL     OW27949   4.189   1.542   1.516  0.7600  0.0944 -0.1949
 5497SOL    HW127950   4.119   1.477   1.521 -0.1814  0.9657 -2.2706
 5497SOL    HW227951   4.151   1.613   1.569  0.9540  0.2037 -0.2029
 5498SOL     OW27952   0.595   4.345   7.626  0.0727 -0.7930  0.7474
 5498SOL    HW127953   0.633   4.323   7.712  1.2567  2.9352  1.1696
 5498SOL    HW227954   0.561   4.433   7.642  1.5813  0.2161 -1.7015
 5499SOL     OW27955   2.928   3.951  15.227  0.1398  0.6651  0.0119
 5499SOL    HW127956   2.962   4.029  15.272 -1.1807  0.5881  1.1277
 5499SOL    HW227957   2.843   3.985  15.200 -1.1878 -1.3598  1.6498
 5500SOL     OW27958   3.730   4.272   9.344 -0.2853 -0.2301 -0.5049
 5500SOL    HW127959   3.705   4.307   9.259  1.6922  0.9880 -0.5725
 5500SOL    HW227960   3.792   4.340   9.371  0.2816  0.5503 -3.8323
 5501SOL     OW27961   4.154   2.381  11.809 -0.2648  0.4187 -0.1764
 5501SOL    HW127962   4.223   2.447  11.806 -1.1120  1.2303 -1.6734
 5501SOL    HW227963   4.155   2.354  11.717  2.0635  0.8715 -0.2966
 5502SOL     OW27964   2.521   2.482   3.021  0.0849 -0.1143 -0.0232
 5502SOL    HW127965   2.480   2.397   3.034 -1.8198  0.9686  1.0107
 5502SOL    HW227966   2.593   2.483   3.083  0.5364 -0.5306 -0.5387
 5503SOL     OW27967   3.614   3.746   8.030 -0.4808  0.1410 -0.5157
 5503SOL    HW127968   3.646   3.804   8.099  0.5650  0.7548 -1.5197
 5503SOL    HW227969   3.520   3.765   8.029 -0.4721  0.2836  1.4982
 5504SOL     OW27970   2.432   3.940   6.251 -0.9269  0.3470 -0.1939
 5504SOL    HW127971   2.410   4.030   6.276  0.0843 -0.0065  1.9446
 5504SOL    HW227972   2.403   3.944   6.160  3.5565 -1.8788 -1.7116
 5505SOL     OW27973   2.866   1.880   8.777 -0.3041  0.6655 -0.0774
 5505SOL    HW127974   2.945   1.893   8.830 -0.8740 -0.0688  0.9450
 5505SOL    HW227975   2.812   1.958   8.789  1.6048  1.8524  0.7338
 5506SOL     OW27976   2.838   1.050  13.718 -0.1389 -0.4950  0.4140
 5506SOL    HW127977   2.822   1.142  13.740  0.0801  0.0419 -1.6532
 5506SOL    HW227978   2.757   1.032  13.669  1.4495 -1.1423 -1.9342
 5507SOL     OW27979   2.710   3.756   1.788 -0.7521  0.1876  0.0606
 5507SOL    HW127980   2.728   3.718   1.702 -0.1207  1.3161 -0.2997
 5507SOL    HW227981   2.614   3.757   1.791 -0.7459  2.0732 -0.2676
 5508SOL     OW27982   4.100   3.280   2.183  0.6128  0.1657 -0.1115
 5508SOL    HW127983   4.005   3.269   2.175  0.2377  2.6088  1.1515
 5508SOL    HW227984   4.109   3.334   2.261  1.3559  1.7654 -1.2874
 5509SOL     OW27985   3.044   2.438  14.268  0.0466 -0.6421 -0.0925
 5509SOL    HW127986   3.056   2.410  14.177  0.1264  0.1317 -0.3203
 5509SOL    HW227987   2.974   2.500  14.249  0.6863 -0.2117 -1.0545
 5510SOL     OW27988   1.064   1.823  11.678  0.1694  1.0547 -0.1732
 5510SOL    HW127989   1.063   1.790  11.588 -0.9169  1.3946 -0.2920
 5510SOL    HW227990   0.979   1.866  11.687 -0.1826  0.0806  1.0306
 5511SOL     OW27991   1.978   4.071   6.619  0.0397 -0.7607  0.1660
 5511SOL    HW127992   1.991   4.018   6.540  4.4231 -1.6909  1.4904
 5511SOL    HW227993   2.036   4.145   6.603 -0.2633 -0.5998 -0.1785
 5512SOL     OW27994   0.895   3.282  15.521  0.4182 -0.3042  0.7825
 5512SOL    HW127995   0.915   3.375  15.531  0.1559 -0.2758  1.0350
 5512SOL    HW227996   0.906   3.266  15.427 -0.1923 -1.6033  0.9267
 5513SOL     OW27997   0.317   3.032  12.878 -0.0090  0.4670 -0.1594
 5513SOL    HW127998   0.322   3.106  12.819 -1.7376 -0.5961 -1.6566
 5513SOL    HW227999   0.406   3.001  12.894  0.0240  0.6006 -0.0882
 5514SOL     OW28000   0.654   2.067   1.570 -0.1568  0.5328 -0.0764
 5514SOL    HW128001   0.714   2.065   1.495 -0.6787 -0.9961 -0.4365
 5514SOL    HW228002   0.613   2.154   1.562 -1.2816 -0.1011 -1.1393
 5515SOL     OW28003   0.439   3.307   4.867  0.3693  0.3579  0.4946
 5515SOL    HW128004   0.504   3.337   4.931  0.6188 -1.1142  0.9441
 5515SOL    HW228005   0.424   3.369   4.796  1.6785  2.3565  1.9552
 5516SOL     OW28006   2.949   2.224   1.040  0.2276  0.5614  0.2739
 5516SOL    HW128007   3.012   2.291   1.068  0.7681  0.4697 -0.7428
 5516SOL    HW228008   2.970   2.190   0.953 -0.6687 -0.0139  0.2816
 5517SOL     OW28009   3.893   0.345   7.111  0.1302  0.1189 -0.1242
 5517SOL    HW128010   3.914   0.392   7.191 -0.6472  0.6846 -0.2457
 5517SOL    HW228011   3.961   0.278   7.117 -1.8918 -1.7158  2.2488
 5518SOL     OW28012   1.189   2.388   5.616 -0.2828 -0.2574 -0.2349
 5518SOL    HW128013   1.125   2.457   5.597 -0.0437 -0.0835 -0.3991
 5518SOL    HW228014   1.137   2.331   5.674  0.6216 -0.9125 -0.0738
 5519SOL     OW28015   3.503   1.208   1.743  0.0749  0.0629  0.1568
 5519SOL    HW128016   3.423   1.227   1.791  0.0360 -0.4195  0.2905
 5519SOL    HW228017   3.547   1.161   1.814 -1.6066  0.5700  1.5289
 5520SOL     OW28018   1.891   3.977   7.907  0.1064  0.5406 -0.0832
 5520SOL    HW128019   1.936   4.030   7.973  1.8767 -0.2008 -0.6978
 5520SOL    HW228020   1.960   3.956   7.844 -0.6500 -1.3622 -0.2852
 5521SOL     OW28021   2.310   2.111   0.235 -0.4615  0.6540 -0.1605
 5521SOL    HW128022   2.238   2.048   0.237 -0.9743  1.2594  0.9894
 5521SOL    HW228023   2.362   2.074   0.306 -1.0243 -1.2319 -0.7293
 5522SOL     OW28024   0.568   2.670  13.330  0.2332  0.2547  0.3171
 5522SOL    HW128025   0.611   2.591  13.364 -1.1245  0.9107  3.6339
 5522SOL    HW228026   0.626   2.744  13.348  0.4261  0.5540 -1.5482
 5523SOL     OW28027   0.444   4.202  10.399  0.0650 -0.2019  0.2175
 5523SOL    HW128028   0.501   4.259  10.348  1.7499  0.6651  3.0231
 5523SOL    HW228029   0.451   4.244  10.485 -3.3848  1.1223 -0.1528
 5524SOL     OW28030   4.481   3.041  17.093  0.3122  0.1755 -0.0175
 5524SOL    HW128031   4.544   3.082  17.033  0.3311  1.0612  0.6184
 5524SOL    HW228032   4.413   3.001  17.038 -2.5384  1.0708  2.8430
 5525SOL     OW28033   1.218   0.976   5.794 -0.2277 -0.0672 -0.5734
 5525SOL    HW128034   1.221   0.894   5.843  2.3582  0.7523  0.6821
 5525SOL    HW228035   1.240   1.036   5.866 -0.4538  1.2126 -1.5789
 5526SOL     OW28036   0.267   4.644   5.299 -0.7746  0.9300  0.1165
 5526SOL    HW128037   0.279   4.681   5.386 -0.3942  0.0987  0.4221
 5526SOL    HW228038   0.228   4.723   5.262 -2.2563  0.4617  0.6941
 5527SOL     OW28039   1.122   0.896   7.940  0.1337  0.8342  0.1045
 5527SOL    HW128040   1.108   0.956   8.013 -5.3555  1.0685 -1.0974
 5527SOL    HW228041   1.145   0.949   7.864  1.3975 -0.4642 -0.4129
 5528SOL     OW28042   3.715   3.071   5.593  0.1498 -0.0525 -0.2556
 5528SOL    HW128043   3.725   3.155   5.548 -0.8135 -1.2211 -2.6446
 5528SOL    HW228044   3.649   3.109   5.651 -2.3984  3.3936 -5.4349
 5529SOL     OW28045   0.447   4.138  11.689 -0.0038 -0.1906  0.3190
 5529SOL    HW128046   0.495   4.108  11.765 -2.6988 -0.7050  1.8115
 5529SOL    HW228047   0.512   4.101  11.629  1.4082  2.1084  0.4069
 5530SOL     OW28048   4.177   2.448   6.943  0.2867 -0.0046 -0.2649
 5530SOL    HW128049   4.204   2.371   6.893  1.6269  0.2195  0.1307
 5530SOL    HW228050   4.224   2.519   6.900  1.4526  1.0573  2.7947
 5531SOL     OW28051   3.359   1.457  14.004  0.1169 -0.3894  0.4901
 5531SOL    HW128052   3.335   1.416  14.087  0.1486 -1.4453 -0.0308
 5531SOL    HW228053   3.305   1.536  14.007 -0.2298 -0.5369 -2.0255
 5532SOL     OW28054   2.617   2.702   4.731  0.2926 -0.3977  0.0291
 5532SOL    HW128055   2.638   2.629   4.672  1.1173 -0.2452  0.1346
 5532SOL    HW228056   2.562   2.749   4.668 -0.4105  0.3841  1.2379
 5533SOL     OW28057   0.733   4.543   8.537  0.5802  0.0480 -0.0719
 5533SOL    HW128058   0.698   4.458   8.564  1.4712 -0.4012 -0.2971
 5533SOL    HW228059   0.713   4.540   8.443 -0.5273 -2.6040  0.2481
 5534SOL     OW28060   0.532   0.676   3.538 -0.2591 -0.8696 -0.0833
 5534SOL    HW128061   0.465   0.612   3.561  0.3853 -1.6765 -0.4535
 5534SOL    HW228062   0.500   0.757   3.577  1.2684 -1.2285  1.9347
 5535SOL     OW28063   0.934   4.431   8.273 -0.3833  0.0435  0.1181
 5535SOL    HW128064   0.964   4.475   8.352  0.5261  0.6277 -0.5566
 5535SOL    HW228065   0.902   4.345   8.300 -0.0096 -0.8152 -2.1732
 5536SOL     OW28066   3.906   2.104   6.841 -0.3150  0.4161 -0.4937
 5536SOL    HW128067   3.962   2.182   6.845  1.2282 -0.7170  0.4310
 5536SOL    HW228068   3.849   2.123   6.767  0.5669  2.2164 -0.7200
 5537SOL     OW28069   3.039   1.100   4.646 -0.1746  0.4506 -0.6857
 5537SOL    HW128070   3.083   1.016   4.638 -2.2179 -0.4729 -2.1443
 5537SOL    HW228071   3.066   1.112   4.737 -0.4990  1.6922 -0.7436
 5538SOL     OW28072   1.685   1.271   8.881 -0.2860 -0.2176  0.3206
 5538SOL    HW128073   1.661   1.205   8.946 -2.2775  1.1745  1.0087
 5538SOL    HW228074   1.677   1.227   8.797 -0.1186  0.6306 -0.1363
 5539SOL     OW28075   0.804   3.586   7.990 -0.3639 -0.5149  0.1735
 5539SOL    HW128076   0.769   3.523   7.927  1.0780 -1.2027  0.0438
 5539SOL    HW228077   0.807   3.664   7.936  0.3246 -1.1074 -0.6571
 5540SOL     OW28078   1.419   3.449   1.029  0.1915  0.4283  0.0911
 5540SOL    HW128079   1.435   3.508   0.956  3.4219 -0.7266 -0.1060
 5540SOL    HW228080   1.344   3.489   1.073 -0.0526 -0.2309  0.2729
 5541SOL     OW28081   2.103   2.213   3.383 -0.0031 -0.0811  0.3724
 5541SOL    HW128082   2.184   2.264   3.378 -0.8264  1.3642  1.6657
 5541SOL    HW228083   2.117   2.156   3.458  1.9289  0.6476  0.5617
 5542SOL     OW28084   4.589   4.264   4.924  0.1586  0.0794 -0.2866
 5542SOL    HW128085   4.637   4.224   4.851  1.1216 -0.0810  0.4382
 5542SOL    HW228086   4.506   4.279   4.878 -0.6374  1.5203  1.6339
 5543SOL     OW28087   2.076   4.445   1.584 -0.0975  0.1199  0.2159
 5543SOL    HW128088   2.048   4.532   1.556  0.6414  0.3729  0.2636
 5543SOL    HW228089   2.041   4.392   1.512  1.3216  2.3092 -2.0747
 5544SOL     OW28090   3.299   4.101   8.556 -0.2629 -0.0746 -0.8416
 5544SOL    HW128091   3.210   4.068   8.562 -0.3885  0.3149 -0.6390
 5544SOL    HW228092   3.304   4.108   8.460  0.8060  1.9610 -0.6215
 5545SOL     OW28093   4.259   2.610   2.345  0.3278  0.0439 -0.6698
 5545SOL    HW128094   4.166   2.609   2.366  0.4087 -1.4807 -0.3758
 5545SOL    HW228095   4.258   2.561   2.263 -3.3697 -0.2455 -0.4505
 5546SOL     OW28096   2.673   4.566   5.299  0.1125  0.4823  0.6753
 5546SOL    HW128097   2.659   4.473   5.318  1.0904  0.3292  0.6495
 5546SOL    HW228098   2.758   4.560   5.256  0.5140  0.0717  1.5158
 5547SOL     OW28099   3.587   2.468   6.267 -0.2163  0.3342 -0.0213
 5547SOL    HW128100   3.559   2.552   6.229  1.0814  0.4669 -0.6886
 5547SOL    HW228101   3.682   2.467   6.250 -0.7356 -1.3204 -2.7512
 5548SOL     OW28102   0.635   0.062   3.693 -0.1111  0.3216 -0.4829
 5548SOL    HW128103   0.619   4.693   3.699 -0.0760  0.2958 -0.8023
 5548SOL    HW228104   0.729   0.065   3.673 -0.6605  2.7674 -2.6316
 5549SOL     OW28105   2.143   1.075   5.586 -0.5217  0.1648 -0.5196
 5549SOL    HW128106   2.210   1.019   5.624 -1.0858 -0.2344 -0.1108
 5549SOL    HW228107   2.151   1.146   5.650  1.5785 -2.2568  1.9185
 5550SOL     OW28108   1.563   1.442   5.853 -0.2390 -0.1666 -0.8569
 5550SOL    HW128109   1.568   1.473   5.762 -0.0351 -0.0190 -0.7958
 5550SOL    HW228110   1.528   1.354   5.840  1.9093 -0.9846 -1.1684
 5551SOL     OW28111   0.695   2.985   6.693  0.0470  0.1852 -0.0119
 5551SOL    HW128112   0.643   2.956   6.768  1.1307 -1.8947 -0.0883
 5551SOL    HW228113   0.697   2.901   6.648 -0.1689  0.9741 -1.5121
 5552SOL     OW28114   4.634   3.746  16.853 -0.7193  0.0171  0.0611
 5552SOL    HW128115   4.660   3.696  16.775  1.8834  0.5988  0.5318
 5552SOL    HW228116   4.561   3.701  16.894  0.6629 -3.8854 -1.8044
 5553SOL     OW28117   1.579   3.426   5.812 -0.3391  0.3133 -1.0430
 5553SOL    HW128118   1.600   3.333   5.819  0.3177  0.3508 -2.4116
 5553SOL    HW228119   1.541   3.446   5.897  0.4773  0.1923 -0.6479
 5554SOL     OW28120   1.186   1.021   8.832 -0.2372  0.6741  0.0440
 5554SOL    HW128121   1.131   1.097   8.811  0.8144  1.5580  0.5212
 5554SOL    HW228122   1.257   1.064   8.879  0.7276 -1.9458  0.9908
 5555SOL     OW28123   2.626   1.427  12.395 -0.6132 -0.1116 -0.7788
 5555SOL    HW128124   2.549   1.442  12.340 -1.0379  2.9059  0.6559
 5555SOL    HW228125   2.615   1.332  12.400  1.6498 -0.2194  1.8662
 5556SOL     OW28126   1.217   3.891   4.429 -0.2108  0.2953  0.2229
 5556SOL    HW128127   1.141   3.947   4.413  1.6537  2.7692  0.0222
 5556SOL    HW228128   1.183   3.809   4.392  2.0461 -0.1097 -0.9414
 5557SOL     OW28129   1.086   4.104   2.574 -0.1114  0.2814 -0.3933
 5557SOL    HW128130   1.109   4.156   2.497  0.2539  0.3437 -0.2417
 5557SOL    HW228131   1.034   4.177   2.607  1.1934  1.2885 -0.5379
 5558SOL     OW28132   0.916   0.478   2.337 -0.4179  0.0991 -0.0861
 5558SOL    HW128133   0.923   0.504   2.245  1.1401 -1.0132 -0.2801
 5558SOL    HW228134   0.994   0.525   2.363  0.0227  0.3722 -1.8846
 5559SOL     OW28135   4.133   2.768  13.691 -0.0368 -0.0548  0.3352
 5559SOL    HW128136   4.147   2.841  13.751  0.5467 -1.1222  1.5098
 5559SOL    HW228137   4.044   2.780  13.659 -0.1972 -0.0777  0.7845
 5560SOL     OW28138   0.196   0.117   5.516  0.1430  0.1193  0.0525
 5560SOL    HW128139   0.171   0.124   5.608  4.4975 -0.7545  1.3038
 5560SOL    HW228140   0.280   0.163   5.512  0.8204 -1.0837  0.4551
 5561SOL     OW28141   3.251   0.062   9.694  0.0264 -0.2879  0.6306
 5561SOL    HW128142   3.270   4.694   9.684 -1.3155 -0.2335 -2.3056
 5561SOL    HW228143   3.168   0.064   9.741 -0.7470 -1.8852 -0.7021
 5562SOL     OW28144   0.872   3.408  13.691 -0.6412  0.1846  0.1602
 5562SOL    HW128145   0.856   3.443  13.603 -3.8838  2.1534  1.5571
 5562SOL    HW228146   0.916   3.327  13.663 -0.5143  0.4027 -0.2787
 5563SOL     OW28147   4.134   3.497  17.092 -0.2173  0.3351  0.4087
 5563SOL    HW128148   4.165   3.587  17.087 -0.1074  0.2719 -0.0566
 5563SOL    HW228149   4.213   3.465  17.135  0.7757 -0.7383 -2.2271
 5564SOL     OW28150   1.044   4.141  14.623  0.0566  0.3110  0.3161
 5564SOL    HW128151   0.960   4.179  14.597 -0.7398 -1.1483  0.7433
 5564SOL    HW228152   1.071   4.120  14.534  0.3400 -0.7515  0.6481
 5565SOL     OW28153   0.244   2.172   0.970  0.5120  0.5054 -0.2934
 5565SOL    HW128154   0.246   2.209   0.882  0.3245  1.5191  0.1381
 5565SOL    HW228155   0.166   2.221   0.997 -0.1010 -1.1478  1.0040
 5566SOL     OW28156   1.594   3.462   0.728 -0.2135 -0.2492 -0.2018
 5566SOL    HW128157   1.649   3.517   0.673 -2.0809  1.6024 -0.2238
 5566SOL    HW228158   1.524   3.523   0.752  0.7227  0.7494 -0.0645
 5567SOL     OW28159   1.899   4.347  16.511 -0.4874 -0.2415 -0.3633
 5567SOL    HW128160   1.832   4.414  16.497  0.0777  0.5962  0.9733
 5567SOL    HW228161   1.971   4.374  16.455 -0.4014 -0.3687 -0.3149
 5568SOL     OW28162   4.532   2.899   3.813  0.3417  0.3420  0.5529
 5568SOL    HW128163   4.620   2.898   3.852  1.5500  1.8923 -2.1412
 5568SOL    HW228164   4.521   2.807   3.786  1.9873  0.3701 -0.2353
 5569SOL     OW28165   1.311   3.262  12.181 -0.5487  0.2472  0.2306
 5569SOL    HW128166   1.391   3.230  12.137  0.0810  1.5345  0.4463
 5569SOL    HW228167   1.282   3.325  12.115 -1.0735 -0.5565 -0.3086
 5570SOL     OW28168   2.089   2.403   4.867 -0.0407  0.0776  0.3725
 5570SOL    HW128169   2.157   2.470   4.869 -2.3080  2.4568 -0.9549
 5570SOL    HW228170   2.105   2.346   4.942 -1.3624  1.0063  1.3752
 5571SOL     OW28171   2.291   1.403   3.067 -0.3338 -0.8139  0.0648
 5571SOL    HW128172   2.364   1.432   3.011  1.4490 -1.6579  1.9342
 5571SOL    HW228173   2.338   1.369   3.143  2.7275 -0.9229 -1.8329
 5572SOL     OW28174   1.269   0.998   1.861 -0.1412 -0.5520 -0.1881
 5572SOL    HW128175   1.352   1.019   1.904 -1.7035  0.1441  2.5230
 5572SOL    HW228176   1.238   0.918   1.903 -0.7827  0.2970  0.9993
 5573SOL     OW28177   1.256   3.830   2.443 -0.4552  0.1849 -0.3454
 5573SOL    HW128178   1.172   3.829   2.489 -0.1171 -0.2022  0.2667
 5573SOL    HW228179   1.234   3.839   2.350 -0.7741  1.7878 -0.1127
 5574SOL     OW28180   4.194   4.127   8.417  0.3068 -0.3755  0.1572
 5574SOL    HW128181   4.152   4.213   8.414 -0.0738 -0.5749 -0.3193
 5574SOL    HW228182   4.287   4.145   8.404  0.5210 -0.7359  1.1521
 5575SOL     OW28183   1.744   0.641  10.098  0.3371  0.8087 -0.5745
 5575SOL    HW128184   1.794   0.720  10.080  1.1909  0.4316  0.1633
 5575SOL    HW228185   1.804   0.598  10.159 -1.8274 -0.6330  0.5497
 5576SOL     OW28186   2.819   0.485  12.011  0.0809  0.3109 -0.8149
 5576SOL    HW128187   2.821   0.394  11.980  0.6363  0.4877 -1.3145
 5576SOL    HW228188   2.823   0.536  11.930  0.7022  0.3797 -0.7417
 5577SOL     OW28189   3.517   1.283   7.313  0.4128 -0.3617  0.0047
 5577SOL    HW128190   3.519   1.227   7.390  0.2874  1.1181  1.0988
 5577SOL    HW228191   3.545   1.222   7.245  0.0284 -1.0696  0.4919
 5578SOL     OW28192   0.123   4.326   1.860 -0.3679 -0.0848  0.3269
 5578SOL    HW128193   0.165   4.383   1.924 -0.2445  0.7052 -0.4559
 5578SOL    HW228194   0.097   4.395   1.799  0.1111 -0.5214 -0.3769
 5579SOL     OW28195   1.510   3.070  13.136  0.0807 -0.2999  0.4558
 5579SOL    HW128196   1.440   3.108  13.189 -1.7015  0.4055 -2.4206
 5579SOL    HW228197   1.470   2.991  13.100 -0.2901 -1.1254  2.6544
 5580SOL     OW28198   1.093   3.627   5.977 -0.3605 -0.4525  0.2321
 5580SOL    HW128199   1.149   3.679   6.036  0.7625 -2.3057  0.7898
 5580SOL    HW228200   1.089   3.691   5.906 -1.2891  0.2356  0.9091
 5581SOL     OW28201   3.663   3.688   6.033 -0.0007 -0.4907 -0.0830
 5581SOL    HW128202   3.748   3.715   6.000 -0.5152  0.8422 -0.2792
 5581SOL    HW228203   3.606   3.716   5.962  0.4388  0.6590  0.0217
 5582SOL     OW28204   3.217   2.527   1.345 -0.1549 -1.1829 -0.5050
 5582SOL    HW128205   3.207   2.470   1.422 -0.3577  0.2405  0.5157
 5582SOL    HW228206   3.126   2.558   1.349  0.4753  0.8261 -1.7836
 5583SOL     OW28207   3.776   1.104   7.506 -0.1907 -0.0185  0.3553
 5583SOL    HW128208   3.724   1.061   7.574 -0.1613  3.3278  2.4629
 5583SOL    HW228209   3.810   1.177   7.557  0.3271 -1.0549  1.4683
 5584SOL     OW28210   3.989   2.122   7.262 -0.6146  0.1204  0.1189
 5584SOL    HW128211   4.023   2.203   7.224  1.8759 -0.5479  0.9445
 5584SOL    HW228212   4.067   2.068   7.264 -0.8914 -0.2637  0.8513
 5585SOL     OW28213   1.946   4.084   9.373  0.5240  0.7971 -0.0562
 5585SOL    HW128214   2.033   4.066   9.338  0.4354 -1.0957  0.7138
 5585SOL    HW228215   1.973   4.139   9.447 -1.7707  0.9362  0.6870
 5586SOL     OW28216   0.111   1.213   0.945  0.1010 -0.1326 -0.3128
 5586SOL    HW128217   0.172   1.282   0.970  0.1078 -0.4721  0.6048
 5586SOL    HW228218   0.142   1.186   0.859 -0.6020 -1.4246 -0.1614
 5587SOL     OW28219   1.641   2.328   1.299 -0.3458  0.2581 -0.3240
 5587SOL    HW128220   1.602   2.243   1.279 -0.3330  0.2479 -0.3049
 5587SOL    HW228221   1.565   2.381   1.275 -2.0603 -0.9831  2.3487
 5588SOL     OW28222   3.655   3.938   5.149  0.1303 -0.8991 -0.5127
 5588SOL    HW128223   3.726   3.996   5.120  1.2020 -1.0863  1.7471
 5588SOL    HW228224   3.591   4.005   5.173  0.4934 -0.7076 -0.0661
 5589SOL     OW28225   1.871   4.648  12.595 -0.0700 -0.4958  0.3365
 5589SOL    HW128226   1.934   4.714  12.567  1.5840 -2.0725  0.3576
 5589SOL    HW228227   1.787   4.687  12.569  0.4878  1.4453  1.4225
 5590SOL     OW28228   2.417   1.390   1.209  0.2902  1.0718  0.3672
 5590SOL    HW128229   2.485   1.336   1.250  0.7577  0.7298 -0.8323
 5590SOL    HW228230   2.351   1.327   1.182  0.8576  1.3894 -1.7840
 5591SOL     OW28231   1.151   2.552  10.809 -0.0899  0.2889 -0.1543
 5591SOL    HW128232   1.086   2.598  10.862  0.6802  0.7552  0.3738
 5591SOL    HW228233   1.218   2.618  10.824  1.1888 -0.4876 -2.2711
 5592SOL     OW28234   3.324   4.327   9.309 -0.3724  0.6237  0.2709
 5592SOL    HW128235   3.392   4.269   9.344  0.0690 -0.1169 -1.8154
 5592SOL    HW228236   3.339   4.319   9.215 -1.9339  1.0874 -0.0214
 5593SOL     OW28237   4.171   1.731  11.426 -0.2128  0.9895  1.0297
 5593SOL    HW128238   4.127   1.705  11.345  0.5486  0.8525  0.6626
 5593SOL    HW228239   4.124   1.693  11.501  0.8006 -0.7235  0.7943
 5594SOL     OW28240   0.743   0.123  11.333 -0.3034  0.2431 -0.0840
 5594SOL    HW128241   0.814   0.135  11.270 -1.5098 -2.2362 -1.9511
 5594SOL    HW228242   0.739   0.027  11.343 -1.5997  0.3544  0.4516
 5595SOL     OW28243   1.129   4.314   1.745  0.2270 -0.0926 -0.6859
 5595SOL    HW128244   1.104   4.316   1.838  0.7892 -0.4469 -0.5284
 5595SOL    HW228245   1.192   4.242   1.742 -1.5139 -1.6021 -0.6994
 5596SOL     OW28246   2.590   1.438   6.309 -0.5501  0.6883 -0.0104
 5596SOL    HW128247   2.538   1.376   6.360  0.4062 -1.1499 -1.2246
 5596SOL    HW228248   2.610   1.386   6.231  0.3123  0.8289  0.1149
 5597SOL     OW28249   1.107   2.763  13.588  0.4337 -0.2904  0.5087
 5597SOL    HW128250   1.015   2.740  13.598  0.5504 -0.9981  0.0174
 5597SOL    HW228251   1.140   2.703  13.521  3.3862  0.4039  1.3382
 5598SOL     OW28252   1.458   4.485   1.846  0.4467 -0.7942  0.2436
 5598SOL    HW128253   1.443   4.499   1.753 -0.4645 -1.8016  0.2371
 5598SOL    HW228254   1.538   4.537   1.856 -0.1369  0.2049 -0.3310
 5599SOL     OW28255   1.839   1.700  17.651  0.5124  0.2261  0.6487
 5599SOL    HW128256   1.798   1.766   0.005  1.4092  0.9395  0.4677
 5599SOL    HW228257   1.838   1.758  17.575  0.3994 -2.5625 -1.5047
 5600SOL     OW28258   4.006   2.405   8.510 -0.3071  0.1282 -0.1670
 5600SOL    HW128259   4.041   2.469   8.448  0.6473  1.1093  1.4164
 5600SOL    HW228260   3.912   2.418   8.491 -0.2292 -0.7119 -1.1527
 5601SOL     OW28261   1.967   0.984  11.455  0.6261  0.5115 -0.5416
 5601SOL    HW128262   1.931   0.899  11.427 -1.9663  0.9175  1.6321
 5601SOL    HW228263   1.885   1.012  11.495 -0.5504 -2.0314 -1.1364
 5602SOL     OW28264   4.355   2.452   6.094 -0.0248 -0.5149 -0.8112
 5602SOL    HW128265   4.356   2.378   6.155 -2.7745  1.4762  1.6722
 5602SOL    HW228266   4.262   2.457   6.071 -0.5215  1.8825  1.6974
 5603SOL     OW28267   4.046   3.718  13.422  0.4716  0.5819 -0.1220
 5603SOL    HW128268   3.960   3.733  13.384  0.9278 -0.1237 -1.4499
 5603SOL    HW228269   4.037   3.759  13.508  1.7127  2.4702 -0.8715
 5604SOL     OW28270   2.301   1.171   4.173 -0.3899  0.4171 -0.4072
 5604SOL    HW128271   2.267   1.153   4.086  0.0591  0.8376 -0.6738
 5604SOL    HW228272   2.269   1.093   4.218  0.5204  0.0880 -0.3126
 5605SOL     OW28273   2.622   1.201   7.361 -0.2310  0.0326 -0.1694
 5605SOL    HW128274   2.624   1.144   7.285 -0.6941 -1.8037  1.2003
 5605SOL    HW228275   2.589   1.280   7.318  3.6633  1.7086 -0.0096
 5606SOL     OW28276   4.107   0.846   1.725 -0.4268 -0.4458  0.2954
 5606SOL    HW128277   4.050   0.785   1.677 -0.3784 -0.8357  0.7334
 5606SOL    HW228278   4.197   0.815   1.720 -0.1270  0.5388 -0.3615
 5607SOL     OW28279   1.392   2.305   1.078  1.1529 -0.0260 -0.1942
 5607SOL    HW128280   1.395   2.385   1.130  0.3707  2.4708 -4.0049
 5607SOL    HW228281   1.437   2.239   1.130 -0.7862 -1.9133 -0.8447
 5608SOL     OW28282   3.147   4.056  16.354  0.5424  0.3240  0.1176
 5608SOL    HW128283   3.222   4.057  16.294 -0.5055 -3.3205 -1.2630
 5608SOL    HW228284   3.206   4.038  16.428 -0.0052  0.2192  0.5309
 5609SOL     OW28285   1.927   0.480  13.557 -0.2333 -0.6198  0.4465
 5609SOL    HW128286   1.904   0.438  13.474 -1.8140 -0.0448  0.6081
 5609SOL    HW228287   1.879   0.429  13.621 -0.6055 -0.2310  0.4751
 5610SOL     OW28288   3.985   3.180  17.370  0.0344 -0.1712 -0.4428
 5610SOL    HW128289   4.032   3.201  17.451 -0.7150  1.0044 -0.3117
 5610SOL    HW228290   4.051   3.149  17.308 -0.1164 -1.3541 -0.0105
 5611SOL     OW28291   2.993   0.467   6.200 -0.4325  0.2831 -0.8951
 5611SOL    HW128292   2.968   0.470   6.107 -0.2989 -0.5857 -0.9623
 5611SOL    HW228293   3.060   0.535   6.201  0.0801 -0.2243 -0.7585
 5612SOL     OW28294   3.334   2.904   8.447 -0.5175 -0.4155  0.8340
 5612SOL    HW128295   3.379   2.983   8.416 -0.4535 -1.2927 -1.3636
 5612SOL    HW228296   3.257   2.910   8.389 -1.7729  0.4882  2.5799
 5613SOL     OW28297   4.572   0.561   6.311 -0.6648  0.4241 -0.2330
 5613SOL    HW128298   4.570   0.634   6.372  0.0699 -0.1245  0.4626
 5613SOL    HW228299   4.579   0.484   6.367 -2.4054  0.5524  0.1455
 5614SOL     OW28300   1.262   1.905   6.807  0.8548 -0.0314  0.1401
 5614SOL    HW128301   1.192   1.941   6.860  0.0628 -0.8079 -0.3820
 5614SOL    HW228302   1.328   1.895   6.876  0.5711 -0.9186  0.2802
 5615SOL     OW28303   0.400   2.873  10.090 -0.1668 -0.5626  0.3648
 5615SOL    HW128304   0.492   2.847  10.078 -0.1420 -0.1179 -0.4779
 5615SOL    HW228305   0.368   2.856  10.001  0.2411  2.1329 -0.3103
 5616SOL     OW28306   1.413   1.039   0.522  0.1049 -0.8798  0.0754
 5616SOL    HW128307   1.483   1.072   0.579 -0.5424 -0.5084  0.6504
 5616SOL    HW228308   1.432   1.097   0.448 -1.1470  0.8367  1.1019
 5617SOL     OW28309   4.135   3.992  10.279 -0.2474  0.0278 -0.0729
 5617SOL    HW128310   4.099   3.913  10.319 -0.0821  0.8578  1.7024
 5617SOL    HW228311   4.183   4.026  10.355 -0.6227 -0.1887  0.2584
 5618SOL     OW28312   4.426   1.770  11.486  0.1194 -0.3689 -0.2260
 5618SOL    HW128313   4.415   1.841  11.422 -0.7486  0.9203  1.3541
 5618SOL    HW228314   4.340   1.729  11.481 -0.6906  1.3674 -0.7857
 5619SOL     OW28315   2.720   3.071   1.098 -0.3074 -0.3527  0.1085
 5619SOL    HW128316   2.665   3.148   1.089 -1.5100 -1.0755  1.2820
 5619SOL    HW228317   2.784   3.092   1.030 -0.3396 -0.4277  0.0556
 5620SOL     OW28318   2.978   2.088   7.602  0.7654 -0.0378  0.8146
 5620SOL    HW128319   2.972   1.993   7.613  1.1746 -0.2207 -0.6259
 5620SOL    HW228320   2.996   2.108   7.694 -0.3482  0.9982  0.8066
 5621SOL     OW28321   3.208   0.542   1.476 -0.2576  0.4984  0.3276
 5621SOL    HW128322   3.192   0.456   1.436  2.0062  0.7726 -1.1288
 5621SOL    HW228323   3.303   0.542   1.482 -0.2826 -0.6637  0.7190
 5622SOL     OW28324   2.629   0.161   8.396 -0.4836 -0.6811  0.5983
 5622SOL    HW128325   2.675   0.170   8.312 -2.9256 -1.2551 -0.8036
 5622SOL    HW228326   2.647   0.067   8.408  1.1488 -0.7314 -2.0979
 5623SOL     OW28327   1.789   0.074   5.093 -0.0242  0.0229  0.0618
 5623SOL    HW128328   1.757   0.139   5.155  2.6251 -0.2274  1.6877
 5623SOL    HW228329   1.833   0.015   5.154 -0.1927  0.2203  0.3739
 5624SOL     OW28330   2.259   1.768   3.304 -0.0293 -0.0927  0.3284
 5624SOL    HW128331   2.294   1.754   3.216 -0.7305  0.8937 -0.1205
 5624SOL    HW228332   2.267   1.864   3.300 -0.9107 -0.0061  0.6733
 5625SOL     OW28333   0.466   2.442  16.089  0.1113 -0.1990  0.4978
 5625SOL    HW128334   0.422   2.446  16.004 -0.5330  0.8774  0.8689
 5625SOL    HW228335   0.456   2.347  16.100  1.9827 -0.6498 -1.8672
 5626SOL     OW28336   2.393   1.735   2.799  0.0468 -0.9138 -0.1825
 5626SOL    HW128337   2.337   1.659   2.781 -0.5806 -0.5110  0.0921
 5626SOL    HW228338   2.422   1.739   2.707  0.2974 -2.4268 -0.1813
 5627SOL     OW28339   0.966   3.448   7.472 -0.4923 -0.3673 -0.5366
 5627SOL    HW128340   0.986   3.386   7.542 -0.4644 -2.0415 -2.0398
 5627SOL    HW228341   1.048   3.498   7.478 -0.6573 -0.1829  0.1666
 5628SOL     OW28342   0.116   1.797   6.794 -0.2803 -0.3179  0.3224
 5628SOL    HW128343   0.044   1.814   6.854  0.2288  0.6212  0.6697
 5628SOL    HW228344   0.089   1.708   6.769  0.8118 -0.5811  0.0718
 5629SOL     OW28345   0.815   0.737   5.742  0.1741 -0.1323  0.0437
 5629SOL    HW128346   0.848   0.807   5.798 -2.6786  0.4365  1.0486
 5629SOL    HW228347   0.895   0.700   5.707  1.0975 -0.2765  2.2824
 5630SOL     OW28348   2.289   1.080   3.872 -0.1151 -0.3667  0.7917
 5630SOL    HW128349   2.328   1.143   3.812  1.6069 -0.9035  1.3535
 5630SOL    HW228350   2.196   1.096   3.853  0.0887  0.9249  0.8830
 5631SOL     OW28351   1.555   0.748   3.671  0.2779 -0.0713 -0.3129
 5631SOL    HW128352   1.491   0.730   3.739  1.3798 -2.1247  0.1983
 5631SOL    HW228353   1.551   0.841   3.652  2.1728 -0.1226 -1.0022
 5632SOL     OW28354   2.567   4.269   4.673  0.5258 -0.0961 -0.2265
 5632SOL    HW128355   2.486   4.229   4.641 -0.3756  1.1846  0.4538
 5632SOL    HW228356   2.640   4.218   4.637 -0.2318 -0.4462 -1.2928
 5633SOL     OW28357   0.419   2.456   2.559 -0.0135 -0.6813  0.0004
 5633SOL    HW128358   0.392   2.364   2.549  1.5574 -0.9274 -1.9387
 5633SOL    HW228359   0.368   2.486   2.485  2.6641  1.8472 -0.8127
 5634SOL     OW28360   3.968   4.701   8.463 -0.1571  0.3653 -0.3652
 5634SOL    HW128361   3.984   4.691   8.557  0.2343  0.5760 -0.4093
 5634SOL    HW228362   4.044   4.655   8.428  1.6139  2.7715  0.2988
 5635SOL     OW28363   3.325   4.136  16.176 -0.1429  0.0644 -0.4170
 5635SOL    HW128364   3.307   4.168  16.088 -1.0918  0.8972  0.0804
 5635SOL    HW228365   3.373   4.212  16.209 -1.8480  0.8047  0.3584
 5636SOL     OW28366   4.055   4.541   2.891 -0.5306  0.1590  0.1632
 5636SOL    HW128367   4.125   4.483   2.920  0.5146  1.4248  0.1942
 5636SOL    HW228368   3.989   4.517   2.955  0.6789  0.6781  1.6121
 5637SOL     OW28369   2.024   0.995   9.236 -0.1320  0.2225 -0.1079
 5637SOL    HW128370   2.053   1.022   9.323 -2.1521  0.4628  0.4929
 5637SOL    HW228371   1.931   0.976   9.254  0.4744 -1.6043  1.1365
 5638SOL     OW28372   0.773   3.389  12.947  0.1819 -0.1018 -0.2508
 5638SOL    HW128373   0.827   3.432  13.013 -0.3284  0.5265 -0.2431
 5638SOL    HW228374   0.689   3.381  12.992 -0.2705 -2.4021 -1.5057
 5639SOL     OW28375   3.108   3.053  12.068 -0.1900 -0.4332  0.0926
 5639SOL    HW128376   3.131   2.978  12.013  2.2786  0.3589  0.0364
 5639SOL    HW228377   3.171   3.066  12.138  1.8955  0.0993 -1.8691
 5640SOL     OW28378   1.570   1.013   8.195  0.4236  0.3737 -0.0668
 5640SOL    HW128379   1.561   1.094   8.246 -0.4520  0.2809 -0.0717
 5640SOL    HW228380   1.638   1.045   8.136  1.3735  1.1550  1.4425
 5641SOL     OW28381   4.452   2.632   7.054  0.2178 -0.0739 -0.0798
 5641SOL    HW128382   4.371   2.582   7.050 -0.1569  0.6914 -2.4371
 5641SOL    HW228383   4.509   2.556   7.048  0.6188  0.0152  3.0278
 5642SOL     OW28384   2.688   3.722  13.087  0.0040 -0.6800 -0.1091
 5642SOL    HW128385   2.613   3.688  13.039 -0.3409 -0.4231  0.2478
 5642SOL    HW228386   2.673   3.815  13.074 -0.8135 -0.9764 -1.1891
 5643SOL     OW28387   1.811   2.614  12.678 -0.3251 -0.2804  0.0385
 5643SOL    HW128388   1.791   2.635  12.769 -0.7514  0.2060 -0.1646
 5643SOL    HW228389   1.894   2.570  12.696  0.3314  0.7722 -0.3885
 5644SOL     OW28390   2.385   2.427   7.082 -0.0447 -0.2531  0.3975
 5644SOL    HW128391   2.325   2.458   7.150 -2.1388  0.6011 -1.8512
 5644SOL    HW228392   2.341   2.351   7.044 -1.3674 -0.3865  2.2226
 5645SOL     OW28393   2.288   0.557  10.949  0.5960  0.1813  0.0375
 5645SOL    HW128394   2.379   0.526  10.945  0.4674 -0.3184  1.2574
 5645SOL    HW228395   2.289   0.605  11.031  2.9262  1.3078 -0.6504
 5646SOL     OW28396   0.654   4.705   8.741 -0.0211 -0.3964 -0.5192
 5646SOL    HW128397   0.590   4.718   8.671  1.1971 -2.7017 -2.0607
 5646SOL    HW228398   0.711   4.641   8.698  2.0433  1.3579 -0.4039
 5647SOL     OW28399   4.314   2.303   0.332  0.1261 -0.3376  0.1094
 5647SOL    HW128400   4.348   2.216   0.309 -1.4043 -0.6480 -0.9925
 5647SOL    HW228401   4.358   2.369   0.278 -1.0581  0.1066 -0.3173
 5648SOL     OW28402   0.293   3.054   4.481 -0.3115  0.0587  0.0207
 5648SOL    HW128403   0.358   2.987   4.501 -1.1574 -0.6182  0.5299
 5648SOL    HW228404   0.209   3.012   4.500 -0.0632  1.1468  3.3988
 5649SOL     OW28405   1.739   4.307   4.775  0.5718  0.3212  0.2557
 5649SOL    HW128406   1.709   4.219   4.798  0.5045  0.5540  1.0448
 5649SOL    HW228407   1.663   4.340   4.727  0.1491  0.5517  1.0824
 5650SOL     OW28408   1.143   0.476   1.672  0.1373 -0.5065  0.0947
 5650SOL    HW128409   1.190   0.410   1.722  0.5506 -0.2863  0.0000
 5650SOL    HW228410   1.107   0.412   1.610 -0.3277  1.4397 -1.6745
 5651SOL     OW28411   0.109   1.506   5.430 -0.4525 -0.2911  0.1412
 5651SOL    HW128412   0.182   1.472   5.378 -0.6273  1.1226 -1.0475
 5651SOL    HW228413   0.037   1.485   5.370  1.1680 -0.5383 -1.7081
 5652SOL     OW28414   3.173   2.382   4.253 -0.2275 -0.4608 -0.2519
 5652SOL    HW128415   3.107   2.369   4.184  0.0281 -2.3718 -0.1410
 5652SOL    HW228416   3.177   2.477   4.254 -0.2419 -0.4441 -1.2188
 5653SOL     OW28417   2.326   4.189  15.161 -0.2276 -0.4479  0.3196
 5653SOL    HW128418   2.368   4.103  15.163  0.2864 -0.1419  2.5605
 5653SOL    HW228419   2.235   4.164  15.173 -0.2665 -0.1391  0.6640
 5654SOL     OW28420   1.311   4.139   9.891 -0.2270  0.3774  0.0980
 5654SOL    HW128421   1.267   4.104   9.969 -0.5983  1.1268  0.2199
 5654SOL    HW228422   1.393   4.171   9.928  0.0603 -1.1710  0.8342
 5655SOL     OW28423   3.889   1.123   6.158  0.0922  0.2236 -0.1533
 5655SOL    HW128424   3.955   1.176   6.114  0.8879  0.5941  1.4704
 5655SOL    HW228425   3.834   1.191   6.198  0.8986  0.7483  0.0673
 5656SOL     OW28426   1.262   0.059  17.378  0.1242 -0.7501 -0.0953
 5656SOL    HW128427   1.282   4.694  17.400 -0.3628 -0.9895 -0.6381
 5656SOL    HW228428   1.320   0.097  17.444 -1.0410  0.4153  0.2649
 5657SOL     OW28429   1.681   0.870   1.652  0.0069 -0.3462 -0.2060
 5657SOL    HW128430   1.638   0.862   1.567  0.6321  0.0697 -0.5566
 5657SOL    HW228431   1.775   0.877   1.639  0.1076  2.3052  1.9017
 5658SOL     OW28432   3.498   2.054   1.685  0.0746  0.2110  0.3773
 5658SOL    HW128433   3.571   2.000   1.716 -0.2095 -0.1719  0.3776
 5658SOL    HW228434   3.494   2.036   1.591  0.0879  0.1326  0.3921
 5659SOL     OW28435   4.045   2.909   0.941  0.3798  0.3590  0.0815
 5659SOL    HW128436   3.965   2.887   0.892 -0.6661  0.4188  1.7416
 5659SOL    HW228437   4.097   2.838   0.905  2.6933  1.8302  0.5411
 5660SOL     OW28438   3.113   1.752   6.707  0.2434 -0.2680  0.4860
 5660SOL    HW128439   3.165   1.764   6.627  0.0947 -0.4349  0.3638
 5660SOL    HW228440   3.147   1.664   6.725 -1.0473 -0.5798  1.4094
 5661SOL     OW28441   3.098   0.669   4.529 -0.4682 -0.5021  0.0563
 5661SOL    HW128442   3.146   0.636   4.453 -1.9272 -0.6818 -0.8064
 5661SOL    HW228443   3.007   0.639   4.522 -0.1061 -1.2609 -1.4936
 5662SOL     OW28444   0.476   1.769   5.725  0.7241  0.7540 -0.5686
 5662SOL    HW128445   0.540   1.723   5.671  1.7251  0.1430  1.1494
 5662SOL    HW228446   0.407   1.703   5.726 -0.0429  1.5787  0.9343
 5663SOL     OW28447   2.228   0.934   7.763 -0.4152  0.0092  0.4646
 5663SOL    HW128448   2.138   0.964   7.746 -0.8775 -1.5383  0.1870
 5663SOL    HW228449   2.232   0.865   7.698  0.5344  1.6930 -1.2709
 5664SOL     OW28450   1.340   1.806   5.842 -0.3670  0.0667  0.2966
 5664SOL    HW128451   1.332   1.872   5.911 -0.9799  0.4171 -0.1085
 5664SOL    HW228452   1.435   1.796   5.839 -0.5506 -0.5553 -2.6380
 5665SOL     OW28453   1.016   4.002   1.807  0.8145  0.1046 -0.2046
 5665SOL    HW128454   0.959   4.061   1.757  1.6899 -0.6058 -2.0482
 5665SOL    HW228455   1.101   4.029   1.772  1.5659 -2.2086 -0.1175
 5666SOL     OW28456   0.148   1.430   7.026  0.3829  0.0873  0.4562
 5666SOL    HW128457   0.099   1.438   7.108  0.0859  0.2484  0.2665
 5666SOL    HW228458   0.075   1.453   6.968  0.8185 -0.8473 -0.4657
 5667SOL     OW28459   4.587   2.051   6.357 -0.0829  0.2276  0.4393
 5667SOL    HW128460   4.555   2.023   6.443 -3.2708 -1.3414 -1.2668
 5667SOL    HW228461   4.535   2.128   6.333  0.5080 -0.3171 -2.5614
 5668SOL     OW28462   4.310   1.196   5.103  0.1920  0.1572  0.1142
 5668SOL    HW128463   4.306   1.222   5.011  1.3125 -1.0503 -0.2738
 5668SOL    HW228464   4.382   1.134   5.094 -0.9892 -1.0296 -1.1276
 5669SOL     OW28465   0.838   3.532  13.168  0.1431  0.2691  0.2507
 5669SOL    HW128466   0.791   3.614  13.158  1.4271  0.9004 -0.7164
 5669SOL    HW228467   0.869   3.532  13.258  0.0881 -1.4764  0.2752
 5670SOL     OW28468   2.128   1.939   7.190  0.0075  0.0962  0.7819
 5670SOL    HW128469   2.178   1.921   7.270 -0.1453  1.1884  1.1272
 5670SOL    HW228470   2.116   2.033   7.202  0.2577  0.1808  0.3649
 5671SOL     OW28471   3.402   3.902   2.650  0.1132  0.0368 -0.1465
 5671SOL    HW128472   3.373   3.872   2.564  0.1630  0.1604 -0.2067
 5671SOL    HW228473   3.325   3.934   2.696 -0.2062 -1.5280  0.4015
 5672SOL     OW28474   2.306   4.395   0.227  1.0250  0.7803 -0.8552
 5672SOL    HW128475   2.306   4.346   0.145  0.2719 -2.4214  1.0429
 5672SOL    HW228476   2.327   4.329   0.293  0.6797  2.7116  1.2019
 5673SOL     OW28477   0.366   0.389   5.433 -0.0696 -0.2756  0.3314
 5673SOL    HW128478   0.424   0.466   5.430 -0.4498  0.0126  0.3272
 5673SOL    HW228479   0.308   0.422   5.501 -0.6691 -1.3748  0.3407
 5674SOL     OW28480   2.334   2.090   1.523  0.0989 -0.3502 -0.4833
 5674SOL    HW128481   2.337   2.148   1.599 -3.2480 -0.7228 -0.0538
 5674SOL    HW228482   2.422   2.092   1.485  0.5823  0.3872  0.6934
 5675SOL     OW28483   0.368   2.029  16.799 -0.1225 -0.1444 -0.0090
 5675SOL    HW128484   0.450   2.000  16.759 -2.3601 -3.0229 -2.4956
 5675SOL    HW228485   0.390   2.114  16.838  1.8348 -0.7257  0.1140
 5676SOL     OW28486   2.400   0.371   5.426 -0.4079 -0.0851 -0.1172
 5676SOL    HW128487   2.321   0.402   5.471  1.3556  2.0946  1.4927
 5676SOL    HW228488   2.459   0.445   5.443  0.0974 -0.8353  1.4083
 5677SOL     OW28489   4.461   4.184   2.929 -0.0526 -0.6183 -0.5410
 5677SOL    HW128490   4.495   4.172   3.017  2.2471 -2.9780 -1.7462
 5677SOL    HW228491   4.522   4.136   2.873 -1.1312 -1.0206 -1.3733
 5678SOL     OW28492   0.749   1.867   8.683 -0.1373  0.1331 -0.0873
 5678SOL    HW128493   0.833   1.855   8.728  0.2884  0.8794 -0.6743
 5678SOL    HW228494   0.687   1.849   8.753  0.1826 -0.2880  0.0866
 5679SOL     OW28495   0.295   1.239   6.867 -0.0774 -0.0190 -0.4979
 5679SOL    HW128496   0.375   1.293   6.866 -0.8000  1.0641  0.7925
 5679SOL    HW228497   0.243   1.303   6.915  1.2546 -0.2603  1.2921
 5680SOL     OW28498   3.033   3.945   2.068 -0.1088  0.8528 -0.2204
 5680SOL    HW128499   3.119   3.905   2.081 -0.6363 -0.0979  0.2684
 5680SOL    HW228500   3.001   3.957   2.157  0.0585 -1.4304  0.1485
 5681SOL     OW28501   3.868   1.848   0.365  0.8837  0.7223  0.4718
 5681SOL    HW128502   3.783   1.852   0.408  0.0941  0.3328 -1.0430
 5681SOL    HW228503   3.917   1.785   0.416  0.1330  0.0757  0.3996
 5682SOL     OW28504   1.367   3.985   6.415 -0.0650 -0.8320  0.1476
 5682SOL    HW128505   1.445   4.032   6.446  0.6115 -0.9026 -1.4517
 5682SOL    HW228506   1.395   3.935   6.338 -0.5084 -0.7787 -0.0477
 5683SOL     OW28507   1.775   0.638   8.945  0.0034  0.2014 -0.0829
 5683SOL    HW128508   1.769   0.565   8.884  0.9590  0.2853 -0.2832
 5683SOL    HW228509   1.792   0.704   8.878  0.4121  1.5558  1.3405
 5684SOL     OW28510   0.204   2.702   4.889 -0.5522 -0.3536  0.4010
 5684SOL    HW128511   0.205   2.652   4.807  1.5366 -1.7307  1.2795
 5684SOL    HW228512   0.148   2.778   4.871  1.1677  1.0402  0.9899
 5685SOL     OW28513   4.447   4.032   0.953 -0.7350  0.7680  0.0687
 5685SOL    HW128514   4.356   4.002   0.963 -0.4430 -0.9303 -2.2932
 5685SOL    HW228515   4.477   3.949   0.915  1.0356  1.9165 -1.0217
 5686SOL     OW28516   2.170   0.504   4.773  0.5069 -0.0925  0.2262
 5686SOL    HW128517   2.089   0.553   4.779  0.1768 -0.8218  1.7404
 5686SOL    HW228518   2.143   0.416   4.799  2.0690  0.0338  2.3862
 5687SOL     OW28519   0.002   3.448  11.568  0.3749 -0.1266  0.0572
 5687SOL    HW128520   0.046   3.396  11.501  0.9067  0.8277 -0.3380
 5687SOL    HW228521   4.645   3.465  11.522 -0.1310 -1.1858  0.5816
 5688SOL     OW28522   3.183   0.471   7.174  0.4019 -0.1625 -0.1929
 5688SOL    HW128523   3.206   0.394   7.226 -0.0354 -0.6427 -0.7094
 5688SOL    HW228524   3.090   0.475   7.194 -0.2203 -2.1630 -2.6506
 5689SOL     OW28525   3.421   4.559  11.877 -0.4548  0.3704 -0.8626
 5689SOL    HW128526   3.438   4.645  11.914 -1.2481  0.7541 -1.4107
 5689SOL    HW228527   3.350   4.528  11.934 -0.7925  1.0208 -0.9397
 5690SOL     OW28528   1.732   4.251   5.289  0.1398  0.5889  0.0206
 5690SOL    HW128529   1.698   4.162   5.295  1.1906  0.2652  1.1816
 5690SOL    HW228530   1.733   4.272   5.382  2.5508 -1.7855  0.5243
 5691SOL     OW28531   3.601   1.605   4.257  0.2794 -0.2427  0.5028
 5691SOL    HW128532   3.538   1.607   4.329 -0.1583 -2.5366  0.1978
 5691SOL    HW228533   3.535   1.608   4.187 -0.0118  2.2689  0.8922
 5692SOL     OW28534   0.283   1.827   3.548 -0.4292  0.1052  0.1932
 5692SOL    HW128535   0.302   1.733   3.554 -0.2683  0.1853  0.9296
 5692SOL    HW228536   0.365   1.857   3.511 -0.1829  1.5549  1.9500
 5693SOL     OW28537   2.051   1.678   8.069  0.2491  0.3225 -0.2614
 5693SOL    HW128538   2.108   1.602   8.080 -0.3545 -0.1347 -0.3416
 5693SOL    HW228539   1.969   1.640   8.099 -0.2617  1.6929  0.0789
 5694SOL     OW28540   2.610   1.066   0.315 -0.4219 -0.2550 -0.1517
 5694SOL    HW128541   2.683   1.004   0.311  0.4180  0.5938  2.2931
 5694SOL    HW228542   2.652   1.146   0.285 -0.4917 -0.7523 -1.5615
 5695SOL     OW28543   1.555   2.720   2.227  0.2244 -0.0979  0.0764
 5695SOL    HW128544   1.603   2.783   2.281  1.6522  0.6745 -2.1052
 5695SOL    HW228545   1.583   2.745   2.139 -1.8722 -0.7981 -0.7716
 5696SOL     OW28546   2.289   3.242  15.244 -0.2691  0.3843 -0.1036
 5696SOL    HW128547   2.350   3.171  15.262  0.1476  0.8540  0.3184
 5696SOL    HW228548   2.260   3.215  15.157 -1.2464  1.5648 -0.1520
 5697SOL     OW28549   0.727   4.687   3.371 -0.0851  0.6474  0.5660
 5697SOL    HW128550   0.810   4.702   3.326  0.4171 -3.1901  0.2619
 5697SOL    HW228551   0.755   4.626   3.439  2.7651  1.5309  0.1859
 5698SOL     OW28552   2.522   3.197   5.728  0.1811 -0.2744  0.0038
 5698SOL    HW128553   2.546   3.239   5.811 -2.9420  0.2526  0.6424
 5698SOL    HW228554   2.606   3.154   5.710  1.2054  1.0742  1.5232
 5699SOL     OW28555   3.146   2.304  11.794  0.3387  0.0780 -0.4364
 5699SOL    HW128556   3.197   2.294  11.874 -0.4018  1.2878  0.1898
 5699SOL    HW228557   3.060   2.268  11.815  1.1792 -0.3133  2.2704
 5700SOL     OW28558   4.666   4.006  16.795  0.0625 -0.7427  0.5227
 5700SOL    HW128559   4.624   3.920  16.805  0.2632 -0.8385  0.5377
 5700SOL    HW228560   0.016   3.971  16.747  0.2411 -2.2446  1.8880
 5701SOL     OW28561   3.975   1.842   8.176  0.1959 -0.0598  0.2873
 5701SOL    HW128562   3.946   1.900   8.246  0.5363  0.8635 -0.3425
 5701SOL    HW228563   3.895   1.792   8.158 -0.8298  2.2787 -1.6227
 5702SOL     OW28564   1.839   0.550  15.886 -0.6751 -0.0180 -0.2376
 5702SOL    HW128565   1.892   0.518  15.813  0.4458 -1.8958  1.4360
 5702SOL    HW228566   1.902   0.614  15.919 -0.9865  0.5845 -0.7997
 5703SOL     OW28567   0.019   1.236   3.732  0.2011 -0.7307  0.0125
 5703SOL    HW128568   4.655   1.242   3.766  0.0861 -2.9928  0.1354
 5703SOL    HW228569   0.066   1.206   3.810  0.4997 -0.6114 -0.1216
 5704SOL     OW28570   1.424   3.620   1.985 -0.1341 -0.1615 -0.4785
 5704SOL    HW128571   1.412   3.530   1.956  0.6519 -0.4981  0.2252
 5704SOL    HW228572   1.427   3.663   1.899 -0.0486  0.1220 -0.3360
 5705SOL     OW28573   4.465   0.248   7.418 -0.6040  0.1714 -0.1517
 5705SOL    HW128574   4.394   0.251   7.482 -0.5440 -2.3090  0.0443
 5705SOL    HW228575   4.418   0.211   7.343 -0.2130  1.6341 -1.1356
 5706SOL     OW28576   4.425   2.186  12.820 -0.1267 -0.0847 -0.5478
 5706SOL    HW128577   4.481   2.241  12.874 -1.3304  1.3339 -0.7505
 5706SOL    HW228578   4.347   2.184  12.876 -2.1311 -0.3401 -3.3544
 5707SOL     OW28579   0.718   1.558   8.022  0.2852 -0.1207 -0.2973
 5707SOL    HW128580   0.697   1.582   7.932  0.5226 -0.1199 -0.3519
 5707SOL    HW228581   0.627   1.553   8.052  0.5584  1.5221  0.8619
 5708SOL     OW28582   0.327   2.174   4.300  0.3229 -0.2892 -0.0265
 5708SOL    HW128583   0.389   2.162   4.228 -0.3677  2.9806 -1.1688
 5708SOL    HW228584   0.389   2.199   4.369  1.1451 -0.1798 -0.8122
 5709SOL     OW28585   1.192   3.064   6.387 -0.2100  0.3728 -0.2088
 5709SOL    HW128586   1.219   3.110   6.308 -2.5173  0.9811 -0.6449
 5709SOL    HW228587   1.238   2.980   6.397  1.2843  0.9149 -2.5034
 5710SOL     OW28588   2.019   2.689   2.522 -0.1748 -0.1123  0.0528
 5710SOL    HW128589   1.996   2.598   2.503 -0.6522  0.4385 -2.0143
 5710SOL    HW228590   2.066   2.679   2.605 -2.3774  0.2412  1.3441
 5711SOL     OW28591   4.557   1.138   5.726 -0.1821  0.4104 -0.0643
 5711SOL    HW128592   4.509   1.056   5.721  0.2639  0.1181  0.6007
 5711SOL    HW228593   4.567   1.161   5.633 -0.8613  0.2720 -0.1739
 5712SOL     OW28594   2.726   0.201   9.089 -0.0028 -0.3690  0.0935
 5712SOL    HW128595   2.763   0.245   9.165  2.2006  0.9199 -1.6890
 5712SOL    HW228596   2.722   0.276   9.029 -0.6931  1.2928  2.2331
 5713SOL     OW28597   0.105   2.598   6.246  0.0434 -0.2776  0.3006
 5713SOL    HW128598   0.016   2.609   6.211  0.4565  2.0770  0.0170
 5713SOL    HW228599   0.157   2.639   6.176 -0.4979  0.5827  0.4002
 5714SOL     OW28600   3.225   0.024   2.418  0.2185 -0.0143  0.1515
 5714SOL    HW128601   3.170   4.714   2.349  0.4477 -2.2384  1.1061
 5714SOL    HW228602   3.196   0.115   2.427  0.1410 -0.1188  0.9314
 5715SOL     OW28603   0.002   2.694   4.588  0.4945  0.0047 -0.2601
 5715SOL    HW128604   0.090   2.661   4.572  0.8370  0.6320  0.3138
 5715SOL    HW228605   4.686   2.617   4.628  0.5686  0.3442  0.4859
 5716SOL     OW28606   4.088   1.541  13.151 -0.1782 -0.0004 -0.3132
 5716SOL    HW128607   4.101   1.446  13.148 -0.3430 -0.0400  0.3839
 5716SOL    HW228608   4.150   1.566  13.220  2.0345  0.7841 -2.5863
 5717SOL     OW28609   1.705   3.734  14.232 -0.5688  0.4653  0.2131
 5717SOL    HW128610   1.643   3.661  14.226  0.6381 -0.4976 -0.5075
 5717SOL    HW228611   1.662   3.794  14.171  0.9104 -0.5475 -1.8078
 5718SOL     OW28612   3.533   3.014   4.099 -0.3221  0.1831  0.4195
 5718SOL    HW128613   3.580   2.935   4.076 -0.8579  0.3088 -1.1452
 5718SOL    HW228614   3.465   3.009   4.031 -0.0424 -0.5878  0.2054
 5719SOL     OW28615   1.768   2.427  10.821  0.7141  0.1789 -0.5666
 5719SOL    HW128616   1.716   2.352  10.794  0.7377  0.2170 -0.7208
 5719SOL    HW228617   1.725   2.454  10.902  0.1389 -2.3213 -0.0468
 5720SOL     OW28618   0.937   1.404   4.690 -0.4731 -0.1461 -0.3911
 5720SOL    HW128619   1.002   1.341   4.659 -2.3468 -1.3151 -1.8996
 5720SOL    HW228620   0.886   1.419   4.610 -0.2629 -1.5895 -0.7958
 5721SOL     OW28621   3.597   2.170   6.193  0.2940 -0.1471  0.3173
 5721SOL    HW128622   3.572   2.156   6.101 -0.5449 -1.2194  0.7048
 5721SOL    HW228623   3.606   2.265   6.197  0.8584 -0.2090  0.4432
 5722SOL     OW28624   0.139   1.435   8.839  0.4282 -0.4813  0.3396
 5722SOL    HW128625   0.077   1.421   8.768  2.4320  2.8348 -2.0415
 5722SOL    HW228626   0.187   1.352   8.839  1.3971  0.0693 -1.7423
 5723SOL     OW28627   4.529   0.423   3.480  0.0656 -0.4197  0.3223
 5723SOL    HW128628   4.463   0.362   3.511  0.7098 -1.2486  0.0718
 5723SOL    HW228629   4.476   0.497   3.450  0.0958 -0.0364  1.2057
 5724SOL     OW28630   1.886   0.961  17.567 -0.5574  0.2359 -0.8210
 5724SOL    HW128631   1.811   0.944  17.625  1.3630 -0.1444  1.5277
 5724SOL    HW228632   1.842   0.971  17.482 -1.3786 -0.2274 -0.4522
 5725SOL     OW28633   3.185   2.033  14.084 -0.0874  0.1694 -0.0588
 5725SOL    HW128634   3.241   2.108  14.062  1.5597 -1.4674 -1.4292
 5725SOL    HW228635   3.225   1.958  14.039  0.5597  0.0680  0.6793
 5726SOL     OW28636   2.584   1.963   3.161 -0.0627 -0.2832  0.6668
 5726SOL    HW128637   2.532   1.886   3.138 -0.6356  0.2795  0.0413
 5726SOL    HW228638   2.541   1.967   3.246  0.0252  0.3863  0.6839
 5727SOL     OW28639   2.006   3.894  15.332 -0.1364 -0.0877 -0.5879
 5727SOL    HW128640   1.934   3.955  15.348 -1.2171 -1.3245 -0.7506
 5727SOL    HW228641   2.043   3.887  15.419  1.5551 -0.5285 -1.3387
 5728SOL     OW28642   1.287   4.150  14.086 -0.0575 -0.6988 -0.0830
 5728SOL    HW128643   1.217   4.142  14.021 -0.7441 -0.6668  0.6450
 5728SOL    HW228644   1.339   4.079  14.048 -0.2625 -0.5040 -0.7120
 5729SOL     OW28645   2.551   1.840   7.978  0.5663  0.7902  0.0902
 5729SOL    HW128646   2.509   1.892   7.909 -1.2657  1.2184  1.5407
 5729SOL    HW228647   2.541   1.748   7.956 -2.1088  1.1929 -0.3761
 5730SOL     OW28648   0.009   1.455   8.219 -0.5160 -0.5803  0.3131
 5730SOL    HW128649   0.022   1.364   8.245  1.0342 -0.1233  1.1211
 5730SOL    HW228650   4.656   1.476   8.269 -0.2680 -0.6154  0.7129
 5731SOL     OW28651   1.439   1.581  15.445 -0.8451  0.3450 -0.6719
 5731SOL    HW128652   1.455   1.537  15.528  1.1871  0.4506 -1.0060
 5731SOL    HW228653   1.358   1.630  15.460  0.5710  2.7830 -1.0287
 5732SOL     OW28654   3.604   0.576   5.226 -0.2016 -0.1426  0.0905
 5732SOL    HW128655   3.672   0.510   5.240 -2.1403 -2.5747 -2.0350
 5732SOL    HW228656   3.652   0.652   5.192 -2.3929  0.7905 -0.9185
 5733SOL     OW28657   2.577   4.563   8.298 -0.3021 -0.1532 -0.7109
 5733SOL    HW128658   2.634   4.516   8.360  0.6652 -0.4442 -1.8208
 5733SOL    HW228659   2.513   4.605   8.356 -0.9593 -0.1326 -1.4607
 5734SOL     OW28660   1.488   1.827   7.874 -0.5335  0.2130 -0.7257
 5734SOL    HW128661   1.574   1.861   7.897 -0.7504  1.1383 -1.2866
 5734SOL    HW228662   1.428   1.902   7.881  1.5883  1.8472 -0.0787
 5735SOL     OW28663   1.641   4.323  12.281  0.1356 -0.0795  0.2781
 5735SOL    HW128664   1.635   4.340  12.375 -1.0110 -2.3074  0.6165
 5735SOL    HW228665   1.724   4.276  12.280  0.4127  0.4223 -0.2539
 5736SOL     OW28666   3.309   2.900   2.025 -0.2617 -0.2183  0.0453
 5736SOL    HW128667   3.309   2.921   1.931  2.1211  1.5660  0.4516
 5736SOL    HW228668   3.403   2.900   2.041 -0.5704  0.6377  1.7966
 5737SOL     OW28669   3.954   0.744   4.571 -0.2467 -0.1951 -0.0525
 5737SOL    HW128670   4.016   0.672   4.583  1.1205  0.9327 -0.2664
 5737SOL    HW228671   4.005   0.791   4.504 -1.8464  0.1227 -1.0403
 5738SOL     OW28672   0.222   2.795  17.489  0.4685  0.2914 -0.3688
 5738SOL    HW128673   0.150   2.858  17.490 -0.3806 -0.7696  2.5539
 5738SOL    HW228674   0.267   2.807  17.572  0.1890  0.9435 -0.3169
 5739SOL     OW28675   1.013   4.661   7.170  0.0791  0.0813 -0.0252
 5739SOL    HW128676   1.017   4.618   7.255  0.0460 -2.2872 -1.2126
 5739SOL    HW228677   0.961   0.012   7.197 -2.5654 -1.5824 -0.4490
 5740SOL     OW28678   0.084   3.097   8.086 -0.9341  0.2565 -1.0584
 5740SOL    HW128679   0.163   3.070   8.133 -0.1803  2.1401 -1.2695
 5740SOL    HW228680   0.033   3.132   8.159 -1.1991 -1.4303 -0.4219
 5741SOL     OW28681   1.835   0.875  10.005 -0.2738  0.2375 -0.1417
 5741SOL    HW128682   1.867   0.913  10.086 -0.8842 -0.7281  0.5495
 5741SOL    HW228683   1.887   0.919   9.937 -0.5343  0.7094 -0.0291
 5742SOL     OW28684   0.637   2.643   1.846  0.2832 -0.1372  0.5567
 5742SOL    HW128685   0.727   2.667   1.824 -1.1551  3.2529 -1.5017
 5742SOL    HW228686   0.647   2.593   1.927 -0.2841  0.8228  1.2094
 5743SOL     OW28687   4.369   3.550  13.778  0.2463 -0.2840 -0.0757
 5743SOL    HW128688   4.426   3.599  13.837 -1.6674 -0.4984  1.9467
 5743SOL    HW228689   4.361   3.615  13.708  1.6233  0.1235  0.1421
 5744SOL     OW28690   2.608   0.548  12.149  0.1498 -0.5981 -0.4681
 5744SOL    HW128691   2.676   0.500  12.102 -0.3360 -0.3286 -1.4364
 5744SOL    HW228692   2.629   0.640  12.131  0.3192 -0.5545 -0.0635
 5745SOL     OW28693   0.174   0.712  11.464 -0.3351  0.1446 -0.3596
 5745SOL    HW128694   0.118   0.789  11.454  0.4674  0.7146 -0.4757
 5745SOL    HW228695   0.179   0.698  11.558 -1.1490 -0.4386 -0.4062
 5746SOL     OW28696   2.831   1.655   6.367  0.0099  0.1285 -0.2311
 5746SOL    HW128697   2.857   1.643   6.275  1.4789  0.2526  0.1724
 5746SOL    HW228698   2.886   1.590   6.411 -0.1090 -0.9663 -1.6741
 5747SOL     OW28699   1.364   3.073   4.049 -0.1105 -0.0394 -0.1198
 5747SOL    HW128700   1.324   2.989   4.070 -0.6732 -0.0443 -1.2202
 5747SOL    HW228701   1.453   3.064   4.083 -0.8710 -4.2473  0.7309
 5748SOL     OW28702   4.451   1.913   8.391 -0.5085  0.1766 -0.5815
 5748SOL    HW128703   4.402   1.879   8.317 -0.3906  0.4613 -0.7930
 5748SOL    HW228704   4.494   1.838   8.431  0.2272 -0.0203 -1.7424
 5749SOL     OW28705   1.998   1.887   8.340  0.4432  0.2277 -0.9571
 5749SOL    HW128706   1.948   1.805   8.346  0.9802 -0.0704 -0.5769
 5749SOL    HW228707   2.036   1.893   8.428 -0.2117  0.3634 -0.6881
 5750SOL     OW28708   0.421   4.552   5.717  0.3324 -0.9208 -0.1005
 5750SOL    HW128709   0.327   4.536   5.725  0.7966 -3.1608  0.8032
 5750SOL    HW228710   0.440   4.530   5.625 -0.0667  1.7878 -0.8225
 5751SOL     OW28711   2.244   4.416   7.244 -0.0949  0.3610 -0.3554
 5751SOL    HW128712   2.331   4.443   7.214  0.1817  1.4414  1.4190
 5751SOL    HW228713   2.254   4.428   7.339 -0.6360 -3.9293  0.2293
 5752SOL     OW28714   3.743   2.218   6.653  0.2862 -0.7840  0.3030
 5752SOL    HW128715   3.706   2.235   6.566 -0.2796 -1.4773  0.3998
 5752SOL    HW228716   3.692   2.269   6.716  0.1817 -2.2420  1.3893
 5753SOL     OW28717   1.322   4.198  14.991 -0.0161 -0.8158  0.1066
 5753SOL    HW128718   1.318   4.231  15.081 -1.2583 -4.7635  1.4917
 5753SOL    HW228719   1.251   4.246  14.948  1.7001  1.0019 -0.7200
 5754SOL     OW28720   3.996   0.735   8.773 -1.0474 -0.5325 -0.2367
 5754SOL    HW128721   3.912   0.723   8.818 -0.2598 -2.7358  0.6752
 5754SOL    HW228722   4.056   0.701   8.839  0.3719  0.5561 -0.9817
 5755SOL     OW28723   2.992   1.265   1.967  0.1411  0.2061 -0.1580
 5755SOL    HW128724   3.017   1.317   1.890  2.0731 -0.0949  0.2688
 5755SOL    HW228725   2.943   1.200   1.916 -0.1421  1.3469 -1.3423
 5756SOL     OW28726   3.132   4.136   5.156  0.0890 -0.2772 -0.1313
 5756SOL    HW128727   3.160   4.143   5.248 -1.2700 -0.8806  0.3317
 5756SOL    HW228728   3.061   4.073   5.169  0.9821 -1.1274  0.7530
 5757SOL     OW28729   4.356   0.395   6.058 -0.1202 -0.6860  0.3529
 5757SOL    HW128730   4.422   0.462   6.042 -0.0945  0.0471  3.4882
 5757SOL    HW228731   4.302   0.389   5.979  2.3652 -0.9763 -1.3368
 5758SOL     OW28732   0.447   1.292   9.821 -0.2899  0.9837  0.2384
 5758SOL    HW128733   0.465   1.386   9.815  1.3715  0.6665  0.2577
 5758SOL    HW228734   0.527   1.246   9.844 -1.9541 -2.2223 -0.3851
 5759SOL     OW28735   3.562   3.606   2.856 -0.4787 -0.8897 -0.4603
 5759SOL    HW128736   3.485   3.568   2.897 -0.9118  0.2051 -0.2607
 5759SOL    HW228737   3.543   3.700   2.851  0.9791 -0.6239 -1.1609
 5760SOL     OW28738   1.125   3.217   1.732 -0.5611  0.4683  0.0333
 5760SOL    HW128739   1.148   3.308   1.745  1.8586 -0.1491  0.0712
 5760SOL    HW228740   1.109   3.232   1.639 -0.1094  0.8087  0.0098
 5761SOL     OW28741   0.428   0.959  13.085 -0.3432  0.1174  0.1597
 5761SOL    HW128742   0.504   0.981  13.031 -1.2061  0.5151 -0.8870
 5761SOL    HW228743   0.452   0.872  13.119  2.8154 -0.1577 -2.7331
 5762SOL     OW28744   1.198   2.219  14.106 -0.0827 -0.4229 -0.2844
 5762SOL    HW128745   1.184   2.165  14.028 -0.2373 -0.3396 -0.3140
 5762SOL    HW228746   1.197   2.160  14.182  0.8361  0.8188  0.6925
 5763SOL     OW28747   3.223   0.327   3.510  0.3183  0.2502 -0.3630
 5763SOL    HW128748   3.190   0.293   3.594  0.9279  2.6888  0.8467
 5763SOL    HW228749   3.280   0.399   3.537 -3.0326  3.0236 -0.6963
 5764SOL     OW28750   2.528   3.058   3.408 -0.4631 -0.0224  0.2286
 5764SOL    HW128751   2.573   2.984   3.366 -0.2499  0.0660  0.2990
 5764SOL    HW228752   2.538   3.044   3.502  0.0387 -0.3230  0.1354
 5765SOL     OW28753   2.548   3.986   6.611  0.0738  0.2915 -0.1817
 5765SOL    HW128754   2.558   3.893   6.587  0.8196  0.7552 -1.6607
 5765SOL    HW228755   2.609   3.995   6.684  0.0761  1.1460 -0.2971
 5766SOL     OW28756   1.730   3.248   9.601 -0.3378  0.1796 -0.2511
 5766SOL    HW128757   1.720   3.194   9.679  1.5413 -0.4729 -0.4601
 5766SOL    HW228758   1.824   3.230   9.607 -0.1826  1.2506  0.5576
 5767SOL     OW28759   2.906   4.035   2.273  0.3291  0.1801  0.1992
 5767SOL    HW128760   2.934   4.117   2.312 -1.8524  0.9288  0.1593
 5767SOL    HW228761   2.903   3.977   2.349 -1.8939  2.4571  1.8339
 5768SOL     OW28762   1.642   1.548   1.803 -0.1613 -0.4344 -0.0693
 5768SOL    HW128763   1.707   1.478   1.789 -1.3627 -0.9445 -3.1326
 5768SOL    HW228764   1.586   1.529   1.728 -0.1011 -0.1630 -0.1823
 5769SOL     OW28765   2.501   2.542  15.899 -0.0908  0.1217  0.5065
 5769SOL    HW128766   2.470   2.537  15.809  0.8037  1.7425  0.1300
 5769SOL    HW228767   2.526   2.451  15.914 -0.9508 -0.3224 -0.7398
 5770SOL     OW28768   4.063   1.090   7.509 -0.0405 -0.1747 -0.1043
 5770SOL    HW128769   3.990   1.029   7.513 -0.5066  0.4266  0.4543
 5770SOL    HW228770   4.043   1.147   7.435 -0.2912  2.8547  2.2692
 5771SOL     OW28771   1.840   3.742   9.021 -0.8976 -0.5109 -0.0879
 5771SOL    HW128772   1.918   3.795   9.002  0.5771 -2.1565  1.3614
 5771SOL    HW228773   1.781   3.771   8.952 -1.7636  0.1709  0.9400
 5772SOL     OW28774   1.213   1.689  10.354 -0.1886  0.1147 -0.3474
 5772SOL    HW128775   1.217   1.621  10.288  1.4256 -0.1243 -0.0155
 5772SOL    HW228776   1.138   1.745  10.332  2.1253  2.9677 -0.9922
 5773SOL     OW28777   3.317   3.820   8.391  0.2001  0.4698 -0.1844
 5773SOL    HW128778   3.362   3.901   8.368 -1.2049  0.8524 -1.5858
 5773SOL    HW228779   3.339   3.822   8.484 -1.2624 -4.2102  0.2342
 5774SOL     OW28780   3.962   3.071   1.907  0.2996 -0.1458  0.0240
 5774SOL    HW128781   3.908   3.143   1.938  0.3638  0.3047 -0.9296
 5774SOL    HW228782   3.900   3.059   1.835  2.3825  0.8410 -1.9583
 5775SOL     OW28783   1.323   1.805   3.565  0.0132  0.3166 -0.0131
 5775SOL    HW128784   1.326   1.789   3.471 -1.0733 -1.9261  0.3474
 5775SOL    HW228785   1.339   1.717   3.601  0.1480 -0.2062 -1.3533
 5776SOL     OW28786   2.098   4.541   2.549  0.2331 -0.2111  0.7291
 5776SOL    HW128787   2.084   4.631   2.577 -0.4702 -0.0057 -0.2829
 5776SOL    HW228788   2.028   4.508   2.605 -0.9692 -1.5530 -1.5334
 5777SOL     OW28789   0.721   1.870   6.343 -0.0863  0.0976 -0.0043
 5777SOL    HW128790   0.800   1.919   6.323  1.5990 -1.9059  1.7431
 5777SOL    HW228791   0.748   1.795   6.396 -3.2367 -1.3725 -0.4639
 5778SOL     OW28792   0.152   3.248   3.050 -0.4853  0.5887 -0.1383
 5778SOL    HW128793   0.095   3.174   3.072  0.5491 -0.8649 -2.2388
 5778SOL    HW228794   0.220   3.211   2.993 -1.9400 -1.5920 -0.4685
 5779SOL     OW28795   4.014   0.570  15.068 -0.1852 -0.7221  0.0658
 5779SOL    HW128796   4.061   0.568  14.985  1.8438  0.7409  1.1837
 5779SOL    HW228797   3.963   0.490  15.056  1.0937 -1.0953 -2.9645
 5780SOL     OW28798   2.660   3.770   6.914 -0.1292 -0.3203  0.0521
 5780SOL    HW128799   2.635   3.708   6.983 -2.1776  1.3351  0.7989
 5780SOL    HW228800   2.625   3.720   6.840  1.8021  2.1451 -2.5104
 5781SOL     OW28801   2.165   4.354   5.948 -0.4711  0.8179  1.0624
 5781SOL    HW128802   2.158   4.265   5.983 -2.6811  0.3191 -0.6314
 5781SOL    HW228803   2.105   4.404   6.004 -1.5700  0.1333  0.4967
 5782SOL     OW28804   1.179   3.129   6.918 -0.2771 -0.2798  0.0797
 5782SOL    HW128805   1.200   3.036   6.918  2.3400  0.2937  2.2761
 5782SOL    HW228806   1.190   3.158   6.828  1.1990 -0.1746  0.2817
 5783SOL     OW28807   2.259   2.846   5.300  0.2290 -0.2371 -0.1511
 5783SOL    HW128808   2.275   2.779   5.366 -1.4950  0.5992  1.1416
 5783SOL    HW228809   2.204   2.909   5.347  1.7933  0.4810  0.7212
 5784SOL     OW28810   4.176   4.646   6.402  0.7560 -0.1471 -0.4503
 5784SOL    HW128811   4.211   4.561   6.428  2.1266  0.0893 -1.5058
 5784SOL    HW228812   4.117   4.623   6.329 -1.7171  0.9051  1.2130
 5785SOL     OW28813   0.343   0.962   1.825 -0.0034  0.3248 -0.3923
 5785SOL    HW128814   0.362   0.955   1.732  0.8356  0.7312 -0.2499
 5785SOL    HW228815   0.395   0.896   1.872  0.7069  1.0404 -0.1664
 5786SOL     OW28816   1.289   3.490   1.409 -0.2355 -0.5142  0.5346
 5786SOL    HW128817   1.240   3.537   1.341  0.4031 -0.3273  0.2018
 5786SOL    HW228818   1.374   3.513   1.372 -0.0727 -1.8756  0.0670
 5787SOL     OW28819   3.716   3.894   8.238 -0.2788  0.4117 -0.6901
 5787SOL    HW128820   3.703   3.818   8.295  0.3090  0.2909 -0.7252
 5787SOL    HW228821   3.806   3.878   8.212 -0.2476 -1.3804  0.4822
 5788SOL     OW28822   0.182   4.413   9.131  0.3897 -0.2719  0.0870
 5788SOL    HW128823   0.162   4.383   9.220  0.0969 -0.4007 -0.0233
 5788SOL    HW228824   0.097   4.456   9.124  1.2479  1.2268 -1.1183
 5789SOL     OW28825   3.275   0.788   9.999  0.1145 -0.4361 -0.8282
 5789SOL    HW128826   3.350   0.735   9.974  1.4309  1.8222 -1.6154
 5789SOL    HW228827   3.232   0.737  10.069  0.3680 -1.7201 -1.6125
 5790SOL     OW28828   0.735   2.353   3.452 -0.5920  0.1445  0.3372
 5790SOL    HW128829   0.798   2.377   3.384  0.8048 -2.3224  0.7837
 5790SOL    HW228830   0.665   2.301   3.412  1.0753 -0.6566 -1.5160
 5791SOL     OW28831   2.743   3.469   1.930  0.7134  0.6338  0.0380
 5791SOL    HW128832   2.820   3.522   1.948 -0.9901  3.4697 -1.1071
 5791SOL    HW228833   2.686   3.544   1.916  1.8232  0.8579 -3.2975
 5792SOL     OW28834   1.977   1.980   3.942  0.2360 -0.6894  0.1929
 5792SOL    HW128835   1.944   2.063   3.906  1.5718 -0.7632 -1.1922
 5792SOL    HW228836   1.966   1.923   3.866  1.5734 -2.4625  1.3342
 5793SOL     OW28837   0.249   1.390   3.792  0.1486  0.3720 -0.0171
 5793SOL    HW128838   0.157   1.377   3.771 -0.1131  0.3594  1.1402
 5793SOL    HW228839   0.271   1.324   3.858  0.3632  0.6098  0.1509
 5794SOL     OW28840   0.486   3.727   4.620  0.0218  1.4267  0.3426
 5794SOL    HW128841   0.430   3.655   4.649 -0.5056  0.8761 -2.0212
 5794SOL    HW228842   0.509   3.689   4.535 -2.8700  0.4303 -0.0061
 5795SOL     OW28843   1.071   3.022  13.416 -0.5318 -0.1171  0.1443
 5795SOL    HW128844   1.072   2.957  13.486 -0.4845  0.2687  0.5028
 5795SOL    HW228845   0.987   3.061  13.438 -0.4610  0.5268 -0.7273
 5796SOL     OW28846   0.515   1.972   3.794 -0.5026 -0.3662  0.1886
 5796SOL    HW128847   0.426   1.963   3.829 -0.3689  0.8589  0.8261
 5796SOL    HW228848   0.507   2.063   3.764  1.1636 -1.0208 -2.2890
 5797SOL     OW28849   4.317   3.590   8.603 -0.1395 -0.3278  0.6689
 5797SOL    HW128850   4.245   3.572   8.663  0.0164 -0.3505  0.8519
 5797SOL    HW228851   4.383   3.565   8.668  0.4069 -0.0927  0.2019
 5798SOL     OW28852   1.332   0.167   4.505  0.4426  0.1112  0.6330
 5798SOL    HW128853   1.361   0.157   4.595 -1.8309  1.4001  1.5189
 5798SOL    HW228854   1.315   0.261   4.502  1.5657  0.3675  2.2647
 5799SOL     OW28855   2.351   1.312   0.457  0.2109  0.0044 -0.2220
 5799SOL    HW128856   2.390   1.313   0.370 -1.6510  1.6418 -1.0344
 5799SOL    HW228857   2.414   1.255   0.502 -0.8491 -0.8213  0.2090
 5800SOL     OW28858   3.283   0.090   2.831 -0.1682  0.5369 -0.1926
 5800SOL    HW128859   3.329   0.023   2.780  2.2031  0.8388  1.5073
 5800SOL    HW228860   3.205   0.043   2.860  0.1770 -1.1715 -2.0297
 5801SOL     OW28861   2.664   0.818  12.097  0.4943 -0.7186 -1.0277
 5801SOL    HW128862   2.664   0.898  12.149  3.5407 -1.6959  0.5231
 5801SOL    HW228863   2.738   0.825  12.037  0.8611  1.5727 -0.3109
 5802SOL     OW28864   3.207   3.633   8.039  0.2978  0.1598 -0.2100
 5802SOL    HW128865   3.119   3.615   8.007  0.0124 -1.4982  1.4871
 5802SOL    HW228866   3.260   3.598   7.967  1.6559  1.6979  0.0250
 5803SOL     OW28867   4.559   0.343  15.170  0.6242 -0.3957  0.3411
 5803SOL    HW128868   4.549   0.275  15.103  2.5708 -1.7237  1.4133
 5803SOL    HW228869   4.580   0.301  15.253  1.7872  0.3353  0.4232
 5804SOL     OW28870   3.256   0.282   0.508  0.1726 -0.5769  0.0545
 5804SOL    HW128871   3.230   0.374   0.510 -1.9541 -1.1350 -2.4739
 5804SOL    HW228872   3.171   0.244   0.531 -0.7611  1.8263  0.5357
 5805SOL     OW28873   2.722   2.974   6.622  0.1668  0.3828 -0.1108
 5805SOL    HW128874   2.736   2.889   6.582 -0.4417  1.4490 -2.6135
 5805SOL    HW228875   2.632   3.003   6.605  0.1419  0.6510  0.4819
 5806SOL     OW28876   3.982   3.825   8.223 -0.0760 -0.2690  0.4765
 5806SOL    HW128877   4.041   3.795   8.293  1.0022  2.3872  0.6962
 5806SOL    HW228878   4.025   3.783   8.147  0.2027  0.7160  0.0922
 5807SOL     OW28879   3.382   3.078  17.229  0.4875 -0.3113  0.3637
 5807SOL    HW128880   3.316   3.067  17.161  2.3040 -2.6571 -1.0222
 5807SOL    HW228881   3.348   3.015  17.292 -0.9634  1.8711  1.7310
 5808SOL     OW28882   1.729   3.169  12.804 -0.1823 -0.1554  0.0506
 5808SOL    HW128883   1.724   3.077  12.831 -0.9273  0.2978  1.4449
 5808SOL    HW228884   1.669   3.152  12.731  0.1047 -1.3970  0.1025
 5809SOL     OW28885   3.621   1.883   3.751 -0.6057  0.1153  0.5015
 5809SOL    HW128886   3.679   1.847   3.818  0.7132 -0.9597 -1.1776
 5809SOL    HW228887   3.571   1.803   3.737 -0.0060 -0.6250  2.5880
 5810SOL     OW28888   1.499   0.461   4.467 -0.0840  0.2231  0.0027
 5810SOL    HW128889   1.543   0.395   4.413 -1.0292 -1.1591  0.9189
 5810SOL    HW228890   1.575   0.484   4.519  0.4846 -0.5075 -0.4898
 5811SOL     OW28891   4.680   0.761   2.350  0.0722 -0.1230 -0.3476
 5811SOL    HW128892   4.634   0.840   2.323 -0.5559 -0.9655 -1.7809
 5811SOL    HW228893   4.680   0.708   2.270 -0.0414  0.7774 -0.9460
 5812SOL     OW28894   0.368   2.866   8.691  0.0113 -0.0770 -0.2418
 5812SOL    HW128895   0.295   2.836   8.636 -3.5306  1.9204  3.4215
 5812SOL    HW228896   0.353   2.960   8.695 -0.3471 -0.0479 -2.0099
 5813SOL     OW28897   4.278   2.273   5.202 -0.8385  0.4263  0.3337
 5813SOL    HW128898   4.297   2.308   5.289  1.2831 -3.0200  1.2528
 5813SOL    HW228899   4.214   2.211   5.238 -0.8189  0.5729  0.6182
 5814SOL     OW28900   3.384   4.207   8.785  0.0314  0.2362 -0.2994
 5814SOL    HW128901   3.371   4.292   8.743 -1.5143 -0.1152 -0.5227
 5814SOL    HW228902   3.361   4.151   8.711 -1.1388 -0.2260  0.4165
 5815SOL     OW28903   0.816   2.015   7.274  0.5722  0.2343  0.2315
 5815SOL    HW128904   0.834   1.940   7.218  2.0080 -0.3232  1.4485
 5815SOL    HW228905   0.734   2.051   7.240 -0.5276  1.0529  3.6660
 5816SOL     OW28906   1.690   4.683   4.081  0.0070 -0.7791 -0.4832
 5816SOL    HW128907   1.615   4.634   4.047  0.6549 -1.5611 -0.7912
 5816SOL    HW228908   1.691   4.646   4.169  0.9677 -0.2303 -0.2659
 5817SOL     OW28909   2.750   1.671   4.045  0.1067  0.3747 -0.4541
 5817SOL    HW128910   2.695   1.731   4.096 -0.2248 -0.7781  0.5142
 5817SOL    HW228911   2.819   1.654   4.109  1.5399 -0.7102 -2.3088
 5818SOL     OW28912   0.500   1.687   7.462  0.2205  0.4404 -0.0395
 5818SOL    HW128913   0.491   1.764   7.405  0.1294  2.1303  2.2727
 5818SOL    HW228914   0.419   1.645   7.435  0.2472  0.1512  0.3390
 5819SOL     OW28915   2.499   3.851   4.923  0.6059  0.2732  0.3316
 5819SOL    HW128916   2.504   3.946   4.915 -2.6216  0.4570  0.7095
 5819SOL    HW228917   2.554   3.840   4.845 -1.1572  0.6563 -0.9620
 5820SOL     OW28918   2.810   0.607   0.115 -0.2958 -0.2176  0.1605
 5820SOL    HW128919   2.874   0.675   0.091 -1.7361  0.7729 -0.9201
 5820SOL    HW228920   2.737   0.668   0.127 -0.5706 -0.8186  1.4555
 5821SOL     OW28921   3.158   0.695   2.671 -0.1347 -0.0840  0.3313
 5821SOL    HW128922   3.128   0.782   2.645 -1.6157  0.0028  2.2805
 5821SOL    HW228923   3.238   0.686   2.620  0.3607  2.2167  0.7378
 5822SOL     OW28924   1.880   2.039   3.295 -0.7189  0.1743  0.1557
 5822SOL    HW128925   1.815   2.107   3.281 -1.0552 -0.1772  0.0186
 5822SOL    HW228926   1.959   2.089   3.318 -1.1490  0.5886  0.7342
 5823SOL     OW28927   1.169   0.948   8.570 -0.1052 -0.5085  0.4875
 5823SOL    HW128928   1.173   1.041   8.550  0.6792 -0.3854  1.2123
 5823SOL    HW228929   1.181   0.944   8.665  1.2123 -0.4686  0.3234
 5824SOL     OW28930   2.541   3.267   1.052  0.0261 -0.1770  0.5713
 5824SOL    HW128931   2.514   3.278   0.961  0.1506 -3.0445  0.1909
 5824SOL    HW228932   2.459   3.248   1.097 -0.5744 -1.8598 -1.2433
 5825SOL     OW28933   2.100   1.742   7.812 -0.0029 -0.0236 -0.0756
 5825SOL    HW128934   2.060   1.735   7.899  0.2585  0.2152  0.0628
 5825SOL    HW228935   2.179   1.688   7.821 -0.2572 -0.3271  0.3524
 5826SOL     OW28936   3.817   3.646   7.747 -0.1370  0.6625 -0.0682
 5826SOL    HW128937   3.800   3.577   7.812  1.3469  0.6524  0.3101
 5826SOL    HW228938   3.912   3.641   7.753 -0.0980 -0.2252 -1.1925
 5827SOL     OW28939   3.216   2.622  16.433  0.2314  0.4114 -0.6273
 5827SOL    HW128940   3.240   2.573  16.511  1.2173 -0.9111 -1.7450
 5827SOL    HW228941   3.152   2.560  16.398  1.6572 -1.0770 -0.6085
 5828SOL     OW28942   2.231   2.640   0.229  0.1926  0.2391 -0.0370
 5828SOL    HW128943   2.236   2.589   0.310 -1.3841 -1.6581 -1.1431
 5828SOL    HW228944   2.138   2.637   0.209 -0.2434 -0.8902  2.1341
 5829SOL     OW28945   2.631   4.673   5.526  0.2401  0.4317  0.6301
 5829SOL    HW128946   2.608   0.039   5.543  1.3022  0.8299 -0.0685
 5829SOL    HW228947   2.661   4.672   5.435 -1.4153 -3.0366  0.1387
 5830SOL     OW28948   3.452   4.312   3.804  0.2078 -0.0072  0.1144
 5830SOL    HW128949   3.411   4.284   3.886  1.0037 -1.4290  0.0346
 5830SOL    HW228950   3.544   4.300   3.829  0.4926  1.5582 -0.1764
 5831SOL     OW28951   3.722   4.665  15.739  0.0524 -0.7466  0.2171
 5831SOL    HW128952   3.809   4.702  15.724  0.7900 -3.4092 -2.1721
 5831SOL    HW228953   3.675   0.022  15.751  0.8618 -0.0935 -1.1018
 5832SOL     OW28954   3.336   1.077  15.097  0.1651  0.3472 -0.4443
 5832SOL    HW128955   3.332   1.168  15.128 -2.4836 -0.5642  1.8763
 5832SOL    HW228956   3.274   1.092  15.025 -2.4819  1.0741  2.0058
 5833SOL     OW28957   1.630   2.554  14.316  0.3880  0.2430 -0.3769
 5833SOL    HW128958   1.549   2.568  14.365  0.2098  2.5802 -1.3509
 5833SOL    HW228959   1.650   2.647  14.304  2.6578 -0.3003 -0.7272
 5834SOL     OW28960   0.650   1.776  10.959 -0.1422  0.6823  0.0411
 5834SOL    HW128961   0.657   1.710  10.891 -0.0480  2.1465 -1.3640
 5834SOL    HW228962   0.566   1.820  10.942 -0.4380  1.0138  2.3270
 5835SOL     OW28963   1.323   0.748   8.022  0.2831  0.4574 -0.1362
 5835SOL    HW128964   1.269   0.814   7.979  1.2459  0.4644 -1.3300
 5835SOL    HW228965   1.387   0.729   7.953 -0.2591 -0.3157 -0.4267
 5836SOL     OW28966   1.432   3.915  14.050  0.7992  0.0801 -0.3169
 5836SOL    HW128967   1.348   3.868  14.053  0.0310  1.4072 -1.1083
 5836SOL    HW228968   1.472   3.897  13.965  0.3305 -1.1594 -0.2848
 5837SOL     OW28969   0.382   2.481  15.806 -0.2757  0.0355  0.1566
 5837SOL    HW128970   0.316   2.539  15.767  0.3236 -0.1129 -1.0814
 5837SOL    HW228971   0.339   2.396  15.795  0.4370 -0.2133 -0.6374
 5838SOL     OW28972   0.630   0.377   2.165 -0.0991  0.2490  0.1264
 5838SOL    HW128973   0.579   0.327   2.228  1.5585 -2.0009 -0.3293
 5838SOL    HW228974   0.581   0.367   2.083 -1.3900  1.7191  0.7157
 5839SOL     OW28975   3.558   0.864  11.575  0.1311  0.4073  0.5576
 5839SOL    HW128976   3.625   0.860  11.507  0.4784 -1.6926  1.0131
 5839SOL    HW228977   3.621   0.834  11.640  0.4988  0.0315  0.0266
 5840SOL     OW28978   1.892   2.923   3.720 -0.3698 -0.4027  0.2809
 5840SOL    HW128979   1.929   2.835   3.716  1.6740  0.4820 -0.5999
 5840SOL    HW228980   1.961   2.980   3.685 -1.7209 -0.2646 -2.1303
 5841SOL     OW28981   3.494   0.849   6.346 -0.0611  0.1159  0.1463
 5841SOL    HW128982   3.445   0.929   6.328 -0.2398  0.5446  2.5029
 5841SOL    HW228983   3.561   0.880   6.407 -2.4449  1.9790  1.8083
 5842SOL     OW28984   1.468   3.023   9.239  0.0474 -0.0768  0.0779
 5842SOL    HW128985   1.480   3.108   9.197 -0.9692  0.1865  0.3267
 5842SOL    HW228986   1.554   2.981   9.231  0.7685  1.2223  1.0490
 5843SOL     OW28987   1.541   4.600   3.244 -0.3951 -0.2192  0.1110
 5843SOL    HW128988   1.627   4.559   3.235  1.4182  3.3233  1.2564
 5843SOL    HW228989   1.543   4.619   3.338 -1.1061 -0.4183  0.1617
 5844SOL     OW28990   2.617   4.498  16.874  0.1162  0.1642 -0.1693
 5844SOL    HW128991   2.545   4.549  16.837  0.3255  0.3698 -0.2860
 5844SOL    HW228992   2.686   4.563  16.864  0.6519 -0.5041 -0.7698
 5845SOL     OW28993   0.799   0.591   5.436  0.1031  0.3376 -0.1659
 5845SOL    HW128994   0.750   0.560   5.360 -0.2164 -1.5783  0.8297
 5845SOL    HW228995   0.855   0.659   5.398  0.5506 -0.8667 -1.6335
 5846SOL     OW28996   0.917   1.440   6.038 -0.4869 -0.6783 -0.4037
 5846SOL    HW128997   0.957   1.353   6.041 -0.1668 -0.5064  0.3767
 5846SOL    HW228998   0.982   1.504   6.067 -0.4049 -1.0449  0.2386
 5847SOL     OW28999   2.767   1.307   1.749  0.5372 -0.2508 -0.4659
 5847SOL    HW129000   2.690   1.364   1.753  0.8234  0.1080 -0.0145
 5847SOL    HW229001   2.820   1.347   1.680  0.3288 -0.4364 -0.7342
 5848SOL     OW29002   4.619   3.984   4.226  0.4115  0.0478  0.2962
 5848SOL    HW129003   4.670   3.980   4.307  0.4925  0.1242  0.2495
 5848SOL    HW229004   4.555   4.052   4.246 -2.0080 -2.5701  1.3197
 5849SOL     OW29005   2.658   3.929  17.449  0.0555 -0.0092  0.0783
 5849SOL    HW129006   2.613   3.908  17.531 -0.0799  1.0833  0.2831
 5849SOL    HW229007   2.729   3.865  17.445 -1.3971 -1.7242  1.5241
 5850SOL     OW29008   4.221   1.659   4.500  0.1461  0.2604  0.6843
 5850SOL    HW129009   4.256   1.727   4.557  0.5084 -0.9862  1.9495
 5850SOL    HW229010   4.263   1.676   4.415 -0.5534  0.9233  0.4736
 5851SOL     OW29011   0.342   3.658   8.250 -0.1141  0.3847 -0.2911
 5851SOL    HW129012   0.386   3.603   8.316 -0.7892  0.1936 -0.0040
 5851SOL    HW229013   0.409   3.665   8.182  0.4886 -2.5384 -0.0331
 5852SOL     OW29014   1.252   3.603   4.228 -0.4715 -0.7303 -0.3946
 5852SOL    HW129015   1.186   3.602   4.298 -2.4239  1.1719 -2.1657
 5852SOL    HW229016   1.202   3.667   4.177  0.9632 -1.4722 -2.6932
 5853SOL     OW29017   0.464   2.057   5.574  0.1230 -0.0092  0.0302
 5853SOL    HW129018   0.515   2.058   5.655 -0.2112  0.2833  0.2361
 5853SOL    HW229019   0.379   2.039   5.614  0.9057 -1.0527  1.2131
 5854SOL     OW29020   0.266   4.193   5.374  0.1908  0.2200 -0.6698
 5854SOL    HW129021   0.226   4.269   5.332 -2.0132 -0.7313 -0.2781
 5854SOL    HW229022   0.233   4.212   5.462 -0.7686  3.0035 -1.6517
 5855SOL     OW29023   4.568   2.616  17.070  0.3790  0.2015  0.5801
 5855SOL    HW129024   4.580   2.658  17.155 -1.7783  0.8852  0.5476
 5855SOL    HW229025   4.534   2.532  17.101  0.3180 -0.0794 -0.2391
 5856SOL     OW29026   3.686   3.935   2.047  0.0849  1.0381 -0.3662
 5856SOL    HW129027   3.749   3.876   2.087 -0.3424  1.7035  1.3163
 5856SOL    HW229028   3.609   3.939   2.104  0.6389  1.4552  0.3560
 5857SOL     OW29029   4.524   2.601   7.881 -0.3313 -0.3205  0.7586
 5857SOL    HW129030   4.453   2.567   7.937  0.0696  1.2013  2.1673
 5857SOL    HW229031   4.590   2.635   7.941 -1.1739  1.9327  0.3968
 5858SOL     OW29032   1.146   0.758   7.336  0.0903 -0.0159 -0.3772
 5858SOL    HW129033   1.160   0.807   7.255 -1.9006  1.2932  0.0843
 5858SOL    HW229034   1.227   0.707   7.347 -0.1540 -0.5770 -1.1454
 5859SOL     OW29035   4.460   4.425  15.125 -0.0159  0.2437  0.2089
 5859SOL    HW129036   4.534   4.430  15.064 -2.0518  2.3453 -2.0704
 5859SOL    HW229037   4.385   4.420  15.066 -0.5928  0.6778  0.9140
 5860SOL     OW29038   2.942   1.896  17.606 -0.0375  0.6888 -0.2586
 5860SOL    HW129039   2.867   1.953  17.590  0.6303  1.5843 -0.1676
 5860SOL    HW229040   2.985   1.932  17.683  1.7287 -1.3198 -0.3023
 5861SOL     OW29041   4.031   4.120   1.148 -0.3292 -0.9799  0.0812
 5861SOL    HW129042   4.017   4.133   1.242 -0.4361  1.1433 -0.2276
 5861SOL    HW229043   3.939   4.113   1.123  0.0514  0.8536 -1.9108
 5862SOL     OW29044   3.901   3.288  13.202  0.0687  0.1187 -0.2381
 5862SOL    HW129045   3.845   3.364  13.213  1.1827  1.5390 -4.5283
 5862SOL    HW229046   3.844   3.219  13.235 -0.2530 -0.1090 -1.2934
 5863SOL     OW29047   0.399   1.686   8.396  0.0621 -0.3973 -0.4754
 5863SOL    HW129048   0.454   1.718   8.324  0.1137  1.9716  0.6417
 5863SOL    HW229049   0.463   1.670   8.465 -1.5823  0.8018  1.2990
 5864SOL     OW29050   3.927   3.111   4.761  0.6005 -0.5019  0.5429
 5864SOL    HW129051   3.953   3.072   4.677  1.0309  0.6628  0.1393
 5864SOL    HW229052   4.001   3.101   4.820  1.2531  0.2232 -0.1572
 5865SOL     OW29053   3.613   1.298  13.180 -0.1848  0.2510  0.4078
 5865SOL    HW129054   3.679   1.353  13.222  2.1238 -0.7015 -1.9705
 5865SOL    HW229055   3.624   1.319  13.087  1.8110  1.3536  0.8845
 5866SOL     OW29056   2.325   0.600   6.265  0.3149 -0.0969  0.1391
 5866SOL    HW129057   2.342   0.686   6.304  0.4387 -0.5821  1.1520
 5866SOL    HW229058   2.352   0.614   6.174  3.2034 -1.1326  0.8192
 5867SOL     OW29059   0.692   3.438   4.480  0.6604 -0.2613  0.4836
 5867SOL    HW129060   0.714   3.473   4.566 -0.4524 -1.9361  1.4398
 5867SOL    HW229061   0.637   3.366   4.510 -0.3192  0.9285  1.5320
 5868SOL     OW29062   3.473   0.999   9.992 -0.1380  0.6821 -0.2843
 5868SOL    HW129063   3.398   0.940  10.005  0.7241  0.1167  2.1612
 5868SOL    HW229064   3.536   0.950  10.045  0.2544  2.1642  0.6007
 5869SOL     OW29065   2.246   3.291   3.701  0.4528  0.6106 -0.0296
 5869SOL    HW129066   2.189   3.217   3.681  2.4344 -0.3728 -2.0127
 5869SOL    HW229067   2.257   3.288   3.796 -0.8427  0.2836  0.1035
 5870SOL     OW29068   1.951   4.277   1.358  0.5003 -0.5368 -0.0948
 5870SOL    HW129069   1.902   4.352   1.324  2.4411 -0.1091 -1.9729
 5870SOL    HW229070   1.965   4.221   1.282 -0.4283  1.9500 -2.1011
 5871SOL     OW29071   0.658   1.583   4.355 -0.7719 -0.0512  0.7103
 5871SOL    HW129072   0.641   1.536   4.437  0.5407 -0.8899  0.5038
 5871SOL    HW229073   0.740   1.540   4.331 -0.3538  1.6212 -0.8672
 5872SOL     OW29074   4.420   1.688   7.103  0.1950 -0.1008 -0.5124
 5872SOL    HW129075   4.395   1.600   7.075  1.0967 -0.7470  0.7102
 5872SOL    HW229076   4.334   1.726   7.123  0.5157  0.3480  0.0239
 5873SOL     OW29077   4.106   0.717   8.216  0.3318  0.4833  0.7722
 5873SOL    HW129078   4.022   0.697   8.174  0.5627  2.8722 -0.8327
 5873SOL    HW229079   4.097   0.661   8.293  0.3541  0.0531  0.4655
 5874SOL     OW29080   3.732   0.633   9.106  0.3567 -1.0504 -0.3919
 5874SOL    HW129081   3.795   0.692   9.148 -1.0028  0.0250  0.1681
 5874SOL    HW229082   3.740   0.671   9.018 -0.1701 -1.7497 -0.7483
 5875SOL     OW29083   1.237   0.963   4.960 -0.4161  0.4132 -0.2097
 5875SOL    HW129084   1.178   1.007   4.898 -1.1858 -1.4851 -0.8388
 5875SOL    HW229085   1.195   0.877   4.966 -0.4042  0.5227  1.2472
 5876SOL     OW29086   1.077   2.541   7.019 -0.2913 -0.2021  0.1820
 5876SOL    HW129087   1.022   2.541   7.098  0.0728  0.5355  0.4291
 5876SOL    HW229088   1.150   2.599   7.041 -0.4418 -0.1521  0.5427
 5877SOL     OW29089   2.998   3.595   3.017  0.2216  0.0368 -0.4346
 5877SOL    HW129090   2.913   3.549   3.022 -0.0721  0.4069 -2.1338
 5877SOL    HW229091   3.036   3.566   2.935  0.0442  1.1587 -0.9080
 5878SOL     OW29092   4.248   2.291   1.972  0.3431  0.5471  0.7358
 5878SOL    HW129093   4.266   2.246   1.890 -1.4847  0.7925  0.1859
 5878SOL    HW229094   4.310   2.362   1.986  0.3873  0.5394  0.5797
 5879SOL     OW29095   3.029   3.481  12.485  0.2124 -0.2330 -0.2661
 5879SOL    HW129096   3.031   3.398  12.532 -1.2458 -0.2173 -0.1845
 5879SOL    HW229097   2.948   3.476  12.434  0.8376  0.0069 -1.2784
 5880SOL     OW29098   4.032   1.036   5.601 -0.1176 -0.3521 -0.1280
 5880SOL    HW129099   4.056   1.038   5.694  1.4512  0.6955 -0.5548
 5880SOL    HW229100   3.950   0.990   5.619  1.5884 -2.7344  1.5666
 5881SOL     OW29101   0.729   2.563   9.848 -0.4968  0.0747 -0.0204
 5881SOL    HW129102   0.666   2.557   9.919  0.3212 -0.2495  0.6710
 5881SOL    HW229103   0.681   2.514   9.782 -1.3989  2.1042 -0.8781
 5882SOL     OW29104   0.640   2.175   0.622 -0.3282 -0.4030 -0.4304
 5882SOL    HW129105   0.657   2.110   0.554  2.2571 -0.4037  0.2096
 5882SOL    HW229106   0.575   2.133   0.678 -0.9847 -0.6864 -1.4077
 5883SOL     OW29107   1.980   2.147   9.865  0.5606 -0.0435  0.3413
 5883SOL    HW129108   1.935   2.063   9.855  1.3115 -0.6217  1.8735
 5883SOL    HW229109   2.072   2.124   9.876  0.0661 -0.6252  3.2689
 5884SOL     OW29110   0.220   2.999  17.675  0.2046 -0.0232  0.3961
 5884SOL    HW129111   0.261   3.056   0.038  0.4784  0.3478 -0.1074
 5884SOL    HW229112   0.190   2.921   0.020 -1.2723  0.1460 -0.2761
 5885SOL     OW29113   1.401   1.165   7.569  0.2462 -0.2013  0.3411
 5885SOL    HW129114   1.453   1.219   7.510  2.0202  1.9103  3.8288
 5885SOL    HW229115   1.385   1.087   7.515  0.3822 -0.7182  1.0377
 5886SOL     OW29116   3.331   2.504   1.934  0.4517  0.1080 -0.3470
 5886SOL    HW129117   3.260   2.442   1.922  0.7867 -0.7907  2.4439
 5886SOL    HW229118   3.336   2.548   1.849  1.2995  0.7834  0.0543
 5887SOL     OW29119   0.053   0.774  17.401  0.0532 -0.2388 -0.0717
 5887SOL    HW129120   0.115   0.766  17.474  1.2519  3.7608 -0.7105
 5887SOL    HW229121   0.059   0.682  17.375  0.9030 -0.2371  0.0990
 5888SOL     OW29122   2.031   0.884  17.167  0.3013 -0.2966 -0.5315
 5888SOL    HW129123   2.046   0.790  17.180 -0.5089 -0.5358 -1.2669
 5888SOL    HW229124   2.022   0.890  17.071 -1.4964  0.0499 -0.3487
 5889SOL     OW29125   0.772   0.252   2.707 -0.2834 -0.4537 -0.0251
 5889SOL    HW129126   0.841   0.227   2.769  1.7842  2.3171 -1.2331
 5889SOL    HW229127   0.817   0.255   2.623  2.8814  1.5823  1.7541
 5890SOL     OW29128   0.590   2.233   4.808 -0.1558  0.6053  0.2467
 5890SOL    HW129129   0.574   2.153   4.757  0.4165  1.9923 -2.0551
 5890SOL    HW229130   0.658   2.201   4.868  1.1968  1.3737 -0.8923
 5891SOL     OW29131   0.759   0.607   4.366 -0.6369 -0.1511  0.0633
 5891SOL    HW129132   0.751   0.536   4.431  0.2464 -1.4421 -1.2337
 5891SOL    HW229133   0.833   0.559   4.329  0.6684  2.4939 -0.7549
 5892SOL     OW29134   2.860   1.718  10.987 -0.1430  0.1116  0.2384
 5892SOL    HW129135   2.828   1.631  10.964 -0.6850  0.6412 -0.9558
 5892SOL    HW229136   2.784   1.752  11.035 -0.7075 -1.2871  0.3343
 5893SOL     OW29137   0.089   2.148   3.807 -0.0465 -0.1806 -0.5070
 5893SOL    HW129138   0.171   2.125   3.762  0.0054  1.6037 -1.3186
 5893SOL    HW229139   0.061   2.060   3.834 -0.6873  0.2671  0.2926
 5894SOL     OW29140   0.534   2.835  11.131 -0.2610  0.0403 -0.5628
 5894SOL    HW129141   0.470   2.771  11.100 -1.5618  0.8672  0.4200
 5894SOL    HW229142   0.545   2.819  11.225  4.1051  0.3511 -0.9919
 5895SOL     OW29143   3.033   1.463  14.889  0.2554  0.0790 -0.3197
 5895SOL    HW129144   3.066   1.521  14.958 -0.6088 -1.5582  1.4950
 5895SOL    HW229145   3.108   1.465  14.829  0.2232  0.5436 -0.3436
 5896SOL     OW29146   0.800   3.923   4.993 -0.3619  0.1029  0.3206
 5896SOL    HW129147   0.794   4.017   5.008  2.1336  0.4153 -0.5691
 5896SOL    HW229148   0.895   3.913   4.981 -0.3010  1.0401  0.0077
 5897SOL     OW29149   3.293   2.429   9.606 -0.2527  0.5176  0.0287
 5897SOL    HW129150   3.287   2.398   9.697  0.0776  1.3882  0.3521
 5897SOL    HW229151   3.387   2.437   9.594 -0.3235 -0.5633 -1.1991
 5898SOL     OW29152   4.063   2.768   3.356  0.8302 -0.5213 -1.0599
 5898SOL    HW129153   4.028   2.710   3.289 -3.3077  0.3548  0.3302
 5898SOL    HW229154   4.128   2.815   3.305  0.0351  1.4541 -0.2788
 5899SOL     OW29155   3.323   4.643   2.642  0.8369 -0.2574 -0.1394
 5899SOL    HW129156   3.279   4.685   2.567 -0.8174 -1.1379  0.3461
 5899SOL    HW229157   3.412   4.632   2.608  0.2087  0.4330 -2.0587
 5900SOL     OW29158   4.454   3.920   7.204 -0.0744 -0.1850  1.2548
 5900SOL    HW129159   4.391   3.886   7.141  1.1212 -0.2868  0.1128
 5900SOL    HW229160   4.542   3.884   7.190  1.1189  3.0366  0.4971
 5901SOL     OW29161   1.897   4.460  12.924  0.0698  0.4015 -0.2927
 5901SOL    HW129162   1.940   4.526  12.869  0.8735 -0.0403 -0.1810
 5901SOL    HW229163   1.820   4.446  12.869  0.0921 -0.5473 -0.0865
 5902SOL     OW29164   4.654   3.422  14.690 -0.0184  0.3180  0.1920
 5902SOL    HW129165   4.690   3.334  14.702  1.0438  0.1825 -4.0687
 5902SOL    HW229166   4.674   3.443  14.781 -0.1264  0.8676  0.0857
 5903SOL     OW29167   1.603   2.253  11.868 -0.5630  0.3664 -0.0288
 5903SOL    HW129168   1.685   2.225  11.910 -1.4951 -2.3904 -0.0127
 5903SOL    HW229169   1.634   2.278  11.781 -0.3020  1.0771  0.2670
 5904SOL     OW29170   0.592   3.463   1.985 -0.2812  0.1055  0.3340
 5904SOL    HW129171   0.521   3.455   2.049 -1.0858  1.4770 -0.3945
 5904SOL    HW229172   0.572   3.550   1.952  0.0508  0.2287  0.4584
 5905SOL     OW29173   4.384   1.677  11.159  0.5017  0.0439 -0.5190
 5905SOL    HW129174   4.371   1.610  11.227 -0.5483  0.7141 -0.0576
 5905SOL    HW229175   4.479   1.676  11.159  0.5068  1.6412  2.6197
 5906SOL     OW29176   2.321   4.712   8.335  0.5584 -0.2992  0.2720
 5906SOL    HW129177   2.325   0.049   8.407  1.8072 -0.9012  0.7122
 5906SOL    HW229178   2.238   4.669   8.356 -0.6314  0.3032 -3.1837
 5907SOL     OW29179   1.601   2.852  14.880  0.1288  0.0787  0.1621
 5907SOL    HW129180   1.676   2.905  14.908 -0.0479 -0.3100  1.3589
 5907SOL    HW229181   1.564   2.840  14.967 -0.6268 -1.3679 -0.3604
 5908SOL     OW29182   2.883   3.235   2.266 -0.2409  0.2141 -0.4661
 5908SOL    HW129183   2.910   3.214   2.177  1.1256 -1.0187  0.2354
 5908SOL    HW229184   2.877   3.148   2.305  0.0139 -0.3232 -1.6431
 5909SOL     OW29185   3.136   1.467   6.144 -0.0880 -1.1403  0.4887
 5909SOL    HW129186   3.152   1.412   6.221  0.2488  1.4540  2.2420
 5909SOL    HW229187   3.056   1.436   6.100  0.6590  1.0082 -2.3963
 5910SOL     OW29188   4.528   4.639   6.103  0.1567 -0.1128  0.5149
 5910SOL    HW129189   4.497   4.595   6.182  1.0541 -0.0480  0.9109
 5910SOL    HW229190   4.476   4.719   6.095 -0.7346 -0.9492 -1.9543
 5911SOL     OW29191   2.888   3.210  17.178  0.1025  0.0947  1.1093
 5911SOL    HW129192   2.921   3.166  17.100  0.0239 -1.0824  1.7351
 5911SOL    HW229193   2.811   3.154  17.186 -0.0652  0.1615 -0.1773
 5912SOL     OW29194   1.151   1.554   3.942  0.5853  0.3949  0.3159
 5912SOL    HW129195   1.223   1.617   3.936 -0.7579  1.8090 -0.8008
 5912SOL    HW229196   1.164   1.504   4.022 -1.0559 -0.2495  0.1711
 5913SOL     OW29197   1.924   2.702  11.512  0.3275 -0.2816  0.0558
 5913SOL    HW129198   2.016   2.730  11.518  0.3585 -0.5225  0.6292
 5913SOL    HW229199   1.929   2.615  11.551  1.2133 -0.3828 -0.2758
 5914SOL     OW29200   1.640   0.307  17.680 -0.6265 -0.9549 -0.4597
 5914SOL    HW129201   1.727   0.318  17.642 -0.1144  1.0697  1.2905
 5914SOL    HW229202   1.602   0.385  17.639  0.1637 -0.3439 -0.0163
 5915SOL     OW29203   2.467   2.446   3.961  0.5268 -0.5085 -0.1997
 5915SOL    HW129204   2.494   2.427   3.871 -0.5484  1.0391 -0.8576
 5915SOL    HW229205   2.393   2.506   3.951  0.3793 -0.4423  1.3085
 5916SOL     OW29206   2.342   2.825   6.891  0.0058  0.5045 -0.0353
 5916SOL    HW129207   2.289   2.831   6.970  0.9671 -1.0608  0.7233
 5916SOL    HW229208   2.420   2.783   6.927 -1.0940 -0.6171  1.0136
 5917SOL     OW29209   2.435   1.445  14.599 -0.7233 -0.9311  0.2344
 5917SOL    HW129210   2.346   1.418  14.617 -0.5899 -1.4098  0.1798
 5917SOL    HW229211   2.423   1.500  14.522  1.0886 -3.1099 -1.6236
 5918SOL     OW29212   3.255   2.587   2.917 -0.4474  0.1993  0.0104
 5918SOL    HW129213   3.240   2.663   2.973 -0.0274  0.5481 -0.3482
 5918SOL    HW229214   3.186   2.528   2.946  0.2843 -0.6014  0.1262
 5919SOL     OW29215   3.740   0.834  10.987 -0.0967  0.0861 -0.3193
 5919SOL    HW129216   3.738   0.929  10.974 -1.0285  0.0989 -0.0236
 5919SOL    HW229217   3.681   0.827  11.062 -0.4835  1.2153 -0.5313
 5920SOL     OW29218   2.449   2.462   7.479 -0.3195  0.2278  0.4694
 5920SOL    HW129219   2.520   2.405   7.450 -0.2687  1.1876 -1.2686
 5920SOL    HW229220   2.398   2.403   7.534 -1.7702  1.6987  0.6996
 5921SOL     OW29221   4.104   1.153   9.506 -0.5764  0.2843  0.2737
 5921SOL    HW129222   4.146   1.117   9.584 -0.3446  0.1283  0.0768
 5921SOL    HW229223   4.150   1.236   9.493  1.2356 -0.6445  0.8411
 5922SOL     OW29224   3.449   0.959  12.553 -0.3607 -0.3385  0.4295
 5922SOL    HW129225   3.430   0.865  12.550 -0.6686 -0.2786  0.4389
 5922SOL    HW229226   3.528   0.974  12.502 -0.6193 -2.2253 -0.5131
 5923SOL     OW29227   3.628   0.849  14.563  0.3723  0.6283  0.6562
 5923SOL    HW129228   3.581   0.824  14.483  1.1785  0.2025  0.3227
 5923SOL    HW229229   3.618   0.772  14.619 -0.0872  2.5576  3.2540
 5924SOL     OW29230   3.903   3.439   4.705 -0.1110 -0.2761 -0.2247
 5924SOL    HW129231   3.904   3.352   4.744 -3.8382  0.7267  2.0450
 5924SOL    HW229232   3.810   3.453   4.686 -0.6992 -0.4379  2.5566
 5925SOL     OW29233   3.904   4.131   7.836 -0.1050  0.4817 -0.1692
 5925SOL    HW129234   3.821   4.085   7.823 -1.3702  2.3971  1.2052
 5925SOL    HW229235   3.957   4.054   7.858 -1.8036 -1.0464 -1.4188
 5926SOL     OW29236   1.371   0.187  14.955 -0.6718 -0.0952 -0.0894
 5926SOL    HW129237   1.322   0.254  14.908 -1.9340  0.5833  2.1627
 5926SOL    HW229238   1.405   0.236  15.030 -1.4149 -1.7899  1.3724
 5927SOL     OW29239   3.044   3.763   3.742  0.6377  0.3583 -0.1888
 5927SOL    HW129240   2.959   3.803   3.760  0.8212  0.7425 -0.1580
 5927SOL    HW229241   3.022   3.670   3.741 -0.8357  0.7076  0.0715
 5928SOL     OW29242   4.037   2.168   3.281  0.3512 -0.3913 -0.4168
 5928SOL    HW129243   3.975   2.179   3.209  0.9278  0.9332 -0.7111
 5928SOL    HW229244   4.109   2.135   3.228 -0.1040 -0.0839 -1.2330
 5929SOL     OW29245   1.725   1.683   6.831 -0.2185 -0.6170 -0.3897
 5929SOL    HW129246   1.744   1.735   6.754  1.0728  0.8570  0.9215
 5929SOL    HW229247   1.633   1.659   6.823 -0.7281 -0.3858  4.4877
 5930SOL     OW29248   1.592   4.713   9.132  0.2683 -0.1152  0.1834
 5930SOL    HW129249   1.609   4.655   9.206  2.0921  2.6579  1.9489
 5930SOL    HW229250   1.496   4.714   9.137  0.1991 -1.0167 -1.0645
 5931SOL     OW29251   4.277   1.928   2.548  0.0118  0.4673 -0.6799
 5931SOL    HW129252   4.204   1.988   2.535 -1.3377 -0.3216  3.2913
 5931SOL    HW229253   4.246   1.842   2.518 -0.9613  1.7330 -3.2448
 5932SOL     OW29254   2.552   1.290  13.265 -0.6098 -0.7532 -0.3752
 5932SOL    HW129255   2.545   1.195  13.254  1.4645 -0.7422 -1.7104
 5932SOL    HW229256   2.584   1.317  13.179 -2.9012  1.9460 -0.3825
 5933SOL     OW29257   2.326   0.080   4.149  0.4382 -0.5277 -0.3016
 5933SOL    HW129258   2.249   0.136   4.153 -1.4041 -3.0651 -0.0710
 5933SOL    HW229259   2.303   4.716   4.178 -2.4417 -0.3224 -1.9173
 5934SOL     OW29260   0.238   1.887   3.008 -0.1433  0.6524  0.3915
 5934SOL    HW129261   0.276   1.854   3.090  0.5116  0.3464 -0.0289
 5934SOL    HW229262   0.228   1.810   2.952 -2.3522  1.2104  0.0466
 5935SOL     OW29263   1.513   1.373   3.980 -0.0532  0.2569 -0.3161
 5935SOL    HW129264   1.582   1.440   3.985  1.3098 -1.1913  0.6435
 5935SOL    HW229265   1.517   1.336   3.892  0.7004  0.9659 -0.5744
 5936SOL     OW29266   1.227   0.619   7.695 -0.1101 -0.4212 -0.0659
 5936SOL    HW129267   1.189   0.549   7.642  1.1262 -1.6933  0.7548
 5936SOL    HW229268   1.164   0.689   7.678 -1.5423 -1.9584 -1.0455
 5937SOL     OW29269   4.645   0.587   4.784  0.2552 -0.4549 -0.1200
 5937SOL    HW129270   4.623   0.654   4.719  1.5749  0.5570  0.5005
 5937SOL    HW229271   4.676   0.520   4.723  0.7517 -0.6364  0.3352
 5938SOL     OW29272   0.452   0.815   5.098  0.2480  0.2654  0.3381
 5938SOL    HW129273   0.423   0.729   5.129  0.3640  0.4016  0.8323
 5938SOL    HW229274   0.458   0.806   5.003  0.6369  1.1200  0.2855
 5939SOL     OW29275   0.524   0.072   1.134  0.2592 -0.4863  0.1576
 5939SOL    HW129276   0.457   0.027   1.082  0.1759 -0.3384  0.1359
 5939SOL    HW229277   0.567   4.720   1.170  2.5798  0.0644 -1.4358
 5940SOL     OW29278   1.094   1.529   8.414  0.0384  0.2061  0.1714
 5940SOL    HW129279   1.184   1.504   8.437 -0.2087 -0.1591  0.7223
 5940SOL    HW229280   1.039   1.455   8.438 -1.2433  1.4498  1.0206
 5941SOL     OW29281   1.658   3.183   5.395  0.3045 -0.0016 -0.2759
 5941SOL    HW129282   1.624   3.094   5.382  0.3242  0.0464 -0.6409
 5941SOL    HW229283   1.645   3.188   5.490  2.5296 -1.0623  0.0947
 5942SOL     OW29284   0.561   3.232   4.576 -0.0351 -0.0793 -0.0707
 5942SOL    HW129285   0.592   3.167   4.513 -1.7442  1.2728 -2.2932
 5942SOL    HW229286   0.467   3.215   4.583 -0.0756  0.6574  1.2931
 5943SOL     OW29287   2.926   0.635   5.093 -0.3185 -0.2477  0.7580
 5943SOL    HW129288   2.959   0.711   5.142  0.4907  0.8873 -1.5841
 5943SOL    HW229289   2.995   0.570   5.078 -0.4787  0.0983 -1.4524
 5944SOL     OW29290   0.773   2.710   7.584 -0.1621  0.0901 -0.1737
 5944SOL    HW129291   0.856   2.748   7.555  0.6114 -0.6857  1.0169
 5944SOL    HW229292   0.759   2.765   7.661 -2.0916  1.3837 -1.4410
 5945SOL     OW29293   4.007   3.738  10.375 -0.0304 -0.6762  0.1754
 5945SOL    HW129294   3.920   3.698  10.384 -0.5515  0.9795  2.2784
 5945SOL    HW229295   4.048   3.684  10.442  0.3543  1.2978  1.5227
 5946SOL     OW29296   0.242   3.647  11.959 -0.2801  0.0818  0.2172
 5946SOL    HW129297   0.215   3.683  12.043  1.3868  2.2709 -0.1814
 5946SOL    HW229298   0.214   3.709  11.891  1.5547  0.6336 -0.0609
 5947SOL     OW29299   0.234   1.280  12.364 -0.6223 -0.3637 -0.0005
 5947SOL    HW129300   0.240   1.305  12.457 -1.3328 -1.8233  0.4433
 5947SOL    HW229301   0.288   1.347  12.322 -1.1007  0.2062  0.2958
 5948SOL     OW29302   3.305   1.158  12.279  0.2676  0.2470 -0.4849
 5948SOL    HW129303   3.307   1.251  12.258 -3.4831  0.6469  0.8450
 5948SOL    HW229304   3.352   1.159  12.362 -0.1088  0.9236 -0.2811
 5949SOL     OW29305   0.279   4.321  10.726 -0.5719 -0.0411 -0.4933
 5949SOL    HW129306   0.363   4.349  10.690 -1.4422  1.6261 -1.2647
 5949SOL    HW229307   0.279   4.234  10.684 -2.4576 -1.0215  1.5779
 5950SOL     OW29308   2.919   1.352  14.601  0.3322  0.1370  0.7363
 5950SOL    HW129309   2.827   1.343  14.625  0.8744 -1.1581  2.2819
 5950SOL    HW229310   2.952   1.417  14.663 -0.9149  0.8281  0.6682
 5951SOL     OW29311   1.353   2.279   9.651  0.3676  0.4423  0.1371
 5951SOL    HW129312   1.401   2.255   9.571 -1.1545 -0.5101 -0.4922
 5951SOL    HW229313   1.421   2.317   9.707 -2.1804  1.7710  2.2851
 5952SOL     OW29314   2.267   1.057  16.919 -0.3940  0.4256 -0.1453
 5952SOL    HW129315   2.293   1.080  16.829  1.2680 -0.4947  0.0991
 5952SOL    HW229316   2.259   1.143  16.960 -0.0344  1.5192 -2.3157
 5953SOL     OW29317   3.461   2.038   4.973  0.3690  0.2533 -0.2297
 5953SOL    HW129318   3.512   1.966   5.010  0.8193  1.2243  1.0848
 5953SOL    HW229319   3.372   2.018   5.004  0.7624  0.6792  1.1959
 5954SOL     OW29320   2.677   3.806   5.128 -0.0173 -0.0335  0.6353
 5954SOL    HW129321   2.725   3.724   5.134 -2.5098 -1.6993 -1.9077
 5954SOL    HW229322   2.637   3.809   5.041 -0.9211 -1.0933  1.0110
 5955SOL     OW29323   3.614   3.407   6.027 -0.5097 -0.4508  0.4208
 5955SOL    HW129324   3.644   3.426   6.116 -0.5044 -1.2385  0.5840
 5955SOL    HW229325   3.618   3.499   6.001 -0.5803 -0.0654  1.7813
 5956SOL     OW29326   4.569   3.405   7.059 -0.4121  0.1229 -0.4003
 5956SOL    HW129327   4.597   3.462   6.988  0.2403  0.0062 -0.2412
 5956SOL    HW229328   4.614   3.456   7.126 -1.0951 -0.8290  0.7835
 5957SOL     OW29329   3.258   3.527   8.930  0.4959  0.3809  0.2206
 5957SOL    HW129330   3.343   3.485   8.918  1.1203  1.3586  1.2230
 5957SOL    HW229331   3.291   3.608   8.970  2.4080 -1.0475  1.5155
 5958SOL     OW29332   0.611   2.478   7.599  0.0287 -0.3537 -0.1346
 5958SOL    HW129333   0.517   2.477   7.581 -0.2353 -0.4043  1.2765
 5958SOL    HW229334   0.631   2.571   7.583 -0.3359 -0.0108  1.3843
 5959SOL     OW29335   0.772   4.143  17.150 -0.1010  0.0942  0.5876
 5959SOL    HW129336   0.851   4.113  17.196 -0.2544 -1.8885 -0.4449
 5959SOL    HW229337   0.806   4.190  17.074  1.1358 -1.6201  0.0860
 5960SOL     OW29338   4.098   1.817   8.965 -0.2527  0.4191 -0.0527
 5960SOL    HW129339   4.188   1.791   8.986  0.0516  0.4981 -1.2240
 5960SOL    HW229340   4.110   1.875   8.889 -0.9393 -0.2507 -0.6677
 5961SOL     OW29341   1.552   3.741  11.511 -0.2538  0.1906 -0.0577
 5961SOL    HW129342   1.485   3.749  11.443 -0.7094  0.9540  0.4755
 5961SOL    HW229343   1.614   3.805  11.476 -2.3673  0.9357 -2.4011
 5962SOL     OW29344   0.898   1.006  13.701 -0.0848 -0.2651 -0.0696
 5962SOL    HW129345   0.979   1.028  13.656 -0.2482 -0.0560 -0.2596
 5962SOL    HW229346   0.915   0.912  13.710  0.1576 -0.0803  1.3614
 5963SOL     OW29347   3.434   1.628   6.745  0.6813  0.5518  0.1529
 5963SOL    HW129348   3.500   1.693   6.720  1.0898  0.4073  0.8528
 5963SOL    HW229349   3.472   1.542   6.726  3.8559  1.7019  1.2236
 5964SOL     OW29350   4.166   1.122  11.687  0.1636 -0.1092 -0.2745
 5964SOL    HW129351   4.073   1.101  11.698 -0.1074  2.0260  1.4026
 5964SOL    HW229352   4.211   1.043  11.716 -0.2442 -0.6633 -1.1527
 5965SOL     OW29353   4.396   1.724   8.170 -0.2846 -0.5713 -0.5287
 5965SOL    HW129354   4.396   1.811   8.130 -0.2695  0.5575  1.9005
 5965SOL    HW229355   4.485   1.699   8.142 -0.1408  0.8723 -1.3449
 5966SOL     OW29356   4.395   4.074   3.885  0.1471 -0.2018  0.0295
 5966SOL    HW129357   4.327   4.140   3.880 -1.6594 -2.0344  0.3874
 5966SOL    HW229358   4.343   4.000   3.852  2.4185 -2.0781  0.6674
 5967SOL     OW29359   2.894   0.997  15.877 -0.2473  0.2680 -0.5779
 5967SOL    HW129360   2.919   0.970  15.789  1.1561 -3.1798  0.8803
 5967SOL    HW229361   2.968   0.959  15.925 -1.0143 -0.1907  0.2340
 5968SOL     OW29362   2.658   0.782   8.653  0.8101  0.5726  0.1549
 5968SOL    HW129363   2.606   0.797   8.731 -0.2152 -2.1952 -0.0047
 5968SOL    HW229364   2.638   0.850   8.588 -0.4008 -0.1986 -0.2698
 5969SOL     OW29365   0.546   0.556  12.910 -0.5587  0.2344 -0.0755
 5969SOL    HW129366   0.632   0.590  12.884 -0.7920  0.0300 -1.1265
 5969SOL    HW229367   0.533   0.596  12.996  1.9188  2.3354 -0.6766
 5970SOL     OW29368   2.120   3.467  12.579  0.0843 -0.2350 -0.3409
 5970SOL    HW129369   2.124   3.545  12.523  0.9832 -1.1058 -1.4898
 5970SOL    HW229370   2.133   3.505  12.666  1.0291  0.4004 -0.7543
 5971SOL     OW29371   2.064   0.647   3.210 -0.0098 -0.1087 -0.2524
 5971SOL    HW129372   2.025   0.650   3.123 -1.5561 -1.0347  0.4128
 5971SOL    HW229373   1.987   0.671   3.262  0.1636  1.2237 -0.5894
 5972SOL     OW29374   2.124   4.151   5.473 -0.1535  0.5871 -0.0463
 5972SOL    HW129375   2.150   4.072   5.426 -0.3329  1.4448 -1.6029
 5972SOL    HW229376   2.194   4.160   5.538  1.0816  2.0616 -1.5993
 5973SOL     OW29377   1.059   4.470   3.648  0.1188  0.6571  0.3290
 5973SOL    HW129378   1.035   4.556   3.612 -2.6013 -0.3784 -0.3412
 5973SOL    HW229379   1.077   4.428   3.564  0.0549 -0.1493  0.7196
 5974SOL     OW29380   4.333   4.036   2.261  0.1637 -0.0115 -0.0687
 5974SOL    HW129381   4.374   3.950   2.260  1.1468  0.4532  0.0503
 5974SOL    HW229382   4.408   4.095   2.251 -0.3570  0.3236 -2.0544
 5975SOL     OW29383   3.603   2.350   3.857 -0.2998 -0.2399  0.1401
 5975SOL    HW129384   3.643   2.348   3.944  0.6737  0.0340 -0.2968
 5975SOL    HW229385   3.677   2.319   3.803  0.8398  0.3590  1.3735
 5976SOL     OW29386   3.693   2.502   6.524  0.6901  0.0512 -0.2162
 5976SOL    HW129387   3.784   2.518   6.499 -0.1831  2.1152 -2.1262
 5976SOL    HW229388   3.652   2.497   6.438  0.5174 -0.8589 -0.0748
 5977SOL     OW29389   1.380   3.869   5.026 -0.1029  0.1285 -0.1534
 5977SOL    HW129390   1.406   3.855   4.935 -0.3800 -1.3263 -0.0053
 5977SOL    HW229391   1.451   3.926   5.057 -0.5323 -0.5803  2.0983
 5978SOL     OW29392   2.683   3.142   4.731  0.2044  0.0918 -0.1134
 5978SOL    HW129393   2.616   3.208   4.716  1.3601  1.4669  0.7999
 5978SOL    HW229394   2.652   3.077   4.667 -0.2629 -0.5887  0.8030
 5979SOL     OW29395   3.657   1.455   3.667 -0.5329  0.3808  0.1376
 5979SOL    HW129396   3.646   1.465   3.572  2.8433  2.2560 -0.0357
 5979SOL    HW229397   3.748   1.485   3.672 -1.0619  1.9410  0.4147
 5980SOL     OW29398   1.793   3.912   4.604 -0.5731 -0.4094 -0.0687
 5980SOL    HW129399   1.764   3.953   4.686  0.3012 -3.2011  1.6529
 5980SOL    HW229400   1.820   3.832   4.648  0.6605  0.1615  0.2137
 5981SOL     OW29401   3.839   2.813   9.571  0.4991  0.4137 -0.0869
 5981SOL    HW129402   3.855   2.868   9.648  0.3380 -1.5447  1.3253
 5981SOL    HW229403   3.928   2.799   9.540  0.6648  0.9857  0.1274
 5982SOL     OW29404   3.797   3.691   5.188 -0.3264  0.3094 -0.2097
 5982SOL    HW129405   3.729   3.758   5.198  0.3664  0.8418  0.8868
 5982SOL    HW229406   3.760   3.651   5.109  3.6013 -1.1220 -1.3297
 5983SOL     OW29407   3.870   1.539  14.310  0.2984  0.1587 -0.0840
 5983SOL    HW129408   3.882   1.612  14.371 -1.9593  0.8459 -0.4617
 5983SOL    HW229409   3.960   1.537  14.278  0.5209  0.1494  0.5355
 5984SOL     OW29410   1.052   1.625   7.374  0.2884  0.0684  0.4859
 5984SOL    HW129411   1.049   1.705   7.322 -0.7468  0.7376  1.5741
 5984SOL    HW229412   0.959   1.604   7.378  0.8986 -2.7369  0.0605
 5985SOL     OW29413   3.895   2.039   4.155  0.2725 -0.0721 -0.2880
 5985SOL    HW129414   3.979   2.025   4.197  0.8870  0.1287 -1.4456
 5985SOL    HW229415   3.909   1.989   4.074 -0.0627  2.5416 -1.9705
 5986SOL     OW29416   4.101   2.490   4.183 -0.3471  0.2852 -0.1647
 5986SOL    HW129417   4.177   2.510   4.129 -0.8186  1.3039 -0.4409
 5986SOL    HW229418   4.101   2.399   4.213 -2.6577  1.2129  2.6725
 5987SOL     OW29419   3.269   1.135  13.383  0.1871  0.6041 -0.1466
 5987SOL    HW129420   3.308   1.216  13.351  2.2283 -0.7895 -1.2004
 5987SOL    HW229421   3.346   1.092  13.421 -1.9393 -1.6332  1.6128
 5988SOL     OW29422   0.508   4.642   2.218  0.3524  0.3907  0.4954
 5988SOL    HW129423   0.452   4.665   2.144 -1.6461  3.2105  2.8707
 5988SOL    HW229424   0.590   4.686   2.194 -0.7495  1.5652 -1.1142
 5989SOL     OW29425   4.098   2.173   2.496 -0.7255 -0.2554 -0.4642
 5989SOL    HW129426   4.039   2.162   2.570  1.6682  0.1386  1.4993
 5989SOL    HW229427   4.049   2.150   2.417 -2.8562  0.5372  0.6283
 5990SOL     OW29428   1.158   4.312   5.167  0.1502 -0.2227 -0.3120
 5990SOL    HW129429   1.107   4.232   5.180  1.6094 -1.0637  0.2585
 5990SOL    HW229430   1.178   4.329   5.259  2.6004  1.4888 -1.1425
 5991SOL     OW29431   0.146   4.451   7.750  0.0764  0.4409 -0.0900
 5991SOL    HW129432   0.142   4.381   7.684 -0.1729 -1.2490  1.7067
 5991SOL    HW229433   0.128   4.523   7.689 -1.3638  0.8818  0.8525
 5992SOL     OW29434   0.010   0.582  12.065  0.3388  0.3325 -0.3674
 5992SOL    HW129435   4.713   0.507  12.122 -3.9089  1.3015 -0.7629
 5992SOL    HW229436   4.649   0.605  12.031 -0.6234 -0.6048  1.4521
 5993SOL     OW29437   2.098   3.953   1.361  0.3001 -0.1887  0.4649
 5993SOL    HW129438   2.010   3.943   1.326  0.7470  1.6368 -1.1765
 5993SOL    HW229439   2.144   3.963   1.278  0.0047  1.4032  0.4887
 5994SOL     OW29440   3.320   2.141   1.024 -0.3828 -0.1844  0.0905
 5994SOL    HW129441   3.405   2.181   1.007 -0.3594 -1.1511 -2.1691
 5994SOL    HW229442   3.266   2.219   1.038 -0.3992 -0.5392  1.9404
 5995SOL     OW29443   4.493   4.637   8.060  1.5328 -0.2025 -0.2025
 5995SOL    HW129444   4.538   4.599   7.984  0.6622  0.5786 -1.1156
 5995SOL    HW229445   4.464   4.550   8.087 -0.6440  0.9951  1.2254
 5996SOL     OW29446   2.566   0.580  12.492  0.8513  0.6589  0.0898
 5996SOL    HW129447   2.523   0.657  12.455  1.6714  0.6061 -1.0003
 5996SOL    HW229448   2.515   0.573  12.572  1.4603  0.8986  0.4974
 5997SOL     OW29449   2.043   2.563   4.638  0.5082 -0.2895 -0.0621
 5997SOL    HW129450   2.015   2.654   4.648  1.3338 -0.2314  1.6541
 5997SOL    HW229451   2.115   2.566   4.701  0.2891 -1.6829  0.2528
 5998SOL     OW29452   2.853   3.718  15.147 -0.0102 -0.4380 -0.3979
 5998SOL    HW129453   2.822   3.732  15.236 -1.4054 -0.5555 -0.8583
 5998SOL    HW229454   2.880   3.807  15.128 -2.3796  0.3260 -0.2036
 5999SOL     OW29455   2.030   1.296   3.954 -0.5553 -0.4668 -0.7485
 5999SOL    HW129456   2.087   1.293   3.878  0.6212  1.7484  0.0285
 5999SOL    HW229457   1.950   1.253   3.926 -1.8954  2.1616 -0.9833
 6000SOL     OW29458   2.329   4.477  15.707  0.2051 -0.3030 -0.2209
 6000SOL    HW129459   2.270   4.478  15.632 -0.6341 -1.5560  0.4099
 6000SOL    HW229460   2.271   4.498  15.780  0.5353  0.7980 -0.2821
 6001SOL     OW29461   0.057   0.496  17.314 -0.5561  0.6042  0.2416
 6001SOL    HW129462   0.097   0.410  17.309 -1.5753  0.2601 -1.7200
 6001SOL    HW229463   4.692   0.482  17.345  0.4393 -2.1707  1.8945
 6002SOL     OW29464   1.027   0.387   4.658  0.4920  0.4304  0.5632
 6002SOL    HW129465   1.002   0.457   4.597  2.1741  1.2610  0.8332
 6002SOL    HW229466   1.119   0.412   4.658  0.3884  0.8071  1.2793
 6003SOL     OW29467   1.649   3.410   1.495 -0.4403 -0.2684 -0.1991
 6003SOL    HW129468   1.604   3.454   1.422 -0.8011 -1.5418 -0.7416
 6003SOL    HW229469   1.612   3.324   1.480 -0.1609 -0.7291  1.7886
 6004SOL     OW29470   1.894   3.897   5.645  0.4219  0.0783 -0.0003
 6004SOL    HW129471   1.919   3.852   5.726  0.3969 -2.1722 -1.2718
 6004SOL    HW229472   1.945   3.840   5.589 -2.3736  2.1038 -4.5886
 6005SOL     OW29473   1.331   3.234   3.824  0.1124  0.7293 -0.0908
 6005SOL    HW129474   1.340   3.163   3.888  2.0860 -1.1520 -2.4883
 6005SOL    HW229475   1.324   3.185   3.742 -0.7083  1.5848 -0.5291
 6006SOL     OW29476   4.489   0.882   5.666 -0.2924  0.2247 -0.0020
 6006SOL    HW129477   4.425   0.923   5.608 -0.3971  0.9581  0.6274
 6006SOL    HW229478   4.440   0.802   5.685  2.1742 -1.4750 -0.8672
 6007SOL     OW29479   4.073   4.003   2.259  0.2340  0.3191  0.0328
 6007SOL    HW129480   4.163   4.035   2.252  0.8165 -1.2261  0.4563
 6007SOL    HW229481   4.096   3.911   2.255 -1.2992  0.0180 -1.7021
 6008SOL     OW29482   4.418   4.315   4.703  0.3920 -0.2182 -0.5207
 6008SOL    HW129483   4.343   4.271   4.744  0.3392  0.1154 -0.2559
 6008SOL    HW229484   4.416   4.268   4.620 -1.3224 -1.1672  0.0556
 6009SOL     OW29485   0.159   1.764  15.665  0.1624  0.0069  0.6918
 6009SOL    HW129486   0.195   1.848  15.692  0.1159  0.3661 -0.3757
 6009SOL    HW229487   0.158   1.784  15.572  1.7852 -2.2745  0.1811
 6010SOL     OW29488   4.331   1.002   8.947  0.7664 -0.2562  0.1823
 6010SOL    HW129489   4.343   1.008   9.042  0.1898 -0.1270  0.2457
 6010SOL    HW229490   4.353   0.911   8.929  3.1526  0.6994 -1.7856
 6011SOL     OW29491   1.528   0.254  11.319 -0.1698 -0.0142  0.1153
 6011SOL    HW129492   1.525   0.239  11.413  1.1619 -0.1627  0.1460
 6011SOL    HW229493   1.436   0.268  11.299  0.3910  1.2641 -1.6816
 6012SOL     OW29494   1.579   2.777   7.412 -0.4115 -0.2463  0.2846
 6012SOL    HW129495   1.668   2.752   7.438 -0.0730 -1.0452 -1.6427
 6012SOL    HW229496   1.560   2.850   7.471 -0.4900 -1.0346  1.2346
 6013SOL     OW29497   0.262   3.014   3.367  0.1178 -0.4353 -0.5233
 6013SOL    HW129498   0.286   2.974   3.284  1.2655  0.5591 -0.6825
 6013SOL    HW229499   0.254   3.107   3.343 -2.0329  0.0093  1.8109
 6014SOL     OW29500   1.836   1.832   1.772  0.2905 -0.2880  0.4233
 6014SOL    HW129501   1.804   1.742   1.764 -0.1389 -0.1191  0.2426
 6014SOL    HW229502   1.761   1.878   1.733 -0.6213  1.0408  3.7471
 6015SOL     OW29503   1.178   4.356   3.892  0.5900 -0.0077 -0.0350
 6015SOL    HW129504   1.183   4.389   3.802  3.1579  0.9820  0.4455
 6015SOL    HW229505   1.256   4.300   3.898  1.0171  0.8304  2.2710
 6016SOL     OW29506   0.669   3.046   4.407  0.2144  0.4617  0.0163
 6016SOL    HW129507   0.625   2.968   4.442 -0.8335 -0.9718 -4.4907
 6016SOL    HW229508   0.651   3.045   4.314  1.0030  0.3063 -0.1351
 6017SOL     OW29509   2.671   1.117   0.046  0.3517 -0.2752 -0.4716
 6017SOL    HW129510   2.590   1.159   0.076  0.4546  0.9360 -1.9061
 6017SOL    HW229511   2.651   1.089  17.659  0.6009 -4.6510  0.8167
 6018SOL     OW29512   1.382   1.017  15.766 -0.0734 -0.2259 -0.4158
 6018SOL    HW129513   1.390   0.921  15.770  2.0083 -0.1528 -2.5611
 6018SOL    HW229514   1.319   1.020  15.693  0.7475 -1.6507 -1.1883
 6019SOL     OW29515   2.835   3.194  11.548  0.3102  0.1645  0.2141
 6019SOL    HW129516   2.923   3.190  11.586  2.0270  1.7122 -3.6561
 6019SOL    HW229517   2.830   3.287  11.530  1.0221 -0.1183 -1.4407
 6020SOL     OW29518   0.531   3.339  11.008 -0.5219  0.1205  0.0338
 6020SOL    HW129519   0.469   3.399  10.966 -1.4778 -1.1021 -0.3250
 6020SOL    HW229520   0.567   3.397  11.075 -0.8667 -1.5505  1.6716
 6021SOL     OW29521   2.013   1.636  17.259 -0.5419  0.2218  0.0682
 6021SOL    HW129522   2.010   1.564  17.322  1.6460  1.4619  1.5566
 6021SOL    HW229523   2.019   1.718  17.307 -0.0199 -0.0040  0.3854
 6022SOL     OW29524   2.617   1.257   4.922 -0.2924  0.3668  0.0062
 6022SOL    HW129525   2.548   1.309   4.881  0.3151  0.3305 -1.0757
 6022SOL    HW229526   2.677   1.224   4.854 -0.5947  0.6808 -0.4110
 6023SOL     OW29527   1.706   2.825   0.507 -0.1120  0.2729  0.2521
 6023SOL    HW129528   1.659   2.899   0.470  0.3378 -0.4644 -1.8084
 6023SOL    HW229529   1.646   2.751   0.493  0.0643 -0.0950  1.4933
 6024SOL     OW29530   1.812   0.756   9.568  0.1995  0.0803 -0.0885
 6024SOL    HW129531   1.776   0.844   9.569 -0.4016 -0.1564 -1.4924
 6024SOL    HW229532   1.739   0.698   9.591  0.1850 -0.1487 -0.7236
 6025SOL     OW29533   4.078   1.356  11.850 -0.5212 -0.1602  0.4055
 6025SOL    HW129534   4.041   1.314  11.772 -1.6100  2.7074 -0.6151
 6025SOL    HW229535   4.173   1.354  11.837 -0.5187  1.8535  0.1191
 6026SOL     OW29536   0.259   1.668   8.878  0.3778  0.3090 -0.0894
 6026SOL    HW129537   0.225   1.581   8.899  0.0395  0.2448 -0.8949
 6026SOL    HW229538   0.215   1.725   8.942 -1.2922  0.3996 -1.3290
 6027SOL     OW29539   3.651   4.623   1.613 -1.0391 -0.0423 -0.0806
 6027SOL    HW129540   3.679   4.682   1.543 -2.6840 -0.4078 -1.0643
 6027SOL    HW229541   3.556   4.624   1.598 -1.3050 -1.8349  1.4916
 6028SOL     OW29542   1.545   2.566   0.493 -0.1973 -0.7427 -0.4799
 6028SOL    HW129543   1.569   2.474   0.506  0.3555 -0.4329  0.7405
 6028SOL    HW229544   1.488   2.592   0.566 -1.9138 -3.5493 -0.8417
 6029SOL     OW29545   3.130   4.246  12.696  0.0189 -0.1631  0.6798
 6029SOL    HW129546   3.127   4.161  12.652 -1.8197 -0.3986  1.2487
 6029SOL    HW229547   3.046   4.289  12.678  0.7370  1.1406  0.5019
 6030SOL     OW29548   1.967   1.031   6.123 -0.0868 -0.0381  0.1334
 6030SOL    HW129549   1.969   1.028   6.028 -1.0121 -1.0336  0.1554
 6030SOL    HW229550   2.049   0.987   6.143  0.2784  1.2343  1.5257
 6031SOL     OW29551   0.339   2.646   5.819 -0.1537  0.3615  0.4772
 6031SOL    HW129552   0.263   2.626   5.875  0.5907  0.1051  1.3922
 6031SOL    HW229553   0.322   2.737   5.796 -0.5754  0.7293  2.1965
 6032SOL     OW29554   1.849   1.635  12.127 -0.0110  0.6593  0.8739
 6032SOL    HW129555   1.875   1.596  12.043 -2.1257 -1.3557  1.1475
 6032SOL    HW229556   1.924   1.609  12.181  0.5833  1.9855  0.6978
 6033SOL     OW29557   4.324   1.169   3.123 -0.2017  0.5078 -0.4103
 6033SOL    HW129558   4.242   1.217   3.116  1.8075  3.9882 -0.2009
 6033SOL    HW229559   4.386   1.233   3.088  0.2902  0.4493  0.3498
 6034SOL     OW29560   3.112   4.218   8.300 -0.2843 -0.0481  0.7343
 6034SOL    HW129561   3.079   4.307   8.307 -0.6903  0.1371 -3.2996
 6034SOL    HW229562   3.058   4.173   8.365  1.0817 -1.7974  0.6675
 6035SOL     OW29563   3.549   1.748   9.205  0.2840 -0.1160 -0.5051
 6035SOL    HW129564   3.592   1.678   9.155 -0.0853 -0.0109 -0.9709
 6035SOL    HW229565   3.535   1.704   9.289 -0.7233 -0.6312 -0.9318
 6036SOL     OW29566   3.795   1.244   7.190  0.4072  0.0133  0.6937
 6036SOL    HW129567   3.854   1.267   7.262  1.1404  0.8411 -0.1761
 6036SOL    HW229568   3.734   1.190   7.241 -0.8794  0.1213 -0.7531
 6037SOL     OW29569   1.800   3.380  10.180  0.0089  0.0119  0.1895
 6037SOL    HW129570   1.870   3.369  10.245 -0.6799 -1.6515  0.6664
 6037SOL    HW229571   1.815   3.472  10.157  1.4270 -0.3650 -0.4168
 6038SOL     OW29572   1.924   3.899   2.803  0.2399 -0.3278 -0.1326
 6038SOL    HW129573   1.854   3.837   2.786  1.6834 -2.0275  0.1447
 6038SOL    HW229574   1.876   3.982   2.805 -2.7313 -2.0502 -0.2840
 6039SOL     OW29575   1.739   3.650   5.814  0.0833  0.3245 -0.1685
 6039SOL    HW129576   1.693   3.566   5.811  1.8332 -0.6561  0.1808
 6039SOL    HW229577   1.677   3.710   5.774 -1.0841  0.3393  1.6598
 6040SOL     OW29578   1.951   3.292  17.050 -0.4255 -0.1811  0.0492
 6040SOL    HW129579   1.902   3.339  16.983  0.8350  0.0586 -0.7139
 6040SOL    HW229580   1.935   3.347  17.126  1.9602 -0.7140  0.9546
 6041SOL     OW29581   3.524   3.608   9.643  0.4168 -0.6303  0.0508
 6041SOL    HW129582   3.512   3.603   9.548 -1.5543 -0.1636  0.2754
 6041SOL    HW229583   3.605   3.660   9.645  0.2971 -0.4226 -0.4661
 6042SOL     OW29584   1.187   4.698   7.423 -0.7939  0.4234  0.5590
 6042SOL    HW129585   1.144   4.616   7.447 -1.5212  0.1564 -1.7420
 6042SOL    HW229586   1.151   0.037   7.485  0.0176 -0.3204  1.8049
 6043SOL     OW29587   1.493   2.366  17.240 -0.3281  0.0039 -0.3115
 6043SOL    HW129588   1.420   2.407  17.194 -1.5071 -1.3109  0.3732
 6043SOL    HW229589   1.515   2.435  17.301  0.7586  0.0220 -0.7267
 6044SOL     OW29590   0.815   0.912   8.893 -0.0975 -0.3096  0.1755
 6044SOL    HW129591   0.795   0.976   8.825  0.0455  0.7125  1.1039
 6044SOL    HW229592   0.728   0.904   8.931 -0.9780  2.4676 -1.2155
 6045SOL     OW29593   0.817   0.910   2.136 -0.0139 -0.2293  0.3078
 6045SOL    HW129594   0.786   0.825   2.166  1.5189 -1.0483 -0.4017
 6045SOL    HW229595   0.758   0.971   2.180 -0.3668 -1.3251  1.3433
 6046SOL     OW29596   3.178   3.513  16.517 -0.3978  0.0751  0.1901
 6046SOL    HW129597   3.109   3.577  16.503 -1.7598 -0.7936  2.9462
 6046SOL    HW229598   3.230   3.525  16.437 -1.4748 -2.5012 -0.9211
 6047SOL     OW29599   0.596   4.284   3.544 -0.2471 -0.2088 -0.5719
 6047SOL    HW129600   0.577   4.234   3.465  1.1282 -0.5561 -0.6752
 6047SOL    HW229601   0.532   4.355   3.539  1.0187  0.8643 -1.3960
 6048SOL     OW29602   0.222   1.129   2.164  0.2126 -0.3902  0.7714
 6048SOL    HW129603   0.299   1.184   2.147  0.3759  0.0923  3.1663
 6048SOL    HW229604   0.259   1.059   2.217  1.5492 -0.3358 -0.0875
 6049SOL     OW29605   0.686   0.442   6.430 -0.1762 -0.2164  0.3967
 6049SOL    HW129606   0.720   0.487   6.353  0.7834  1.9672  2.0939
 6049SOL    HW229607   0.596   0.434   6.401 -0.1677 -2.7598  1.0973
 6050SOL     OW29608   3.400   0.303   5.391  0.0526  0.2686 -0.3750
 6050SOL    HW129609   3.343   0.371   5.356  2.1466  1.9061 -0.5910
 6050SOL    HW229610   3.365   0.224   5.349 -0.1640  1.3681 -2.2503
 6051SOL     OW29611   0.772   1.726   7.099 -0.6413  0.5201  0.1188
 6051SOL    HW129612   0.707   1.655   7.096  0.4230 -0.4971  1.2538
 6051SOL    HW229613   0.798   1.709   7.190 -1.4806 -3.7653 -0.4137
 6052SOL     OW29614   3.563   3.212   2.067  0.0111  0.8851 -0.1876
 6052SOL    HW129615   3.531   3.242   1.982 -0.4854  0.7142 -0.0598
 6052SOL    HW229616   3.507   3.246   2.137  1.7410  0.6869  1.3091
 6053SOL     OW29617   3.263   4.140   1.532  0.0821 -0.0650  0.2346
 6053SOL    HW129618   3.304   4.184   1.606 -1.7168  0.4359  0.9459
 6053SOL    HW229619   3.184   4.102   1.571 -1.6076  0.6265 -2.5153
 6054SOL     OW29620   4.096   1.661   3.064  0.5054 -0.3196 -0.1191
 6054SOL    HW129621   4.061   1.588   3.013  1.3648 -1.0405  0.3313
 6054SOL    HW229622   4.035   1.664   3.137  1.8697 -0.2395  1.0038
 6055SOL     OW29623   4.661   1.321   4.565 -0.0667 -0.5457 -0.1260
 6055SOL    HW129624   0.011   1.348   4.512 -1.2961  2.5057 -0.3142
 6055SOL    HW229625   4.598   1.390   4.545  1.4184  0.5192 -1.1196
 6056SOL     OW29626   0.854   2.869   2.743  0.5172  0.2423  0.1319
 6056SOL    HW129627   0.908   2.841   2.816 -0.4511 -2.4455 -0.1444
 6056SOL    HW229628   0.898   2.949   2.715  0.3288  0.2397 -0.1820
 6057SOL     OW29629   3.014   2.047   3.280 -0.0257  0.2178  0.4412
 6057SOL    HW129630   3.031   2.001   3.362  1.6103  0.4311  0.2313
 6057SOL    HW229631   2.956   1.981   3.241  0.4698 -0.5085  0.9178
 6058SOL     OW29632   1.951   4.094   1.603  0.2775 -0.0999  0.0230
 6058SOL    HW129633   1.954   4.129   1.514  2.1392 -0.0724  0.1029
 6058SOL    HW229634   1.991   4.008   1.596  0.3853 -0.2208  2.0146
 6059SOL     OW29635   0.629   1.692   0.830  0.2159 -0.2121  0.0779
 6059SOL    HW129636   0.607   1.702   0.923 -0.8663  0.2333 -0.2280
 6059SOL    HW229637   0.720   1.663   0.836  0.4490  0.7748  1.4445
 6060SOL     OW29638   2.247   4.183   3.847 -0.1244 -0.0950 -0.2301
 6060SOL    HW129639   2.170   4.233   3.874 -0.8680 -0.1505 -2.3154
 6060SOL    HW229640   2.313   4.252   3.835  0.4611 -0.7205 -0.6518
 6061SOL     OW29641   2.745   0.726  10.491  0.1504  0.4249  0.8245
 6061SOL    HW129642   2.834   0.710  10.460  0.0077  1.0492  0.0871
 6061SOL    HW229643   2.772   0.781  10.565  0.7707 -0.3528  1.1665
 6062SOL     OW29644   3.390   1.102   7.000  0.4637 -0.3273  0.1303
 6062SOL    HW129645   3.321   1.128   6.939 -0.1885 -2.6206 -0.1330
 6062SOL    HW229646   3.343   1.039   7.054  0.1433  0.4155  0.7137
 6063SOL     OW29647   1.506   0.911   8.781 -0.0119 -0.0715  0.0405
 6063SOL    HW129648   1.495   0.928   8.687 -1.0692  2.2604  0.5875
 6063SOL    HW229649   1.423   0.867   8.797 -1.1836  2.0061 -0.3646
 6064SOL     OW29650   0.514   0.832   4.845  0.1767 -0.4454  0.2034
 6064SOL    HW129651   0.534   0.789   4.762 -1.3201  0.6294 -0.7292
 6064SOL    HW229652   0.598   0.877   4.856  0.4431 -0.6941 -0.8083
 6065SOL     OW29653   1.883   4.499   6.358 -0.1695  0.1398  0.0816
 6065SOL    HW129654   1.863   4.591   6.378  0.1489 -0.0709  1.3538
 6065SOL    HW229655   1.812   4.455   6.403 -0.4693 -0.8379 -1.3472
 6066SOL     OW29656   0.016   3.157   5.909  0.2713 -0.7368 -0.0446
 6066SOL    HW129657   4.659   3.132   5.951 -0.1463  0.4249 -0.1884
 6066SOL    HW229658   0.074   3.131   5.981  0.3243  2.8501  1.1869
 6067SOL     OW29659   1.752   4.100  13.064  0.2633 -0.2098 -0.1631
 6067SOL    HW129660   1.804   4.023  13.088 -1.3265 -1.2601 -0.0898
 6067SOL    HW229661   1.687   4.089  13.133  1.2963  3.6837  1.4144
 6068SOL     OW29662   2.610   0.711   3.287 -0.0434 -0.0116 -0.5606
 6068SOL    HW129663   2.656   0.759   3.218  0.5010  0.0782 -0.1319
 6068SOL    HW229664   2.540   0.667   3.238 -0.7868  0.2145  0.2877
 6069SOL     OW29665   2.355   3.920   2.079 -0.1037  0.3789  0.5758
 6069SOL    HW129666   2.434   3.954   2.119 -0.1221 -0.2738  1.1834
 6069SOL    HW229667   2.357   3.961   1.993 -0.3575  0.3101  0.5363
 6070SOL     OW29668   0.406   2.876  13.179  0.8688  0.0430 -0.1805
 6070SOL    HW129669   0.406   2.784  13.203  1.6647  0.6965  2.4015
 6070SOL    HW229670   0.442   2.868  13.091  0.7063 -0.3695 -0.2065
 6071SOL     OW29671   1.143   4.424   6.109 -0.6822 -0.7151  0.5549
 6071SOL    HW129672   1.231   4.460   6.119 -0.2505 -1.7357  0.4231
 6071SOL    HW229673   1.147   4.417   6.013 -0.5125  1.9232  0.3689
 6072SOL     OW29674   2.863   2.483   4.833 -0.2368 -0.2670  0.2893
 6072SOL    HW129675   2.800   2.516   4.769  1.2804  0.0141 -1.0646
 6072SOL    HW229676   2.883   2.549   4.899  0.5063  2.6238 -2.8242
 6073SOL     OW29677   3.417   2.008   7.773  0.2372 -0.2200 -0.3971
 6073SOL    HW129678   3.451   1.972   7.855 -0.1196  2.1229  0.7527
 6073SOL    HW229679   3.495   2.057   7.748 -2.0678  2.9497 -1.2976
 6074SOL     OW29680   1.575   1.541   8.878  0.0760 -0.2995 -0.2594
 6074SOL    HW129681   1.590   1.459   8.831  1.9291 -0.2400  0.2001
 6074SOL    HW229682   1.597   1.521   8.969  2.5252  1.4253 -0.4683
 6075SOL     OW29683   1.727   0.169   0.381  0.6131 -0.2631 -0.0371
 6075SOL    HW129684   1.765   0.232   0.319 -0.4607 -0.2782 -0.7042
 6075SOL    HW229685   1.648   0.143   0.335 -0.1372  1.0757  0.4965
 6076SOL     OW29686   4.210   3.713   3.082  0.1154 -0.3912  0.0056
 6076SOL    HW129687   4.211   3.769   3.160 -0.0815  0.7769 -0.8362
 6076SOL    HW229688   4.237   3.773   3.012  0.5074  0.1803  0.6448
 6077SOL     OW29689   0.103   2.500   6.732  0.2527  0.0400  0.1780
 6077SOL    HW129690   0.195   2.525   6.728  0.0266  1.0063  0.9084
 6077SOL    HW229691   0.079   2.502   6.639  0.3345  0.5789  0.1686
 6078SOL     OW29692   4.286   3.384   9.314  0.0951 -0.1456  0.2367
 6078SOL    HW129693   4.304   3.290   9.311  1.3285  0.1001 -0.1681
 6078SOL    HW229694   4.308   3.414   9.226 -1.0548  1.5625  0.5446
 6079SOL     OW29695   2.094   2.230   2.277 -0.1100 -0.1528 -0.2762
 6079SOL    HW129696   2.119   2.138   2.269 -3.0388 -0.7803 -2.2096
 6079SOL    HW229697   2.016   2.229   2.221 -1.4174 -1.4801  1.5683
 6080SOL     OW29698   3.466   2.457   5.935  1.0913 -0.1932 -0.2835
 6080SOL    HW129699   3.391   2.452   5.876  0.1748 -0.6546  0.9283
 6080SOL    HW229700   3.427   2.472   6.021  1.1608  0.3278 -0.3416
 6081SOL     OW29701   4.281   2.885   5.183  0.3723 -0.0416  0.7754
 6081SOL    HW129702   4.192   2.851   5.195 -0.3265  1.0869 -1.3912
 6081SOL    HW229703   4.264   2.972   5.219 -1.9917  0.6509 -2.0758
 6082SOL     OW29704   1.334   1.295   9.804  0.3009  0.2857  0.3055
 6082SOL    HW129705   1.406   1.339   9.850  1.7370 -1.6860 -0.0915
 6082SOL    HW229706   1.279   1.366   9.770  1.3308  1.7197  1.6134
 6083SOL     OW29707   1.511   1.790   3.097 -0.2880 -0.6307  0.4045
 6083SOL    HW129708   1.543   1.880   3.091  0.8053 -1.0741 -0.3449
 6083SOL    HW229709   1.422   1.804   3.064 -0.2350  2.2887  1.4554
 6084SOL     OW29710   0.518   4.274   2.011 -0.1999 -0.5152 -0.6828
 6084SOL    HW129711   0.461   4.234   2.076  0.0127  1.9998  1.0819
 6084SOL    HW229712   0.467   4.278   1.930  0.9896 -0.7944 -1.4458
 6085SOL     OW29713   0.577   1.225   7.490 -0.1636  0.4799  0.2758
 6085SOL    HW129714   0.537   1.141   7.513  0.1600  1.3823  4.1733
 6085SOL    HW229715   0.592   1.281   7.566 -1.1317  0.7133  0.2900
 6086SOL     OW29716   0.941   2.202   2.765 -0.0548 -0.3101  0.6434
 6086SOL    HW129717   0.847   2.216   2.779 -0.3797 -2.3748  0.5574
 6086SOL    HW229718   0.949   2.135   2.697  0.4564  1.1479 -0.7312
 6087SOL     OW29719   0.898   3.413   4.294 -0.0294  0.2890  0.2093
 6087SOL    HW129720   0.830   3.425   4.361  0.7674 -0.7201  1.1992
 6087SOL    HW229721   0.918   3.324   4.323  0.8166  0.4843  0.2170
 6088SOL     OW29722   3.092   1.890  14.407 -0.6913  0.8531 -0.3269
 6088SOL    HW129723   3.095   1.984  14.390  2.5746  0.5718 -1.2862
 6088SOL    HW229724   3.014   1.861  14.359 -0.3676  1.6294 -1.3105
 6089SOL     OW29725   3.726   1.315   1.923 -0.1486 -0.1736 -0.0449
 6089SOL    HW129726   3.705   1.340   1.833 -1.7072  1.4186  0.7624
 6089SOL    HW229727   3.812   1.354   1.935 -0.8638  1.4749 -0.2680
 6090SOL     OW29728   1.671   3.917   2.014 -0.7189  0.3783  0.2587
 6090SOL    HW129729   1.734   3.935   1.943 -1.2043 -1.4680 -0.6341
 6090SOL    HW229730   1.677   3.822   2.021 -0.4963  0.5427  2.1798
 6091SOL     OW29731   3.309   2.920   8.098  0.1438 -0.1059  0.1750
 6091SOL    HW129732   3.233   2.874   8.063  0.2402 -0.4051  0.3566
 6091SOL    HW229733   3.281   3.011   8.092 -1.6604 -0.8122 -2.1327
 6092SOL     OW29734   4.288   2.881   8.021  0.2909  0.5045 -0.0746
 6092SOL    HW129735   4.207   2.832   8.036  0.1674  0.4416 -0.9340
 6092SOL    HW229736   4.335   2.820   7.964  0.2228 -0.4618  0.8980
 6093SOL     OW29737   4.062   0.794   3.208 -0.3015 -0.0316 -0.2778
 6093SOL    HW129738   3.970   0.779   3.188 -0.3349  0.5958 -0.5763
 6093SOL    HW229739   4.088   0.702   3.208  0.6454  0.2581 -2.8803
 6094SOL     OW29740   3.243   4.223  12.233  0.0457 -0.4852  0.3888
 6094SOL    HW129741   3.224   4.245  12.324  0.7283  0.8103  0.2055
 6094SOL    HW229742   3.338   4.236  12.231 -0.1000  0.2595 -1.6621
 6095SOL     OW29743   1.894   1.487   8.922 -0.0175 -0.4907  0.3551
 6095SOL    HW129744   1.812   1.454   8.958  0.1752 -0.4587  0.8281
 6095SOL    HW229745   1.943   1.453   8.998  0.4788 -1.1912 -0.2778
 6096SOL     OW29746   3.794   0.672   1.868 -0.1072  0.1031 -0.2696
 6096SOL    HW129747   3.719   0.614   1.850 -1.0896  1.5334 -0.8006
 6096SOL    HW229748   3.825   0.697   1.781  2.0811  1.1751  0.8275
 6097SOL     OW29749   1.691   0.620   8.443  0.7664 -0.0307  0.6050
 6097SOL    HW129750   1.629   0.671   8.390 -0.8259 -3.4605 -0.8629
 6097SOL    HW229751   1.775   0.634   8.399  1.0328 -0.5191  0.9645
 6098SOL     OW29752   0.641   3.025   4.128  0.5932 -0.4372  0.0949
 6098SOL    HW129753   0.706   3.089   4.102  1.5126 -1.0176  0.9204
 6098SOL    HW229754   0.616   2.975   4.051  1.2919 -0.1792 -0.3027
 6099SOL     OW29755   0.308   4.585   1.483  0.2148 -0.5521 -0.5413
 6099SOL    HW129756   0.329   4.670   1.521  1.3407 -1.8389  1.7088
 6099SOL    HW229757   0.277   4.602   1.395 -1.6753  2.8556  0.8148
 6100SOL     OW29758   1.746   2.535   9.920  0.1965 -0.4418 -0.3529
 6100SOL    HW129759   1.777   2.625   9.928 -2.2613  0.3779 -0.1168
 6100SOL    HW229760   1.821   2.486   9.955  0.4564  0.8274  0.8763
 6101SOL     OW29761   3.648   2.676   1.031  0.8391 -0.3002  0.2552
 6101SOL    HW129762   3.672   2.588   1.000  0.6500 -0.2403 -0.0698
 6101SOL    HW229763   3.719   2.686   1.093  0.7926 -0.5711  0.3536
 6102SOL     OW29764   1.110   2.848   4.014  0.0559  0.1854 -0.0138
 6102SOL    HW129765   1.063   2.931   4.027 -0.4030  0.0186 -0.5900
 6102SOL    HW229766   1.033   2.795   3.993  0.5540 -1.2364  1.6896
 6103SOL     OW29767   1.817   1.878   4.553  0.4537 -0.0347 -0.3049
 6103SOL    HW129768   1.900   1.924   4.542  0.1458  1.4118  3.6314
 6103SOL    HW229769   1.847   1.787   4.555  0.3515  0.0001  2.8091
 6104SOL     OW29770   0.932   0.228   6.477  0.3254 -0.1297  0.4146
 6104SOL    HW129771   0.858   0.181   6.517 -1.2041  2.6096  0.8117
 6104SOL    HW229772   0.936   0.196   6.387 -0.7346 -1.4789  0.8488
 6105SOL     OW29773   3.769   3.361   5.025  0.1987  0.4561 -0.5406
 6105SOL    HW129774   3.802   3.410   5.100  1.7790 -0.4569 -0.6405
 6105SOL    HW229775   3.721   3.431   4.979  1.7075  1.3285 -0.7669
 6106SOL     OW29776   1.205   4.233   1.413  0.1593  0.2628 -0.0771
 6106SOL    HW129777   1.271   4.254   1.478 -1.8482 -0.4814  2.2040
 6106SOL    HW229778   1.256   4.236   1.332 -0.4572 -0.6350 -0.5031
 6107SOL     OW29779   3.564   2.763   2.508 -0.1166  0.2397 -0.0794
 6107SOL    HW129780   3.484   2.716   2.487  0.8451 -0.5319 -2.0108
 6107SOL    HW229781   3.603   2.714   2.581 -0.5616 -1.9639 -1.3235
 6108SOL     OW29782   3.746   4.292   4.321  0.1530 -0.6045  0.0611
 6108SOL    HW129783   3.700   4.275   4.403  0.5732 -0.0550  0.4107
 6108SOL    HW229784   3.705   4.229   4.261 -1.5210  0.3368  0.2486
 6109SOL     OW29785   4.012   2.607   3.139 -0.2985  0.0918  0.2841
 6109SOL    HW129786   3.976   2.668   3.074 -3.1297 -1.9048 -0.0313
 6109SOL    HW229787   4.045   2.535   3.086 -0.8479 -1.6604  2.3505
 6110SOL     OW29788   2.719   0.321   5.882  0.2189 -0.9810  0.1306
 6110SOL    HW129789   2.660   0.344   5.954 -0.7026  1.9213 -1.5223
 6110SOL    HW229790   2.678   0.381   5.820  2.8114 -0.4105 -1.0615
 6111SOL     OW29791   4.185   4.692   3.443 -0.3826 -0.1157  0.3794
 6111SOL    HW129792   4.221   4.617   3.395 -1.0093  0.2717 -0.7125
 6111SOL    HW229793   4.115   4.640   3.482 -0.1917 -1.5680 -1.1693
 6112SOL     OW29794   2.301   3.679   8.631  0.3255 -0.0950 -0.0054
 6112SOL    HW129795   2.325   3.757   8.683  3.7791 -0.9345 -0.3513
 6112SOL    HW229796   2.208   3.674   8.653  0.6039 -0.8774  0.9752
 6113SOL     OW29797   2.764   3.932   4.818 -0.1286 -0.4707 -0.0322
 6113SOL    HW129798   2.800   4.019   4.837 -2.0308  0.6444 -1.5925
 6113SOL    HW229799   2.842   3.876   4.821  0.0852 -0.2321 -1.1950
 6114SOL     OW29800   1.517   3.821   2.716 -0.9491 -0.4591 -0.8416
 6114SOL    HW129801   1.422   3.834   2.723 -0.9662 -0.4801 -1.0174
 6114SOL    HW229802   1.502   3.730   2.740  1.6531 -0.3252  1.1401
 6115SOL     OW29803   3.546   0.658  15.551 -0.2949  0.3136  0.0712
 6115SOL    HW129804   3.565   0.726  15.486  0.8237 -0.8199 -0.7884
 6115SOL    HW229805   3.563   0.584  15.492  2.3023 -0.4862  1.8149
 6116SOL     OW29806   3.034   0.050   5.108 -0.4996 -0.3233 -0.6921
 6116SOL    HW129807   3.051   0.020   5.019  3.1040 -1.4876  0.3935
 6116SOL    HW229808   2.995   4.695   5.143 -2.3713  1.1073  0.4940
 6117SOL     OW29809   4.213   1.447   1.885  0.1405  0.1773  0.3112
 6117SOL    HW129810   4.279   1.378   1.889  1.0242  0.8533 -2.2875
 6117SOL    HW229811   4.265   1.527   1.894  0.8509 -0.7040  3.7606
 6118SOL     OW29812   0.972   3.705   1.882  0.3752 -0.4402  0.2037
 6118SOL    HW129813   1.002   3.795   1.891  1.2488 -0.8321  1.1574
 6118SOL    HW229814   0.908   3.701   1.953  0.7479 -1.1680  0.4928
 6119SOL     OW29815   1.158   1.513   5.338  0.6455  0.0428  0.3016
 6119SOL    HW129816   1.208   1.486   5.415 -0.2986  0.9291  1.2075
 6119SOL    HW229817   1.207   1.469   5.268 -0.5526 -1.0766  0.1625
 6120SOL     OW29818   3.091   0.869   1.961  1.2313  0.5588 -0.6509
 6120SOL    HW129819   3.069   0.777   1.951 -1.2293  1.2504 -1.5704
 6120SOL    HW229820   3.172   0.864   2.011  0.2331  1.4778  1.0457
 6121SOL     OW29821   4.295   3.871   7.997  0.3155 -0.4133 -0.0046
 6121SOL    HW129822   4.333   3.788   7.970  3.8005  1.4065 -0.6417
 6121SOL    HW229823   4.308   3.866   8.092 -2.2833 -2.4298  0.2291
 6122SOL     OW29824   3.391   1.156   6.295 -0.3748 -0.2008 -0.2618
 6122SOL    HW129825   3.378   1.144   6.201 -0.6199 -2.7738  0.1043
 6122SOL    HW229826   3.470   1.210   6.298 -0.4374 -0.1108 -0.2348
 6123SOL     OW29827   4.447   0.645   1.811  0.3689 -0.5297 -0.2456
 6123SOL    HW129828   4.403   0.693   1.741  1.3226 -0.3195 -0.6926
 6123SOL    HW229829   4.524   0.699   1.828 -0.5824  0.4543  0.9304
 6124SOL     OW29830   1.510   1.987   6.523  0.0762  0.2354  0.1379
 6124SOL    HW129831   1.472   2.015   6.607  0.1183  1.6910 -0.3315
 6124SOL    HW229832   1.480   2.055   6.463 -0.3647 -0.0180  0.0710
 6125SOL     OW29833   1.280   0.434   9.232 -0.7927  0.6770 -0.3285
 6125SOL    HW129834   1.285   0.342   9.257  1.9476  0.4317 -1.7883
 6125SOL    HW229835   1.243   0.476   9.310 -1.6659 -1.6583  0.4945
 6126SOL     OW29836   2.322   3.355   9.012  0.0014  0.0088  0.0885
 6126SOL    HW129837   2.336   3.322   8.924  0.4503  1.4802 -0.4005
 6126SOL    HW229838   2.410   3.373   9.044  0.5087 -2.6756  0.1372
 6127SOL     OW29839   3.914   2.983  15.038  0.1846  0.3352  0.3710
 6127SOL    HW129840   3.863   3.064  15.037 -0.2754  0.0413 -0.3172
 6127SOL    HW229841   3.998   3.007  15.000 -0.7039  0.4358 -1.4980
 6128SOL     OW29842   1.062   0.668   8.085  0.7881 -0.4902 -0.3465
 6128SOL    HW129843   1.071   0.738   8.020  0.4235 -2.5332 -2.6000
 6128SOL    HW229844   1.155   0.646   8.090  0.6085 -1.1468  0.1714
 6129SOL     OW29845   2.905   3.084  10.572 -0.5341 -0.1917  0.8837
 6129SOL    HW129846   2.923   2.995  10.543 -1.1815 -0.6928  2.0328
 6129SOL    HW229847   2.908   3.077  10.667 -0.7023 -2.1832  0.7333
 6130SOL     OW29848   3.187   3.759   5.622 -0.1051 -0.4560  0.0860
 6130SOL    HW129849   3.247   3.806   5.680  2.6263 -2.5181 -1.0482
 6130SOL    HW229850   3.216   3.668   5.631  1.3116  0.0522  0.6143
 6131SOL     OW29851   0.262   1.026   6.289 -0.1419 -0.5112 -0.0680
 6131SOL    HW129852   0.287   1.105   6.336  0.2262  0.0056 -1.1096
 6131SOL    HW229853   0.178   1.041   6.246 -0.8780  2.5380  2.4383
 6132SOL     OW29854   0.916   4.168   7.234 -0.3241  0.2370  0.2213
 6132SOL    HW129855   0.857   4.158   7.159  1.3939 -1.5384 -0.9093
 6132SOL    HW229856   0.876   4.243   7.277 -2.2282 -0.8215  0.2962
 6133SOL     OW29857   4.314   2.810   6.516  0.0663  0.2783 -0.2379
 6133SOL    HW129858   4.397   2.763   6.518  0.2407  0.5959 -0.0129
 6133SOL    HW229859   4.256   2.737   6.496 -0.1115 -0.0245  1.3170
 6134SOL     OW29860   1.750   2.247  15.283 -0.3752  0.3050  0.0123
 6134SOL    HW129861   1.676   2.187  15.280 -0.4481  0.4301 -0.9300
 6134SOL    HW229862   1.823   2.197  15.247 -1.6286 -1.9603  0.6264
 6135SOL     OW29863   3.349   1.235   6.603  0.1896 -0.2782  0.0207
 6135SOL    HW129864   3.355   1.140   6.599  0.6998 -0.2246 -0.4973
 6135SOL    HW229865   3.433   1.253   6.645  0.4387  0.3674 -0.7565
 6136SOL     OW29866   0.247   3.980  15.607  0.1491 -0.1407 -0.7611
 6136SOL    HW129867   0.309   3.908  15.605 -0.5280 -0.7259 -0.9215
 6136SOL    HW229868   0.278   4.042  15.673 -1.3042  0.9050 -1.0441
 6137SOL     OW29869   2.600   2.193   8.353 -0.3513 -0.0085 -0.5268
 6137SOL    HW129870   2.655   2.116   8.340 -0.0038 -0.2537  2.2325
 6137SOL    HW229871   2.527   2.165   8.298 -1.1915 -1.3709  1.2411
 6138SOL     OW29872   0.607   3.934   7.068  0.2574 -0.1945 -0.4126
 6138SOL    HW129873   0.657   3.891   7.137 -1.4000  0.6468  1.2941
 6138SOL    HW229874   0.652   4.018   7.071 -1.3721  0.7444 -2.0285
 6139SOL     OW29875   0.669   2.824   8.521 -0.2850  0.3108  0.0882
 6139SOL    HW129876   0.637   2.906   8.558  0.6671  0.3290  0.8615
 6139SOL    HW229877   0.709   2.843   8.436  0.0627  1.3033  0.4709
 6140SOL     OW29878   0.077   2.597   5.281  0.4758  0.0007 -0.1620
 6140SOL    HW129879   0.123   2.593   5.365 -1.7600  1.0690  1.1330
 6140SOL    HW229880   0.002   2.651   5.307  0.0467 -0.0273 -1.3488
 6141SOL     OW29881   1.106   2.633   6.341  0.3287  0.5549  0.4441
 6141SOL    HW129882   1.021   2.676   6.346 -1.1915 -2.4917  1.2694
 6141SOL    HW229883   1.161   2.680   6.403 -0.4506 -0.8347  2.1917
 6142SOL     OW29884   3.759   4.487   3.776  0.1187 -0.1514  0.0117
 6142SOL    HW129885   3.731   4.452   3.861  2.1870  0.7485  1.0460
 6142SOL    HW229886   3.742   4.418   3.712  0.7156 -2.1656  2.0088
 6143SOL     OW29887   2.770   4.409   8.145 -0.1193  0.2511 -0.4564
 6143SOL    HW129888   2.791   4.333   8.199  0.9781  0.1918 -0.9508
 6143SOL    HW229889   2.717   4.468   8.197  0.5148 -0.5605  1.1118
 6144SOL     OW29890   3.003   1.236  13.412  0.7330  0.5969  0.3520
 6144SOL    HW129891   3.047   1.250  13.496 -0.5250  0.1546  1.0753
 6144SOL    HW229892   2.986   1.143  13.425  2.7759  0.1987  0.1894
 6145SOL     OW29893   0.473   4.658   6.046 -0.1175 -0.1955 -0.6365
 6145SOL    HW129894   0.472   4.725   5.978 -1.4632  1.5357  1.0948
 6145SOL    HW229895   0.506   4.713   6.117 -1.9830 -1.7855  1.4714
 6146SOL     OW29896   1.513   0.455   8.743  0.5606  0.6241  0.1917
 6146SOL    HW129897   1.458   0.380   8.719  1.4077  0.0368  0.0498
 6146SOL    HW229898   1.489   0.468   8.834 -0.9909  0.5162 -0.1997
 6147SOL     OW29899   0.290   1.020   4.331 -0.0576 -0.5182 -0.0217
 6147SOL    HW129900   0.351   1.004   4.258 -1.8267  0.1153 -1.6288
 6147SOL    HW229901   0.229   1.082   4.291 -0.0593  0.4015  1.3859
 6148SOL     OW29902   2.590   1.301   8.211 -0.3637 -0.1777  0.2300
 6148SOL    HW129903   2.498   1.280   8.228 -1.0334  2.5497  0.0460
 6148SOL    HW229904   2.628   1.221   8.175 -0.3865  0.2900 -0.8314
 6149SOL     OW29905   2.485   1.458   6.691  0.3227  0.1794 -0.2045
 6149SOL    HW129906   2.450   1.539   6.727  0.3428  0.9541 -1.9751
 6149SOL    HW229907   2.414   1.397   6.672  0.7044 -1.1681  2.6387
 6150SOL     OW29908   4.642   0.788   5.882 -0.1555 -0.0644 -0.0745
 6150SOL    HW129909   4.584   0.830   5.818  0.2717  0.5260 -0.0730
 6150SOL    HW229910   0.005   0.809   5.849 -0.5079  0.2322 -0.8443
 6151SOL     OW29911   0.569   2.883   6.925  0.1805  0.0330  0.3602
 6151SOL    HW129912   0.480   2.902   6.894 -0.8237 -0.8935  2.6915
 6151SOL    HW229913   0.585   2.961   6.977 -0.2427  0.5077 -0.2179
 6152SOL     OW29914   1.830   3.416  16.845  0.6516 -0.2680  0.1396
 6152SOL    HW129915   1.841   3.465  16.763 -0.1617 -0.0581  0.1615
 6152SOL    HW229916   1.740   3.385  16.846  1.3265 -2.2854 -0.5072
 6153SOL     OW29917   3.710   0.055   3.550 -0.0669 -0.5814 -0.5883
 6153SOL    HW129918   3.645   4.723   3.510  0.1583 -0.8167 -0.6151
 6153SOL    HW229919   3.759   0.084   3.473  1.0369  2.1000  1.1303
 6154SOL     OW29920   1.973   2.647   3.683  0.3002  0.0119  0.1262
 6154SOL    HW129921   1.974   2.557   3.717 -1.2705 -0.1084 -0.1824
 6154SOL    HW229922   1.929   2.636   3.599 -0.2951  0.2929  0.4009
 6155SOL     OW29923   1.133   1.680  10.702  0.1065 -0.1364 -0.2372
 6155SOL    HW129924   1.106   1.641  10.785  0.7446 -0.1691 -0.0443
 6155SOL    HW229925   1.099   1.769  10.713 -0.2417 -0.2935 -0.0534
 6156SOL     OW29926   2.081   0.442   7.299  0.2714 -0.2271 -0.1102
 6156SOL    HW129927   2.135   0.513   7.265  0.4645 -0.0496  0.5649
 6156SOL    HW229928   2.145   0.370   7.295  0.3579 -0.0293 -2.4150
 6157SOL     OW29929   1.851   2.668   4.311  0.4921 -0.1726 -0.1172
 6157SOL    HW129930   1.769   2.718   4.315 -0.1622 -1.1331 -1.5370
 6157SOL    HW229931   1.831   2.591   4.363 -0.3199 -1.0352 -1.7163
 6158SOL     OW29932   0.456   3.003   2.207 -0.5016 -0.0706 -0.1624
 6158SOL    HW129933   0.397   2.988   2.133 -0.6968 -0.2816  0.0386
 6158SOL    HW229934   0.432   2.947   2.281 -0.6751  0.9741  0.5569
 6159SOL     OW29935   1.750   0.088   6.230  0.1070  0.0156 -0.2208
 6159SOL    HW129936   1.770   0.043   6.312  0.2257  1.5628  0.5899
 6159SOL    HW229937   1.777   0.175   6.259 -2.7669  0.6590  0.4830
 6160SOL     OW29938   2.465   0.100   2.543  0.1403 -0.1433  0.1644
 6160SOL    HW129939   2.485   0.027   2.485 -0.9233 -0.2849 -0.0118
 6160SOL    HW229940   2.467   0.058   2.628  1.3498  2.8914  1.6367
 6161SOL     OW29941   1.498   2.643  10.653  0.4124 -0.8034  0.0042
 6161SOL    HW129942   1.438   2.625  10.725 -2.7063  1.8295 -1.9095
 6161SOL    HW229943   1.541   2.724  10.683 -0.8913 -0.3145  0.5503
 6162SOL     OW29944   2.701   3.820  16.608  0.1872 -0.0392 -0.2934
 6162SOL    HW129945   2.754   3.891  16.644  0.9624 -0.2550 -1.0095
 6162SOL    HW229946   2.760   3.773  16.550  0.5119  3.3501 -2.6711
 6163SOL     OW29947   3.166   2.502   5.856 -0.3770 -0.0267 -0.2515
 6163SOL    HW129948   3.159   2.547   5.940 -0.7000  0.9961 -0.8361
 6163SOL    HW229949   3.170   2.570   5.789  1.0186  0.1585  0.0094
 6164SOL     OW29950   2.000   1.039  16.839  0.3400  0.1695 -0.2345
 6164SOL    HW129951   1.990   1.113  16.778  0.6925  0.1903 -0.2639
 6164SOL    HW229952   2.092   1.052  16.862  0.2830  0.7078 -0.2945
 6165SOL     OW29953   2.702   4.499   2.434 -0.0720  0.0643 -0.1570
 6165SOL    HW129954   2.751   4.580   2.452 -0.0504 -0.6111  2.8998
 6165SOL    HW229955   2.629   4.505   2.495 -0.6347  0.9545 -0.9213
 6166SOL     OW29956   2.176   1.308   1.013 -0.9430 -0.1320  0.2141
 6166SOL    HW129957   2.194   1.214   1.015  1.2969  0.2942  0.0166
 6166SOL    HW229958   2.230   1.337   0.939 -0.7584  0.2044  0.4821
 6167SOL     OW29959   0.534   2.812  15.842 -0.2799  0.6563 -0.2881
 6167SOL    HW129960   0.442   2.791  15.826  0.3754 -0.4116 -2.7364
 6167SOL    HW229961   0.532   2.903  15.812  0.0662 -0.0413 -2.3935
 6168SOL     OW29962   4.178   0.276  16.202 -0.0679  0.1616  0.1307
 6168SOL    HW129963   4.248   0.340  16.188 -1.1175  0.6595 -2.7213
 6168SOL    HW229964   4.198   0.239  16.288 -3.1352  1.5334  1.4281
 6169SOL     OW29965   2.225   3.336  14.970 -0.1033  0.5453  0.1879
 6169SOL    HW129966   2.179   3.408  14.926 -0.2462  0.3777  0.0574
 6169SOL    HW229967   2.314   3.370  14.976 -0.3857  1.3750 -0.3250
 6170SOL     OW29968   1.269   4.507   8.987 -0.1940  0.3941  0.0134
 6170SOL    HW129969   1.223   4.456   9.053 -0.2134  1.3078  0.7149
 6170SOL    HW229970   1.231   4.594   9.000  0.8908  0.6706  1.4035
 6171SOL     OW29971   3.178   0.968   0.259 -0.0626  0.0176 -0.3967
 6171SOL    HW129972   3.167   0.960   0.164  0.1428  1.1169 -0.5081
 6171SOL    HW229973   3.202   0.878   0.278 -2.4342 -0.5055  0.1234
 6172SOL     OW29974   2.906   3.123   3.065  0.1612  0.2245  0.1026
 6172SOL    HW129975   3.001   3.126   3.054  0.3016  0.2714  1.2858
 6172SOL    HW229976   2.892   3.205   3.113  0.8269 -0.5819  1.6778
 6173SOL     OW29977   2.189   0.909   6.189  0.4025  0.4295  0.0964
 6173SOL    HW129978   2.277   0.913   6.151  0.2879  0.2118 -0.1901
 6173SOL    HW229979   2.220   0.872   6.272  1.6439  0.9821 -0.1233
 6174SOL     OW29980   3.873   1.412   5.539  0.1360  0.3884  0.4320
 6174SOL    HW129981   3.799   1.385   5.485  0.3840 -0.1877  0.3780
 6174SOL    HW229982   3.943   1.352   5.514  1.5861  2.4459 -0.4376
 6175SOL     OW29983   0.726   0.197   7.567 -0.8283 -0.3059  0.2506
 6175SOL    HW129984   0.641   0.172   7.603 -2.0655  1.6775 -1.3038
 6175SOL    HW229985   0.751   0.264   7.630  0.9264 -0.4159 -0.3271
 6176SOL     OW29986   3.165   0.594  10.896 -0.3176  0.3771 -0.0926
 6176SOL    HW129987   3.069   0.593  10.893 -0.2823  0.8753 -1.7181
 6176SOL    HW229988   3.175   0.518  10.954  1.3610 -0.2255 -1.1834
 6177SOL     OW29989   3.345   3.235   4.171 -0.4061  0.1958  0.3003
 6177SOL    HW129990   3.393   3.293   4.112 -0.8841 -0.8933 -1.1455
 6177SOL    HW229991   3.402   3.159   4.180 -0.5615 -0.2727 -2.5393
 6178SOL     OW29992   2.120   3.850   5.830 -0.0374  0.5031 -0.5360
 6178SOL    HW129993   2.194   3.858   5.770  0.8052 -1.0978  0.3163
 6178SOL    HW229994   2.101   3.758   5.813  0.9211  0.0296  1.0202
 6179SOL     OW29995   0.588   0.532   5.251 -0.1499 -0.1654 -0.2797
 6179SOL    HW129996   0.591   0.564   5.160  0.0921 -0.5810 -0.4173
 6179SOL    HW229997   0.565   0.440   5.244 -0.2421 -0.1816  0.2808
 6180SOL     OW29998   0.763   1.385   6.533  0.2690 -0.0933 -0.6840
 6180SOL    HW129999   0.818   1.320   6.491  0.2153 -1.0964  0.8209
 6180SOL    HW230000   0.701   1.411   6.465  0.9487  2.1364 -0.4734
 6181SOL     OW30001   0.335   2.004   8.197  0.3008  0.0287  0.3795
 6181SOL    HW130002   0.356   2.042   8.283 -2.9166  0.7987  0.8265
 6181SOL    HW230003   0.424   1.974   8.179  0.3231  0.0814  0.4022
 6182SOL     OW30004   4.585   0.713   2.806 -0.3657 -0.3800 -0.2158
 6182SOL    HW130005   4.512   0.767   2.776  0.7653  0.1372 -2.0230
 6182SOL    HW230006   4.657   0.774   2.820  0.1344 -1.7346  3.1232
 6183SOL     OW30007   4.146   2.360   2.224  0.2928  0.1067  0.0230
 6183SOL    HW130008   4.204   2.311   2.167 -1.6392 -2.3990  0.2119
 6183SOL    HW230009   4.137   2.440   2.172  1.9089 -0.8511 -1.7104
 6184SOL     OW30010   0.970   0.109  16.362  0.2186 -0.5024 -0.1202
 6184SOL    HW130011   1.046   0.057  16.390  0.9169  0.8487  0.4607
 6184SOL    HW230012   0.945   0.147  16.446  2.2075  1.8167 -0.5944
 6185SOL     OW30013   1.563   3.359  10.633  0.1699 -0.4972  1.0657
 6185SOL    HW130014   1.573   3.454  10.639 -1.4955 -0.2032 -0.7038
 6185SOL    HW230015   1.559   3.353  10.537 -0.5714 -0.1046  1.0736
 6186SOL     OW30016   1.669   1.703   9.848 -0.5696 -0.2988 -0.1327
 6186SOL    HW130017   1.754   1.659   9.840 -1.3330 -1.3846 -2.2024
 6186SOL    HW230018   1.657   1.684   9.941  2.6703 -0.2521  0.3032
 6187SOL     OW30019   2.599   1.558   4.503 -0.1978  0.1383  0.0832
 6187SOL    HW130020   2.524   1.551   4.445  0.4547  0.8421 -0.8454
 6187SOL    HW230021   2.659   1.490   4.471 -0.7379  0.7346 -2.1790
 6188SOL     OW30022   3.434   2.049  16.943 -0.3657  0.1541 -0.1514
 6188SOL    HW130023   3.378   2.103  16.888 -1.4663  0.4674  1.2602
 6188SOL    HW230024   3.403   2.088  17.025 -2.0669 -0.2525 -0.6070
 6189SOL     OW30025   3.412   2.126  17.201  0.0124  0.2995  0.7186
 6189SOL    HW130026   3.497   2.151  17.239  1.0262 -1.3455 -0.4522
 6189SOL    HW230027   3.389   2.049  17.253  0.5595 -1.7086 -2.0147
 6190SOL     OW30028   4.126   2.555   3.554  0.0724 -0.6077  0.7367
 6190SOL    HW130029   4.084   2.636   3.524  1.1355  0.2277  1.4835
 6190SOL    HW230030   4.087   2.528   3.637  1.3751 -0.1458  1.5103
 6191SOL     OW30031   0.928   0.732   9.105  0.2366  0.1693 -0.8731
 6191SOL    HW130032   0.887   0.661   9.154  0.9617  1.1248  1.0986
 6191SOL    HW230033   0.841   0.758   9.074 -0.0765 -0.3457 -0.4179
 6192SOL     OW30034   1.279   2.966   4.579  0.0658  0.3485  0.4553
 6192SOL    HW130035   1.247   2.876   4.576  1.3013 -0.1479  1.7227
 6192SOL    HW230036   1.278   2.982   4.485 -2.1137 -1.6434  0.1548
 6193SOL     OW30037   2.180   1.322   5.689 -0.2113 -0.2301  0.3401
 6193SOL    HW130038   2.106   1.328   5.628  1.2735 -0.3942 -1.4554
 6193SOL    HW230039   2.259   1.328   5.635 -0.8574  1.9605 -0.3442
 6194SOL     OW30040   3.649   1.269   0.370 -0.0516  0.0650  0.0780
 6194SOL    HW130041   3.745   1.265   0.375  0.0078  0.9067 -0.5428
 6194SOL    HW230042   3.620   1.283   0.460 -0.9391  2.8764 -0.6452
 6195SOL     OW30043   0.686   0.528   2.452 -0.3059 -0.0674  0.1620
 6195SOL    HW130044   0.762   0.495   2.402 -0.9939 -1.5478  0.0931
 6195SOL    HW230045   0.722   0.570   2.530  0.0236 -1.1259  0.5819
 6196SOL     OW30046   2.328   3.097   8.229  0.4464 -0.2601  0.3560
 6196SOL    HW130047   2.333   3.142   8.314  0.9935 -0.6146  0.5140
 6196SOL    HW230048   2.423   3.085   8.229  0.7484  2.0072  0.9209
 6197SOL     OW30049   4.062   2.062   5.049  0.2739  0.5770  0.2097
 6197SOL    HW130050   4.079   1.968   5.059 -0.7332  0.3841  0.1200
 6197SOL    HW230051   4.112   2.076   4.968  0.5530  1.2916  0.5143
 6198SOL     OW30052   2.750   4.479   4.242 -0.6285  0.4763  0.1964
 6198SOL    HW130053   2.804   4.440   4.173  0.3546  1.0237  0.6621
 6198SOL    HW230054   2.729   4.565   4.206  0.6264  0.0840 -1.4584
 6199SOL     OW30055   2.960   1.014  10.799 -0.1630 -0.0693 -0.1944
 6199SOL    HW130056   2.878   1.044  10.760 -0.5510 -0.1858  0.5288
 6199SOL    HW230057   2.930   0.931  10.837  0.7761 -0.5001 -0.3806
 6200SOL     OW30058   3.790   3.620   6.978  0.8360  0.2094 -0.2851
 6200SOL    HW130059   3.789   3.581   7.065 -0.3087  1.4823  0.2755
 6200SOL    HW230060   3.719   3.566   6.942  2.3836 -0.5376 -2.1701
 6201SOL     OW30061   1.289   3.019   1.165 -0.2826  0.1104 -0.1104
 6201SOL    HW130062   1.260   2.961   1.236 -0.2142 -0.3523 -0.4605
 6201SOL    HW230063   1.272   3.104   1.206 -0.7468  1.0596 -2.2817
 6202SOL     OW30064   0.000   4.508   3.345 -0.2903 -0.3330 -0.0949
 6202SOL    HW130065   0.023   4.599   3.367 -0.5831 -0.8114  2.2181
 6202SOL    HW230066   0.086   4.473   3.323 -0.2959 -0.3374 -0.1095
 6203SOL     OW30067   2.261   2.650   5.505  0.3529 -0.3834  0.5290
 6203SOL    HW130068   2.238   2.558   5.494  0.5699 -0.1616 -1.8113
 6203SOL    HW230069   2.320   2.648   5.580  1.8891  0.8380 -0.6416
 6204SOL     OW30070   3.695   2.361   8.756 -0.2247  0.2765 -0.3734
 6204SOL    HW130071   3.703   2.400   8.669  0.4014  3.7761  1.2735
 6204SOL    HW230072   3.616   2.307   8.746 -0.0303 -0.1407  0.3515
 6205SOL     OW30073   1.872   2.559  11.925 -0.2892  0.1872 -0.0185
 6205SOL    HW130074   1.822   2.589  12.001 -0.8305  0.0430 -0.3258
 6205SOL    HW230075   1.889   2.639  11.874  0.8898 -0.3043 -0.4003
 6206SOL     OW30076   3.323   2.004   6.161 -0.8285 -0.2245 -0.0289
 6206SOL    HW130077   3.403   2.055   6.180 -1.7149  1.6645 -1.3868
 6206SOL    HW230078   3.336   1.925   6.109  1.6837 -0.6774  1.2670
 6207SOL     OW30079   3.914   2.759   3.772  0.2846 -0.1355 -0.6147
 6207SOL    HW130080   3.825   2.760   3.737  0.3703  1.7160 -0.7681
 6207SOL    HW230081   3.948   2.837   3.728 -2.8934  0.9208 -1.1747
 6208SOL     OW30082   1.437   1.496  12.474 -0.2030  0.0614 -0.7346
 6208SOL    HW130083   1.446   1.431  12.404  2.5506 -2.1374  1.6692
 6208SOL    HW230084   1.514   1.484  12.529 -0.4267 -2.7626 -1.0251
 6209SOL     OW30085   4.316   2.899   8.472 -0.0620 -0.3574 -0.2332
 6209SOL    HW130086   4.257   2.959   8.426  1.0188  0.3808 -0.6589
 6209SOL    HW230087   4.245   2.851   8.514  1.2032 -2.6515 -0.7069
 6210SOL     OW30088   3.610   2.175   0.028 -0.1030 -0.1023  0.2689
 6210SOL    HW130089   3.662   2.115   0.081 -1.4178 -0.7343  0.8565
 6210SOL    HW230090   3.681   2.231  17.700 -1.8314  2.7502  1.4589
 6211SOL     OW30091   2.498   2.941   3.047  0.2096  0.3280 -0.1500
 6211SOL    HW130092   2.519   2.871   3.108 -2.2170 -0.6621 -0.4543
 6211SOL    HW230093   2.540   2.915   2.965  1.4971 -0.2452  0.7021
 6212SOL     OW30094   2.458   3.679   7.651 -0.0247 -0.0661 -0.3227
 6212SOL    HW130095   2.417   3.699   7.735  1.2090  0.9482  0.0325
 6212SOL    HW230096   2.377   3.676   7.599 -0.8288 -0.2914  0.9419
 6213SOL     OW30097   3.691   3.006   8.460 -0.7352  0.0969  0.0706
 6213SOL    HW130098   3.721   3.013   8.369 -0.1336 -0.7712  0.1988
 6213SOL    HW230099   3.610   3.054   8.442 -1.3734 -0.2829  1.9855
 6214SOL     OW30100   1.134   1.155   3.272  0.0907 -0.2791 -1.0092
 6214SOL    HW130101   1.069   1.104   3.320 -0.5116 -0.5897 -2.1540
 6214SOL    HW230102   1.096   1.155   3.184 -1.7267 -0.4473 -0.2294
 6215SOL     OW30103   0.912   0.958   5.939  0.0754 -0.2018  0.7721
 6215SOL    HW130104   0.865   0.968   6.022 -0.0853  3.4966  0.2139
 6215SOL    HW230105   0.999   0.988   5.964 -0.1167 -0.6147  1.9768
 6216SOL     OW30106   0.272   0.875   6.684  0.5799 -0.4028  0.2624
 6216SOL    HW130107   0.242   0.799   6.632  2.8620 -1.5504  0.6287
 6216SOL    HW230108   0.219   0.946   6.647 -2.7175 -1.7779  2.2562
 6217SOL     OW30109   4.183   3.849  16.839 -0.0228  0.5937  0.1660
 6217SOL    HW130110   4.214   3.940  16.834 -1.3304  0.9700 -1.0147
 6217SOL    HW230111   4.214   3.821  16.925 -1.2735 -0.5197  0.2412
 6218SOL     OW30112   1.709   0.584   9.838 -0.2616 -0.4523  0.5322
 6218SOL    HW130113   1.743   0.497   9.856  0.4589  0.0603  1.6821
 6218SOL    HW230114   1.699   0.617   9.928 -2.5456 -1.3760  0.6103
 6219SOL     OW30115   3.603   0.660   1.329  0.0313 -0.2833 -0.4332
 6219SOL    HW130116   3.658   0.725   1.373  0.3325 -0.0130 -1.2149
 6219SOL    HW230117   3.588   0.604   1.405 -3.8253  0.9627 -0.2907
 6220SOL     OW30118   4.073   2.477  12.417 -0.1257  0.3544 -0.7974
 6220SOL    HW130119   3.989   2.433  12.426 -0.6676  1.6875  0.6985
 6220SOL    HW230120   4.075   2.527  12.498  0.5775  1.3961 -1.4559
 6221SOL     OW30121   2.577   3.283   5.984  0.4508  0.1818  0.2582
 6221SOL    HW130122   2.651   3.229   6.009  0.4884  0.6146  1.0849
 6221SOL    HW230123   2.557   3.331   6.064  2.0193 -0.9931  1.3253
 6222SOL     OW30124   2.481   3.050   2.690  0.7399 -0.5495  0.1390
 6222SOL    HW130125   2.564   3.042   2.738  1.1244 -0.4954 -0.5122
 6222SOL    HW230126   2.471   2.962   2.655  0.2251 -1.0640  1.6069
 6223SOL     OW30127   1.801   2.083  10.960  0.2968 -0.2801  0.5450
 6223SOL    HW130128   1.893   2.083  10.935 -0.4881 -1.6947 -2.3449
 6223SOL    HW230129   1.806   2.043  11.047  2.9934  0.8194  0.8953
 6224SOL     OW30130   2.723   3.580   2.927  0.3314 -0.4951 -0.0581
 6224SOL    HW130131   2.647   3.558   2.981  1.3687 -0.7563  1.3209
 6224SOL    HW230132   2.678   3.605   2.847 -1.3468 -1.8927  0.4544
 6225SOL     OW30133   2.019   0.110   8.054  0.4418 -0.0140 -0.3513
 6225SOL    HW130134   2.007   0.192   8.007  0.4996 -0.4301 -1.1009
 6225SOL    HW230135   2.033   0.146   8.141  2.0496  0.6210 -0.8768
 6226SOL     OW30136   0.753   2.273   5.614  0.7497 -0.1217  0.4143
 6226SOL    HW130137   0.794   2.313   5.691  0.8447 -0.0315  0.3154
 6226SOL    HW230138   0.820   2.284   5.547  1.6462  1.3482  1.5427
 6227SOL     OW30139   2.467   0.850  15.526  0.2996  0.6507  0.3778
 6227SOL    HW130140   2.383   0.854  15.572  0.7568  2.3526  1.0242
 6227SOL    HW230141   2.521   0.839  15.605  0.5165 -1.6032 -0.0637
 6228SOL     OW30142   2.833   3.881   9.926  1.6160 -0.3306  0.1588
 6228SOL    HW130143   2.796   3.857  10.011 -0.6039  0.6722 -0.5025
 6228SOL    HW230144   2.782   3.835   9.859 -1.1050  1.6431  0.8724
 6229SOL     OW30145   0.213   0.399  13.062 -0.7893  0.2125  0.2513
 6229SOL    HW130146   0.194   0.321  13.114 -0.4584  0.8272  1.2872
 6229SOL    HW230147   0.305   0.411  13.083 -1.3197  1.5435  1.8156
 6230SOL     OW30148   4.514   3.003  13.055  0.5766 -0.3953 -0.0985
 6230SOL    HW130149   4.518   3.048  13.140 -0.9795  4.2104 -2.4831
 6230SOL    HW230150   4.588   3.041  13.007 -0.6780  0.9077 -1.0070
 6231SOL     OW30151   1.961   1.594   3.918 -0.7604 -0.1496 -0.3879
 6231SOL    HW130152   1.978   1.501   3.928  1.7108  0.2346 -0.9251
 6231SOL    HW230153   1.985   1.628   4.005  0.9564 -2.0666 -0.1238
 6232SOL     OW30154   1.471   2.254  10.001  0.0725  0.6871 -0.2081
 6232SOL    HW130155   1.498   2.162  10.003  1.3087  1.0083 -1.5850
 6232SOL    HW230156   1.486   2.279   9.909 -0.8062  0.6458 -0.3590
 6233SOL     OW30157   0.335   1.720   6.662  0.6676 -0.4986  0.3164
 6233SOL    HW130158   0.275   1.765   6.721  0.4901  0.3914 -0.5305
 6233SOL    HW230159   0.286   1.721   6.579  0.4087 -0.3371  0.4732
 6234SOL     OW30160   4.362   0.223  13.946  0.2083  0.4224  0.0841
 6234SOL    HW130161   4.267   0.215  13.945  0.1457  0.8802  2.4818
 6234SOL    HW230162   4.394   0.133  13.942  0.9467  0.7046 -0.4157
 6235SOL     OW30163   4.546   1.346  17.425  0.8199 -0.0588 -0.1494
 6235SOL    HW130164   4.497   1.421  17.392 -0.3968 -0.8813 -0.2267
 6235SOL    HW230165   4.598   1.318  17.350  2.6117 -1.0055  1.4385
 6236SOL     OW30166   1.165   0.355   3.563  0.3062  0.4097 -0.2133
 6236SOL    HW130167   1.170   0.435   3.616 -2.4624 -1.2804  2.6198
 6236SOL    HW230168   1.229   0.291   3.595  3.1060  2.1642 -2.3234
 6237SOL     OW30169   0.322   3.190   8.391 -0.8520 -0.1120  0.1733
 6237SOL    HW130170   0.297   3.109   8.348 -0.6451  0.5242 -1.1293
 6237SOL    HW230171   0.393   3.202   8.328  0.1264  1.1984  1.5027
 6238SOL     OW30172   3.021   1.768   2.031  0.1342  0.1431 -0.1147
 6238SOL    HW130173   2.992   1.749   1.942 -1.5817 -0.8803  0.6577
 6238SOL    HW230174   2.983   1.685   2.059 -0.0311  0.1795 -0.2307
 6239SOL     OW30175   2.003   1.393  17.408  0.3452 -0.5407 -0.4589
 6239SOL    HW130176   1.992   1.353  17.495 -0.6356  2.5560  0.8506
 6239SOL    HW230177   1.985   1.312  17.361 -1.8498 -0.9562  1.1045
 6240SOL     OW30178   3.364   1.300   8.957 -0.2085  0.1209  0.0171
 6240SOL    HW130179   3.447   1.314   9.002  0.4883 -2.3881 -0.5212
 6240SOL    HW230180   3.325   1.386   8.975  2.4363  1.2532  0.3618
 6241SOL     OW30181   2.633   3.083   5.139  0.2315  0.1655 -0.1127
 6241SOL    HW130182   2.548   3.126   5.136  0.4634  0.5018 -1.9469
 6241SOL    HW230183   2.626   3.030   5.218 -3.4856 -0.2394 -0.7108
 6242SOL     OW30184   1.455   1.299   4.696 -0.1915  0.1181 -0.1194
 6242SOL    HW130185   1.369   1.281   4.735 -0.6933 -0.7161 -1.5878
 6242SOL    HW230186   1.417   1.315   4.609 -2.3261  0.7565  0.9264
 6243SOL     OW30187   2.787   2.764   2.046  0.1068  0.0484 -0.0266
 6243SOL    HW130188   2.745   2.710   2.112 -2.6365  0.4483 -1.4495
 6243SOL    HW230189   2.744   2.751   1.962 -2.7360 -1.8089  1.7409
 6244SOL     OW30190   1.720   4.452   3.047  0.1521  0.0018  0.1044
 6244SOL    HW130191   1.636   4.443   3.003 -0.0178  1.5410  0.0946
 6244SOL    HW230192   1.780   4.428   2.977 -2.6528  0.4359 -2.4637
 6245SOL     OW30193   1.891   0.277   6.418  0.0192 -0.2135 -0.0768
 6245SOL    HW130194   1.931   0.309   6.499  1.4377 -3.0436  0.3608
 6245SOL    HW230195   1.969   0.233   6.384  0.5409  0.0658  0.7421
 6246SOL     OW30196   0.721   2.001   5.471  0.2695  0.0036  0.5245
 6246SOL    HW130197   0.630   1.989   5.498  1.3803 -4.0995  2.3379
 6246SOL    HW230198   0.744   2.071   5.531 -2.4321  2.4646 -1.2930
 6247SOL     OW30199   3.618   1.680  15.787  0.3658  0.5372  0.3030
 6247SOL    HW130200   3.682   1.742  15.752  0.8774 -1.6986 -2.6239
 6247SOL    HW230201   3.611   1.627  15.708  0.0399 -0.3116  0.9017
 6248SOL     OW30202   0.208   2.791   6.049 -1.0057  0.9075 -0.8010
 6248SOL    HW130203   0.131   2.793   5.991 -1.5885 -1.2693 -0.1021
 6248SOL    HW230204   0.216   2.883   6.073 -1.6867  0.8032 -0.1525
 6249SOL     OW30205   3.145   0.870  15.950  0.0609  0.0717  0.1403
 6249SOL    HW130206   3.197   0.823  16.015 -0.3772 -0.8369 -0.1662
 6249SOL    HW230207   3.186   0.841  15.869 -0.0045  0.1835  0.0675
 6250SOL     OW30208   4.062   0.805  11.740 -0.1932 -0.1465  0.0162
 6250SOL    HW130209   4.130   0.831  11.802  0.2177  0.5650 -0.7353
 6250SOL    HW230210   4.117   0.778  11.667 -0.0920  1.0483 -0.3477
 6251SOL     OW30211   3.061   2.527  14.953 -0.1764  0.0457  0.2117
 6251SOL    HW130212   3.143   2.576  14.951 -0.0740  0.0326  3.6206
 6251SOL    HW230213   3.000   2.597  14.974  0.5424  0.2936  1.5199
 6252SOL     OW30214   0.892   2.923   6.197  0.4087  0.1259 -0.2121
 6252SOL    HW130215   0.921   2.862   6.129 -1.3656 -0.6255 -0.3073
 6252SOL    HW230216   0.883   2.864   6.272  0.2305 -0.9645 -1.0809
 6253SOL     OW30217   2.882   3.927   2.529  0.0450  0.1779  0.8342
 6253SOL    HW130218   2.924   3.877   2.598  2.2814  0.4970 -0.2868
 6253SOL    HW230219   2.855   4.002   2.581 -2.1402  0.9323 -1.3884
 6254SOL     OW30220   2.862   4.438   0.558 -0.1950  0.0964  0.4906
 6254SOL    HW130221   2.847   4.520   0.510 -0.4045 -0.4446 -0.3644
 6254SOL    HW230222   2.772   4.417   0.584  0.0552  0.8183  1.9688
 6255SOL     OW30223   1.555   0.763   5.299  0.3768  0.3070  0.3209
 6255SOL    HW130224   1.465   0.768   5.265 -0.1996 -1.5887  1.5644
 6255SOL    HW230225   1.541   0.835   5.361 -0.6196  1.4269 -1.2061
 6256SOL     OW30226   1.965   2.945   9.761  0.7969  0.3619 -0.1382
 6256SOL    HW130227   1.969   3.040   9.756  1.4288  0.5262  3.7272
 6256SOL    HW230228   2.057   2.927   9.744  0.9564 -0.7920  2.0460
 6257SOL     OW30229   3.899   1.122   1.376  0.2060 -0.0421  0.1802
 6257SOL    HW130230   3.836   1.178   1.331  0.7448  0.4703  0.0650
 6257SOL    HW230231   3.931   1.176   1.448 -0.8590 -0.6559  1.1007
 6258SOL     OW30232   1.880   3.811   3.128 -0.1317 -0.0585 -0.0892
 6258SOL    HW130233   1.966   3.847   3.106 -0.1023  0.5316  0.9912
 6258SOL    HW230234   1.889   3.801   3.222 -0.9937 -2.0817 -0.2366
 6259SOL     OW30235   3.379   1.591   1.875 -0.1467  0.4103  0.0915
 6259SOL    HW130236   3.382   1.676   1.832 -0.5623  0.6080  0.4528
 6259SOL    HW230237   3.424   1.617   1.956 -1.0727  2.6274 -0.1004
 6260SOL     OW30238   1.549   3.547   4.156  0.1204 -0.8524 -0.0071
 6260SOL    HW130239   1.460   3.543   4.191  0.0318  0.1885 -0.1213
 6260SOL    HW230240   1.608   3.495   4.212 -0.7050 -0.3523  1.3339
 6261SOL     OW30241   1.830   0.372   2.065  0.6237  0.1239  0.0272
 6261SOL    HW130242   1.924   0.387   2.066  0.5692  0.4287  0.8434
 6261SOL    HW230243   1.828   0.295   2.122  0.4721 -0.5789 -0.9456
 6262SOL     OW30244   2.917   4.697  13.368 -0.1422 -0.2527  0.2513
 6262SOL    HW130245   2.934   4.626  13.430  0.7017 -0.2677  0.0124
 6262SOL    HW230246   2.909   4.653  13.283 -1.4306  0.0123  0.2356
 6263SOL     OW30247   1.750   3.116   3.853 -0.1114 -0.2199  0.6127
 6263SOL    HW130248   1.723   3.172   3.780  0.5978  0.5629  0.9448
 6263SOL    HW230249   1.804   3.048   3.813  0.3397  0.4867  0.0330
 6264SOL     OW30250   2.773   1.138  10.629  0.2289 -0.1522  0.1173
 6264SOL    HW130251   2.793   1.168  10.540  1.5001  2.2393  1.2181
 6264SOL    HW230252   2.755   1.225  10.665 -2.3649 -0.4624 -0.3890
 6265SOL     OW30253   4.647   4.463   9.071 -0.6425 -1.0152 -0.5496
 6265SOL    HW130254   4.622   4.509   8.990  2.4648 -0.3278 -1.1147
 6265SOL    HW230255   4.573   4.403   9.071 -0.9471 -0.6318  0.5819
 6266SOL     OW30256   2.243   4.342   3.578 -0.2100 -0.4006 -0.0460
 6266SOL    HW130257   2.180   4.344   3.650 -1.8390 -1.2311 -1.4247
 6266SOL    HW230258   2.188   4.341   3.499 -1.6966 -0.4122  1.0000
 6267SOL     OW30259   3.910   0.527   6.778 -0.3135 -0.4119  0.4492
 6267SOL    HW130260   3.966   0.571   6.842  0.7932  0.7331 -1.3239
 6267SOL    HW230261   3.979   0.520   6.713 -0.7018  0.5627 -0.0599
 6268SOL     OW30262   2.087   0.291   2.176  0.0351 -0.5259  0.1628
 6268SOL    HW130263   2.105   0.197   2.176 -0.7237 -0.6712 -1.5100
 6268SOL    HW230264   2.169   0.331   2.149 -0.9883  1.6571  0.3534
 6269SOL     OW30265   0.397   0.315   1.963 -0.4068  0.3649  0.1321
 6269SOL    HW130266   0.371   0.375   2.033 -1.8684  0.2578 -0.3022
 6269SOL    HW230267   0.326   0.331   1.901 -0.1333  0.4796 -0.1514
 6270SOL     OW30268   4.417   0.128   4.563 -0.2247  0.6294  0.1933
 6270SOL    HW130269   4.330   0.120   4.523 -1.0480 -1.7903  2.4080
 6270SOL    HW230270   4.414   0.061   4.631  1.2682 -0.9175 -1.2620
 6271SOL     OW30271   3.748   3.561   0.277  0.6564 -0.2776  0.3903
 6271SOL    HW130272   3.713   3.606   0.354  3.0815  0.8040  0.8832
 6271SOL    HW230273   3.827   3.523   0.317  0.9201 -0.8348 -0.6514
 6272SOL     OW30274   1.873   3.101   1.618  0.2652 -0.0552 -0.4973
 6272SOL    HW130275   1.881   3.125   1.526 -2.4476 -1.1794 -1.0051
 6272SOL    HW230276   1.885   3.188   1.654  0.5591 -0.5448  0.5916
 6273SOL     OW30277   1.961   1.238   5.481 -0.2170 -0.1490  0.4858
 6273SOL    HW130278   1.889   1.235   5.544 -1.5396  0.0468 -1.0104
 6273SOL    HW230279   2.014   1.164   5.510  0.9390  0.8586  0.9565
 6274SOL     OW30280   2.668   3.195   8.440 -0.0563 -0.1469  0.2542
 6274SOL    HW130281   2.591   3.217   8.491  1.0207 -0.3964  1.9931
 6274SOL    HW230282   2.728   3.163   8.508  1.6604 -0.0129 -1.1764
 6275SOL     OW30283   1.887   2.329  10.063  0.1132  0.5338 -0.0705
 6275SOL    HW130284   1.823   2.279  10.115  1.0939 -0.6889 -0.0464
 6275SOL    HW230285   1.922   2.265  10.001 -0.7751 -0.1207  0.1028
 6276SOL     OW30286   2.229   0.503   7.966 -0.4908 -0.6261 -0.4171
 6276SOL    HW130287   2.183   0.520   8.048  0.5837  0.6075 -0.0722
 6276SOL    HW230288   2.321   0.511   7.988 -0.9367 -0.9497  1.5226
 6277SOL     OW30289   0.526   0.232  11.513  0.0519  0.0121 -0.2764
 6277SOL    HW130290   0.448   0.280  11.488 -0.2400  0.3985  1.4204
 6277SOL    HW230291   0.526   0.180  11.433  0.8311  1.0665 -0.9717
 6278SOL     OW30292   1.607   3.629  10.659  0.1562  0.4283 -0.5262
 6278SOL    HW130293   1.679   3.601  10.714 -0.1087 -1.3861 -1.0993
 6278SOL    HW230294   1.564   3.703  10.702 -1.0273 -1.1283  0.9379
 6279SOL     OW30295   3.260   1.481  12.162  0.2877 -0.0176  0.3313
 6279SOL    HW130296   3.287   1.540  12.233  2.9520 -1.4943  0.5388
 6279SOL    HW230297   3.347   1.443  12.148  1.6929  1.7250  4.1005
 6280SOL     OW30298   4.406   4.589   0.597 -0.5030 -0.6726  0.1602
 6280SOL    HW130299   4.365   4.664   0.555 -2.0105 -2.3106 -1.3308
 6280SOL    HW230300   4.362   4.521   0.546  0.1378 -0.8837 -0.1194
 6281SOL     OW30301   3.070   3.139   4.948  0.6934 -0.1266 -0.3753
 6281SOL    HW130302   3.069   3.046   4.926 -1.7063 -0.8302  2.6606
 6281SOL    HW230303   3.001   3.140   5.014  1.8652  1.5660  0.8204
 6282SOL     OW30304   2.857   1.927   6.379  0.9770 -0.3812 -0.1975
 6282SOL    HW130305   2.837   1.833   6.376  1.8452 -0.5734  0.0604
 6282SOL    HW230306   2.949   1.923   6.353  0.6311 -0.3426 -1.4324
 6283SOL     OW30307   1.031   4.589   6.917  0.1773 -0.1472 -0.4540
 6283SOL    HW130308   1.079   4.667   6.888 -0.3750 -0.7737 -3.0707
 6283SOL    HW230309   1.018   4.591   7.012  2.8548 -1.0845 -0.0415
 6284SOL     OW30310   4.044   3.518   8.722  0.2051  0.4045 -0.5628
 6284SOL    HW130311   3.971   3.502   8.662 -1.4820  2.0907  1.0808
 6284SOL    HW230312   3.999   3.507   8.805 -0.8557  0.9327 -1.0580
 6285SOL     OW30313   3.675   3.233  16.333  0.2524 -0.3746 -0.1316
 6285SOL    HW130314   3.669   3.311  16.277  0.0290 -1.8513 -2.1611
 6285SOL    HW230315   3.586   3.201  16.343 -0.0337  0.8737  1.4464
 6286SOL     OW30316   3.575   1.090   9.581 -0.2371  0.4953  0.1692
 6286SOL    HW130317   3.654   1.070   9.631 -0.7894 -1.4076  0.2888
 6286SOL    HW230318   3.515   1.024   9.615 -1.4027  0.0471 -2.7793
 6287SOL     OW30319   4.615   0.939   6.262 -0.0993 -0.3305 -0.2241
 6287SOL    HW130320   4.625   0.980   6.176  0.3169 -0.5690 -0.2860
 6287SOL    HW230321   4.519   0.940   6.270 -0.1702  1.0018 -1.2966
 6288SOL     OW30322   3.646   3.263   4.135 -0.5780  0.1090 -0.3235
 6288SOL    HW130323   3.658   3.298   4.223 -1.6525  0.6608 -0.3941
 6288SOL    HW230324   3.615   3.172   4.141  2.0846 -0.7631  0.3754
 6289SOL     OW30325   0.413   0.280  14.374  0.0875  0.4581 -0.1456
 6289SOL    HW130326   0.364   0.211  14.328 -0.9260  1.2274 -0.2095
 6289SOL    HW230327   0.406   0.243  14.462  0.6840  0.6345 -0.0203
 6290SOL     OW30328   2.851   2.419   3.726 -0.1112  0.0205  0.3111
 6290SOL    HW130329   2.836   2.504   3.767  1.3176  1.2547 -1.7518
 6290SOL    HW230330   2.814   2.357   3.789 -1.1159  1.1777  0.8738
 6291SOL     OW30331   2.770   3.468  16.252  0.1694 -0.6346  0.0669
 6291SOL    HW130332   2.764   3.538  16.187 -1.1931 -1.9008 -1.1805
 6291SOL    HW230333   2.687   3.492  16.294 -0.1815 -0.0873 -0.9427
 6292SOL     OW30334   3.767   3.076   1.689 -0.5432  0.8410  0.4816
 6292SOL    HW130335   3.796   3.035   1.608 -1.2286  1.4509 -0.0726
 6292SOL    HW230336   3.679   3.042   1.710  0.2336 -2.4616 -1.5619
 6293SOL     OW30337   2.247   2.319   4.375  0.1936  0.1525 -0.8235
 6293SOL    HW130338   2.211   2.310   4.463  2.1463  0.2908 -0.0008
 6293SOL    HW230339   2.162   2.317   4.332 -0.2386 -1.0975  0.1083
 6294SOL     OW30340   0.556   2.583   4.982 -0.0090 -0.3731 -0.4160
 6294SOL    HW130341   0.577   2.570   5.074  1.4120  0.0925 -0.6689
 6294SOL    HW230342   0.500   2.660   4.987  0.1296 -0.3202  0.3049
 6295SOL     OW30343   4.290   0.433   6.564 -0.0386 -0.4289 -0.2527
 6295SOL    HW130344   4.210   0.482   6.583 -0.2070 -1.1920  1.0413
 6295SOL    HW230345   4.293   0.426   6.469  1.2897  0.0318 -0.2509
 6296SOL     OW30346   3.453   0.695   4.073  0.4775 -0.9976 -0.6597
 6296SOL    HW130347   3.534   0.741   4.091  0.0417 -0.2079 -0.7044
 6296SOL    HW230348   3.462   0.631   4.143  1.8944  0.2022  0.2588
 6297SOL     OW30349   1.851   4.240   7.617 -0.0504 -0.2945 -0.2996
 6297SOL    HW130350   1.763   4.279   7.624  0.9118  1.5599  1.6209
 6297SOL    HW230351   1.882   4.248   7.707 -3.6487  0.4527  0.8940
 6298SOL     OW30352   3.898   4.143  10.225 -0.3577  0.6215 -0.0444
 6298SOL    HW130353   3.840   4.079  10.266 -1.0589  0.7722 -0.8080
 6298SOL    HW230354   3.983   4.101  10.239 -1.7189 -2.6989 -1.8031
 6299SOL     OW30355   4.221   1.831   4.072 -0.0157 -0.5575 -0.2834
 6299SOL    HW130356   4.288   1.777   4.114 -1.5384 -1.4940  0.9342
 6299SOL    HW230357   4.182   1.854   4.157  0.3348  0.6601 -0.4492
 6300SOL     OW30358   1.157   3.295   6.201 -0.1456  0.1054  0.6185
 6300SOL    HW130359   1.214   3.370   6.219  1.8275 -1.0565 -0.7875
 6300SOL    HW230360   1.080   3.315   6.255  0.2812  2.1848  0.4584
 6301SOL     OW30361   2.799   4.695   0.406 -0.6126 -0.4426 -0.0498
 6301SOL    HW130362   2.741   0.038   0.440 -0.4818 -0.4450  0.1760
 6301SOL    HW230363   2.765   4.693   0.316 -0.1886  1.0121 -0.2390
 6302SOL     OW30364   4.340   2.965  11.953 -0.5505  0.2494 -0.2657
 6302SOL    HW130365   4.278   2.998  11.889  1.1384  3.7835 -0.0602
 6302SOL    HW230366   4.383   2.896  11.902 -2.1117  0.1231 -1.3936
 6303SOL     OW30367   3.544   2.665   6.694  0.2919 -0.2302 -0.1927
 6303SOL    HW130368   3.576   2.752   6.670 -0.3526  0.1844  0.4656
 6303SOL    HW230369   3.607   2.609   6.648 -0.5754  0.5288 -2.2923
 6304SOL     OW30370   1.588   0.274  10.068  0.3404 -0.3425 -0.5807
 6304SOL    HW130371   1.553   0.360  10.043  0.0859  0.3689  2.1937
 6304SOL    HW230372   1.654   0.265  10.000  0.9267 -1.4794  0.1433
 6305SOL     OW30373   2.836   3.153   2.602 -0.5386  0.3129 -0.0037
 6305SOL    HW130374   2.819   3.074   2.652  0.8674  0.2417  0.3560
 6305SOL    HW230375   2.837   3.120   2.512 -0.3512  1.0519 -0.2786
 6306SOL     OW30376   1.424   3.698   9.517 -0.0630 -0.2014  0.0579
 6306SOL    HW130377   1.424   3.725   9.609 -0.3754 -1.6035  0.4686
 6306SOL    HW230378   1.519   3.687   9.510  0.0594  0.8345  0.0596
 6307SOL     OW30379   2.675   3.940   5.393 -0.0961 -0.6770 -0.2785
 6307SOL    HW130380   2.688   3.933   5.299 -0.4407 -1.2704 -0.2858
 6307SOL    HW230381   2.759   3.977   5.418  0.8479 -2.2102 -1.1788
 6308SOL     OW30382   1.563   3.735   3.296  0.4090  0.0678  0.2873
 6308SOL    HW130383   1.568   3.766   3.206 -0.2929  0.3311  0.3386
 6308SOL    HW230384   1.470   3.742   3.317  0.6771  1.3147  1.0677
 6309SOL     OW30385   1.353   3.157   2.906 -0.0037 -0.1926 -0.1707
 6309SOL    HW130386   1.304   3.213   2.845 -1.6978 -2.6105 -1.0466
 6309SOL    HW230387   1.403   3.109   2.840 -0.2401 -0.0293 -0.4700
 6310SOL     OW30388   0.747   2.955   3.141  0.3200 -0.6096  0.0364
 6310SOL    HW130389   0.776   3.014   3.210  1.8347 -1.6929  0.3274
 6310SOL    HW230390   0.783   2.874   3.176 -0.6380 -1.0193  0.0512
 6311SOL     OW30391   2.444   0.896   6.110 -0.5621  0.6558  0.4364
 6311SOL    HW130392   2.504   0.925   6.179  0.1619  1.9817 -0.7621
 6311SOL    HW230393   2.495   0.915   6.032  0.6907  0.6904  1.2581
 6312SOL     OW30394   1.147   4.307   2.402  0.3510  0.0512 -0.3222
 6312SOL    HW130395   1.121   4.343   2.317  1.0170  2.0683  0.3302
 6312SOL    HW230396   1.188   4.382   2.444  1.2558 -1.2329  1.0682
 6313SOL     OW30397   0.550   1.576   5.001 -0.1169  0.0364  0.0634
 6313SOL    HW130398   0.596   1.512   4.947 -0.6074 -0.2318 -0.0389
 6313SOL    HW230399   0.525   1.521   5.075  3.3618 -0.1057  1.1075
 6314SOL     OW30400   3.666   0.471  12.673 -0.2566 -0.0397 -0.1850
 6314SOL    HW130401   3.620   0.540  12.721  3.8104  1.7660  1.0634
 6314SOL    HW230402   3.590   0.412  12.670 -0.5030  0.3856 -2.7262
 6315SOL     OW30403   0.336   3.448   8.475 -0.3451 -0.1242  0.3718
 6315SOL    HW130404   0.257   3.486   8.514 -0.7065  0.3816 -0.8451
 6315SOL    HW230405   0.306   3.371   8.427 -1.7323  0.4564  0.2930
 6316SOL     OW30406   0.419   1.021   5.832  0.1782  0.5576 -0.0221
 6316SOL    HW130407   0.464   0.937   5.841  1.4761  1.0226 -2.2278
 6316SOL    HW230408   0.451   1.066   5.910 -1.9447 -3.0193  2.9697
 6317SOL     OW30409   2.870   2.926   5.509 -0.2703  0.1097  0.0621
 6317SOL    HW130410   2.958   2.930   5.472 -1.1757  0.2332 -2.0750
 6317SOL    HW230411   2.843   3.016   5.493 -2.3808 -0.5518 -0.0462
 6318SOL     OW30412   2.496   3.689  11.476  0.0591  0.3081  0.1337
 6318SOL    HW130413   2.518   3.753  11.543 -1.4849 -2.1261  2.9426
 6318SOL    HW230414   2.584   3.668  11.443 -0.5249 -0.8980 -0.6411
 6319SOL     OW30415   3.714   2.761   4.469  0.2031  0.0381  0.1896
 6319SOL    HW130416   3.666   2.682   4.445  0.8352 -0.2954  0.0293
 6319SOL    HW230417   3.801   2.735   4.438  0.7107  0.1778  1.4926
 6320SOL     OW30418   1.396   3.060  11.352  0.7202 -0.1456  0.2371
 6320SOL    HW130419   1.482   3.089  11.321  0.4637  0.1347 -0.2145
 6320SOL    HW230420   1.340   3.126  11.310 -0.3014 -0.3310  1.3080
 6321SOL     OW30421   4.620   2.957   6.348  0.3931  0.1671  0.1269
 6321SOL    HW130422   4.582   3.045   6.359  0.5053  0.2423 -0.1015
 6321SOL    HW230423   4.556   2.918   6.288 -0.4120  2.1662 -0.3435
 6322SOL     OW30424   4.502   1.527   8.321  0.3527 -0.0744  0.5645
 6322SOL    HW130425   4.462   1.442   8.305  1.5887 -0.7031  0.8006
 6322SOL    HW230426   4.456   1.580   8.256 -0.3955  1.4455  2.3327
 6323SOL     OW30427   4.719   2.964  17.472  0.5757 -0.9284 -0.1977
 6323SOL    HW130428   4.653   2.971  17.541  1.0983  0.2519  0.1986
 6323SOL    HW230429   0.045   3.042  17.494 -3.3017  1.2609  1.1662
 6324SOL     OW30430   4.306   1.202   2.683 -0.0306 -0.0538 -0.1249
 6324SOL    HW130431   4.352   1.171   2.605  0.6359 -0.6833  0.5108
 6324SOL    HW230432   4.372   1.193   2.752  0.5745 -0.6753 -0.7899
 6325SOL     OW30433   4.509   0.091   7.745 -0.6437 -0.3910  0.1170
 6325SOL    HW130434   4.454   0.042   7.807  0.6678 -3.6252 -1.2810
 6325SOL    HW230435   4.496   0.038   7.667  0.1469  0.5824 -0.6685
 6326SOL     OW30436   1.330   0.833   9.973 -0.4255  0.4350  0.4981
 6326SOL    HW130437   1.277   0.896   9.924 -0.5101  0.0183  0.0510
 6326SOL    HW230438   1.418   0.853   9.940 -0.2616 -0.4266  0.3898
 6327SOL     OW30439   2.590   2.644   7.829 -0.3101 -0.1317  0.3287
 6327SOL    HW130440   2.552   2.665   7.915 -0.5156  1.3320 -0.1090
 6327SOL    HW230441   2.513   2.622   7.777 -0.3953  1.4326 -0.2157
 6328SOL     OW30442   1.672   0.497   6.703  0.0018 -0.1881  0.0537
 6328SOL    HW130443   1.644   0.498   6.611  1.4744 -2.9521 -0.4227
 6328SOL    HW230444   1.625   0.575   6.732 -0.0261  0.4839 -1.7538
 6329SOL     OW30445   0.070   4.540   6.154  0.4901 -0.0053 -0.5001
 6329SOL    HW130446   0.049   4.468   6.215  0.9921 -1.0263 -1.5419
 6329SOL    HW230447   4.710   4.572   6.126 -0.0168  1.4959  2.7152
 6330SOL     OW30448   0.573   0.351   4.093  0.2722 -0.6272 -0.3294
 6330SOL    HW130449   0.588   0.257   4.107 -3.5390 -0.8089  2.5012
 6330SOL    HW230450   0.662   0.365   4.060  0.6242 -0.5073  0.6395
 6331SOL     OW30451   0.063   0.307   8.750  0.5276 -0.3389  0.1992
 6331SOL    HW130452   0.094   0.261   8.672  1.1977  0.0049  0.2612
 6331SOL    HW230453   0.137   0.368   8.754 -0.8516  1.3647 -0.2363
 6332SOL     OW30454   0.388   2.101   2.201 -0.1382  0.2842  0.1920
 6332SOL    HW130455   0.418   2.011   2.200  2.9000  1.2831  1.4412
 6332SOL    HW230456   0.294   2.087   2.212  0.0418 -2.4729 -1.8308
 6333SOL     OW30457   3.584   4.539   2.359  0.5595  0.3227 -0.2169
 6333SOL    HW130458   3.666   4.522   2.313  0.3866 -1.0256 -0.0286
 6333SOL    HW230459   3.606   4.623   2.399 -0.9514  0.9284 -0.6648
 6334SOL     OW30460   2.135   3.853   4.084 -0.2092 -0.0481 -0.1156
 6334SOL    HW130461   2.203   3.914   4.056  0.0048 -0.8737 -1.3967
 6334SOL    HW230462   2.085   3.833   4.005  0.1990 -0.3482 -0.2976
 6335SOL     OW30463   2.578   4.040   0.980 -0.0831 -0.1367 -0.0028
 6335SOL    HW130464   2.645   4.001   0.925  2.1463  1.2939  1.7036
 6335SOL    HW230465   2.521   3.965   0.998  0.4411 -0.2552  1.1941
 6336SOL     OW30466   2.417   3.075   7.552 -0.1384  0.1235 -0.5523
 6336SOL    HW130467   2.512   3.082   7.557 -0.1275 -0.0044 -0.5905
 6336SOL    HW230468   2.403   3.109   7.464  2.6735 -0.9202 -1.3839
 6337SOL     OW30469   1.821   1.924   6.033 -0.0787  0.0062  0.3393
 6337SOL    HW130470   1.750   1.859   6.027 -1.1044  0.9363  2.5463
 6337SOL    HW230471   1.898   1.893   5.986 -0.3577  1.4378 -1.0851
 6338SOL     OW30472   4.441   1.766  11.946  0.4916  0.3234 -0.8100
 6338SOL    HW130473   4.389   1.717  12.009  1.2153  0.3636 -0.1789
 6338SOL    HW230474   4.500   1.802  12.013 -1.1733  1.0980  0.2460
 6339SOL     OW30475   2.523   1.772   4.184 -0.5219  0.3511  0.5899
 6339SOL    HW130476   2.486   1.706   4.242 -0.3239 -2.4859 -2.4708
 6339SOL    HW230477   2.509   1.858   4.223  1.9089 -0.0428  2.2835
 6340SOL     OW30478   3.753   3.949  10.333  1.0099 -0.2800  0.1304
 6340SOL    HW130479   3.740   3.901  10.252 -1.2290  3.3179 -1.6485
 6340SOL    HW230480   3.668   3.936  10.375  1.3528  0.7811  1.1508
 6341SOL     OW30481   2.933   2.125  14.824 -0.0745  0.4330  0.3474
 6341SOL    HW130482   2.885   2.117  14.906  0.6828 -0.0012  0.7446
 6341SOL    HW230483   2.927   2.217  14.798  1.5322 -0.0783 -1.8680
 6342SOL     OW30484   4.265   2.547   3.313  0.0043 -0.1551  0.4947
 6342SOL    HW130485   4.196   2.585   3.367  1.4688  2.0763  0.8208
 6342SOL    HW230486   4.331   2.614   3.329 -1.1125  0.9339  0.5328
 6343SOL     OW30487   1.044   2.313   2.383 -0.0948 -0.4232 -0.5552
 6343SOL    HW130488   0.988   2.374   2.335 -0.9262  1.7698  3.2461
 6343SOL    HW230489   1.031   2.233   2.333 -0.3490 -1.6047  1.4131
 6344SOL     OW30490   0.005   4.305   8.717  0.4070 -0.2957 -0.0100
 6344SOL    HW130491   0.064   4.231   8.705  0.3664 -0.2435 -0.5287
 6344SOL    HW230492   0.046   4.358   8.785 -1.1517  0.0113  0.7017
 6345SOL     OW30493   0.968   2.590  10.189  0.6429  0.4377 -0.0620
 6345SOL    HW130494   1.061   2.572  10.198  0.2341 -1.6289  0.0618
 6345SOL    HW230495   0.947   2.574  10.097  1.1158 -0.0456 -0.0801
 6346SOL     OW30496   2.870   3.351  10.424  0.2800 -0.5733  0.2634
 6346SOL    HW130497   2.945   3.339  10.482  1.5234  1.6936 -0.8673
 6346SOL    HW230498   2.836   3.264  10.405  0.7293 -0.7911  0.4482
 6347SOL     OW30499   0.161   0.630   8.985  0.2220  0.1423  0.3619
 6347SOL    HW130500   0.201   0.600   8.903 -1.0965 -0.4341 -0.0758
 6347SOL    HW230501   0.209   0.581   9.052 -0.9846 -2.4166 -0.6498
 6348SOL     OW30502   0.055   2.417   6.456 -0.2139 -0.0603 -0.2011
 6348SOL    HW130503   0.127   2.355   6.467 -0.0379  0.0161 -0.9167
 6348SOL    HW230504   0.086   2.462   6.377 -0.1357 -1.8827 -1.1928
 6349SOL     OW30505   0.837   0.862   4.040  0.0096  0.3058 -0.3893
 6349SOL    HW130506   0.931   0.873   4.055 -0.5348  2.3735  1.4926
 6349SOL    HW230507   0.816   0.883   3.949  1.6433  3.1808 -0.0672
 6350SOL     OW30508   0.367   3.516   2.986 -0.0414  0.6432  0.6708
 6350SOL    HW130509   0.394   3.514   3.078  0.9300 -0.2712  0.3583
 6350SOL    HW230510   0.335   3.605   2.972 -1.5528  0.0590  0.4376
 6351SOL     OW30511   3.479   2.397  16.926 -0.4706  0.1064 -0.2032
 6351SOL    HW130512   3.455   2.312  16.889 -1.0706  1.2792 -2.4854
 6351SOL    HW230513   3.569   2.414  16.897  0.6058 -1.3322  2.2927
 6352SOL     OW30514   3.679   0.463   5.710  0.4211 -0.5241 -0.1633
 6352SOL    HW130515   3.751   0.525   5.697 -0.7081  0.8231  0.0003
 6352SOL    HW230516   3.691   0.441   5.802  1.2671 -2.5455 -0.7641
 6353SOL     OW30517   2.721   2.140  13.449 -0.1291 -0.0660 -0.3028
 6353SOL    HW130518   2.789   2.094  13.498  2.3677  2.6014 -1.2759
 6353SOL    HW230519   2.742   2.103  13.364 -1.6179 -0.2415 -0.5867
 6354SOL     OW30520   1.623   1.148   9.869 -0.3062 -0.3921  0.3058
 6354SOL    HW130521   1.598   1.064   9.908 -2.4066 -1.5785 -3.6482
 6354SOL    HW230522   1.684   1.181   9.935 -2.6409  1.9008  1.3158
 6355SOL     OW30523   3.549   4.386   2.701 -1.1450 -0.1435 -0.2198
 6355SOL    HW130524   3.585   4.331   2.770 -0.5090  1.6320  0.8752
 6355SOL    HW230525   3.592   4.471   2.711  1.6652 -1.3185 -2.2089
 6356SOL     OW30526   1.245   2.799   7.400 -0.4326  0.0138  0.0457
 6356SOL    HW130527   1.224   2.716   7.444 -0.7951 -0.9974 -2.0219
 6356SOL    HW230528   1.341   2.800   7.400 -0.4499  1.6195 -0.6783
 6357SOL     OW30529   0.659   3.908   8.305 -0.7460 -0.1423 -0.0365
 6357SOL    HW130530   0.628   3.909   8.395 -2.1872 -1.1874 -0.5142
 6357SOL    HW230531   0.730   3.844   8.309 -1.0259 -0.5041 -0.9147
 6358SOL     OW30532   1.919   2.822   3.151 -0.3518 -0.1068 -0.3316
 6358SOL    HW130533   1.838   2.801   3.198  0.6493 -1.1075  0.9318
 6358SOL    HW230534   1.936   2.914   3.169  1.2775 -0.0386 -2.2503
 6359SOL     OW30535   2.943   1.711   3.792 -0.6058 -0.6793 -0.1728
 6359SOL    HW130536   2.855   1.715   3.829 -1.2962 -0.0428 -1.8533
 6359SOL    HW230537   2.954   1.622   3.760 -3.1673 -0.1168 -2.6171
 6360SOL     OW30538   4.337   2.147   1.748 -0.1690  0.4489  0.2289
 6360SOL    HW130539   4.417   2.129   1.699 -0.5326  0.4424 -0.3712
 6360SOL    HW230540   4.276   2.171   1.677  0.7777 -1.2178 -1.1513
 6361SOL     OW30541   3.395   3.918  12.641 -0.0193 -0.0284  0.6258
 6361SOL    HW130542   3.327   3.854  12.662  1.0866 -2.1978 -2.4024
 6361SOL    HW230543   3.474   3.863  12.640  0.7981  1.1694 -1.8948
 6362SOL     OW30544   1.744   2.141  15.568  0.7767  0.1186 -0.3326
 6362SOL    HW130545   1.723   2.096  15.487 -0.3706 -1.5720  0.9146
 6362SOL    HW230546   1.699   2.225  15.554  0.4818 -0.0790 -0.5683
 6363SOL     OW30547   3.214   3.536   4.603 -0.3781 -0.0380  0.0067
 6363SOL    HW130548   3.218   3.468   4.671  1.7247  2.3893  2.3116
 6363SOL    HW230549   3.168   3.487   4.535 -2.0014  1.3685  0.0995
 6364SOL     OW30550   0.063   0.536  11.287 -0.1120 -0.0398  0.1416
 6364SOL    HW130551   0.112   0.571  11.361 -1.2257  0.9991  0.3674
 6364SOL    HW230552   4.707   0.513  11.331 -0.5031 -3.0622 -2.1748
 6365SOL     OW30553   1.531   4.233  10.035 -0.1191 -0.0068 -1.0722
 6365SOL    HW130554   1.520   4.266  10.124  0.6020 -1.0527 -0.5949
 6365SOL    HW230555   1.626   4.239  10.032  0.1395 -2.0304  3.5110
 6366SOL     OW30556   3.831   0.046  10.797  0.0448 -0.7492 -0.1538
 6366SOL    HW130557   3.878   4.690  10.775 -0.0857 -0.7267 -0.5167
 6366SOL    HW230558   3.871   0.096  10.726  1.6368 -0.3494  1.0395
 6367SOL     OW30559   2.698   1.548  17.042 -0.3908  0.3203  0.5985
 6367SOL    HW130560   2.745   1.476  17.001  0.2552 -0.2066  2.2753
 6367SOL    HW230561   2.651   1.499  17.109  0.2753  1.1708  1.6942
 6368SOL     OW30562   2.091   3.727   8.412 -0.2933 -0.2231 -0.1129
 6368SOL    HW130563   2.164   3.783   8.440  1.4011 -1.8230 -1.3325
 6368SOL    HW230564   2.016   3.777   8.446  0.4868  0.5720  0.4434
 6369SOL     OW30565   4.365   4.501  15.369 -0.2647 -0.0008 -0.1238
 6369SOL    HW130566   4.303   4.571  15.348  0.7537  1.3991  1.6196
 6369SOL    HW230567   4.409   4.482  15.286 -1.5541  0.1037 -0.8255
 6370SOL     OW30568   0.108   0.843  10.060 -0.2498 -0.0620 -0.0476
 6370SOL    HW130569   0.078   0.779   9.995 -0.5585  1.6530 -1.5874
 6370SOL    HW230570   0.130   0.917  10.005  1.3757 -0.7922 -0.3818
 6371SOL     OW30571   1.166   1.401  10.556  0.0729  0.4774  0.8404
 6371SOL    HW130572   1.095   1.386  10.619  1.1491 -0.9427  1.6922
 6371SOL    HW230573   1.144   1.330  10.496 -1.4151  1.7482 -0.1321
 6372SOL     OW30574   1.366   3.584   4.535 -0.1037  0.1681  0.4390
 6372SOL    HW130575   1.371   3.656   4.473  0.7300 -1.0386 -0.8949
 6372SOL    HW230576   1.291   3.532   4.507 -0.1143  0.6903 -0.4668
 6373SOL     OW30577   4.420   2.703   7.495  0.7862 -0.5142  0.0157
 6373SOL    HW130578   4.515   2.713   7.502  1.1113 -2.1636 -2.1135
 6373SOL    HW230579   4.389   2.687   7.584  3.4975 -1.3204  0.8223
 6374SOL     OW30580   1.361   3.169  12.618 -0.9628  0.0031  0.8621
 6374SOL    HW130581   1.425   3.099  12.626  0.8194  1.2696 -2.0892
 6374SOL    HW230582   1.309   3.163  12.698  0.5273 -0.3970  1.7919
 6375SOL     OW30583   0.464   3.533   3.248  0.2113  0.5133 -0.2986
 6375SOL    HW130584   0.549   3.566   3.220 -0.1229  2.4266  0.9533
 6375SOL    HW230585   0.476   3.541   3.343 -1.6719 -0.0225 -0.0056
 6376SOL     OW30586   4.155   1.879  16.645  0.4586  0.0993  0.2409
 6376SOL    HW130587   4.209   1.909  16.718 -1.0870 -0.0228  1.4234
 6376SOL    HW230588   4.124   1.799  16.688  0.3422  0.8463  1.5504
 6377SOL     OW30589   0.116   0.695   1.971 -0.0018 -0.6195  0.0324
 6377SOL    HW130590   0.164   0.681   1.890 -0.2372 -3.1526  0.3274
 6377SOL    HW230591   0.103   0.789   1.964  1.7374 -0.2157  2.0986
 6378SOL     OW30592   3.863   3.356   7.796 -0.2200 -0.3855 -0.0036
 6378SOL    HW130593   3.835   3.270   7.829 -0.2648 -0.6230 -0.6444
 6378SOL    HW230594   3.822   3.360   7.709 -0.9141  0.2277  0.3559
 6379SOL     OW30595   3.394   4.275   2.934  0.2560 -0.3272 -0.2395
 6379SOL    HW130596   3.333   4.346   2.916 -0.2366 -0.6693  0.0657
 6379SOL    HW230597   3.473   4.324   2.957 -0.5800 -1.1233  4.4961
 6380SOL     OW30598   3.270   0.899   2.167 -0.1833 -0.8543  0.4291
 6380SOL    HW130599   3.191   0.945   2.194 -0.6420  0.2819 -2.9634
 6380SOL    HW230600   3.333   0.900   2.240 -0.4211  0.9102  0.6102
 6381SOL     OW30601   1.016   2.702   1.650  0.3606  0.3213  0.5524
 6381SOL    HW130602   1.040   2.782   1.603  0.1734  0.6389  0.9931
 6381SOL    HW230603   0.980   2.743   1.729  0.1349 -1.2472  1.2570
 6382SOL     OW30604   2.031   0.145  12.519  0.1511  0.3342  0.3853
 6382SOL    HW130605   2.066   0.153  12.430  0.3648  0.6754  0.4995
 6382SOL    HW230606   2.053   0.231  12.555 -0.0459 -0.1064  1.5722
 6383SOL     OW30607   1.300   2.575   3.860 -0.3716 -0.4661  0.0822
 6383SOL    HW130608   1.279   2.608   3.772  2.7870 -0.5992 -0.7382
 6383SOL    HW230609   1.218   2.554   3.904 -1.4552  0.3689 -1.5394
 6384SOL     OW30610   1.780   1.914  12.811  0.0031  0.0299  0.0621
 6384SOL    HW130611   1.693   1.919  12.851 -0.2690 -0.2359 -0.4844
 6384SOL    HW230612   1.806   2.004  12.832  1.5355 -0.5068  0.4387
 6385SOL     OW30613   1.557   3.449  12.243 -0.0893 -0.2162  0.1917
 6385SOL    HW130614   1.572   3.445  12.337  1.0601 -0.2096  0.0075
 6385SOL    HW230615   1.461   3.457  12.243  0.1148  2.1400  2.5087
 6386SOL     OW30616   3.712   2.442   7.735 -0.1446 -1.1934  0.2812
 6386SOL    HW130617   3.676   2.494   7.808 -0.9284 -0.0158 -0.9405
 6386SOL    HW230618   3.631   2.409   7.697  0.3798 -0.3107 -1.6263
 6387SOL     OW30619   4.207   3.010   4.088  0.6109  0.0624 -0.3571
 6387SOL    HW130620   4.217   3.038   3.997  0.5349 -0.3210 -0.4839
 6387SOL    HW230621   4.131   3.063   4.109  0.2588 -0.8049  0.6085
 6388SOL     OW30622   3.077   3.954  12.649  0.2742  0.0316 -0.3034
 6388SOL    HW130623   3.087   3.904  12.568  0.6518  0.1698 -0.3373
 6388SOL    HW230624   3.129   3.907  12.715 -0.2016 -0.5965 -0.3708
 6389SOL     OW30625   3.118   4.647   1.906  0.4853 -0.4642  0.3754
 6389SOL    HW130626   3.044   4.684   1.953  0.3188  0.1670 -0.3743
 6389SOL    HW230627   3.091   4.646   1.814  2.9160 -0.8872 -0.3405
 6390SOL     OW30628   2.943   3.496   6.089 -0.4743 -0.3765  0.0412
 6390SOL    HW130629   3.010   3.429   6.077 -0.3595 -0.6573  2.2183
 6390SOL    HW230630   2.983   3.561   6.147 -3.0618  1.7413 -0.5515
 6391SOL     OW30631   3.593   3.414   4.712  0.8035 -0.0954 -0.5042
 6391SOL    HW130632   3.594   3.323   4.685 -0.0681 -0.6113  1.1947
 6391SOL    HW230633   3.556   3.414   4.801 -0.1485 -0.6012 -0.9088
 6392SOL     OW30634   0.705   2.510   2.592 -0.2575 -0.9495  0.1812
 6392SOL    HW130635   0.612   2.490   2.605  0.0109 -1.4997  1.2715
 6392SOL    HW230636   0.736   2.422   2.570  1.0621 -0.4189 -0.0708
 6393SOL     OW30637   2.471   1.580   0.519 -0.1818  0.3514  0.3990
 6393SOL    HW130638   2.558   1.546   0.543  0.3206  2.4792  1.6617
 6393SOL    HW230639   2.447   1.496   0.480  0.4129  0.1466  0.4589
 6394SOL     OW30640   4.204   3.075   2.037  0.2332  0.5119 -0.1462
 6394SOL    HW130641   4.152   3.128   2.098 -0.2975  1.1896 -1.1903
 6394SOL    HW230642   4.128   3.053   1.983  1.5318 -0.4400 -1.6143
 6395SOL     OW30643   4.715   4.612  14.672  0.0112 -0.0312  0.2380
 6395SOL    HW130644   0.046   4.631  14.747  0.6434  2.1529 -0.8009
 6395SOL    HW230645   4.721   4.694  14.623 -0.0276 -0.0608  0.1828
 6396SOL     OW30646   3.282   4.220   7.860  0.0690  0.0320  0.4331
 6396SOL    HW130647   3.281   4.157   7.788  0.8312 -0.3562  0.7656
 6396SOL    HW230648   3.372   4.252   7.862  0.0879  0.0664 -1.1087
 6397SOL     OW30649   0.459   1.793   3.149 -0.2475 -0.5156  0.0772
 6397SOL    HW130650   0.515   1.758   3.219 -0.7241 -0.0708  0.6793
 6397SOL    HW230651   0.472   1.887   3.161  2.2194 -0.3617 -3.7894
 6398SOL     OW30652   2.899   0.525  10.973  0.2119 -0.1063  0.5746
 6398SOL    HW130653   2.880   0.504  11.064  1.1609 -0.8747  0.5799
 6398SOL    HW230654   2.903   0.434  10.944 -0.9797  1.1623 -3.6116
 6399SOL     OW30655   4.329   0.650   5.704  0.1468 -0.1475 -0.5651
 6399SOL    HW130656   4.248   0.687   5.669 -0.0891 -0.2756 -0.1594
 6399SOL    HW230657   4.341   0.567   5.659 -0.2930  0.3189 -1.5326
 6400SOL     OW30658   3.157   3.150   3.393  0.1910 -0.0095 -0.6227
 6400SOL    HW130659   3.240   3.117   3.427  0.4774  0.7678 -0.5514
 6400SOL    HW230660   3.106   3.073   3.416  1.9430 -1.0433 -0.1327
 6401SOL     OW30661   1.495   1.186   5.773  0.2654  0.0796  0.1718
 6401SOL    HW130662   1.502   1.183   5.678  0.3710  1.8244  0.1336
 6401SOL    HW230663   1.495   1.093   5.798 -1.4246  0.5617  1.9572
 6402SOL     OW30664   3.572   2.130   3.609 -0.2148 -0.1225  0.2239
 6402SOL    HW130665   3.591   2.058   3.669  1.3996 -0.6963 -0.9959
 6402SOL    HW230666   3.651   2.136   3.555  0.1614 -3.0180  0.4660
 6403SOL     OW30667   1.624   0.126   8.821  0.0881 -0.3106 -0.4472
 6403SOL    HW130668   1.647   0.099   8.910 -0.8909 -0.4781 -0.2410
 6403SOL    HW230669   1.531   0.102   8.823 -0.5888  2.1900 -1.7693
 6404SOL     OW30670   0.801   4.487   3.537  0.2449 -0.1274  0.2470
 6404SOL    HW130671   0.815   4.456   3.626  0.0309  1.0638  0.6813
 6404SOL    HW230672   0.744   4.417   3.503  1.9838 -0.5996 -1.7570
 6405SOL     OW30673   2.631   4.653   9.089 -0.7233 -0.4627 -0.4893
 6405SOL    HW130674   2.684   0.008   9.082  0.8926 -1.4547  0.3802
 6405SOL    HW230675   2.574   4.649   9.012 -0.4568  1.6752 -0.7937
 6406SOL     OW30676   0.803   4.680  13.671 -0.9861  0.3658 -0.2307
 6406SOL    HW130677   0.729   4.664  13.612  0.0982 -1.9577 -0.9883
 6406SOL    HW230678   0.764   4.655  13.755  1.8852  1.1573  1.3266
 6407SOL     OW30679   1.461   4.315  10.610  0.0915 -0.2231  0.3334
 6407SOL    HW130680   1.413   4.335  10.690 -0.0266 -1.7065  0.6334
 6407SOL    HW230681   1.529   4.382  10.619 -0.6890  0.6421 -0.1799
 6408SOL     OW30682   1.200   2.897   2.734 -0.0366  0.1208 -0.2236
 6408SOL    HW130683   1.157   2.874   2.817  2.3836 -1.2076  0.6682
 6408SOL    HW230684   1.131   2.950   2.694  0.7061  1.1185 -0.1657
 6409SOL     OW30685   2.373   1.973   0.477  0.3068  0.0043 -0.2383
 6409SOL    HW130686   2.310   1.901   0.479  0.2025  0.0747 -0.9630
 6409SOL    HW230687   2.456   1.935   0.506 -1.4010 -2.7266  0.9668
 6410SOL     OW30688   0.438   2.846   4.897  0.3496  0.6273  0.5159
 6410SOL    HW130689   0.413   2.936   4.916 -0.7158  0.6218 -0.8460
 6410SOL    HW230690   0.354   2.804   4.915 -0.5871  2.6259  0.8170
 6411SOL     OW30691   3.863   3.977   5.969  0.2710 -0.0021  0.6456
 6411SOL    HW130692   3.900   3.890   5.954  0.5631  0.2528 -0.1167
 6411SOL    HW230693   3.880   4.028   5.890  2.6117 -1.0021  0.5099
 6412SOL     OW30694   1.494   0.684   2.558 -0.2532  0.4080  0.2732
 6412SOL    HW130695   1.470   0.678   2.466 -0.4254  0.0856  0.3404
 6412SOL    HW230696   1.413   0.684   2.610 -0.5998 -1.0702 -0.2537
 6413SOL     OW30697   3.383   0.799  15.757  0.2163  0.3347  0.4914
 6413SOL    HW130698   3.451   0.789  15.690  0.5225 -1.0205  1.0147
 6413SOL    HW230699   3.415   0.865  15.819 -0.3361  1.0122  0.0505
 6414SOL     OW30700   0.406   4.070  16.830 -0.5539  0.4570  0.4364
 6414SOL    HW130701   0.499   4.067  16.807 -0.8577 -2.0449 -0.5136
 6414SOL    HW230702   0.408   3.993  16.887  2.1921  0.4719  0.3469
 6415SOL     OW30703   0.516   0.352   7.907 -0.4349 -0.4123  0.2467
 6415SOL    HW130704   0.596   0.392   7.875  0.0611  0.1275  2.1656
 6415SOL    HW230705   0.492   0.409   7.980 -1.2200  0.0575 -0.3737
 6416SOL     OW30706   2.429   1.455  10.361  0.2125  0.4840 -0.2742
 6416SOL    HW130707   2.366   1.511  10.407 -0.1604 -0.5161  0.4292
 6416SOL    HW230708   2.420   1.373  10.409 -1.7810  0.7533 -0.1785
 6417SOL     OW30709   2.112   4.223   8.738  0.1570  0.2125 -0.3267
 6417SOL    HW130710   2.182   4.193   8.796  0.6588 -1.1367 -1.6174
 6417SOL    HW230711   2.143   4.312   8.723  0.5609  0.3028  1.0671
 6418SOL     OW30712   1.579   0.427  14.154  0.2700 -0.7971  0.3542
 6418SOL    HW130713   1.501   0.383  14.187  0.0704 -1.4494 -0.9814
 6418SOL    HW230714   1.561   0.416  14.060  1.9986 -2.3325  0.2079
 6419SOL     OW30715   4.094   2.767   7.233 -0.0988 -0.1727  0.7708
 6419SOL    HW130716   4.185   2.794   7.222 -1.0159  1.8271 -1.9296
 6419SOL    HW230717   4.086   2.787   7.326  1.8907  0.1840  0.8517
 6420SOL     OW30718   2.354   3.055   4.601  0.1846 -0.1561  0.1968
 6420SOL    HW130719   2.384   3.114   4.671  1.9613  1.2970 -1.8119
 6420SOL    HW230720   2.338   3.101   4.519  1.7098 -1.7255 -0.9564
 6421SOL     OW30721   2.553   4.529   4.801  0.0078 -0.2611  1.0317
 6421SOL    HW130722   2.553   4.448   4.750 -0.0844  0.9906 -0.9387
 6421SOL    HW230723   2.466   4.559   4.776  0.5593  0.9278  0.5710
 6422SOL     OW30724   2.728   2.129   8.821 -0.1176 -0.2460  0.0058
 6422SOL    HW130725   2.709   2.174   8.904  0.8772 -1.1209  0.7171
 6422SOL    HW230726   2.717   2.202   8.761  1.4465 -0.2816 -0.3444
 6423SOL     OW30727   1.387   3.587  10.214 -0.5713  0.2394 -0.2510
 6423SOL    HW130728   1.447   3.642  10.163  3.5337 -2.3914  1.7263
 6423SOL    HW230729   1.304   3.618  10.178  0.0178  0.3631 -1.5269
 6424SOL     OW30730   2.582   2.286   8.635  0.0160  0.4741  0.7486
 6424SOL    HW130731   2.544   2.200   8.651 -1.0015  0.4307 -1.8309
 6424SOL    HW230732   2.574   2.290   8.539  1.6883  3.0734  0.7123
 6425SOL     OW30733   1.624   2.386  15.695  0.3288  0.2029 -0.3363
 6425SOL    HW130734   1.534   2.368  15.669  0.6672  0.4180 -1.6651
 6425SOL    HW230735   1.615   2.394  15.790  2.2814  0.0821 -0.1423
 6426SOL     OW30736   0.295   3.044   6.125  0.2351 -0.1896  0.4390
 6426SOL    HW130737   0.329   3.089   6.203  1.7471 -1.7757  0.6797
 6426SOL    HW230738   0.357   3.056   6.054 -0.2052 -1.7856 -0.1942
 6427SOL     OW30739   3.836   3.291   1.540  0.3439 -0.3930 -0.0729
 6427SOL    HW130740   3.862   3.357   1.605  0.0654  0.1736 -0.5375
 6427SOL    HW230741   3.825   3.214   1.595 -1.1606 -0.6775 -0.7570
 6428SOL     OW30742   3.527   1.427   6.283  0.0933 -0.0222 -0.1339
 6428SOL    HW130743   3.545   1.516   6.251  0.3151 -0.5200 -1.3764
 6428SOL    HW230744   3.455   1.440   6.345 -1.2442 -1.9113 -1.2997
 6429SOL     OW30745   3.990   3.931   8.500  0.0401  0.1206  0.2490
 6429SOL    HW130746   4.075   3.956   8.461 -0.0705 -3.3630 -2.2058
 6429SOL    HW230747   3.926   3.947   8.431  0.9289 -3.9082 -1.5065
 6430SOL     OW30748   4.657   1.234   5.461 -0.3012  0.1113  0.0849
 6430SOL    HW130749   0.005   1.276   5.506  0.3794 -0.5297 -0.4041
 6430SOL    HW230750   4.697   1.228   5.375  0.6839 -0.3883  0.5767
 6431SOL     OW30751   3.517   3.915   8.588  0.2077  0.7483 -0.5695
 6431SOL    HW130752   3.452   3.985   8.586 -0.1940  0.4260  1.6973
 6431SOL    HW230753   3.599   3.960   8.610  0.0806  0.8296 -0.2577
 6432SOL     OW30754   4.399   0.279   4.819  0.0950  0.1651 -0.6559
 6432SOL    HW130755   4.458   0.286   4.744  0.5695  1.0802 -0.1925
 6432SOL    HW230756   4.380   0.186   4.835  1.1227 -0.0580 -0.6732
 6433SOL     OW30757   2.884   2.186   8.065 -0.1753 -0.0069 -0.3592
 6433SOL    HW130758   2.791   2.165   8.063  0.0525 -0.9415 -0.9254
 6433SOL    HW230759   2.882   2.273   8.105  3.5385  0.2868 -0.7511
 6434SOL     OW30760   2.473   1.918   1.920  0.1003 -0.5795 -0.0798
 6434SOL    HW130761   2.395   1.972   1.906  1.4201  1.1141 -0.9137
 6434SOL    HW230762   2.541   1.984   1.907 -0.0546 -0.5999 -0.9409
 6435SOL     OW30763   3.988   4.170   0.344 -0.4716 -0.3092 -0.3330
 6435SOL    HW130764   3.947   4.240   0.396 -0.3898 -1.5421  1.3878
 6435SOL    HW230765   4.048   4.218   0.287  0.7824 -0.7098  0.6520
 6436SOL     OW30766   2.282   4.057   2.810 -0.3343 -0.0383 -0.2811
 6436SOL    HW130767   2.207   4.114   2.790 -1.7617 -2.1354 -0.9962
 6436SOL    HW230768   2.240   3.972   2.797 -1.0536  0.3734 -0.7279
 6437SOL     OW30769   2.660   1.885  17.418  0.3787 -0.1329  0.1405
 6437SOL    HW130770   2.677   1.847  17.332  4.0376  0.6118  0.5360
 6437SOL    HW230771   2.699   1.819  17.475  1.4151  0.9509  0.7083
 6438SOL     OW30772   2.112   3.176   1.876  0.2657  0.2908 -0.1120
 6438SOL    HW130773   2.057   3.211   1.807  0.3887 -1.2184 -0.9778
 6438SOL    HW230774   2.135   3.266   1.899 -0.7242  0.4996  0.0745
 6439SOL     OW30775   1.142   1.918   4.728 -0.1337 -0.1129  0.2392
 6439SOL    HW130776   1.111   1.952   4.644 -4.1464 -0.4740  1.6033
 6439SOL    HW230777   1.170   2.005   4.757  0.7495  0.9167 -3.6823
 6440SOL     OW30778   1.000   0.790   7.574 -0.3000  0.3175 -0.1376
 6440SOL    HW130779   1.029   0.784   7.483 -1.8003  0.4209 -0.6252
 6440SOL    HW230780   1.029   0.879   7.594 -1.8060  0.8036 -0.1797
 6441SOL     OW30781   3.405   4.119   7.044  0.7218 -0.3674  0.0334
 6441SOL    HW130782   3.362   4.052   7.098  0.7367  1.4839  2.3924
 6441SOL    HW230783   3.440   4.181   7.108 -0.6800  0.8218 -0.3470
 6442SOL     OW30784   3.196   3.056  17.059 -0.0537 -0.0437 -0.1263
 6442SOL    HW130785   3.154   2.971  17.066  1.0199 -0.4792  1.0524
 6442SOL    HW230786   3.136   3.103  17.001  0.1555 -1.5849 -1.5725
 6443SOL     OW30787   1.452   0.112   5.243 -0.4652  0.3611 -0.3428
 6443SOL    HW130788   1.488   0.199   5.230  1.8673 -0.1372  2.9219
 6443SOL    HW230789   1.484   0.061   5.167 -1.5949  1.3681 -1.4917
 6444SOL     OW30790   3.270   3.016  14.575 -0.1601  0.1842 -0.2976
 6444SOL    HW130791   3.214   3.032  14.499  1.3543 -1.2177 -1.7128
 6444SOL    HW230792   3.247   2.926  14.599 -0.4455  0.0111 -1.1946
 6445SOL     OW30793   2.007   1.002   8.754  0.0320 -0.1999 -0.3546
 6445SOL    HW130794   1.921   0.971   8.783  0.7928 -0.2514  1.8834
 6445SOL    HW230795   2.026   1.057   8.830 -0.2449 -0.8338  0.1784
 6446SOL     OW30796   0.657   0.564  15.796  0.2997 -0.1110  0.2878
 6446SOL    HW130797   0.654   0.614  15.714 -1.2272 -0.5516  0.0773
 6446SOL    HW230798   0.683   0.479  15.759  0.4623  0.2039 -0.3225
 6447SOL     OW30799   0.102   3.367  11.806 -0.4746 -0.1379 -0.0171
 6447SOL    HW130800   0.093   3.438  11.869  0.8384  0.8984 -0.9936
 6447SOL    HW230801   0.086   3.413  11.723 -0.2192  1.6045  0.8923
 6448SOL     OW30802   3.521   4.599   8.040 -0.1781  0.0863  0.7362
 6448SOL    HW130803   3.563   4.520   8.074  2.2067  0.6488 -0.9741
 6448SOL    HW230804   3.449   4.616   8.101  0.9822  2.8368  1.2940
 6449SOL     OW30805   2.654   3.316  12.562 -0.6733 -0.6563 -0.1703
 6449SOL    HW130806   2.711   3.337  12.488  0.4268 -0.9882  0.5942
 6449SOL    HW230807   2.584   3.268  12.518  1.4930 -0.8783 -3.3703
 6450SOL     OW30808   0.822   4.173  11.736  0.5833 -0.1749  0.1885
 6450SOL    HW130809   0.897   4.118  11.759  1.0293  0.7745  1.0001
 6450SOL    HW230810   0.755   4.128  11.788 -2.4690  1.7932 -2.0713
 6451SOL     OW30811   2.292   3.258   6.811  0.2209  0.2208  0.0695
 6451SOL    HW130812   2.209   3.215   6.830  0.0506  0.8726  0.7930
 6451SOL    HW230813   2.327   3.266   6.900 -0.8495 -3.2466  0.8328
 6452SOL     OW30814   4.143   2.156  12.030  0.5630  0.1536 -0.2620
 6452SOL    HW130815   4.163   2.238  11.986  3.4856 -1.1348 -1.2722
 6452SOL    HW230816   4.193   2.093  11.978 -1.3123 -0.6723 -1.0949
 6453SOL     OW30817   1.109   1.629   9.359 -0.1244  0.0349  0.3998
 6453SOL    HW130818   1.141   1.540   9.374 -2.0271 -0.5703  0.7460
 6453SOL    HW230819   1.028   1.617   9.407  0.3170 -0.4257  1.0341
 6454SOL     OW30820   3.158   2.988   2.712  0.1902  0.1467  0.1957
 6454SOL    HW130821   3.137   3.003   2.620 -0.0296 -2.7928 -0.2211
 6454SOL    HW230822   3.074   2.949   2.736  0.5865 -1.5315 -1.1582
 6455SOL     OW30823   4.473   1.146  12.737 -0.1970  0.1251  0.2869
 6455SOL    HW130824   4.539   1.078  12.751  1.5661  1.6462 -0.4591
 6455SOL    HW230825   4.427   1.144  12.821 -0.2201  0.3839  0.2827
 6456SOL     OW30826   3.571   0.848   4.834  0.2025 -0.5995 -0.1155
 6456SOL    HW130827   3.536   0.902   4.763  0.3410  0.1863  0.4197
 6456SOL    HW230828   3.658   0.884   4.849 -1.8053  4.5920 -1.1985
 6457SOL     OW30829   2.676   2.379  10.772  0.1234 -0.3844 -0.0918
 6457SOL    HW130830   2.762   2.417  10.790  0.2752 -1.3102  1.1030
 6457SOL    HW230831   2.689   2.326  10.693 -0.5659  0.0774 -0.5116
 6458SOL     OW30832   3.726   1.510   9.605 -0.4950  0.1855 -0.4961
 6458SOL    HW130833   3.763   1.542   9.523  1.2773 -2.0848 -0.5712
 6458SOL    HW230834   3.642   1.473   9.576 -1.0913  2.2767 -1.4588
 6459SOL     OW30835   3.805   2.266  15.921 -0.5175 -0.2189 -0.0389
 6459SOL    HW130836   3.856   2.330  15.873  3.6966 -2.4507  1.4596
 6459SOL    HW230837   3.767   2.325  15.986  0.7958  0.9906 -0.4012
 6460SOL     OW30838   1.767   2.504   5.913  0.2710  0.1316  0.2007
 6460SOL    HW130839   1.812   2.544   5.839 -0.3079  2.7732  1.2862
 6460SOL    HW230840   1.788   2.566   5.983  2.9024 -0.2341 -0.2765
 6461SOL     OW30841   4.075   2.551   3.861 -0.3743 -0.5753 -0.1517
 6461SOL    HW130842   4.018   2.613   3.816 -0.1788  1.7897  2.8975
 6461SOL    HW230843   4.137   2.609   3.905  1.9985 -2.2944 -1.1882
 6462SOL     OW30844   1.513   4.197  13.302  0.5666 -0.1777  0.5687
 6462SOL    HW130845   1.588   4.188  13.361  0.9049 -0.4538  0.0972
 6462SOL    HW230846   1.486   4.107  13.287 -2.7650  0.4610  2.8926
 6463SOL     OW30847   3.411   2.979  16.888 -0.3445  0.5112  0.1778
 6463SOL    HW130848   3.465   3.058  16.887  0.5958 -0.1565 -2.8163
 6463SOL    HW230849   3.366   3.002  16.969 -0.7941 -0.7474  0.2847
 6464SOL     OW30850   1.779   3.264   4.569 -0.0956 -0.5196  0.0408
 6464SOL    HW130851   1.752   3.266   4.660 -1.9019  0.4250 -0.5210
 6464SOL    HW230852   1.874   3.273   4.573 -0.2509 -0.9324  4.5646
 6465SOL     OW30853   1.412   1.839   1.879  0.0150 -0.2174  0.3939
 6465SOL    HW130854   1.463   1.788   1.942  1.4639  0.3442 -0.3153
 6465SOL    HW230855   1.478   1.844   1.810  0.0024 -1.3372  0.2993
 6466SOL     OW30856   0.638   2.519  10.152 -0.0695  0.2458  0.0702
 6466SOL    HW130857   0.730   2.521  10.177 -0.2634  0.8725  0.7421
 6466SOL    HW230858   0.641   2.434  10.109 -2.4306  1.0715 -1.7264
 6467SOL     OW30859   0.396   2.404  13.643 -0.9895  0.1703 -0.0212
 6467SOL    HW130860   0.359   2.369  13.562  0.3280  0.4587 -0.7485
 6467SOL    HW230861   0.451   2.336  13.682  1.0661  1.2461 -1.0351
 6468SOL     OW30862   2.582   4.010   2.207 -0.0899 -0.0540  0.4996
 6468SOL    HW130863   2.581   3.953   2.284  0.1556  2.0894  2.0941
 6468SOL    HW230864   2.580   4.102   2.233 -1.2470 -0.6065  2.3183
 6469SOL     OW30865   2.476   1.243   3.723  0.7231  0.2755  0.3919
 6469SOL    HW130866   2.428   1.222   3.643  0.9979  1.1572 -0.0019
 6469SOL    HW230867   2.564   1.244   3.687  0.1009  1.5635 -1.0982
 6470SOL     OW30868   0.981   1.424   3.157 -0.2458  0.0461  0.2596
 6470SOL    HW130869   0.937   1.436   3.073  0.0192  0.1404  0.1329
 6470SOL    HW230870   0.948   1.340   3.189 -2.8687  0.8926 -0.2666
 6471SOL     OW30871   0.817   1.080  12.156  0.2707 -0.2606  0.5760
 6471SOL    HW130872   0.785   0.991  12.144 -0.7878  0.3253 -0.9455
 6471SOL    HW230873   0.791   1.115  12.070 -0.1040 -1.2374  0.2911
 6472SOL     OW30874   1.396   1.522   6.094  0.4455 -0.3147 -0.2655
 6472SOL    HW130875   1.431   1.433   6.103 -0.7706 -0.8469 -0.7181
 6472SOL    HW230876   1.457   1.557   6.029 -0.0757 -1.8540 -1.5871
 6473SOL     OW30877   4.446   1.963   0.769  0.0155  0.2666 -0.3432
 6473SOL    HW130878   4.440   2.058   0.778 -2.9137  0.0510  0.0340
 6473SOL    HW230879   4.491   1.951   0.685  0.3336 -0.0143 -0.1322
 6474SOL     OW30880   1.001   4.427   8.003  0.0661  0.0268 -0.1346
 6474SOL    HW130881   1.048   4.348   7.977  0.3691  0.5046 -1.0159
 6474SOL    HW230882   0.948   4.400   8.078  0.9741  3.5315  1.7718
 6475SOL     OW30883   1.740   0.171   2.943  0.0217 -0.0012  0.4186
 6475SOL    HW130884   1.723   0.151   2.851 -0.1693 -1.1052  0.6936
 6475SOL    HW230885   1.760   0.083   2.977 -0.6921 -0.0343  0.7438
 6476SOL     OW30886   0.837   3.680   7.499 -0.0463 -0.2837 -0.2253
 6476SOL    HW130887   0.920   3.726   7.508  0.4035 -0.9745 -0.8506
 6476SOL    HW230888   0.876   3.594   7.483  1.7492  0.1122  2.0480
 6477SOL     OW30889   4.219   0.453   7.986  0.0239 -0.1518  0.5701
 6477SOL    HW130890   4.237   0.542   7.955  0.8588  0.0649  1.6529
 6477SOL    HW230891   4.277   0.407   7.926 -2.1511  0.1831 -1.8213
 6478SOL     OW30892   4.211   1.901   7.070  0.5447 -0.1709  0.2669
 6478SOL    HW130893   4.182   1.855   7.149 -1.2171 -1.1962 -0.9655
 6478SOL    HW230894   4.245   1.984   7.104 -2.4512  1.8307 -1.5974
 6479SOL     OW30895   3.658   3.726  15.435  0.1378 -0.5240  0.4060
 6479SOL    HW130896   3.604   3.758  15.508 -1.9534  0.1795 -1.4245
 6479SOL    HW230897   3.676   3.804  15.382 -2.1774  0.7741  1.5144
 6480SOL     OW30898   4.137   3.474   2.374 -0.0699 -0.1780 -0.2335
 6480SOL    HW130899   4.135   3.566   2.348 -4.1428 -0.3586 -0.5738
 6480SOL    HW230900   4.137   3.479   2.469 -1.4129 -1.7843 -0.1522
 6481SOL     OW30901   4.481   3.145  16.738 -0.8583 -0.3605  0.0227
 6481SOL    HW130902   4.575   3.131  16.727 -0.9689 -1.1427  0.0455
 6481SOL    HW230903   4.432   3.086  16.680  0.2761  0.2340 -1.5351
 6482SOL     OW30904   0.898   2.000  11.275 -0.1563 -0.6373  0.1902
 6482SOL    HW130905   0.820   2.050  11.299  0.3413  0.3433 -0.2129
 6482SOL    HW230906   0.959   2.074  11.266  0.8466 -1.1981  2.4527
 6483SOL     OW30907   3.802   0.799  11.702 -0.4789 -0.8698 -0.8142
 6483SOL    HW130908   3.895   0.800  11.723 -0.4255 -0.0609 -1.1049
 6483SOL    HW230909   3.789   0.704  11.698 -0.2456 -0.8769 -1.3529
 6484SOL     OW30910   2.041   0.895   9.671 -0.7062  0.5439  0.3078
 6484SOL    HW130911   1.977   0.829   9.642 -1.2519  1.0788  0.2942
 6484SOL    HW230912   2.001   0.954   9.734  0.8560  1.2974  0.5769
 6485SOL     OW30913   0.493   2.273  15.551  0.2822  0.1412  0.2863
 6485SOL    HW130914   0.408   2.231  15.537 -0.5236  1.8340  0.0932
 6485SOL    HW230915   0.550   2.206  15.513  2.0538  1.0892  1.2650
 6486SOL     OW30916   1.233   1.058   9.304 -0.0715  0.2893  0.8772
 6486SOL    HW130917   1.287   1.011   9.368 -2.3547 -0.9526  1.9057
 6486SOL    HW230918   1.272   1.146   9.305  2.1438 -0.6836  1.4412
 6487SOL     OW30919   2.899   3.917   4.298 -0.3774  0.5627 -0.5642
 6487SOL    HW130920   2.841   3.841   4.294  2.2185 -1.4393 -0.0765
 6487SOL    HW230921   2.957   3.897   4.225  2.1788  1.0841  1.3542
 6488SOL     OW30922   1.712   4.588   3.478 -0.3902  0.2448 -0.1400
 6488SOL    HW130923   1.730   4.496   3.493 -0.3740 -0.0191 -1.7412
 6488SOL    HW230924   1.743   4.624   3.561  1.6087  1.0198 -1.2140
 6489SOL     OW30925   2.263   3.498  10.391 -0.2105 -1.0521  0.5541
 6489SOL    HW130926   2.254   3.589  10.362  1.7753 -1.0845 -0.1524
 6489SOL    HW230927   2.197   3.484  10.459  0.0024  0.0539  0.9883
 6490SOL     OW30928   4.643   1.072   4.631  0.0220 -0.4051  0.3582
 6490SOL    HW130929   4.636   1.083   4.725  1.3051  1.1205  0.2763
 6490SOL    HW230930   4.639   1.164   4.604  0.2804 -0.4332  0.2290
 6491SOL     OW30931   4.483   3.850   8.502 -0.5498 -0.6081  0.1290
 6491SOL    HW130932   4.424   3.779   8.525 -0.0300 -1.2148 -0.4006
 6491SOL    HW230933   4.520   3.869   8.588  1.6118 -0.8503 -0.7508
 6492SOL     OW30934   4.092   2.637   4.745  0.0430  0.7558 -0.4217
 6492SOL    HW130935   4.112   2.727   4.768  0.5174  0.9045 -1.4074
 6492SOL    HW230936   4.180   2.601   4.757 -0.3838 -0.2059 -0.1361
 6493SOL     OW30937   1.557   2.839  15.146 -0.2591 -0.0940  0.0919
 6493SOL    HW130938   1.597   2.909  15.198  0.2631  0.3039 -0.8445
 6493SOL    HW230939   1.495   2.797  15.206  0.9307 -0.5047  1.0108
 6494SOL     OW30940   3.527   4.486  15.763 -0.0696 -0.9521  0.2578
 6494SOL    HW130941   3.536   4.454  15.673 -0.0280  1.7080 -0.6884
 6494SOL    HW230942   3.597   4.551  15.766  0.3737 -1.4895  1.3895
 6495SOL     OW30943   0.924   3.011   3.651 -0.0690  0.7215 -0.5627
 6495SOL    HW130944   0.964   3.079   3.705 -1.4059 -0.4932  1.9532
 6495SOL    HW230945   0.944   3.045   3.565  0.5827  0.1371 -0.6420
 6496SOL     OW30946   1.100   1.016   4.736  0.7811  0.7862  0.2666
 6496SOL    HW130947   1.139   1.090   4.689  0.7581 -1.0762 -2.6983
 6496SOL    HW230948   1.017   1.054   4.765  1.7889  2.9447  0.3359
 6497SOL     OW30949   0.418   0.430   7.460  0.2031 -0.0474  0.0601
 6497SOL    HW130950   0.503   0.442   7.417 -0.4088  0.8273 -0.9118
 6497SOL    HW230951   0.365   0.486   7.403 -1.5402 -1.6129  0.1567
 6498SOL     OW30952   1.726   1.300   2.450 -0.0620  0.2569 -0.2888
 6498SOL    HW130953   1.670   1.255   2.514  1.3164  0.0793  0.8042
 6498SOL    HW230954   1.788   1.349   2.504 -0.5118 -0.7691  1.1647
 6499SOL     OW30955   0.930   1.700   7.774 -0.4990  0.1324 -0.5470
 6499SOL    HW130956   0.838   1.688   7.754 -0.2951  1.5375 -2.3318
 6499SOL    HW230957   0.954   1.617   7.816  0.9396  0.7507 -0.1557
 6500SOL     OW30958   4.410   4.472   2.734 -0.4340  1.1810 -0.4068
 6500SOL    HW130959   4.420   4.462   2.639  0.3977  0.7078 -0.2750
 6500SOL    HW230960   4.495   4.434   2.758 -0.0616  2.2265 -0.0923
 6501SOL     OW30961   0.392   1.706  14.915 -0.0282 -0.1212 -0.4959
 6501SOL    HW130962   0.473   1.727  14.869  0.3657  0.3035  0.3721
 6501SOL    HW230963   0.401   1.614  14.939  0.3017 -0.1343 -0.6876
 6502SOL     OW30964   0.046   1.403  15.944 -0.8882  0.5987  0.6110
 6502SOL    HW130965   0.045   1.494  15.914  0.5728 -0.1076 -1.6573
 6502SOL    HW230966   0.010   1.414  16.032  0.5864 -2.8919  1.6154
 6503SOL     OW30967   2.612   1.681   6.122 -0.3039  0.5838 -0.0428
 6503SOL    HW130968   2.607   1.634   6.205  0.1099  0.8091  0.1066
 6503SOL    HW230969   2.706   1.678   6.107 -0.5397 -1.1805 -1.1065
 6504SOL     OW30970   1.758   4.509   1.863  0.2468 -0.8202  0.4217
 6504SOL    HW130971   1.748   4.547   1.776 -0.5576  2.1205  1.7599
 6504SOL    HW230972   1.817   4.438   1.839  0.6283 -0.1312 -0.6799
 6505SOL     OW30973   3.191   1.922  15.552 -0.0759 -0.2178  0.0159
 6505SOL    HW130974   3.225   1.919  15.463  0.8058  2.6128  0.2420
 6505SOL    HW230975   3.270   1.930  15.607 -0.2789  2.9005 -0.1799
 6506SOL     OW30976   3.677   3.297   5.411 -0.7327 -0.2177 -0.1415
 6506SOL    HW130977   3.746   3.348   5.368 -0.2136  0.1611  1.1254
 6506SOL    HW230978   3.618   3.369   5.432 -1.0884 -0.5142 -0.1272
 6507SOL     OW30979   0.831   2.813   9.638  0.5291 -0.5779  0.0739
 6507SOL    HW130980   0.814   2.904   9.659  0.2863 -0.2341 -1.5903
 6507SOL    HW230981   0.826   2.772   9.724 -0.4218 -1.6287 -0.4777
 6508SOL     OW30982   3.907   0.244   3.970  0.0519  0.1729 -0.1083
 6508SOL    HW130983   3.847   0.199   4.030  0.0381  0.1965 -0.1041
 6508SOL    HW230984   3.990   0.244   4.018 -1.1539  1.3374  2.0091
 6509SOL     OW30985   0.600   4.257   4.469 -0.5947  0.6568 -0.2824
 6509SOL    HW130986   0.529   4.203   4.435 -0.3783  1.2593 -1.7091
 6509SOL    HW230987   0.546   4.310   4.528  0.2371  0.1224  0.9686
 6510SOL     OW30988   0.958   0.375   0.426 -0.0101  0.5185 -0.2447
 6510SOL    HW130989   0.871   0.406   0.450 -0.1583  0.9002 -1.2784
 6510SOL    HW230990   0.984   0.432   0.353 -0.0936 -2.1391 -2.3254
 6511SOL     OW30991   1.605   3.152   5.932 -0.2511 -0.1807  0.2447
 6511SOL    HW130992   1.645   3.119   6.012 -0.7646 -0.3146  0.4470
 6511SOL    HW230993   1.521   3.184   5.966 -1.1413 -1.2997 -0.9220
 6512SOL     OW30994   0.903   4.148  15.725 -0.3588 -0.5545 -0.4089
 6512SOL    HW130995   0.842   4.173  15.655 -3.2433 -0.1026  2.2512
 6512SOL    HW230996   0.882   4.219  15.786 -1.3304 -0.5246 -0.7793
 6513SOL     OW30997   2.975   4.662   3.490  0.3320  0.3046  0.1360
 6513SOL    HW130998   2.958   4.724   3.420 -1.7087  0.8771  1.1314
 6513SOL    HW230999   2.969   4.725   3.562  1.9149 -0.2605  0.7687
 6514SOL     OW31000   1.325   1.113   2.720  0.0264  0.1407 -0.2138
 6514SOL    HW131001   1.381   1.185   2.694  0.9125 -0.4916 -0.0686
 6514SOL    HW231002   1.278   1.104   2.637  0.6287 -0.1785 -0.5189
 6515SOL     OW31003   3.033   0.121   0.535  0.1353 -0.0490  0.5317
 6515SOL    HW131004   2.954   0.089   0.494 -1.0927  0.7401  2.2759
 6515SOL    HW231005   2.996   0.190   0.590 -2.8658 -2.4176  1.4606
 6516SOL     OW31006   1.718   4.454   8.313  0.0310  0.1086 -0.1929
 6516SOL    HW131007   1.765   4.506   8.247  1.2301 -0.1970  0.4312
 6516SOL    HW231008   1.628   4.486   8.305 -0.2118 -0.3765  0.5992
 6517SOL     OW31009   1.031   3.004   8.250 -0.5307 -0.3101 -0.4422
 6517SOL    HW131010   1.013   3.092   8.283 -0.9332 -0.8122  0.6771
 6517SOL    HW231011   1.016   2.952   8.328 -0.5784  1.0980  0.4828
 6518SOL     OW31012   3.373   3.591   8.255  0.6163 -0.0734  0.2391
 6518SOL    HW131013   3.370   3.669   8.311  0.0987  1.4236 -1.8661
 6518SOL    HW231014   3.311   3.617   8.187  0.4909  0.5324  0.5792
 6519SOL     OW31015   3.939   2.027   5.864  0.4430  0.0368 -0.0598
 6519SOL    HW131016   3.915   2.094   5.800  0.3094  0.8026  0.7881
 6519SOL    HW231017   4.020   1.999   5.822 -0.3784 -0.6046 -1.1999
 6520SOL     OW31018   0.832   1.969  11.713 -0.1086 -0.2095 -0.5097
 6520SOL    HW131019   0.787   1.929  11.787 -1.3625  1.1952 -0.5286
 6520SOL    HW231020   0.806   2.058  11.737  0.6860 -0.1774  0.2468
 6521SOL     OW31021   2.277   3.531  16.180  0.3115  0.0292 -0.1623
 6521SOL    HW131022   2.319   3.451  16.210 -0.9506 -0.2259  0.8663
 6521SOL    HW231023   2.235   3.497  16.101 -0.9500  1.5247 -0.1272
 6522SOL     OW31024   1.314   1.228  15.115  0.7403 -0.1748  0.0710
 6522SOL    HW131025   1.340   1.144  15.078 -2.0431 -1.2431  0.5902
 6522SOL    HW231026   1.360   1.289  15.057  0.2017  0.8610  0.7257
 6523SOL     OW31027   1.684   0.555   2.707 -0.1326  0.2551  0.0753
 6523SOL    HW131028   1.613   0.605   2.667  1.0580  1.5330 -0.4514
 6523SOL    HW231029   1.753   0.590   2.652 -1.6808  0.8097 -1.5102
 6524SOL     OW31030   1.346   0.516  15.502  0.8600  0.1390 -0.8016
 6524SOL    HW131031   1.399   0.442  15.473 -0.0888 -0.4591 -0.9836
 6524SOL    HW231032   1.405   0.588  15.524 -0.1836  0.7340  0.0472
 6525SOL     OW31033   3.861   0.146  11.275 -0.2793  0.3744 -0.2929
 6525SOL    HW131034   3.889   0.056  11.292 -0.3550  0.3309 -0.3921
 6525SOL    HW231035   3.807   0.132  11.197 -0.7800 -1.0264  0.2949
 6526SOL     OW31036   1.217   2.019   4.247 -0.0861  0.1538 -1.2268
 6526SOL    HW131037   1.170   1.938   4.228 -2.4433  0.5727  3.0128
 6526SOL    HW231038   1.156   2.086   4.216 -0.9053 -0.1345 -0.2179
 6527SOL     OW31039   1.999   4.452  14.673 -0.4732  0.0926  0.7359
 6527SOL    HW131040   2.044   4.378  14.714  1.6476  1.0963  0.1777
 6527SOL    HW231041   1.911   4.422  14.648 -0.3185 -0.5260  0.9301
 6528SOL     OW31042   0.035   3.745   4.198  0.0676  0.3831  0.1524
 6528SOL    HW131043   4.713   3.685   4.256  0.2104  1.7630  1.6580
 6528SOL    HW231044   4.695   3.815   4.197  0.7843  1.0249 -0.9424
 6529SOL     OW31045   1.121   1.863   0.395 -0.0432 -0.1679 -0.4603
 6529SOL    HW131046   1.153   1.948   0.365 -0.1993 -0.0079 -0.1768
 6529SOL    HW231047   1.098   1.890   0.484  2.6169  0.1379  0.1441
 6530SOL     OW31048   3.960   2.518   1.349 -0.0120  0.0470  0.8015
 6530SOL    HW131049   3.911   2.591   1.312 -0.4754 -0.0323  1.2682
 6530SOL    HW231050   3.895   2.448   1.342  1.3158 -1.2333  1.3187
 6531SOL     OW31051   0.393   2.585  14.869  0.0854 -0.5022  0.3231
 6531SOL    HW131052   0.431   2.637  14.798 -1.4534  0.4320  0.1627
 6531SOL    HW231053   0.459   2.582  14.938  3.1934  1.0345 -2.6258
 6532SOL     OW31054   3.388   1.819   8.871  0.4609 -0.6214  0.4335
 6532SOL    HW131055   3.470   1.867   8.860  0.6642 -1.1260 -0.2100
 6532SOL    HW231056   3.371   1.824   8.966  0.1211 -1.4173  0.4145
 6533SOL     OW31057   2.737   1.345   0.279  0.2375 -0.1012  0.3903
 6533SOL    HW131058   2.779   1.338   0.365  2.8057  1.5037 -0.7548
 6533SOL    HW231059   2.803   1.320   0.215  0.8254 -0.1041  1.0018
 6534SOL     OW31060   0.302   2.211  15.805 -0.0096 -0.3642 -0.4591
 6534SOL    HW131061   0.269   2.167  15.727  0.8535 -0.4700 -0.7726
 6534SOL    HW231062   0.294   2.143  15.872  0.7601  1.2143  1.2305
 6535SOL     OW31063   3.017   0.176  12.667 -0.2506 -0.5354  0.1516
 6535SOL    HW131064   3.071   0.186  12.745  0.2046 -1.0480 -0.0952
 6535SOL    HW231065   2.935   0.223  12.682  1.9802  2.8933  1.5533
 6536SOL     OW31066   0.907   1.735  16.204 -0.2035  0.4986 -0.5905
 6536SOL    HW131067   0.857   1.810  16.236 -0.4605 -0.5846  1.5671
 6536SOL    HW231068   0.900   1.674  16.277  0.2153  0.9919 -0.1379
 6537SOL     OW31069   3.230   0.388   5.983  0.2166 -0.0817  0.0536
 6537SOL    HW131070   3.270   0.301   5.979 -3.3766 -1.6422 -1.8229
 6537SOL    HW231071   3.142   0.351   5.978  0.5189 -0.5059 -2.0794
 6538SOL     OW31072   0.038   0.733   8.092  0.2153 -0.2549 -0.7593
 6538SOL    HW131073   4.713   0.804   8.051 -0.2502 -0.3338 -0.3241
 6538SOL    HW231074   4.696   0.704   8.153  2.0487 -0.5272  1.1214
 6539SOL     OW31075   0.264   1.628  16.283 -0.0159  0.0095  0.0088
 6539SOL    HW131076   0.287   1.691  16.350 -1.6749 -0.7319  1.2647
 6539SOL    HW231077   0.316   1.549  16.301 -0.6334 -0.5904 -0.8297
 6540SOL     OW31078   0.305   4.036  13.803 -0.2411 -0.2662  0.1367
 6540SOL    HW131079   0.239   4.098  13.835  1.8513  2.1358 -0.1475
 6540SOL    HW231080   0.324   4.073  13.716  2.2178 -2.8957 -0.4390
 6541SOL     OW31081   0.784   2.447  16.328 -0.2358  1.0191  0.0478
 6541SOL    HW131082   0.865   2.496  16.343  0.7163  0.5165 -3.6173
 6541SOL    HW231083   0.763   2.480  16.241 -0.8249 -1.6733 -0.8180
 6542SOL     OW31084   1.408   0.174   8.065  0.3344 -0.1742 -0.6468
 6542SOL    HW131085   1.432   0.267   8.064 -2.3812  0.5170  0.5498
 6542SOL    HW231086   1.381   0.155   8.155 -1.7995  1.4677 -0.9584
 6543SOL     OW31087   0.067   2.555   3.553  0.2870 -0.0814  0.1280
 6543SOL    HW131088   0.103   2.610   3.623 -1.0716 -0.0934  0.8534
 6543SOL    HW231089   0.147   2.504   3.543  0.4205  0.4164 -1.3706
 6544SOL     OW31090   1.540   3.040   0.472  0.1242 -0.3549 -0.1568
 6544SOL    HW131091   1.490   3.013   0.548  0.5810  0.1332  0.3186
 6544SOL    HW231092   1.524   3.134   0.474 -1.2156 -0.5962  0.3031
 6545SOL     OW31093   4.086   3.105   5.010  0.2868  0.2537  0.1404
 6545SOL    HW131094   4.106   3.197   5.028  0.6634  0.2220 -0.1145
 6545SOL    HW231095   4.039   3.077   5.089  0.6396  1.9999  0.9744
 6546SOL     OW31096   4.709   3.017   7.015 -0.0346 -0.4141  0.0671
 6546SOL    HW131097   0.060   3.074   7.004  1.4245 -2.6077 -1.2117
 6546SOL    HW231098   4.681   3.046   7.102  0.9437 -0.1374  0.2807
 6547SOL     OW31099   1.337   4.572   7.619  0.2726  0.2873 -0.2454
 6547SOL    HW131100   1.343   4.645   7.681 -2.8936 -0.6348  1.1336
 6547SOL    HW231101   1.280   4.610   7.552 -0.0898  0.5596  0.2233
 6548SOL     OW31102   3.764   4.550  13.327  0.2197  0.7480  0.0225
 6548SOL    HW131103   3.773   4.576  13.235 -0.3264  1.1158  0.0735
 6548SOL    HW231104   3.684   4.498  13.323 -0.5150  1.9481 -0.6866
 6549SOL     OW31105   0.053   3.227  14.081 -0.2496 -0.0094  0.0006
 6549SOL    HW131106   0.123   3.228  14.017  0.5310  2.2381  0.8863
 6549SOL    HW231107   0.015   3.314  14.071  1.4705  0.7032 -0.2266
 6550SOL     OW31108   4.427   4.650   7.554 -0.0708  0.3193  0.3789
 6550SOL    HW131109   4.400   4.602   7.475 -0.6871 -0.7024  1.2225
 6550SOL    HW231110   4.342   4.665   7.595 -0.4948 -0.0238 -0.3612
 6551SOL     OW31111   3.961   4.556   4.540 -0.4070  1.0759  0.0831
 6551SOL    HW131112   3.910   4.625   4.582 -3.0340 -2.3366  2.4433
 6551SOL    HW231113   3.992   4.586   4.454  1.0170  0.0237  0.2327
 6552SOL     OW31114   0.764   1.928   0.173  0.1002  0.1239 -0.3663
 6552SOL    HW131115   0.826   1.863   0.208  0.4236  1.6848  2.0114
 6552SOL    HW231116   0.694   1.868   0.149 -0.0054  0.4159 -0.7699
 6553SOL     OW31117   4.222   2.513   7.377  0.0799  0.1236 -0.2154
 6553SOL    HW131118   4.153   2.548   7.434 -0.3836 -1.0021 -0.0663
 6553SOL    HW231119   4.298   2.555   7.417  0.4262 -0.8173  0.1209
 6554SOL     OW31120   2.129   3.140   4.982  0.0273 -0.1163 -0.2157
 6554SOL    HW131121   2.128   3.110   4.891 -0.9157  0.1649 -0.3055
 6554SOL    HW231122   2.067   3.083   5.028 -1.2487 -0.7907 -2.7090
 6555SOL     OW31123   0.427   3.647   6.931 -0.0239 -0.3968  0.7613
 6555SOL    HW131124   0.512   3.617   6.961  0.1761 -0.3397  0.2580
 6555SOL    HW231125   0.452   3.732   6.893  0.4196 -0.1290  1.6496
 6556SOL     OW31126   0.032   4.528   4.606 -0.1254 -0.0436 -0.2153
 6556SOL    HW131127   0.082   4.601   4.570  0.7459 -0.6134 -0.1469
 6556SOL    HW231128   0.085   4.505   4.682 -0.0684  0.8006 -0.0006
 6557SOL     OW31129   2.718   1.149   6.934  0.1326 -0.2570 -0.2333
 6557SOL    HW131130   2.737   1.234   6.974 -0.3319 -0.2115 -0.1158
 6557SOL    HW231131   2.800   1.100   6.944  0.0547 -0.0175  1.5542
 6558SOL     OW31132   1.504   3.475   8.508 -0.6863 -0.5551 -0.0205
 6558SOL    HW131133   1.420   3.519   8.496 -0.5000 -0.0113  0.6194
 6558SOL    HW231134   1.475   3.395   8.551  2.2051 -1.4661  0.1951
 6559SOL     OW31135   0.710   1.393   4.832  0.1498  0.3831 -0.2839
 6559SOL    HW131136   0.709   1.298   4.822 -2.0411  0.7328 -3.2226
 6559SOL    HW231137   0.804   1.406   4.841  0.0877 -1.3954  2.8872
 6560SOL     OW31138   3.971   0.146   3.122  0.0711 -0.1218 -0.4914
 6560SOL    HW131139   4.049   0.123   3.172  0.1740 -0.0063 -0.6017
 6560SOL    HW231140   4.005   0.226   3.084 -0.2836  1.3431  2.2580
 6561SOL     OW31141   3.767   0.101   5.354  0.2025 -0.1910 -0.5215
 6561SOL    HW131142   3.708   0.065   5.420  0.7078 -2.8909 -1.5373
 6561SOL    HW231143   3.850   0.072   5.393  2.1984  1.0892 -3.8010
 6562SOL     OW31144   0.218   2.490   2.366  0.0157  0.8014  0.0631
 6562SOL    HW131145   0.127   2.498   2.337  0.4136  2.4351 -0.7149
 6562SOL    HW231146   0.223   2.394   2.361  1.4735  0.8488  0.6783
 6563SOL     OW31147   2.563   3.782   8.598  0.2848  0.1376  0.4540
 6563SOL    HW131148   2.477   3.787   8.640  0.7436  0.1884  1.3959
 6563SOL    HW231149   2.553   3.834   8.519  1.5357  0.6287  0.6234
 6564SOL     OW31150   3.223   1.404  11.050 -0.5808  0.3432  0.5783
 6564SOL    HW131151   3.263   1.460  10.983  0.1563 -2.3171 -1.1985
 6564SOL    HW231152   3.298   1.346  11.059 -0.5630  0.7654  3.2401
 6565SOL     OW31153   3.113   2.841   3.725 -0.2410  0.0026 -0.4526
 6565SOL    HW131154   3.143   2.750   3.719  1.1230  0.4171  0.1760
 6565SOL    HW231155   3.087   2.851   3.817  0.7853 -1.2830 -0.0156
 6566SOL     OW31156   2.993   3.127   4.133 -0.3569  0.5241 -0.5359
 6566SOL    HW131157   3.006   3.220   4.118 -0.7038  0.8916  1.5702
 6566SOL    HW231158   2.906   3.121   4.172  0.0814  1.2021  0.5311
 6567SOL     OW31159   2.876   2.674   7.173  0.1969  0.2672 -0.6681
 6567SOL    HW131160   2.957   2.625   7.158  0.0349 -0.6090  1.2864
 6567SOL    HW231161   2.810   2.613   7.141  0.0924 -0.8721  1.7053
 6568SOL     OW31162   1.542   4.353   1.140 -0.1001 -0.4113  0.1135
 6568SOL    HW131163   1.478   4.282   1.136 -1.1994  0.5897 -0.1065
 6568SOL    HW231164   1.497   4.410   1.078  0.0575 -0.1815  0.2085
 6569SOL     OW31165   0.941   4.119   9.609  0.1259  0.4318 -0.6137
 6569SOL    HW131166   1.008   4.064   9.569 -0.1690  1.1739 -2.1386
 6569SOL    HW231167   0.948   4.194   9.550 -1.7610 -1.2877 -3.0346
 6570SOL     OW31168   1.289   3.227   4.689 -0.5218  0.0139  0.1230
 6570SOL    HW131169   1.255   3.142   4.660 -1.3460  0.1816  0.5946
 6570SOL    HW231170   1.365   3.233   4.631 -0.4667  3.1647  0.5241
 6571SOL     OW31171   3.680   0.312   4.964  0.0493 -0.4570 -0.8037
 6571SOL    HW131172   3.704   0.342   5.052  0.3603 -1.6095 -0.4883
 6571SOL    HW231173   3.590   0.341   4.951  0.1052  0.0756 -0.0413
 6572SOL     OW31174   1.902   2.645  12.403  0.8457 -0.1855  0.2028
 6572SOL    HW131175   1.895   2.574  12.340 -0.9691  0.2108 -0.0492
 6572SOL    HW231176   1.861   2.626  12.487  2.8174  2.5952  1.8325
 6573SOL     OW31177   1.684   2.654   6.728 -0.2464  0.4901  0.1356
 6573SOL    HW131178   1.600   2.607   6.730 -0.6686  1.1181 -2.3728
 6573SOL    HW231179   1.739   2.596   6.780 -2.7330 -1.4042  0.6754
 6574SOL     OW31180   2.086   2.534   6.253  0.1282  0.4274  0.8656
 6574SOL    HW131181   2.032   2.515   6.329  0.8870  0.0293  1.3144
 6574SOL    HW231182   2.078   2.461   6.192  0.3030  1.7096 -0.7076
 6575SOL     OW31183   0.984   1.862   4.962  0.0831  0.1297  0.6853
 6575SOL    HW131184   0.941   1.793   5.012 -0.5022 -0.4895 -0.6679
 6575SOL    HW231185   1.002   1.818   4.879  1.4955  1.4321  0.3046
 6576SOL     OW31186   3.555   1.373   1.546 -0.6559  0.3477 -0.1354
 6576SOL    HW131187   3.468   1.350   1.515  0.2455 -0.5251 -1.9922
 6576SOL    HW231188   3.554   1.315   1.622 -1.1395  0.7712  0.1862
 6577SOL     OW31189   4.088   2.257   0.954  0.0983  0.5887 -0.0236
 6577SOL    HW131190   4.092   2.198   1.029  0.2391 -0.0975 -0.5663
 6577SOL    HW231191   4.169   2.304   0.974 -0.5588  1.7118 -0.0183
 6578SOL     OW31192   0.812   2.745   9.386  0.1731  0.1043  0.1251
 6578SOL    HW131193   0.810   2.783   9.474  0.8302  1.3120 -0.3790
 6578SOL    HW231194   0.788   2.826   9.341 -1.1438  0.4387  1.4037
 6579SOL     OW31195   3.107   2.138   4.642 -0.2153  0.2250 -0.8799
 6579SOL    HW131196   3.081   2.047   4.631  1.8076  0.0256 -3.9272
 6579SOL    HW231197   3.057   2.169   4.718  0.7333  0.7511 -0.4614
 6580SOL     OW31198   3.318   1.319   5.213 -0.6501  0.2733 -0.0174
 6580SOL    HW131199   3.365   1.267   5.147 -0.5382 -1.7112  1.6404
 6580SOL    HW231200   3.345   1.408   5.188 -0.7664 -0.2350 -1.9755
 6581SOL     OW31201   1.354   1.698   9.824  0.2322 -0.4996 -0.3385
 6581SOL    HW131202   1.381   1.630   9.885 -0.7694  0.6892  1.4294
 6581SOL    HW231203   1.265   1.664   9.817  0.2019 -0.1988 -1.3860
 6582SOL     OW31204   1.312   2.768   5.821 -0.1976  0.1295 -0.4522
 6582SOL    HW131205   1.373   2.816   5.877 -2.0748 -0.0754  1.7848
 6582SOL    HW231206   1.263   2.844   5.789  1.2068  0.9163 -0.7247
 6583SOL     OW31207   2.757   0.302  14.320  0.1808 -0.9120  0.2562
 6583SOL    HW131208   2.728   0.344  14.239 -0.2020 -0.3141  0.7066
 6583SOL    HW231209   2.716   0.215  14.311 -0.0094 -0.9818  1.7256
 6584SOL     OW31210   4.364   4.199   4.459  0.2156  0.0877 -0.2116
 6584SOL    HW131211   4.351   4.260   4.388  1.1041  1.4845  0.8188
 6584SOL    HW231212   4.327   4.125   4.411 -2.9158  0.4970  1.5571
 6585SOL     OW31213   4.404   3.583   7.233 -0.0176  0.8584 -0.6437
 6585SOL    HW131214   4.373   3.497   7.260  0.9279  0.6809 -0.0948
 6585SOL    HW231215   4.377   3.590   7.142  0.6388 -0.3134 -0.9259
 6586SOL     OW31216   0.621   3.932   3.041 -0.4533  0.2442  0.1657
 6586SOL    HW131217   0.615   3.923   2.946  0.8253 -0.3822  0.1477
 6586SOL    HW231218   0.640   4.025   3.052 -0.9352  0.5932 -1.8283
 6587SOL     OW31219   4.108   1.884   0.200 -0.0053  0.6972  0.0509
 6587SOL    HW131220   4.029   1.876   0.255  0.5687  0.1685  0.7977
 6587SOL    HW231221   4.171   1.910   0.267  2.0442 -1.5572 -0.9761
 6588SOL     OW31222   1.966   3.855   6.349 -0.4955  0.4041  0.4480
 6588SOL    HW131223   2.016   3.847   6.268 -1.3316  2.2559 -0.2504
 6588SOL    HW231224   1.994   3.774   6.392  0.9370 -0.6728 -2.4960
 6589SOL     OW31225   1.998   0.802  11.164  0.4624 -0.6385 -0.0323
 6589SOL    HW131226   1.954   0.816  11.248  0.7664 -0.8389  0.1582
 6589SOL    HW231227   1.933   0.826  11.098 -0.1594  0.1899  0.8785
 6590SOL     OW31228   1.784   0.987   8.503  0.0272 -0.1345  0.2905
 6590SOL    HW131229   1.800   0.905   8.456 -0.2992 -0.1339  0.1797
 6590SOL    HW231230   1.755   1.040   8.429 -0.9551 -0.9363  0.0974
 6591SOL     OW31231   2.037   0.603   9.022  0.2420  0.4540 -0.0485
 6591SOL    HW131232   1.946   0.630   9.011 -0.6151 -1.7332  1.7790
 6591SOL    HW231233   2.033   0.542   9.095 -0.7918  0.3566 -0.1995
 6592SOL     OW31234   4.285   0.330   5.231 -0.6670  0.5094  0.4301
 6592SOL    HW131235   4.381   0.320   5.229 -0.5875  1.0906  1.1970
 6592SOL    HW231236   4.266   0.240   5.257  2.0160 -0.1437  0.1879
 6593SOL     OW31237   1.082   1.370   0.228  0.2882 -0.2313 -0.4407
 6593SOL    HW131238   1.059   1.320   0.149 -1.6391 -0.9497  0.5936
 6593SOL    HW231239   1.177   1.372   0.222  0.2212 -0.1863 -1.5317
 6594SOL     OW31240   1.245   2.629   5.102  0.1798  0.1887 -0.0203
 6594SOL    HW131241   1.315   2.645   5.165 -0.2728 -1.7176  0.9645
 6594SOL    HW231242   1.172   2.675   5.142  0.8230  1.6592 -0.5252
 6595SOL     OW31243   0.820   2.405   4.069  0.0241  0.8821 -0.2347
 6595SOL    HW131244   0.765   2.386   4.145  1.6365 -0.0759  0.6825
 6595SOL    HW231245   0.886   2.468   4.099  0.0276  0.6489  0.2472
 6596SOL     OW31246   1.966   4.327  13.637 -0.1652 -0.2053 -0.0110
 6596SOL    HW131247   1.918   4.372  13.706 -0.5526  0.7341 -0.9134
 6596SOL    HW231248   2.040   4.386  13.624  0.4017 -0.7948  0.5164
 6597SOL     OW31249   4.675   1.869   4.190 -0.0479  0.1396 -0.5002
 6597SOL    HW131250   4.610   1.920   4.237 -0.1311 -2.4607  2.2219
 6597SOL    HW231251   0.029   1.916   4.217  0.2040 -0.6190  0.0854
 6598SOL     OW31252   3.414   3.935   3.365 -0.8700  0.0766 -0.0178
 6598SOL    HW131253   3.360   3.860   3.391 -0.6095  0.7586  2.5205
 6598SOL    HW231254   3.481   3.895   3.311 -0.2569  2.7089 -1.1568
 6599SOL     OW31255   3.881   1.453   9.070 -0.3730 -0.7618  0.3604
 6599SOL    HW131256   3.905   1.362   9.054 -0.2661 -0.5020 -0.9865
 6599SOL    HW231257   3.913   1.505   8.996  0.6743 -1.0669  0.6035
 6600SOL     OW31258   2.787   4.275   6.998  0.1329 -0.3749  0.4637
 6600SOL    HW131259   2.812   4.228   6.919  0.0012  1.8532 -0.9131
 6600SOL    HW231260   2.880   4.293   7.011 -0.2546 -1.0092  4.0683
 6601SOL     OW31261   3.233   0.700   8.817 -0.0521  0.1756 -0.5379
 6601SOL    HW131262   3.166   0.635   8.835  1.4087 -1.2099 -0.0664
 6601SOL    HW231263   3.212   0.757   8.891  2.9721  0.8707 -0.2018
 6602SOL     OW31264   0.196   0.735  11.946 -0.1774 -0.3822 -0.1994
 6602SOL    HW131265   0.172   0.752  11.855  0.7288 -0.3653 -0.4344
 6602SOL    HW231266   0.130   0.674  11.979 -0.5682  0.5432  0.7239
 6603SOL     OW31267   3.556   4.245   6.412 -1.0476  0.1471  0.0498
 6603SOL    HW131268   3.649   4.254   6.434 -0.8778 -2.2448  0.2963
 6603SOL    HW231269   3.533   4.338   6.405 -3.3456 -0.6250 -2.5429
 6604SOL     OW31270   1.589   0.833   9.873  0.1082  0.0471 -0.0433
 6604SOL    HW131271   1.622   0.757   9.825 -0.8580  0.1755 -0.9053
 6604SOL    HW231272   1.646   0.822   9.949  1.0574  0.7671 -0.6350
 6605SOL     OW31273   3.832   0.814   2.365 -0.2984 -0.2327  0.0850
 6605SOL    HW131274   3.830   0.721   2.387 -0.6946 -0.1298  0.4781
 6605SOL    HW231275   3.755   0.820   2.309  0.7682  0.3900 -1.3335
 6606SOL     OW31276   0.981   4.473  13.907  0.1282 -0.2624 -0.0153
 6606SOL    HW131277   0.903   4.515  13.944  1.0114  1.2234  0.1831
 6606SOL    HW231278   1.010   4.551  13.860 -1.6950  0.0273 -0.6464
 6607SOL     OW31279   0.558   0.198   7.230 -0.2666  0.2507 -0.3406
 6607SOL    HW131280   0.598   0.265   7.285  0.7298 -1.0980  0.5853
 6607SOL    HW231281   0.466   0.216   7.251  0.0432  0.8759  0.4337
 6608SOL     OW31282   3.108   1.153   8.954  0.2379  0.3078  0.2542
 6608SOL    HW131283   3.174   1.194   9.010 -0.4033  2.6836 -0.7314
 6608SOL    HW231284   3.072   1.229   8.908  1.6002  0.7567 -0.0983
 6609SOL     OW31285   1.702   2.243   2.739  0.5463 -0.2591  0.1791
 6609SOL    HW131286   1.612   2.214   2.752  0.6922 -1.3002 -1.1417
 6609SOL    HW231287   1.686   2.306   2.669 -0.6980  0.3169  0.9943
 6610SOL     OW31288   2.593   3.241   3.938 -0.1145 -0.0062 -0.7163
 6610SOL    HW131289   2.531   3.241   3.865 -1.1437 -0.0104  0.1580
 6610SOL    HW231290   2.559   3.170   3.993 -0.1424  0.8604  0.3877
 6611SOL     OW31291   0.718   3.112   8.378 -0.1809 -0.5636  0.0535
 6611SOL    HW131292   0.736   3.054   8.305  2.0345 -0.8805  0.8606
 6611SOL    HW231293   0.808   3.144   8.376 -0.2262 -0.4629 -0.2761
 6612SOL     OW31294   0.938   0.160   8.157 -0.2064 -0.0665 -0.4303
 6612SOL    HW131295   0.983   0.244   8.167 -0.0260 -0.1199 -0.7936
 6612SOL    HW231296   1.009   0.096   8.161 -0.5829 -0.4736 -0.2902
 6613SOL     OW31297   2.886   1.815   2.874  0.0859  0.3284  0.1051
 6613SOL    HW131298   2.856   1.886   2.817 -2.3936 -0.4809  0.4199
 6613SOL    HW231299   2.861   1.836   2.964  1.9879 -2.1056  1.1906
 6614SOL     OW31300   0.400   4.265   7.266 -0.2304 -0.0361  0.1142
 6614SOL    HW131301   0.350   4.345   7.250  0.6907 -0.0733 -3.0422
 6614SOL    HW231302   0.468   4.282   7.201  0.2692 -0.8730  0.4070
 6615SOL     OW31303   2.795   0.058  10.368  0.4847  0.3324 -0.2174
 6615SOL    HW131304   2.746   0.002  10.307  1.3439 -1.5765  0.8514
 6615SOL    HW231305   2.805   4.721  10.440  1.2791 -1.1755 -1.6209
 6616SOL     OW31306   1.265   3.903  10.413 -0.0114  0.0856 -0.3090
 6616SOL    HW131307   1.256   3.983  10.464 -0.0250  0.9515 -1.6818
 6616SOL    HW231308   1.360   3.894  10.419 -0.0250  0.6650  0.8031
 6617SOL     OW31309   4.149   2.221   1.568 -0.0300 -0.4231 -0.1748
 6617SOL    HW131310   4.068   2.169   1.567 -0.1092 -0.2934 -0.4074
 6617SOL    HW231311   4.123   2.312   1.581  1.3335  0.0639 -0.9342
 6618SOL     OW31312   1.658   0.856   6.166 -1.2281 -0.2424 -1.2124
 6618SOL    HW131313   1.719   0.929   6.175  0.7911 -1.9502 -0.9987
 6618SOL    HW231314   1.703   0.787   6.215 -1.3280 -0.0106 -0.7926
 6619SOL     OW31315   0.431   3.393   1.591 -0.5437 -0.0849  0.4663
 6619SOL    HW131316   0.508   3.424   1.639  1.2858 -0.8634 -1.9915
 6619SOL    HW231317   0.434   3.302   1.619  0.1990 -0.7212 -1.7074
 6620SOL     OW31318   4.343   2.336   0.988  0.3177 -0.3230 -0.1982
 6620SOL    HW131319   4.410   2.294   0.935  1.1619  0.4025  0.3078
 6620SOL    HW231320   4.358   2.428   0.969 -0.5684 -0.4357 -1.4809
 6621SOL     OW31321   3.648   1.885   8.870  0.2341 -0.2686 -0.2725
 6621SOL    HW131322   3.698   1.829   8.811 -1.1669 -1.2864 -0.4944
 6621SOL    HW231323   3.713   1.899   8.940 -0.1527  0.4998 -0.0654
 6622SOL     OW31324   3.077   4.280   0.356  0.2412 -0.1016  0.3359
 6622SOL    HW131325   3.077   4.320   0.269 -3.7823  1.8517  1.2200
 6622SOL    HW231326   3.057   4.189   0.334  0.4493 -0.4729  1.7233
 6623SOL     OW31327   2.698   3.130   9.408  0.2711 -0.2735  0.3314
 6623SOL    HW131328   2.778   3.168   9.372 -0.4506  2.1145  1.2512
 6623SOL    HW231329   2.656   3.201   9.457 -1.1022  1.5398 -3.4379
 6624SOL     OW31330   0.270   0.414  17.095  0.2817 -0.4380 -0.4208
 6624SOL    HW131331   0.324   0.394  17.171  0.4148 -0.1527 -0.4407
 6624SOL    HW231332   0.336   0.435  17.029  0.5670 -0.8038 -0.2488
 6625SOL     OW31333   1.890   2.480  15.248 -0.2031  0.0463 -0.3566
 6625SOL    HW131334   1.844   2.397  15.244 -2.3437  1.2714 -1.0231
 6625SOL    HW231335   1.830   2.523  15.309  0.2909 -0.7254  0.6711
 6626SOL     OW31336   3.653   1.313   2.622 -0.0124 -1.0308 -0.3729
 6626SOL    HW131337   3.743   1.339   2.639  0.7582 -1.6355 -3.5298
 6626SOL    HW231338   3.667   1.247   2.553  0.9279 -1.0639 -0.1512
 6627SOL     OW31339   3.551   1.071  13.344  0.4581 -0.0593 -0.3249
 6627SOL    HW131340   3.589   1.141  13.291 -2.6159  0.7666 -1.4372
 6627SOL    HW231341   3.518   1.001  13.287  0.4362 -1.1379  0.9994
 6628SOL     OW31342   4.433   0.118   9.659 -0.1425 -0.8164  0.6647
 6628SOL    HW131343   4.349   0.164   9.653 -0.7496 -2.1946 -1.3579
 6628SOL    HW231344   4.487   0.194   9.637  0.7172 -1.9281 -1.0586
 6629SOL     OW31345   1.779   4.125   9.154  0.0248  0.1612  0.0256
 6629SOL    HW131346   1.844   4.172   9.101 -0.6173  0.2431 -0.6835
 6629SOL    HW231347   1.835   4.097   9.227  0.6669 -1.5736 -1.1286
 6630SOL     OW31348   4.506   2.015   5.342  0.1194  0.2746  0.0938
 6630SOL    HW131349   4.499   1.935   5.291  1.9281  0.7127 -0.8299
 6630SOL    HW231350   4.527   2.080   5.275 -2.2228  1.8216  0.8732
 6631SOL     OW31351   2.882   3.413   5.382  0.3942  0.6490 -0.0307
 6631SOL    HW131352   2.822   3.367   5.441 -1.2476  0.6177 -1.6964
 6631SOL    HW231353   2.967   3.404   5.425  0.3090  4.8101  0.9449
 6632SOL     OW31354   0.757   0.662   7.647  0.0892 -0.3935  0.3990
 6632SOL    HW131355   0.795   0.743   7.612 -0.0567 -0.9052 -0.9424
 6632SOL    HW231356   0.826   0.600   7.624 -0.4746 -0.1227 -1.9874
 6633SOL     OW31357   2.231   4.554   6.336 -0.0744 -0.0100 -0.0458
 6633SOL    HW131358   2.221   4.635   6.387 -0.8377 -1.8534  2.6942
 6633SOL    HW231359   2.274   4.499   6.400  0.4575  0.7440  0.2379
 6634SOL     OW31360   3.492   1.805   3.147  0.2449 -0.2978 -0.1153
 6634SOL    HW131361   3.521   1.874   3.207 -0.8374 -0.7793  0.9585
 6634SOL    HW231362   3.536   1.837   3.068  0.3334 -3.5726 -1.3605
 6635SOL     OW31363   4.362   3.499   3.032  0.9125  0.3965 -0.0733
 6635SOL    HW131364   4.300   3.571   3.039 -1.5299 -1.5567 -1.3632
 6635SOL    HW231365   4.419   3.529   2.961  0.8931  0.2006 -0.1725
 6636SOL     OW31366   1.393   1.970   9.235  0.1636  0.1072 -0.5972
 6636SOL    HW131367   1.375   2.031   9.163  0.2423  1.7789  0.7860
 6636SOL    HW231368   1.467   2.009   9.283 -0.3725 -3.9334  3.5049
 6637SOL     OW31369   2.723   0.843  12.396  0.1659  0.4814 -0.3142
 6637SOL    HW131370   2.632   0.836  12.368  0.8875 -2.4136 -1.9308
 6637SOL    HW231371   2.754   0.772  12.341 -0.4350 -0.2955  0.3502
 6638SOL     OW31372   2.346   1.221   8.200  0.6500  0.4662 -0.1185
 6638SOL    HW131373   2.260   1.202   8.162  1.7998 -0.7426 -2.1282
 6638SOL    HW231374   2.389   1.137   8.216 -0.3305 -0.2198 -1.0938
 6639SOL     OW31375   3.673   4.410  14.111  0.3640  0.4163 -0.3420
 6639SOL    HW131376   3.636   4.377  14.192  2.4737  0.9431  0.8278
 6639SOL    HW231377   3.755   4.455  14.131 -1.5462  2.4135  2.9377
 6640SOL     OW31378   4.573   0.963  13.078  0.1533  0.4583 -0.2393
 6640SOL    HW131379   4.648   1.019  13.057  0.9640 -0.4072  0.3521
 6640SOL    HW231380   4.507   1.027  13.103 -1.1619 -0.3191 -1.7339
 6641SOL     OW31381   3.983   2.685   6.716 -0.0946 -0.0446  0.3876
 6641SOL    HW131382   4.072   2.660   6.743 -0.2358 -1.4270 -0.4725
 6641SOL    HW231383   3.923   2.662   6.787 -0.0124  0.6387  0.6774
 6642SOL     OW31384   3.361   3.652   2.379  0.0460 -0.3631 -0.2543
 6642SOL    HW131385   3.268   3.640   2.398  0.1973  0.4740  1.0073
 6642SOL    HW231386   3.399   3.595   2.446  1.2798 -0.4304 -1.0002
 6643SOL     OW31387   0.435   2.156  12.215  0.1264  0.5355  0.6044
 6643SOL    HW131388   0.443   2.227  12.279 -2.3813  0.4897  0.9490
 6643SOL    HW231389   0.503   2.096  12.246 -1.1903 -0.4689  1.5083
 6644SOL     OW31390   3.121   2.156  16.390 -0.4824 -0.7918  0.7147
 6644SOL    HW131391   3.133   2.097  16.316 -0.2674 -2.0585  1.7540
 6644SOL    HW231392   3.210   2.185  16.409 -0.0871  0.0745 -2.3896
 6645SOL     OW31393   3.080   0.462   6.823  0.2912  0.4329  0.1493
 6645SOL    HW131394   3.036   0.523   6.763  1.5963  0.9325 -0.2899
 6645SOL    HW231395   3.070   0.375   6.784  2.3175  1.0789 -1.7909
 6646SOL     OW31396   1.385   0.693  12.945  0.1819  0.2803 -0.0995
 6646SOL    HW131397   1.390   0.773  12.892  1.6607 -0.0362 -0.4391
 6646SOL    HW231398   1.429   0.634  12.884  0.8481  1.7122 -1.0185
 6647SOL     OW31399   4.084   3.507   7.653  0.0583 -0.3981 -0.7480
 6647SOL    HW131400   4.150   3.571   7.626 -0.5727  1.1986  1.5206
 6647SOL    HW231401   4.124   3.460   7.726  0.7982  0.1716 -0.7942
 6648SOL     OW31402   1.413   0.781  14.439  0.3397  0.2962  0.3789
 6648SOL    HW131403   1.373   0.862  14.471  0.3271  0.4746 -0.0814
 6648SOL    HW231404   1.373   0.722  14.503 -1.3727  0.2732 -0.7453
 6649SOL     OW31405   4.462   1.250   3.595  0.4971 -0.0078  0.3922
 6649SOL    HW131406   4.453   1.180   3.530  0.2957 -0.8910  1.3756
 6649SOL    HW231407   4.441   1.331   3.549  2.0417 -0.2276 -0.7178
 6650SOL     OW31408   2.763   3.342  12.130  0.5829 -0.6803 -0.0285
 6650SOL    HW131409   2.763   3.372  12.039  1.0454 -0.7649 -0.0574
 6650SOL    HW231410   2.850   3.371  12.159  1.1618  0.2997 -2.7148
 6651SOL     OW31411   2.213   1.979   4.403 -0.0465 -0.3619  0.1512
 6651SOL    HW131412   2.233   1.963   4.311 -0.7762  0.7445 -0.2007
 6651SOL    HW231413   2.300   1.994   4.441 -0.1251 -1.1104  0.6315
 6652SOL     OW31414   0.941   0.570   3.297 -0.1055 -0.1560 -0.0723
 6652SOL    HW131415   0.999   0.494   3.293 -0.5157 -0.4160 -1.1207
 6652SOL    HW231416   0.929   0.581   3.391  2.1451  0.3525  0.1595
 6653SOL     OW31417   4.136   0.162   9.548  0.4890 -0.3864 -0.0365
 6653SOL    HW131418   4.148   0.257   9.555 -1.6911 -0.2273  1.4977
 6653SOL    HW231419   4.143   0.136   9.639 -2.0586 -3.5089 -0.7474
 6654SOL     OW31420   1.166   1.455  12.557 -0.7546  0.2373  0.1594
 6654SOL    HW131421   1.251   1.496  12.538 -0.6867  0.5619  1.2002
 6654SOL    HW231422   1.173   1.380  12.498 -4.0689  1.4328 -1.7539
 6655SOL     OW31423   4.293   3.242   2.998 -0.0559  0.0546  0.7818
 6655SOL    HW131424   4.358   3.191   2.950 -1.8428  0.7050 -2.2797
 6655SOL    HW231425   4.340   3.325   3.005  0.4483 -0.3714  2.5487
 6656SOL     OW31426   0.475   0.469   5.757 -0.0644  0.3150  0.2874
 6656SOL    HW131427   0.513   0.504   5.676 -0.5647 -0.4977 -0.2983
 6656SOL    HW231428   0.386   0.455   5.723  0.5185 -0.2549 -1.0303
 6657SOL     OW31429   1.841   3.853  13.120 -0.6331  0.0013  0.4529
 6657SOL    HW131430   1.898   3.776  13.123 -0.0991  0.3775 -0.0324
 6657SOL    HW231431   1.765   3.823  13.070 -0.7503 -0.7991  1.1009
 6658SOL     OW31432   0.698   0.196   5.617  0.0878 -0.3000 -0.4153
 6658SOL    HW131433   0.779   0.155   5.586  0.5084 -1.3309  2.0360
 6658SOL    HW231434   0.717   0.289   5.619 -2.0271  0.1565 -0.7132
 6659SOL     OW31435   2.033   1.867   0.778 -0.0155  0.3173 -0.1433
 6659SOL    HW131436   1.995   1.948   0.813 -2.3313 -0.8395  0.0630
 6659SOL    HW231437   2.086   1.833   0.850  0.8470  0.9073 -0.5081
 6660SOL     OW31438   0.912   3.777  14.807 -0.1793 -0.4490 -0.3218
 6660SOL    HW131439   0.857   3.842  14.851  0.0948 -0.9021  0.7086
 6660SOL    HW231440   0.989   3.832  14.796  0.3772 -1.1064  0.2286
 6661SOL     OW31441   0.223   0.474   6.932  0.1838  0.4858  0.6018
 6661SOL    HW131442   0.151   0.413   6.950 -0.1006  0.1670 -1.6562
 6661SOL    HW231443   0.176   0.536   6.876  0.5422 -1.5958 -2.0118
 6662SOL     OW31444   2.382   4.155   0.068 -0.0819 -0.1245 -0.2566
 6662SOL    HW131445   2.464   4.122   0.105  0.2415 -0.5895 -1.3676
 6662SOL    HW231446   2.414   4.166  17.680 -0.2447 -3.0887 -0.6767
 6663SOL     OW31447   0.317   2.226  10.420 -0.7646  0.2004 -0.4659
 6663SOL    HW131448   0.296   2.137  10.394 -3.6736  0.6476  0.4084
 6663SOL    HW231449   0.407   2.241  10.390 -1.0861 -1.4197 -2.1928
 6664SOL     OW31450   1.797   1.108   0.917 -0.1288  0.5117 -0.4930
 6664SOL    HW131451   1.749   1.161   0.981 -1.0714 -0.7687 -0.1249
 6664SOL    HW231452   1.842   1.173   0.864  1.0080 -0.1626 -0.3626
 6665SOL     OW31453   4.546   1.812  15.979  0.0502 -0.3642 -0.0302
 6665SOL    HW131454   4.514   1.844  15.895  0.6773 -1.0243 -0.5272
 6665SOL    HW231455   4.458   1.821  16.014 -0.1605 -2.8815  0.1499
 6666SOL     OW31456   2.543   1.707   7.601  0.7152 -0.0103 -0.0396
 6666SOL    HW131457   2.569   1.623   7.637 -0.3328 -0.1759  0.3306
 6666SOL    HW231458   2.495   1.680   7.522  1.1991 -0.5191 -0.1558
 6667SOL     OW31459   2.694   0.395   6.540 -0.6131  0.0742 -0.1311
 6667SOL    HW131460   2.714   0.305   6.567 -0.8000  0.0592 -0.0370
 6667SOL    HW231461   2.598   0.390   6.540 -0.6331  0.4624 -0.6462
 6668SOL     OW31462   0.519   2.475   6.892  0.3754 -0.1815 -0.3564
 6668SOL    HW131463   0.437   2.440   6.856  0.0748  0.3129 -0.1527
 6668SOL    HW231464   0.493   2.542   6.955  0.6598  0.0388 -0.4734
 6669SOL     OW31465   1.266   3.559   8.349 -0.0626  0.0321 -0.2773
 6669SOL    HW131466   1.226   3.477   8.323  1.3653 -0.7575 -0.0090
 6669SOL    HW231467   1.191   3.614   8.325  2.5980  3.5867 -0.5531
 6670SOL     OW31468   2.479   4.165   4.953 -0.1158  0.3351 -0.1156
 6670SOL    HW131469   2.486   4.209   4.868 -1.1373 -0.8707 -0.8324
 6670SOL    HW231470   2.383   4.161   4.957  0.0571 -1.6774  1.5367
 6671SOL     OW31471   4.221   1.803  10.926  0.2998 -0.0038  0.0692
 6671SOL    HW131472   4.171   1.875  10.964 -1.6226 -1.3439  0.0916
 6671SOL    HW231473   4.271   1.757  10.993 -2.1823 -0.6218  1.4969
 6672SOL     OW31474   2.368   1.819  10.088  0.1460 -0.5759  0.6673
 6672SOL    HW131475   2.439   1.883  10.074 -1.2912  1.0365  0.7545
 6672SOL    HW231476   2.420   1.762  10.145  1.2466 -1.0096 -0.7778
 6673SOL     OW31477   2.429   3.664   1.753 -0.4597  0.1719 -0.0548
 6673SOL    HW131478   2.336   3.669   1.733 -0.7497 -1.0435  1.0056
 6673SOL    HW231479   2.463   3.690   1.667 -0.7291  0.1257 -0.1745
 6674SOL     OW31480   2.529   2.165  13.088  0.0132 -0.0153  0.4352
 6674SOL    HW131481   2.578   2.233  13.042 -0.0663 -0.9014 -0.9487
 6674SOL    HW231482   2.593   2.116  13.140  1.4357 -1.7228 -2.9183
 6675SOL     OW31483   3.344   1.251   0.141  0.2293 -0.1655  0.4620
 6675SOL    HW131484   3.330   1.344   0.126  0.9415 -0.0390  0.5487
 6675SOL    HW231485   3.286   1.208   0.078 -0.1886  0.2241  0.5845
 6676SOL     OW31486   3.545   2.795   5.352 -0.0258  0.1695 -0.4679
 6676SOL    HW131487   3.539   2.888   5.327  1.5775  0.7222  1.2603
 6676SOL    HW231488   3.594   2.762   5.277 -0.6678  2.0395 -1.7241
 6677SOL     OW31489   4.685   0.955   8.451  0.5409 -0.2381  0.5615
 6677SOL    HW131490   4.710   0.902   8.527  0.8028 -0.7499  0.1211
 6677SOL    HW231491   4.594   0.927   8.445 -0.5315  3.8787 -1.9121
 6678SOL     OW31492   4.488   0.247   2.515  0.5392 -0.0464  0.3784
 6678SOL    HW131493   4.527   0.333   2.530  3.6061 -1.3526 -0.0759
 6678SOL    HW231494   4.452   0.257   2.426  1.4992  2.6773  0.2933
 6679SOL     OW31495   3.052   3.428   4.398  1.2254  0.5069 -0.1576
 6679SOL    HW131496   3.043   3.351   4.453  0.7795  1.1861  0.7194
 6679SOL    HW231497   3.051   3.397   4.307 -1.6967 -0.5482  0.2355
 6680SOL     OW31498   3.163   1.208   4.852  0.4368 -0.1289  0.0839
 6680SOL    HW131499   3.218   1.280   4.822  1.7363 -0.9370  0.5397
 6680SOL    HW231500   3.126   1.246   4.932  1.5229 -0.2374  0.6296
 6681SOL     OW31501   1.779   1.830  17.429  0.2790 -0.5934 -0.2811
 6681SOL    HW131502   1.699   1.800  17.386 -2.2494  0.3008  3.8474
 6681SOL    HW231503   1.779   1.920  17.397 -2.2657  0.2363  2.1379
 6682SOL     OW31504   2.523   2.059   2.398 -0.1937 -0.2885 -0.0749
 6682SOL    HW131505   2.546   2.074   2.307  1.0707  0.4443  0.3542
 6682SOL    HW231506   2.614   2.061   2.430 -0.3222  0.5689  0.2485
 6683SOL     OW31507   4.647   1.153   7.791 -0.1386  0.2841  0.2537
 6683SOL    HW131508   4.706   1.169   7.717 -2.1633  2.7404 -0.8302
 6683SOL    HW231509   4.670   1.229   7.845  0.6662 -0.6168  1.1720
 6684SOL     OW31510   3.363   4.720   5.693 -0.6661  0.5929 -0.1758
 6684SOL    HW131511   3.269   0.005   5.678 -0.7796  1.2688  1.0028
 6684SOL    HW231512   3.386   0.086   5.711  1.2784  0.2038 -0.6736
 6685SOL     OW31513   1.579   2.213   8.557 -0.0669  0.2473 -0.2840
 6685SOL    HW131514   1.489   2.194   8.582  0.0569  1.9339  1.5112
 6685SOL    HW231515   1.633   2.147   8.601  0.2467 -0.1832 -1.3243
 6686SOL     OW31516   4.422   0.029   5.482  0.0751 -0.4351  0.2275
 6686SOL    HW131517   4.344   4.700   5.484 -1.4320  1.6572 -1.8686
 6686SOL    HW231518   4.423   0.054   5.390 -0.5632 -0.6863  0.1525
 6687SOL     OW31519   2.815   0.736   7.528  0.7600 -0.2566 -0.0136
 6687SOL    HW131520   2.720   0.726   7.522  0.8278 -0.2868 -0.9206
 6687SOL    HW231521   2.827   0.794   7.604  0.7973  1.4660 -1.3511
 6688SOL     OW31522   2.707   1.285   2.891  0.3292  0.0658  0.0502
 6688SOL    HW131523   2.756   1.295   2.810 -1.3733 -1.9274 -1.1974
 6688SOL    HW231524   2.763   1.336   2.951  0.8075 -1.0543  0.5449
 6689SOL     OW31525   4.559   1.867  10.635 -0.3115  0.9651 -0.5766
 6689SOL    HW131526   4.498   1.939  10.651 -2.8067 -0.7616 -2.2809
 6689SOL    HW231527   4.542   1.842  10.544  3.1460  1.8060 -1.4332
 6690SOL     OW31528   1.886   3.904   8.516 -0.0289  0.2245  0.6390
 6690SOL    HW131529   1.795   3.876   8.522  0.0948 -0.0670  1.1162
 6690SOL    HW231530   1.881   3.991   8.557  3.3557 -0.3091  2.1688
 6691SOL     OW31531   3.145   3.231   1.768 -0.1128  0.5786 -0.4800
 6691SOL    HW131532   3.141   3.194   1.857  1.5550 -0.3024 -0.7577
 6691SOL    HW231533   3.056   3.266   1.766 -0.0743  0.8950  2.5973
 6692SOL     OW31534   3.001   0.406  14.276 -0.4289  0.4098  0.1684
 6692SOL    HW131535   2.994   0.495  14.310  1.5187  0.3545  0.7003
 6692SOL    HW231536   2.914   0.373  14.298  0.7272 -1.0743  2.4303
 6693SOL     OW31537   0.447   0.492  14.888  0.1407  0.2133 -0.0844
 6693SOL    HW131538   0.385   0.419  14.895  0.0419  0.2424 -0.6453
 6693SOL    HW231539   0.385   0.557  14.858 -1.4095 -0.7918  0.9275
 6694SOL     OW31540   0.026   2.855   4.030  0.0401 -0.5929 -0.5527
 6694SOL    HW131541   4.697   2.924   4.070 -0.2454  0.0412 -2.0437
 6694SOL    HW231542   0.093   2.830   4.094 -0.4336  0.3739  0.3195
 6695SOL     OW31543   2.176   1.469   8.230 -0.1492  0.3075  0.4672
 6695SOL    HW131544   2.187   1.456   8.324 -1.0692  0.1477  0.5512
 6695SOL    HW231545   2.265   1.499   8.209  0.9014 -2.9259  0.3018
 6696SOL     OW31546   0.455   1.848   2.381  0.5259  0.0111  0.0105
 6696SOL    HW131547   0.386   1.782   2.369  0.1509  0.6772 -1.4649
 6696SOL    HW231548   0.429   1.890   2.464 -0.7750 -0.2906 -0.2348
 6697SOL     OW31549   4.342   3.002  13.496 -0.4907  0.7070  0.1120
 6697SOL    HW131550   4.338   2.917  13.451 -0.7842  0.9090 -0.2441
 6697SOL    HW231551   4.382   2.971  13.577  1.7829 -2.8262 -2.3378
 6698SOL     OW31552   4.545   0.672   9.219 -0.4918 -1.0849  0.2177
 6698SOL    HW131553   4.562   0.593   9.168 -0.1511 -0.2193 -1.0070
 6698SOL    HW231554   4.461   0.706   9.188 -0.2230  0.7145  1.4439
 6699SOL     OW31555   4.325   0.173   8.945 -0.0481 -0.5679 -0.0868
 6699SOL    HW131556   4.289   0.086   8.965  0.6444 -1.6279 -3.3759
 6699SOL    HW231557   4.418   0.155   8.931  0.4339  2.3983 -0.5340
 6700SOL     OW31558   4.197   2.880   5.998  0.7853  0.1314 -0.1103
 6700SOL    HW131559   4.189   2.809   5.934 -0.5827 -0.7570  1.0564
 6700SOL    HW231560   4.173   2.958   5.948 -1.3758  0.6771  1.7944
 6701SOL     OW31561   0.442   1.972   7.846  0.8020 -0.1363  0.5964
 6701SOL    HW131562   0.438   1.877   7.834  2.0559 -0.1153  0.0543
 6701SOL    HW231563   0.361   1.994   7.800  0.2950 -1.0268  1.0635
 6702SOL     OW31564   4.697   2.609   7.513  0.6739 -0.3013  0.5867
 6702SOL    HW131565   4.721   2.562   7.433 -1.1352  1.8738 -1.2276
 6702SOL    HW231566   4.639   2.547   7.556 -0.2853 -0.9479 -1.6345
 6703SOL     OW31567   3.755   2.294   4.928  0.3018  0.3369 -0.4723
 6703SOL    HW131568   3.783   2.208   4.958 -2.6684 -0.4850 -0.0731
 6703SOL    HW231569   3.836   2.316   4.882  0.5839 -0.3055 -0.2763
 6704SOL     OW31570   3.676   1.760   6.651 -0.4705  0.3261 -0.0708
 6704SOL    HW131571   3.714   1.827   6.708 -1.1138  1.4305 -0.9311
 6704SOL    HW231572   3.667   1.817   6.575 -0.1221 -0.8130 -0.9640
 6705SOL     OW31573   1.887   2.112   4.795  0.1307 -0.2307  0.1649
 6705SOL    HW131574   1.948   2.050   4.754 -1.5118 -0.0546 -2.5341
 6705SOL    HW231575   1.854   2.067   4.872 -0.6214 -1.8047 -1.0756
 6706SOL     OW31576   4.286   2.595  17.544 -0.2638 -0.1005  0.5712
 6706SOL    HW131577   4.251   2.678  17.512  1.1080 -0.4004 -1.7246
 6706SOL    HW231578   4.371   2.625  17.575 -0.2404 -0.8492  1.2304
 6707SOL     OW31579   2.040   0.048   7.543  0.1333 -0.0187  0.3346
 6707SOL    HW131580   1.945   0.035   7.547  0.1541 -0.3038 -0.1072
 6707SOL    HW231581   2.045   0.144   7.541  1.0782 -0.0995 -0.9112
 6708SOL     OW31582   4.113   4.565   7.126 -0.2198  0.7621 -0.0753
 6708SOL    HW131583   4.050   4.625   7.085  0.4431  1.3411 -0.2499
 6708SOL    HW231584   4.062   4.484   7.127  0.5026  0.3141 -0.1541
 6709SOL     OW31585   1.748   3.115   7.301 -0.3983  0.6725 -0.3306
 6709SOL    HW131586   1.759   3.060   7.379  0.6147 -0.9384 -1.6077
 6709SOL    HW231587   1.668   3.089   7.255  0.4367 -1.4921 -0.5560
 6710SOL     OW31588   0.574   4.649  14.939 -0.2149  0.3482  0.1588
 6710SOL    HW131589   0.663   4.660  14.907 -0.8109  0.7492 -1.3985
 6710SOL    HW231590   0.523   4.677  14.862 -0.7359 -0.3193  0.2597
 6711SOL     OW31591   3.370   2.699  16.827  0.5752  0.4638  0.3558
 6711SOL    HW131592   3.341   2.687  16.917  0.3299  1.3647  0.4055
 6711SOL    HW231593   3.388   2.793  16.821 -0.9175  0.7310  0.1819
 6712SOL     OW31594   4.573   3.122  13.303 -0.1171 -0.0419 -0.2300
 6712SOL    HW131595   4.580   3.217  13.295  0.7633 -0.1813 -1.0653
 6712SOL    HW231596   4.538   3.105  13.390 -2.8883  1.6479 -1.0089
 6713SOL     OW31597   1.682   1.770   1.229 -0.6493 -0.3031 -0.1601
 6713SOL    HW131598   1.639   1.834   1.285 -1.8032 -0.9958 -0.2453
 6713SOL    HW231599   1.766   1.770   1.276 -0.2548  0.8591 -0.8856
 6714SOL     OW31600   0.354   1.378   7.421  0.2694  0.3714 -0.3445
 6714SOL    HW131601   0.374   1.435   7.347 -1.5649  0.4445 -0.7685
 6714SOL    HW231602   0.428   1.318   7.408 -0.3794 -0.9766  2.1659
 6715SOL     OW31603   3.364   0.710  12.536 -0.2792  0.2293  0.3299
 6715SOL    HW131604   3.416   0.678  12.462  0.2997  1.9221  0.0128
 6715SOL    HW231605   3.345   0.628  12.582 -1.6974  0.1099 -0.4715
 6716SOL     OW31606   4.071   1.110   5.214 -0.2192 -0.2123 -0.0468
 6716SOL    HW131607   4.151   1.148   5.177 -0.4437  1.9271  1.6446
 6716SOL    HW231608   4.095   1.018   5.222 -2.0917 -0.7381 -0.4271
 6717SOL     OW31609   3.426   4.558  14.082  0.0194 -0.1198  0.0344
 6717SOL    HW131610   3.370   4.484  14.059  0.4313 -0.4363  0.0431
 6717SOL    HW231611   3.516   4.525  14.080 -0.0692 -0.3547 -0.0212
 6718SOL     OW31612   0.359   1.022   2.937 -0.2938  0.2522  0.3519
 6718SOL    HW131613   0.308   1.098   2.912  1.2898  0.9452 -0.7915
 6718SOL    HW231614   0.294   0.965   2.977  1.0747 -0.7252  1.1953
 6719SOL     OW31615   2.652   3.926   2.843  0.6277 -0.5794  0.4978
 6719SOL    HW131616   2.583   3.862   2.826 -0.6354  1.0018 -0.2710
 6719SOL    HW231617   2.635   3.995   2.779 -1.5921  0.6300  2.3807
 6720SOL     OW31618   3.052   4.567   9.136  0.3477 -0.0227 -0.1373
 6720SOL    HW131619   3.070   4.661   9.140 -0.7495  0.1279  1.2227
 6720SOL    HW231620   3.053   4.541   9.228  0.4158  0.3672 -0.0281
 6721SOL     OW31621   4.627   3.065   4.631 -0.1283  0.2130 -0.1992
 6721SOL    HW131622   4.608   3.159   4.628  1.5739  0.5730  0.5166
 6721SOL    HW231623   4.535   3.037   4.631  0.4256 -1.5657  0.5480
 6722SOL     OW31624   4.042   4.466   1.626  0.0042  0.2283  0.3450
 6722SOL    HW131625   4.097   4.464   1.704  1.1713  1.4630 -0.4582
 6722SOL    HW231626   3.972   4.527   1.650  0.1517  0.3973  0.3401
 6723SOL     OW31627   4.562   4.425   5.895  0.6366 -0.4137  0.4402
 6723SOL    HW131628   4.502   4.474   5.952 -1.0131 -0.8049 -0.9587
 6723SOL    HW231629   4.546   4.335   5.923  1.6941 -0.7732 -0.1433
 6724SOL     OW31630   0.994   1.264  17.690  0.4024  0.1830  0.9313
 6724SOL    HW131631   0.960   1.176   0.004 -1.7406  1.0164  0.9005
 6724SOL    HW231632   0.988   1.275  17.595 -0.1646  2.4289  1.2349
 6725SOL     OW31633   1.082   1.065  16.060 -0.3895  0.0935 -0.1667
 6725SOL    HW131634   1.013   1.000  16.072  0.7154 -1.5631 -2.8013
 6725SOL    HW231635   1.074   1.113  15.978 -1.4273 -0.5725 -0.4433
 6726SOL     OW31636   0.135   1.988   6.353 -0.1309  0.1665 -0.5438
 6726SOL    HW131637   0.140   1.975   6.258  0.6150 -0.9768 -0.3450
 6726SOL    HW231638   0.044   2.019   6.358 -0.0477  0.4171 -0.5800
 6727SOL     OW31639   2.245   2.177   8.632 -0.0395 -0.2900 -0.2740
 6727SOL    HW131640   2.277   2.262   8.664  4.5523 -1.5465 -1.5533
 6727SOL    HW231641   2.158   2.165   8.671  0.7286  2.5717  2.3638
 6728SOL     OW31642   2.844   3.885   8.286  0.5983 -0.1442  0.0886
 6728SOL    HW131643   2.900   3.808   8.293  1.3707  0.4840  0.7546
 6728SOL    HW231644   2.815   3.906   8.197 -0.4252 -1.7565  0.0457
 6729SOL     OW31645   4.708   4.685   0.848 -0.7243  0.0475 -0.0824
 6729SOL    HW131646   4.689   4.597   0.816  0.6871 -0.5741  0.7690
 6729SOL    HW231647   4.681   4.689   0.940  0.7453 -0.6798  0.3810
 6730SOL     OW31648   0.376   4.398   6.256  0.0746  0.2606  0.0691
 6730SOL    HW131649   0.419   4.371   6.174 -0.7676 -3.3527  0.8304
 6730SOL    HW231650   0.338   4.315   6.283  2.6776 -1.0340 -0.2910
 6731SOL     OW31651   4.235   1.112   2.163  0.5408 -0.8453  0.0027
 6731SOL    HW131652   4.235   1.061   2.081  1.6726  0.5155 -0.8284
 6731SOL    HW231653   4.315   1.163   2.155 -0.1892  0.3857  0.6511
 6732SOL     OW31654   2.965   0.624   7.304 -0.1596 -0.3476 -0.3957
 6732SOL    HW131655   2.885   0.649   7.351  1.3968  0.7877  1.6689
 6732SOL    HW231656   2.919   0.557   7.254 -0.4595 -0.4438  0.0148
 6733SOL     OW31657   1.488   4.304  10.306 -1.1196 -0.4892 -0.2008
 6733SOL    HW131658   1.478   4.399  10.313  1.6777 -0.1928  0.0361
 6733SOL    HW231659   1.457   4.271  10.390  1.3371  0.4396  1.1071
 6734SOL     OW31660   2.122   3.248   2.968  0.2153  0.7683  0.4778
 6734SOL    HW131661   2.110   3.343   2.971  0.3477  0.8274 -0.6686
 6734SOL    HW231662   2.202   3.242   2.915 -0.1379 -3.5698  0.4528
 6735SOL     OW31663   1.597   2.396   4.653 -0.2879  0.3861  0.3822
 6735SOL    HW131664   1.591   2.491   4.644 -0.2566  0.2481 -1.0673
 6735SOL    HW231665   1.677   2.390   4.705 -0.6518 -1.0277  0.7809
 6736SOL     OW31666   2.831   3.623  13.309  0.1660  0.1737 -0.1500
 6736SOL    HW131667   2.874   3.559  13.253  1.6912  0.7916  0.3100
 6736SOL    HW231668   2.775   3.662  13.240 -2.2896 -0.4561  1.4833
 6737SOL     OW31669   0.836   0.856   4.308  0.1357 -0.7492  0.2713
 6737SOL    HW131670   0.820   0.767   4.338 -0.8102 -0.2135  1.3577
 6737SOL    HW231671   0.829   0.842   4.214 -0.7530  0.7592  0.1070
 6738SOL     OW31672   2.601   1.293   3.961  0.3165 -0.3252  0.3452
 6738SOL    HW131673   2.607   1.378   3.916  1.4915 -1.0804 -0.9536
 6738SOL    HW231674   2.552   1.250   3.891 -0.2878 -0.5758  0.9271
 6739SOL     OW31675   4.061   4.128  10.929 -0.0969 -0.8051  0.0014
 6739SOL    HW131676   4.018   4.166  11.006 -1.9058 -0.9529 -0.9269
 6739SOL    HW231677   4.153   4.138  10.955 -0.1200 -0.2996 -0.1002
 6740SOL     OW31678   4.320   1.938   1.005  0.2285  0.0711 -0.0374
 6740SOL    HW131679   4.362   1.935   0.920  0.7954  1.0022  0.2124
 6740SOL    HW231680   4.268   1.857   1.005  0.8757 -0.3404  3.1979
 6741SOL     OW31681   2.948   2.763  13.816 -0.0852 -0.0244 -0.0421
 6741SOL    HW131682   2.990   2.711  13.747 -0.0411  1.0038 -0.7898
 6741SOL    HW231683   2.954   2.852  13.782  0.7722 -0.2317 -0.4476
 6742SOL     OW31684   1.601   0.623   1.768 -0.6600  0.1235 -0.0357
 6742SOL    HW131685   1.512   0.639   1.737 -0.8489 -1.7060 -0.4768
 6742SOL    HW231686   1.644   0.697   1.726 -2.9596  1.2484 -0.3743
 6743SOL     OW31687   2.366   4.464  15.264 -0.3260 -0.1686 -0.3728
 6743SOL    HW131688   2.313   4.384  15.270  2.4202 -1.7700  2.5911
 6743SOL    HW231689   2.400   4.461  15.175  2.0444  1.5749  0.4870
 6744SOL     OW31690   0.588   3.762   9.867  0.1604  0.2009 -0.3891
 6744SOL    HW131691   0.680   3.738   9.859 -0.1087 -0.9143 -0.0521
 6744SOL    HW231692   0.570   3.801   9.781  1.0802  0.6145 -0.3948
 6745SOL     OW31693   1.416   0.789  10.262 -0.1173 -0.3777  0.2485
 6745SOL    HW131694   1.445   0.713  10.313 -0.2891 -0.1786  0.6444
 6745SOL    HW231695   1.460   0.853  10.318 -1.6868  1.2910 -0.4413
 6746SOL     OW31696   3.406   1.987   9.975 -0.4265 -0.0715 -0.2537
 6746SOL    HW131697   3.358   1.906   9.957 -2.0920  0.9678 -0.4028
 6746SOL    HW231698   3.337   2.050   9.957 -1.2976 -0.6636  1.0665
 6747SOL     OW31699   1.588   3.012   4.237 -0.1613  0.0997  0.2427
 6747SOL    HW131700   1.668   3.013   4.289  0.8239  1.1791 -1.2724
 6747SOL    HW231701   1.526   3.066   4.286 -0.6131 -0.3122  0.1151
 6748SOL     OW31702   3.063   2.278  15.057  0.0116 -0.1097  0.7304
 6748SOL    HW131703   2.967   2.269  15.053  0.2590 -1.9640 -1.0398
 6748SOL    HW231704   3.060   2.368  15.026  0.6431  0.0775  1.2153
 6749SOL     OW31705   3.640   2.767   5.625  0.5088 -0.7638 -0.1989
 6749SOL    HW131706   3.689   2.849   5.616 -1.3977  0.3355 -0.5888
 6749SOL    HW231707   3.603   2.750   5.538  0.3363 -2.2056  0.1539
 6750SOL     OW31708   0.645   3.506   2.621 -0.3624  0.4505 -0.2365
 6750SOL    HW131709   0.569   3.458   2.653  1.5995 -2.2585  0.3722
 6750SOL    HW231710   0.669   3.457   2.541 -1.1453 -0.2421 -0.0492
 6751SOL     OW31711   3.188   4.218   2.536 -0.2096  0.1306 -0.4246
 6751SOL    HW131712   3.261   4.204   2.476 -0.9056 -0.7668 -1.0457
 6751SOL    HW231713   3.116   4.250   2.482 -1.6437 -0.9437  0.8692
 6752SOL     OW31714   2.096   2.477  11.056  0.1259 -0.5758  0.1636
 6752SOL    HW131715   2.157   2.412  11.090  0.1342 -1.8749 -2.3025
 6752SOL    HW231716   2.127   2.563  11.084 -2.5280  0.9283 -1.5005
 6753SOL     OW31717   2.837   2.612   2.580  0.3731 -0.3596  0.0602
 6753SOL    HW131718   2.886   2.544   2.625  0.0112 -0.2961  0.5442
 6753SOL    HW231719   2.870   2.607   2.490 -3.3178 -1.3532 -1.2574
 6754SOL     OW31720   4.022   1.831   9.279  0.6197 -0.2711  0.1560
 6754SOL    HW131721   4.022   1.905   9.218  0.5870 -0.3606  0.0478
 6754SOL    HW231722   4.116   1.830   9.299  0.3160 -0.3674  1.6422
 6755SOL     OW31723   1.370   1.993   7.565 -0.1186  0.2979  0.3419
 6755SOL    HW131724   1.415   1.937   7.628 -1.1308 -2.4024 -1.3377
 6755SOL    HW231725   1.414   2.077   7.583 -0.6658  0.9964 -1.5794
 6756SOL     OW31726   4.579   4.449   0.793  0.5184 -0.4849 -0.1752
 6756SOL    HW131727   4.522   4.378   0.824  1.3183 -0.7919  0.5919
 6756SOL    HW231728   4.521   4.490   0.729  0.5874  1.2267  0.8666
 6757SOL     OW31729   0.531   3.038   1.826 -0.3442  0.3953 -0.0134
 6757SOL    HW131730   0.498   2.958   1.867 -0.1759  0.9570  1.2064
 6757SOL    HW231731   0.603   3.061   1.884 -0.4229  0.0990  0.2026
 6758SOL     OW31732   0.067   1.514   3.434  0.0600  0.7588  0.7627
 6758SOL    HW131733   0.037   1.425   3.449 -2.0708  1.4773  0.8267
 6758SOL    HW231734   0.009   1.564   3.490  0.1309 -0.3706  1.8365
 6759SOL     OW31735   1.188   3.904  13.870 -0.3015  0.4767  0.2024
 6759SOL    HW131736   1.131   3.848  13.817  0.6608 -1.7203  1.4881
 6759SOL    HW231737   1.142   3.986  13.853  0.8346  1.2014  0.6259
 6760SOL     OW31738   0.366   1.065  15.090 -0.0479 -0.3666  0.8933
 6760SOL    HW131739   0.278   1.043  15.060  0.5910 -0.6486 -0.8109
 6760SOL    HW231740   0.420   1.039  15.015 -0.4645  1.2196  0.0355
 6761SOL     OW31741   2.976   3.591  13.833  0.0371 -0.1828  0.5542
 6761SOL    HW131742   2.946   3.682  13.837 -0.6777 -0.4989  2.4294
 6761SOL    HW231743   2.972   3.572  13.739  2.7960  2.8694 -0.1884
 6762SOL     OW31744   4.237   0.532   9.979 -0.0156 -0.2816 -0.2366
 6762SOL    HW131745   4.145   0.516  10.001 -0.1075  2.6931  1.4682
 6762SOL    HW231746   4.293   0.503  10.050  0.4323 -2.4156 -1.4627
 6763SOL     OW31747   4.493   2.019   3.264  0.1965  0.2689  0.4941
 6763SOL    HW131748   4.532   2.106   3.254  1.1274 -0.0195  1.6731
 6763SOL    HW231749   4.497   1.998   3.171 -1.4825 -1.3956  0.8067
 6764SOL     OW31750   0.348   2.260   5.221  0.4416 -0.2599 -0.1677
 6764SOL    HW131751   0.404   2.286   5.294  0.4903 -1.4679  0.2309
 6764SOL    HW231752   0.317   2.349   5.207 -1.3402 -0.9080 -0.2619
 6765SOL     OW31753   3.406   0.097   4.915  0.6818 -0.0778  0.1709
 6765SOL    HW131754   3.376   0.182   4.946 -1.0427 -0.6669  0.1287
 6765SOL    HW231755   3.496   0.093   4.948  0.3400 -2.3395  0.8631
 6766SOL     OW31756   4.190   2.992   9.557 -0.0822 -0.3468 -0.1746
 6766SOL    HW131757   4.156   2.904   9.572 -0.8218 -0.3171 -1.6537
 6766SOL    HW231758   4.203   3.013   9.650 -1.5547 -0.1479 -0.0162
 6767SOL     OW31759   4.078   1.294   3.059 -0.5350 -0.5704  0.5585
 6767SOL    HW131760   4.018   1.231   3.019 -0.8779 -2.4764  4.1197
 6767SOL    HW231761   4.063   1.281   3.153 -1.6182  1.1039  0.6270
 6768SOL     OW31762   1.903   0.628  14.626  0.1349  0.0267  0.2595
 6768SOL    HW131763   1.827   0.671  14.587  0.0606  0.5102  0.9361
 6768SOL    HW231764   1.862   0.544  14.644 -1.7007  0.6290 -1.1448
 6769SOL     OW31765   0.860   0.305   6.065 -0.4498  0.0849 -0.1818
 6769SOL    HW131766   0.776   0.326   6.025  0.1733  1.8162 -0.5803
 6769SOL    HW231767   0.841   0.221   6.106  0.4837  0.0399  0.1659
 6770SOL     OW31768   3.925   3.142   4.097 -0.2381  0.3023  0.0431
 6770SOL    HW131769   3.844   3.185   4.070  0.1779  0.3179 -1.2242
 6770SOL    HW231770   3.888   3.060   4.130 -0.9885  0.9955  0.8854
 6771SOL     OW31771   2.419   0.124   3.107  0.2453  0.1016 -0.2431
 6771SOL    HW131772   2.455   0.191   3.165 -0.3193  0.6598 -0.5389
 6771SOL    HW231773   2.355   0.176   3.059  1.2704  1.0281 -0.5813
 6772SOL     OW31774   2.092   4.229   0.413 -0.1373  0.2056 -0.4037
 6772SOL    HW131775   2.104   4.191   0.326 -2.3434  1.8017 -1.3877
 6772SOL    HW231776   2.184   4.232   0.440 -0.4568  1.4905  0.5344
 6773SOL     OW31777   2.254   1.837   5.511  0.2906  0.0318  0.3750
 6773SOL    HW131778   2.212   1.905   5.459 -0.9203  2.2081  4.2593
 6773SOL    HW231779   2.245   1.879   5.596 -2.5973  2.9525 -1.3735
 6774SOL     OW31780   0.459   4.103   3.809  0.1687 -0.4010 -0.4198
 6774SOL    HW131781   0.511   4.179   3.834  3.0000 -2.1375 -0.9976
 6774SOL    HW231782   0.491   4.037   3.871  0.9072 -0.5634 -0.9664
 6775SOL     OW31783   2.220   1.390   8.497  0.0905  0.0382  0.0512
 6775SOL    HW131784   2.166   1.455   8.542 -0.9228 -0.8316  0.1055
 6775SOL    HW231785   2.164   1.313   8.509  0.3976  0.1771  2.4830
 6776SOL     OW31786   1.383   4.028  11.762 -0.3165 -0.1111 -0.8656
 6776SOL    HW131787   1.476   4.003  11.764  0.1089  1.5659  0.9194
 6776SOL    HW231788   1.353   3.976  11.837 -1.0880  1.4810 -0.0808
 6777SOL     OW31789   4.046   4.154  13.432 -0.6707 -0.9496 -0.0430
 6777SOL    HW131790   4.013   4.244  13.427 -0.8658 -1.1071 -1.5229
 6777SOL    HW231791   4.102   4.144  13.355  0.6724  0.7628  0.7208
 6778SOL     OW31792   2.806   1.108   9.397  0.1195  0.1048  0.4924
 6778SOL    HW131793   2.733   1.046   9.395  1.0067 -0.8559 -1.6882
 6778SOL    HW231794   2.836   1.109   9.488  0.6983  1.5356  0.2920
 6779SOL     OW31795   0.915   1.737   3.516  0.2222  0.4459  0.5092
 6779SOL    HW131796   0.976   1.714   3.446 -0.7433 -1.7691  0.4147
 6779SOL    HW231797   0.928   1.661   3.573 -1.1869  1.9887  2.9049
 6780SOL     OW31798   1.296   2.950   5.208 -0.3798 -0.1029  0.2405
 6780SOL    HW131799   1.201   2.960   5.211 -0.5708 -2.0075 -0.1145
 6780SOL    HW231800   1.304   2.909   5.294  4.4031  0.2845  0.0086
 6781SOL     OW31801   0.469   3.581   7.295  0.5909 -0.5960  0.2125
 6781SOL    HW131802   0.405   3.603   7.363  0.3832  0.8149 -0.4420
 6781SOL    HW231803   0.518   3.662   7.289 -1.1757  0.6311  2.3462
 6782SOL     OW31804   4.352   3.126   7.845  0.5480 -0.2434 -0.5228
 6782SOL    HW131805   4.415   3.062   7.879 -0.0507  0.3844  1.7944
 6782SOL    HW231806   4.337   3.090   7.758  0.8010  1.7216 -1.3584
 6783SOL     OW31807   3.316   0.477   8.452  0.0066 -0.1212 -0.4592
 6783SOL    HW131808   3.323   0.566   8.418  0.1281  0.5172  1.2632
 6783SOL    HW231809   3.248   0.440   8.395 -1.6721  0.1552  1.3652
 6784SOL     OW31810   3.727   2.413   1.096 -0.3324  0.1105  0.5984
 6784SOL    HW131811   3.761   2.329   1.126 -1.1961 -0.8563 -1.1373
 6784SOL    HW231812   3.640   2.409   1.137 -0.9011 -1.1635 -0.6959
 6785SOL     OW31813   3.814   0.746   3.155  0.4541 -0.0131 -0.0306
 6785SOL    HW131814   3.753   0.689   3.202 -0.1147  1.3105  0.8412
 6785SOL    HW231815   3.782   0.750   3.065  1.8697  1.8229 -0.4389
 6786SOL     OW31816   4.082   0.171   0.772  0.3968  0.1936 -0.6247
 6786SOL    HW131817   4.060   0.264   0.765  2.0259  0.5942 -0.3613
 6786SOL    HW231818   4.170   0.175   0.808  1.2842 -1.5321 -2.6613
 6787SOL     OW31819   0.527   0.284   5.185 -0.1132 -0.5883  0.1725
 6787SOL    HW131820   0.458   0.259   5.124  1.0323  0.7631 -1.6911
 6787SOL    HW231821   0.488   0.246   5.264 -1.3082 -3.2806 -1.7233
 6788SOL     OW31822   1.970   1.217   2.647  0.0121  0.4343 -0.1013
 6788SOL    HW131823   1.998   1.258   2.729 -0.7751  0.3855  0.1864
 6788SOL    HW231824   2.049   1.219   2.592  1.5855 -0.2572  2.1174
 6789SOL     OW31825   2.677   1.590   2.762 -0.0464  0.2282  0.2959
 6789SOL    HW131826   2.737   1.516   2.753 -1.7691 -1.2939  1.5045
 6789SOL    HW231827   2.717   1.672   2.732 -0.4526  0.2720 -0.1351
 6790SOL     OW31828   3.777   4.546   5.627 -0.4726  0.2636 -0.9118
 6790SOL    HW131829   3.706   4.603   5.596 -0.4583  0.7614 -0.0291
 6790SOL    HW231830   3.807   4.591   5.706 -1.5288 -0.8701  0.1355
 6791SOL     OW31831   1.676   0.019   2.697  0.0362  0.3120  0.1912
 6791SOL    HW131832   1.691   0.108   2.664  1.5204 -0.0171 -0.0279
 6791SOL    HW231833   1.634   4.716   2.616 -0.4737  3.1641 -0.5417
 6792SOL     OW31834   3.985   3.787   2.757 -0.3738 -0.5025  0.6927
 6792SOL    HW131835   4.030   3.704   2.774  0.0668 -0.5995 -0.9812
 6792SOL    HW231836   4.020   3.792   2.668 -0.9032  0.6116  0.5479
 6793SOL     OW31837   0.260   1.368  15.437 -0.2415 -0.3343  1.0362
 6793SOL    HW131838   0.254   1.417  15.519  2.1958  0.5648  0.6700
 6793SOL    HW231839   0.177   1.397  15.398  0.1702 -2.0555 -1.0829
 6794SOL     OW31840   1.795   1.897   0.589 -0.0102  0.3257 -0.2404
 6794SOL    HW131841   1.832   1.980   0.557  0.2955 -0.8054 -2.8635
 6794SOL    HW231842   1.857   1.879   0.659 -1.2486  0.6172  0.9282
 6795SOL     OW31843   1.568   2.269   2.352  0.0805 -0.3608 -0.2204
 6795SOL    HW131844   1.482   2.297   2.320  0.4012  0.5362 -0.2897
 6795SOL    HW231845   1.618   2.344   2.321 -0.2730  0.5017  1.2567
 6796SOL     OW31846   3.100   4.367   5.039 -0.0257  0.1307 -0.0118
 6796SOL    HW131847   3.161   4.343   4.970  0.0326  0.3042 -0.0204
 6796SOL    HW231848   3.101   4.280   5.079  0.2637  0.0692 -0.1567
 6797SOL     OW31849   0.649   4.293   8.572  0.6496  0.2591  0.2274
 6797SOL    HW131850   0.706   4.276   8.497  0.3055 -2.3141  0.5277
 6797SOL    HW231851   0.706   4.257   8.639 -1.3784 -0.8507  1.3549
 6798SOL     OW31852   3.102   1.171   8.373 -0.8286  0.8079 -0.2671
 6798SOL    HW131853   3.025   1.130   8.411  1.4455 -2.3998  0.9329
 6798SOL    HW231854   3.109   1.245   8.433  0.6331  0.5399 -0.1051
 6799SOL     OW31855   1.936   2.220   8.677 -0.6296 -0.0472 -0.1254
 6799SOL    HW131856   1.880   2.273   8.734  0.3641  0.2613  0.5587
 6799SOL    HW231857   1.986   2.293   8.641 -0.1646 -1.0043 -1.4557
 6800SOL     OW31858   1.662   2.050   1.971  0.1764 -0.0024 -0.0955
 6800SOL    HW131859   1.683   1.990   2.042 -1.8307 -1.1740 -0.4773
 6800SOL    HW231860   1.721   2.015   1.904  2.2802  3.1426  0.0964
 6801SOL     OW31861   2.842   2.131   1.942 -0.3536  0.5250  0.3912
 6801SOL    HW131862   2.918   2.139   2.000 -1.0722  2.1613  1.0897
 6801SOL    HW231863   2.828   2.222   1.916 -1.3674  0.2989  0.1471
 6802SOL     OW31864   1.216   2.167   5.412 -0.7069 -0.0808  0.5680
 6802SOL    HW131865   1.148   2.211   5.462 -1.7925 -0.1603 -0.8405
 6802SOL    HW231866   1.267   2.121   5.479 -0.6671  1.3955  1.5624
 6803SOL     OW31867   3.332   4.613  12.279 -0.5287  0.4822 -0.3062
 6803SOL    HW131868   3.310   4.697  12.320 -0.9780 -0.5664  1.5529
 6803SOL    HW231869   3.367   4.568  12.355  0.5122  2.1189  0.2033
 6804SOL     OW31870   4.131   2.023  14.883  0.1131 -0.1002 -0.1516
 6804SOL    HW131871   4.194   2.065  14.941  1.5450  0.4516 -2.0990
 6804SOL    HW231872   4.075   2.101  14.874  4.4711  2.9876 -0.5360
 6805SOL     OW31873   2.359   4.242  12.287  0.2205  0.0013  0.5057
 6805SOL    HW131874   2.373   4.200  12.372  1.1955 -0.8422 -0.0615
 6805SOL    HW231875   2.391   4.170  12.232  1.7880 -0.4545  2.0125
 6806SOL     OW31876   0.262   3.269   2.443  0.4365  0.1205 -0.7541
 6806SOL    HW131877   0.180   3.307   2.411  0.0895 -1.4267 -1.6989
 6806SOL    HW231878   0.242   3.181   2.475  0.1399  0.3139 -0.4105
 6807SOL     OW31879   2.863   1.209   9.670  0.5726 -0.0425  0.2000
 6807SOL    HW131880   2.917   1.273   9.624 -0.9211  0.4142 -0.9333
 6807SOL    HW231881   2.923   1.137   9.685  0.4137 -0.2696 -0.2576
 6808SOL     OW31882   3.121   1.590  11.771  0.5017 -1.0371 -0.5065
 6808SOL    HW131883   3.083   1.668  11.731 -0.7392 -1.4838 -0.2085
 6808SOL    HW231884   3.061   1.522  11.740 -0.4256 -0.8643  0.9217
 6809SOL     OW31885   0.679   3.073   2.086 -0.2831 -0.1253  0.6918
 6809SOL    HW131886   0.740   3.003   2.107 -1.5366 -1.0274  1.3315
 6809SOL    HW231887   0.599   3.044   2.129 -1.1334  0.2422 -0.6455
 6810SOL     OW31888   0.410   3.468   7.853  0.4145  0.8061  0.1781
 6810SOL    HW131889   0.375   3.556   7.839  0.5608  1.2370  2.4855
 6810SOL    HW231890   0.361   3.443   7.931 -1.1445  1.4168 -0.5974
 6811SOL     OW31891   2.455   1.769   2.528  0.2201  0.2681  0.5558
 6811SOL    HW131892   2.370   1.750   2.487  0.2382  1.2895  0.0430
 6811SOL    HW231893   2.506   1.799   2.453 -0.1326  0.2216  0.2976
 6812SOL     OW31894   1.600   3.747   9.224 -0.0007 -0.0488  0.3252
 6812SOL    HW131895   1.659   3.731   9.150  0.1636 -0.8326  0.6305
 6812SOL    HW231896   1.663   3.762   9.295 -0.0886  3.7982 -0.4170
 6813SOL     OW31897   0.634   1.861   2.006  0.1591  0.4464  0.1439
 6813SOL    HW131898   0.687   1.856   1.927 -1.2025 -0.0451 -0.7323
 6813SOL    HW231899   0.552   1.880   1.962  0.6780 -0.0900 -1.0277
 6814SOL     OW31900   4.285   1.922   4.562  0.3037  0.2131 -0.2994
 6814SOL    HW131901   4.203   1.955   4.598  1.5806 -1.1682  3.8311
 6814SOL    HW231902   4.346   1.942   4.633  1.5256  0.6462 -1.4456
 6815SOL     OW31903   3.678   4.267   4.584 -0.1513  0.2902 -0.0799
 6815SOL    HW131904   3.640   4.180   4.590 -0.6061  0.6185  1.6502
 6815SOL    HW231905   3.610   4.334   4.587  1.0669  1.5420 -0.1504
 6816SOL     OW31906   4.341   2.863   2.914  0.3046  0.0038 -0.3328
 6816SOL    HW131907   4.394   2.790   2.882  0.8128  0.6205 -0.8923
 6816SOL    HW231908   4.402   2.936   2.922 -2.4094  2.3311 -1.0836
 6817SOL     OW31909   0.968   3.114   4.046  0.2697 -0.3960  0.5276
 6817SOL    HW131910   1.020   3.179   3.998 -0.6203 -0.1454 -0.0975
 6817SOL    HW231911   0.890   3.117   3.992 -0.6213  0.8450  1.8813
 6818SOL     OW31912   1.465   1.315   2.627 -0.8000 -0.1854  0.4249
 6818SOL    HW131913   1.438   1.361   2.548 -2.2780 -1.2861  0.2928
 6818SOL    HW231914   1.543   1.365   2.651 -1.6327  1.4025 -0.2106
 6819SOL     OW31915   3.953   4.436   9.367 -0.0572 -0.2974 -0.1628
 6819SOL    HW131916   3.953   4.490   9.287  2.6770  2.2743  1.6095
 6819SOL    HW231917   3.983   4.498   9.433 -2.0805  2.8837 -2.1636
 6820SOL     OW31918   1.840   0.255   6.733  0.2789 -0.4200  0.0778
 6820SOL    HW131919   1.782   0.181   6.713 -0.4414  0.8039 -2.2730
 6820SOL    HW231920   1.778   0.328   6.733  1.3564  0.5003  3.3000
 6821SOL     OW31921   0.256   1.364   5.952 -0.2434 -0.9563  0.0154
 6821SOL    HW131922   0.339   1.319   5.935  0.3652  0.3386 -0.4005
 6821SOL    HW231923   0.249   1.388   5.859  0.0829 -1.0552 -0.0342
 6822SOL     OW31924   2.124   2.862   0.857  0.1599  0.2207  0.5275
 6822SOL    HW131925   2.112   2.887   0.948  0.9476  2.4812  0.0012
 6822SOL    HW231926   2.056   2.797   0.839  1.7152 -1.6881  1.5158
 6823SOL     OW31927   3.756   3.269   0.408  0.2413  0.3402 -0.4364
 6823SOL    HW131928   3.750   3.182   0.447  0.6224  0.6641  0.3270
 6823SOL    HW231929   3.789   3.321   0.481 -1.9246  0.1920  0.6636
 6824SOL     OW31930   4.491   0.035   3.142 -0.6485  0.0993 -0.1479
 6824SOL    HW131931   4.547   0.112   3.136  2.3476 -1.8373  2.7223
 6824SOL    HW231932   4.528   0.010   3.227  2.8243 -0.9534 -1.9350
 6825SOL     OW31933   1.227   4.079  10.886  0.0303 -0.2596 -0.0909
 6825SOL    HW131934   1.231   3.989  10.853  0.5003 -0.0338 -0.6445
 6825SOL    HW231935   1.153   4.119  10.841  0.4689  1.1626  0.4710
 6826SOL     OW31936   4.694   3.790   2.590 -0.6518  0.0197 -0.3375
 6826SOL    HW131937   4.661   3.727   2.525  0.3462 -1.1033  0.2720
 6826SOL    HW231938   0.017   3.848   2.531 -0.3929  2.6647  2.5387
 6827SOL     OW31939   0.113   1.248   2.638 -0.3358  0.6561  0.2336
 6827SOL    HW131940   0.177   1.185   2.606 -1.2068  1.7685 -3.6694
 6827SOL    HW231941   0.142   1.250   2.729 -0.0083 -2.5221  0.1934
 6828SOL     OW31942   0.192   1.414   4.483  0.1377 -0.3552  0.3017
 6828SOL    HW131943   0.232   1.375   4.561  0.1128 -0.5737  0.2026
 6828SOL    HW231944   0.232   1.501   4.493 -0.6726 -0.0036  0.4892
 6829SOL     OW31945   0.832   0.316   7.134  0.3133 -0.6713  0.4264
 6829SOL    HW131946   0.788   0.327   7.049  2.4871 -0.7583 -0.7123
 6829SOL    HW231947   0.907   0.265   7.101 -0.0144 -1.3620  0.7368
 6830SOL     OW31948   3.509   3.611   8.525  0.8370 -0.3562  0.2125
 6830SOL    HW131949   3.508   3.696   8.570 -0.1251  1.2081 -2.7933
 6830SOL    HW231950   3.437   3.568   8.572 -1.7810  2.4218 -1.2651
 6831SOL     OW31951   4.384   0.197   3.564 -0.2256  0.0414  0.0802
 6831SOL    HW131952   4.353   0.240   3.643 -0.5110  1.0786 -0.6066
 6831SOL    HW231953   4.362   0.107   3.590  0.1967 -0.0731  0.0518
 6832SOL     OW31954   3.246   0.523   5.284  0.0757  0.4492  0.1976
 6832SOL    HW131955   3.199   0.606   5.287  0.7607  0.7365  2.9925
 6832SOL    HW231956   3.236   0.489   5.195  3.8026  2.0631 -0.8262
 6833SOL     OW31957   2.985   2.161   0.773 -0.5503 -0.1099  0.1623
 6833SOL    HW131958   2.920   2.223   0.739 -1.4055 -0.5898  0.9253
 6833SOL    HW231959   3.068   2.188   0.733 -1.3136  0.0011 -1.3576
 6834SOL     OW31960   2.033   1.595   4.187 -0.3348  0.4307 -0.3690
 6834SOL    HW131961   2.110   1.548   4.155 -0.0169  1.3661 -0.9848
 6834SOL    HW231962   2.075   1.654   4.250  0.0339 -3.5359  3.0638
 6835SOL     OW31963   3.373   4.001  13.178  0.3744  0.0234 -0.0881
 6835SOL    HW131964   3.325   4.081  13.154 -0.3634  0.6202  3.2549
 6835SOL    HW231965   3.440   4.001  13.110  1.0999  0.9832  0.6282
 6836SOL     OW31966   2.688   0.912   3.565 -0.2602  0.5072 -0.1248
 6836SOL    HW131967   2.742   0.933   3.489 -0.9719 -0.8142 -1.0225
 6836SOL    HW231968   2.645   0.828   3.544  3.6525 -0.9912 -2.1872
 6837SOL     OW31969   2.925   0.185   3.098  0.6936  0.4796  0.1259
 6837SOL    HW131970   2.831   0.170   3.098  0.6307  0.8946 -1.0320
 6837SOL    HW231971   2.943   0.230   3.181 -0.1614  1.1217 -0.0425
 6838SOL     OW31972   0.452   3.266   8.145  0.3075  0.1317 -0.1020
 6838SOL    HW131973   0.514   3.336   8.165  1.1361 -0.4686 -0.5559
 6838SOL    HW231974   0.370   3.313   8.131 -0.7174 -1.3920  0.7497
 6839SOL     OW31975   3.390   1.574   5.856  0.4512  0.4640 -0.6398
 6839SOL    HW131976   3.396   1.614   5.943  3.8533  1.4771 -1.3585
 6839SOL    HW231977   3.307   1.614   5.831  0.2171  0.6434  0.4118
 6840SOL     OW31978   3.459   1.675   3.677 -0.2614 -0.5569 -0.4673
 6840SOL    HW131979   3.440   1.706   3.589 -0.2739 -1.2568 -0.7042
 6840SOL    HW231980   3.381   1.706   3.724 -1.0325 -1.3418 -1.2372
 6841SOL     OW31981   1.264   3.285  13.797  0.1207  0.0474  0.1104
 6841SOL    HW131982   1.235   3.335  13.873  2.6061  1.5361  0.0904
 6841SOL    HW231983   1.198   3.216  13.795  0.1107  0.0207  1.4005
 6842SOL     OW31984   1.771   4.659   3.741 -0.3035  0.7238 -0.0098
 6842SOL    HW131985   1.829   4.718   3.787 -0.6824  1.0223  0.0825
 6842SOL    HW231986   1.731   4.607   3.811  3.0592 -1.5171  0.2096
 6843SOL     OW31987   4.572   1.384   4.970  0.2371  0.2995  0.3622
 6843SOL    HW131988   4.616   1.346   4.894  0.3741 -0.7076  0.9449
 6843SOL    HW231989   4.510   1.440   4.923 -1.0117 -1.5477 -0.2002
 6844SOL     OW31990   3.594   3.548   3.437 -0.3824 -0.1935 -0.2165
 6844SOL    HW131991   3.600   3.586   3.350  0.1263  0.5755  0.1517
 6844SOL    HW231992   3.567   3.458   3.417  1.0375  0.2781 -4.1606
 6845SOL     OW31993   2.376   1.200  11.046  0.2996 -0.3942 -0.3773
 6845SOL    HW131994   2.285   1.182  11.070 -0.3225  2.5239 -0.4983
 6845SOL    HW231995   2.411   1.224  11.132 -0.9735  0.4579 -0.1089
 6846SOL     OW31996   4.199   2.639  16.451 -0.1293  0.6874 -0.1498
 6846SOL    HW131997   4.148   2.583  16.392  1.2245 -0.7895  0.0893
 6846SOL    HW231998   4.283   2.637  16.406 -0.2444  2.7119 -0.4397
 6847SOL     OW31999   0.516   4.097   5.307  0.6716 -0.3762 -0.2222
 6847SOL    HW132000   0.430   4.130   5.334  2.5136  1.8916  2.9249
 6847SOL    HW232001   0.570   4.152   5.364  0.9453 -0.3495 -0.5053
 6848SOL     OW32002   4.331   0.356   3.199  0.2521  0.4404 -0.0486
 6848SOL    HW132003   4.345   0.268   3.234  1.6652  0.5926 -0.2366
 6848SOL    HW232004   4.342   0.336   3.106  2.4720  0.7008  0.1575
 6849SOL     OW32005   3.205   1.800  13.772 -0.0968  0.4522 -0.0967
 6849SOL    HW132006   3.246   1.812  13.858 -1.0091  0.2440  0.3650
 6849SOL    HW232007   3.147   1.725  13.788 -0.4081  1.1110  1.8506
 6850SOL     OW32008   0.457   2.183  16.100  0.3658 -0.3938  0.4144
 6850SOL    HW132009   0.507   2.102  16.090 -0.0604 -0.5734 -0.2459
 6850SOL    HW232010   0.365   2.158  16.092  0.5707 -0.8724 -0.4143
 6851SOL     OW32011   2.927   3.121  13.918  0.2955  1.2987 -0.5436
 6851SOL    HW132012   2.838   3.153  13.932  0.4945  1.8571 -0.5397
 6851SOL    HW232013   2.928   3.067  13.840  0.4804 -0.2356  0.5145
 6852SOL     OW32014   2.350   3.068   5.113 -0.5205 -0.5035 -0.7670
 6852SOL    HW132015   2.359   2.978   5.084  0.4977 -0.4632 -0.5839
 6852SOL    HW232016   2.293   3.102   5.044 -0.8338  2.1729  0.8012
 6853SOL     OW32017   0.798   3.310   2.120 -0.3731 -0.4758 -0.3501
 6853SOL    HW132018   0.742   3.352   2.054 -0.0941 -0.4054 -0.5426
 6853SOL    HW232019   0.774   3.218   2.111  1.0956 -0.8639 -0.2771
 6854SOL     OW32020   3.273   0.967   1.311  0.2369 -0.1778  0.0292
 6854SOL    HW132021   3.362   0.982   1.281 -0.6813  1.1722 -2.0336
 6854SOL    HW232022   3.265   0.873   1.294 -0.5414 -0.5397  2.3224
 6855SOL     OW32023   0.654   1.063  12.977 -0.6952 -0.3610 -0.0149
 6855SOL    HW132024   0.719   1.044  13.045  0.5114 -0.8054 -1.2963
 6855SOL    HW232025   0.680   1.155  12.967  0.2851 -0.7175 -0.7740
 6856SOL     OW32026   3.951   0.723   5.343 -0.1316 -0.1502  0.4420
 6856SOL    HW132027   3.869   0.762   5.315 -0.5976 -0.1546  1.7789
 6856SOL    HW232028   3.932   0.639   5.302 -0.1882  0.7821 -1.4250
 6857SOL     OW32029   2.823   2.875   1.446 -0.2329 -0.4473 -0.1995
 6857SOL    HW132030   2.814   2.839   1.358  0.9966 -0.9559 -0.1219
 6857SOL    HW232031   2.896   2.933   1.427  0.7135 -1.6281 -0.1579
 6858SOL     OW32032   1.861   4.047   9.843  0.2222  0.7373 -0.2231
 6858SOL    HW132033   1.901   3.984   9.784  0.3583 -0.8185  1.5203
 6858SOL    HW232034   1.871   4.005   9.929 -2.8306  0.2411 -0.1078
 6859SOL     OW32035   3.851   2.055   7.485  0.2405 -0.3782  0.1703
 6859SOL    HW132036   3.800   1.977   7.465 -1.5548  0.7467  0.4034
 6859SOL    HW232037   3.892   2.068   7.399  0.0803 -1.1943 -0.0317
 6860SOL     OW32038   1.645   1.671   5.330 -0.1271  0.7778  0.0032
 6860SOL    HW132039   1.714   1.700   5.270 -2.5626 -2.8773 -4.6030
 6860SOL    HW232040   1.679   1.582   5.341  1.2728  1.0253 -2.1886
 6861SOL     OW32041   1.433   1.876   7.014  0.3982  0.2488  0.2202
 6861SOL    HW132042   1.414   1.859   7.106  0.6835  0.7899  0.3759
 6861SOL    HW232043   1.527   1.887   7.030  0.3298 -0.9333  1.4687
 6862SOL     OW32044   1.516   2.156   5.674 -0.0229  0.5315 -0.6122
 6862SOL    HW132045   1.526   2.089   5.741  1.9531  0.3927 -1.0705
 6862SOL    HW232046   1.436   2.119   5.635 -0.2057  0.7935 -0.4932
 6863SOL     OW32047   4.285   3.667  17.523 -0.0365 -0.3838  0.1872
 6863SOL    HW132048   4.194   3.652  17.549  0.7901 -0.4015  3.1351
 6863SOL    HW232049   4.339   3.614  17.582 -0.7527 -1.3337  0.0044
 6864SOL     OW32050   1.950   1.568   5.395  0.6574  0.0971  0.3205
 6864SOL    HW132051   1.895   1.490   5.398 -0.8546  1.1850  1.3483
 6864SOL    HW232052   1.897   1.618   5.457  0.0487 -0.7207  0.4580
 6865SOL     OW32053   2.748   1.656  17.596  0.2311  0.0118  0.1995
 6865SOL    HW132054   2.709   1.728  17.645  2.4369  0.4294  1.3303
 6865SOL    HW232055   2.729   1.582  17.654 -4.0514 -0.0313 -1.2243
 6866SOL     OW32056   3.305   3.896   7.768 -0.5412 -0.1591  0.0484
 6866SOL    HW132057   3.215   3.866   7.759 -1.2414  2.4217 -1.2915
 6866SOL    HW232058   3.346   3.879   7.683 -0.4325  1.0694 -0.1409
 6867SOL     OW32059   2.894   2.265  11.890 -0.5094  0.1716 -0.1315
 6867SOL    HW132060   2.824   2.227  11.944  1.5716 -0.8760  1.8102
 6867SOL    HW232061   2.857   2.255  11.802  2.6824  0.2829 -1.4770
 6868SOL     OW32062   1.921   2.509   6.979 -0.1866 -0.0697 -0.1829
 6868SOL    HW132063   1.922   2.594   6.935 -1.8799 -0.0728 -0.2246
 6868SOL    HW232064   1.844   2.518   7.035  0.7834  0.0734  1.1379
 6869SOL     OW32065   0.829   2.746   4.279  0.7140  0.1763  0.0519
 6869SOL    HW132066   0.837   2.656   4.311  1.0896  1.1751  2.7982
 6869SOL    HW232067   0.918   2.781   4.275  0.4989  0.6862 -0.2853
 6870SOL     OW32068   2.865   4.428   3.610 -0.3854 -0.9935  0.2076
 6870SOL    HW132069   2.943   4.430   3.554 -1.4838  1.1860 -1.1996
 6870SOL    HW232070   2.836   4.519   3.614 -1.6946 -1.4482  1.1680
 6871SOL     OW32071   1.701   1.761  15.284 -0.2461 -0.6417 -0.5451
 6871SOL    HW132072   1.665   1.679  15.249 -0.5826 -1.3636  1.4660
 6871SOL    HW232073   1.760   1.728  15.352 -1.8281  1.1294  1.7246
 6872SOL     OW32074   3.687   3.291  16.613  0.9427  0.4869  0.5072
 6872SOL    HW132075   3.614   3.327  16.562  1.5208  1.3711  0.2919
 6872SOL    HW232076   3.735   3.250  16.541  0.7708  2.1285 -0.5549
 6873SOL     OW32077   3.874   0.405  16.380 -0.4415 -0.5682 -0.3212
 6873SOL    HW132078   3.783   0.433  16.388 -0.1760  0.6161 -1.5153
 6873SOL    HW232079   3.896   0.453  16.300  0.0703  0.2913  0.3382
 6874SOL     OW32080   0.689   0.643   2.121  0.4128  0.0991 -0.6016
 6874SOL    HW132081   0.618   0.667   2.181 -1.3876 -2.5908 -1.6747
 6874SOL    HW232082   0.687   0.548   2.138 -1.5628  0.4558  1.2203
 6875SOL     OW32083   2.759   3.304   7.039 -0.5352  0.2591  0.3398
 6875SOL    HW132084   2.811   3.256   6.974 -0.0437  0.6907  0.4078
 6875SOL    HW232085   2.726   3.380   6.991 -0.7936 -0.6137 -0.8600
 6876SOL     OW32086   2.876   4.473   6.165 -0.5287 -0.6455 -0.0218
 6876SOL    HW132087   2.857   4.527   6.089  1.0040  2.7437  2.0157
 6876SOL    HW232088   2.791   4.471   6.208 -0.1754 -0.5053  0.6815
 6877SOL     OW32089   1.945   2.164   2.826  0.2127  0.1026 -0.0055
 6877SOL    HW132090   1.857   2.198   2.808  0.3137 -0.8243 -2.2069
 6877SOL    HW232091   1.999   2.242   2.809  0.0184  0.4043  0.7708
 6878SOL     OW32092   0.580   4.662   7.394  0.0718 -0.1441 -0.0253
 6878SOL    HW132093   0.637   4.716   7.340 -0.0297 -1.0251 -1.0284
 6878SOL    HW232094   0.588   4.582   7.342  1.5334  0.3165 -0.4888
 6879SOL     OW32095   2.904   1.116   8.517 -0.7385  0.3861  0.4389
 6879SOL    HW132096   2.912   1.055   8.590 -2.2569 -0.4687 -0.1095
 6879SOL    HW232097   2.855   1.183   8.564 -0.5803 -1.1103  2.7572
 6880SOL     OW32098   1.061   2.446   1.603  0.0161  0.4904 -0.7969
 6880SOL    HW132099   1.028   2.431   1.514 -1.8573  0.0290 -0.0331
 6880SOL    HW232100   1.043   2.539   1.616  0.3739  0.7101 -1.8522
 6881SOL     OW32101   0.411   0.002   8.931 -0.3962 -0.3297  0.2215
 6881SOL    HW132102   0.475   0.071   8.949 -3.2329  1.6767  2.5473
 6881SOL    HW232103   0.455   4.675   8.864 -2.2854  0.3915 -1.5937
 6882SOL     OW32104   0.675   4.073  11.521  0.1946  0.1572  0.5024
 6882SOL    HW132105   0.727   4.108  11.593  0.7944 -2.5962  1.4080
 6882SOL    HW232106   0.728   4.097  11.445 -0.0460  1.3385  0.7091
 6883SOL     OW32107   2.837   1.712   2.497 -0.4521 -0.1371  0.1783
 6883SOL    HW132108   2.891   1.757   2.432  1.4191  0.2477  1.9824
 6883SOL    HW232109   2.778   1.666   2.437 -0.1605  0.1431 -0.3253
 6884SOL     OW32110   4.266   4.512   7.348  0.3007 -0.0025 -0.4663
 6884SOL    HW132111   4.248   4.419   7.336 -3.0114  0.2625  2.2488
 6884SOL    HW232112   4.208   4.548   7.280  2.6214 -0.3413 -2.6355
 6885SOL     OW32113   2.505   2.577   9.180  0.0960 -0.2457 -0.5130
 6885SOL    HW132114   2.541   2.636   9.246 -3.7885 -0.4196  1.7708
 6885SOL    HW232115   2.415   2.600   9.201  1.3898  3.7576  0.6537
 6886SOL     OW32116   3.902   3.451   5.252  0.2274  0.3448  0.5281
 6886SOL    HW132117   3.994   3.462   5.229 -0.0992 -1.1073 -1.5254
 6886SOL    HW232118   3.875   3.542   5.265  1.0395  0.5756  0.5956
 6887SOL     OW32119   3.527   3.162   5.762 -0.2830  0.0852 -0.2298
 6887SOL    HW132120   3.535   3.096   5.830 -1.3377  0.7541  0.5514
 6887SOL    HW232121   3.436   3.192   5.772 -1.2540 -1.9619 -2.7980
 6888SOL     OW32122   4.228   1.474   5.385  0.1178 -0.4346 -0.6224
 6888SOL    HW132123   4.298   1.413   5.361  0.4023 -1.0026  1.6133
 6888SOL    HW232124   4.157   1.413   5.402 -0.1422  0.2171  0.6445
 6889SOL     OW32125   0.220   2.888  12.086 -0.4537  0.2756 -0.4532
 6889SOL    HW132126   0.206   2.963  12.028 -4.3946  1.6747  2.2974
 6889SOL    HW232127   0.221   2.919  12.177 -4.0278 -0.0857 -0.2932
 6890SOL     OW32128   0.638   0.070   0.776  0.5054 -0.1412 -0.4511
 6890SOL    HW132129   0.556   0.119   0.771 -0.4257 -1.8700 -2.2959
 6890SOL    HW232130   0.652   0.060   0.870  1.9878  0.4839 -0.6047
 6891SOL     OW32131   1.731   1.218   6.496  0.0642 -0.6375  0.3094
 6891SOL    HW132132   1.691   1.298   6.529  1.4737  1.2946 -2.6209
 6891SOL    HW232133   1.768   1.188   6.580  0.5724 -0.0778  0.2834
 6892SOL     OW32134   0.604   2.111   6.196  0.2069  0.1512  0.2186
 6892SOL    HW132135   0.693   2.137   6.171 -0.9839  1.4167 -2.7313
 6892SOL    HW232136   0.620   2.029   6.243 -2.3184  0.8341  2.3153
 6893SOL     OW32137   4.300   1.446  11.299 -0.3233 -0.0576  0.4201
 6893SOL    HW132138   4.275   1.411  11.384  1.6050  0.1634  1.0850
 6893SOL    HW232139   4.335   1.363  11.264 -2.0067 -0.4876 -0.2222
 6894SOL     OW32140   1.485   0.408   2.200  0.1934  0.2260 -0.1958
 6894SOL    HW132141   1.505   0.375   2.112 -1.8538 -0.7211 -0.3161
 6894SOL    HW232142   1.393   0.381   2.198  1.2649 -3.3797  0.6121
 6895SOL     OW32143   2.119   3.915  13.442  0.3263 -0.1310  0.0087
 6895SOL    HW132144   2.056   3.925  13.514 -1.0852  0.7969 -1.3374
 6895SOL    HW232145   2.086   3.842  13.389 -1.5764  0.9067 -0.2594
 6896SOL     OW32146   4.038   0.495   8.371 -0.0612 -0.0207 -0.4186
 6896SOL    HW132147   3.998   0.419   8.328  1.7906 -1.6778  0.7532
 6896SOL    HW232148   4.092   0.447   8.434  0.9636  1.2288 -0.3605
 6897SOL     OW32149   1.229   1.606   2.203  0.0140  0.8146 -0.3156
 6897SOL    HW132150   1.247   1.590   2.110 -1.9774 -1.0173 -0.3787
 6897SOL    HW232151   1.144   1.565   2.217  0.4703  0.6149  1.8824
 6898SOL     OW32152   0.745   4.347   7.372 -0.8773  0.5639  0.5247
 6898SOL    HW132153   0.670   4.387   7.328  0.5661  1.6061 -1.0223
 6898SOL    HW232154   0.703   4.321   7.454 -0.1975 -1.8546  0.1016
 6899SOL     OW32155   3.722   0.764   9.748 -0.1073  0.2688 -0.2513
 6899SOL    HW132156   3.724   0.763   9.652 -0.4967 -1.1646 -0.2465
 6899SOL    HW232157   3.744   0.855   9.767 -0.4133  0.7332 -2.1277
 6900SOL     OW32158   2.395   0.170   8.142  0.2492  0.0645 -0.0752
 6900SOL    HW132159   2.388   0.088   8.192 -2.3238  0.4994  0.2937
 6900SOL    HW232160   2.312   0.210   8.167 -1.0832 -2.9476  0.3647
 6901SOL     OW32161   2.579   4.199  17.515 -0.3176 -0.6525  0.1199
 6901SOL    HW132162   2.600   4.107  17.500 -0.9222 -0.7837  0.0551
 6901SOL    HW232163   2.636   4.243  17.453  1.8935 -1.6140  1.4780
 6902SOL     OW32164   3.750   1.327   0.949  0.0497 -0.1801 -0.1610
 6902SOL    HW132165   3.803   1.289   1.020 -1.1819 -2.9231 -0.7125
 6902SOL    HW232166   3.676   1.349   1.007  0.5969 -0.0092  0.4776
 6903SOL     OW32167   2.169   1.911   8.148 -0.0203 -0.0255 -0.1736
 6903SOL    HW132168   2.120   1.920   8.230 -1.3768  2.1410 -1.2248
 6903SOL    HW232169   2.116   1.844   8.105 -0.5573  0.5703 -0.4476
 6904SOL     OW32170   0.893   3.212   8.031  0.0718 -0.6153 -0.0073
 6904SOL    HW132171   0.980   3.212   8.072  0.6888  0.1858 -1.2801
 6904SOL    HW232172   0.906   3.286   7.971  1.3048  1.7136  3.1588
 6905SOL     OW32173   1.087   0.248   7.924  0.0432 -0.0509  0.3043
 6905SOL    HW132174   1.048   0.169   7.961 -1.5039  0.3119 -0.5506
 6905SOL    HW232175   1.150   0.286   7.986 -1.3675  0.1416  1.6360
 6906SOL     OW32176   3.445   1.686   3.996  0.7729 -0.3334  0.0745
 6906SOL    HW132177   3.467   1.595   3.976 -1.0587 -0.2760 -2.2928
 6906SOL    HW232178   3.369   1.706   3.941  0.7843  3.6945  1.5129
 6907SOL     OW32179   4.378   2.297   8.495 -0.2259  0.3459 -0.0307
 6907SOL    HW132180   4.295   2.248   8.495  1.9458 -3.3002 -0.9562
 6907SOL    HW232181   4.357   2.382   8.456  4.0329  1.4058 -0.0119
 6908SOL     OW32182   4.242   3.848   3.782  0.0949  0.7318 -0.5996
 6908SOL    HW132183   4.147   3.845   3.772 -0.2977 -0.2772  3.1641
 6908SOL    HW232184   4.252   3.753   3.775 -0.1166  0.6040  0.8053
 6909SOL     OW32185   3.032   1.314   0.180 -0.6968 -0.3971 -0.8274
 6909SOL    HW132186   3.083   1.290   0.257 -1.9369 -2.2707 -0.5955
 6909SOL    HW232187   3.092   1.376   0.139  0.5958 -0.9976  0.1653
 6910SOL     OW32188   1.992   4.123   7.247 -0.3556 -0.1327 -0.2526
 6910SOL    HW132189   2.008   4.079   7.330 -0.9027 -1.2022 -0.6947
 6910SOL    HW232190   1.896   4.123   7.242 -0.3111  0.7043 -1.1140
 6911SOL     OW32191   0.115   3.627  10.771  0.3767 -0.1936 -0.1476
 6911SOL    HW132192   0.159   3.707  10.801 -0.0575  0.5063 -1.4037
 6911SOL    HW232193   0.031   3.664  10.745 -0.4061  0.0936  2.7400
 6912SOL     OW32194   0.687   4.230   1.785  0.2991  0.1980  0.4915
 6912SOL    HW132195   0.656   4.251   1.873  0.0775  0.0379  0.4514
 6912SOL    HW232196   0.757   4.295   1.772 -0.6903  1.1140 -0.3572
 6913SOL     OW32197   2.089   0.960   7.483  0.2848 -0.2489 -0.2332
 6913SOL    HW132198   2.001   0.997   7.495 -0.5229 -1.5531 -2.1227
 6913SOL    HW232199   2.078   0.866   7.498  3.1941 -0.8826 -2.1095
 6914SOL     OW32200   1.346   1.178   8.976  0.3271 -0.1500  0.7103
 6914SOL    HW132201   1.332   1.180   9.071 -0.6290  2.4215  0.5104
 6914SOL    HW232202   1.432   1.136   8.977  0.0058 -0.8691 -3.6004
 6915SOL     OW32203   2.773   1.537  13.969 -0.5344  0.4129  0.4605
 6915SOL    HW132204   2.727   1.616  13.942 -1.8931 -0.7299 -0.5865
 6915SOL    HW232205   2.841   1.567  14.029  1.7267 -1.5256 -1.1363
 6916SOL     OW32206   3.861   1.077   8.001 -0.2425  0.5121  0.2208
 6916SOL    HW132207   3.916   1.052   8.075  1.6064  1.9604 -0.6723
 6916SOL    HW232208   3.924   1.076   7.928 -1.3850 -1.6698 -0.7696
 6917SOL     OW32209   0.069   0.667   9.641 -0.7578 -0.3954 -0.4068
 6917SOL    HW132210   0.042   0.748   9.598  0.7633  0.9944  1.2568
 6917SOL    HW232211   0.125   0.622   9.576 -2.6694 -1.4252 -1.3342
 6918SOL     OW32212   4.048   1.411   8.474  0.3974  0.0777  0.0113
 6918SOL    HW132213   3.961   1.452   8.478  0.0909 -0.6675  1.1435
 6918SOL    HW232214   4.088   1.459   8.402  1.3082 -1.3261 -0.4171
 6919SOL     OW32215   1.535   0.417  12.162 -0.0162 -0.4328  0.3527
 6919SOL    HW132216   1.480   0.453  12.231 -2.5760 -0.4131 -1.7082
 6919SOL    HW232217   1.508   0.325  12.172 -0.9407 -0.1092  0.7715
 6920SOL     OW32218   3.213   0.100  12.898 -0.5483  0.0756 -0.0994
 6920SOL    HW132219   3.247   0.188  12.917 -0.9178  0.3282 -0.6007
 6920SOL    HW232220   3.212   0.058  12.984  1.1136 -0.3321 -0.2948
 6921SOL     OW32221   3.242   2.186   3.679 -0.2505 -0.0762  0.3681
 6921SOL    HW132222   3.255   2.141   3.763 -3.5952  2.5917  2.3492
 6921SOL    HW232223   3.303   2.256   3.701  1.0564 -0.9673 -0.4573
 6922SOL     OW32224   2.829   3.527   1.555 -0.7175  0.0242  0.5864
 6922SOL    HW132225   2.822   3.604   1.499  0.9636  0.6329  1.2027
 6922SOL    HW232226   2.755   3.473   1.529 -1.9332  1.7508  0.4082
 6923SOL     OW32227   1.667   2.666   7.710 -1.0495 -0.4763 -0.2542
 6923SOL    HW132228   1.727   2.591   7.709 -1.2287 -0.6256  1.3607
 6923SOL    HW232229   1.583   2.620   7.708 -0.4164 -1.6547  0.5311
 6924SOL     OW32230   4.301   1.283  12.923  0.6263  0.3901  0.1248
 6924SOL    HW132231   4.212   1.252  12.935  0.6835  0.9160  1.8919
 6924SOL    HW232232   4.354   1.234  12.986 -1.8993  0.2603  2.1098
 6925SOL     OW32233   1.410   0.143   2.047  0.4957 -0.0757 -0.3351
 6925SOL    HW132234   1.416   0.191   1.964  5.3188  0.8904  0.5412
 6925SOL    HW232235   1.372   0.061   2.015  0.6377 -0.0392 -0.5966
 6926SOL     OW32236   0.057   0.461  11.822 -0.5103  0.1558  0.1434
 6926SOL    HW132237   0.001   0.534  11.797 -1.1879 -0.2083  0.6196
 6926SOL    HW232238   0.080   0.481  11.912  1.4292  1.6453 -0.6764
 6927SOL     OW32239   2.773   1.231   8.716 -0.3734  0.5339  0.1807
 6927SOL    HW132240   2.706   1.170   8.686  0.9274 -0.1651 -1.3604
 6927SOL    HW232241   2.776   1.212   8.810 -2.3238 -2.0302 -0.2644
 6928SOL     OW32242   3.695   0.334   5.271 -0.1415  0.1373 -0.3188
 6928SOL    HW132243   3.741   0.256   5.304  1.0881  0.5576 -1.0650
 6928SOL    HW232244   3.605   0.320   5.300  1.0371 -0.7184  2.9065
 6929SOL     OW32245   4.476   3.211   8.322  0.3778  0.0185  0.2481
 6929SOL    HW132246   4.568   3.195   8.342  0.2709 -1.4913 -0.5018
 6929SOL    HW232247   4.438   3.242   8.404  1.3995  1.6224  0.1108
 6930SOL     OW32248   3.169   2.552   7.486 -0.2700  0.7415 -0.3845
 6930SOL    HW132249   3.163   2.564   7.392  0.2599 -1.0795 -0.6546
 6930SOL    HW232250   3.167   2.456   7.478 -1.6785  0.8178 -0.9448
 6931SOL     OW32251   2.858   4.709   4.613  0.2186 -0.4944 -0.2960
 6931SOL    HW132252   2.873   4.618   4.586 -0.3653  0.7884 -4.9775
 6931SOL    HW232253   2.770   4.724   4.579  0.9134  1.1187 -1.3806
 6932SOL     OW32254   2.284   2.153  12.977  0.2157  0.0236 -0.1392
 6932SOL    HW132255   2.266   2.072  13.026  0.3611 -0.3444 -0.6961
 6932SOL    HW232256   2.368   2.172  13.019 -0.0568  1.3891 -0.2135
 6933SOL     OW32257   1.683   1.101   7.751 -0.7691  0.0235 -0.7494
 6933SOL    HW132258   1.615   1.163   7.776 -0.5054  0.4091 -0.9838
 6933SOL    HW232259   1.633   1.035   7.702  0.8418 -0.8710 -1.2027
 6934SOL     OW32260   0.127   2.337   7.119 -0.3181  0.8722 -0.0099
 6934SOL    HW132261   0.162   2.315   7.033  0.9069  0.5821  0.5585
 6934SOL    HW232262   0.083   2.252   7.117  0.7058  0.2952  2.3442
 6935SOL     OW32263   0.471   1.201  15.534  0.0480  0.3812  0.3476
 6935SOL    HW132264   0.514   1.193  15.449 -0.2486 -0.4841  0.2846
 6935SOL    HW232265   0.388   1.244  15.515  0.3173  1.5323  1.6849
 6936SOL     OW32266   1.606   2.211   7.799  0.4569  0.0874 -0.0838
 6936SOL    HW132267   1.573   2.288   7.845 -0.0503 -0.9911  1.3392
 6936SOL    HW232268   1.637   2.167   7.878 -0.2825 -1.3033 -0.5817
 6937SOL     OW32269   2.713   1.571   1.090  0.3975  0.5230 -0.5386
 6937SOL    HW132270   2.689   1.485   1.055  0.9598 -0.8167  2.4341
 6937SOL    HW232271   2.781   1.549   1.153 -1.1080 -0.6289  0.6753
 6938SOL     OW32272   2.872   1.596   8.750 -0.0695 -0.0543 -0.2844
 6938SOL    HW132273   2.967   1.594   8.762 -0.2603  0.3190  1.2807
 6938SOL    HW232274   2.851   1.688   8.760  0.8795  0.1610 -0.2331
 6939SOL     OW32275   3.616   2.237   4.471 -0.2643 -0.0648 -0.2204
 6939SOL    HW132276   3.524   2.259   4.487 -0.2009 -2.2757  3.0119
 6939SOL    HW232277   3.652   2.285   4.545 -2.2141 -0.6144  1.0794
 6940SOL     OW32278   0.073   2.316  16.042 -0.5704  0.0677 -0.3008
 6940SOL    HW132279   0.128   2.238  16.052  1.5435  1.4072 -1.4784
 6940SOL    HW232280   4.708   2.288  16.026  0.1296 -2.2146 -0.2388
 6941SOL     OW32281   0.268   2.145   1.572  0.2123  0.1160 -0.8913
 6941SOL    HW132282   0.254   2.061   1.617 -3.5743  0.1418 -2.0241
 6941SOL    HW232283   0.362   2.148   1.554  0.4735  1.1107  0.7072
 6942SOL     OW32284   3.679   4.267  13.595 -0.8818 -0.6346  0.3739
 6942SOL    HW132285   3.764   4.243  13.631 -0.0513 -1.0655 -1.8967
 6942SOL    HW232286   3.669   4.201  13.526  0.2709 -0.0933 -0.3062
 6943SOL     OW32287   2.601   2.689   9.393 -0.1110 -0.0778  0.0717
 6943SOL    HW132288   2.690   2.709   9.423 -0.4907 -1.1734  1.9262
 6943SOL    HW232289   2.555   2.681   9.476 -1.5396 -2.9592 -0.9963
 6944SOL     OW32290   1.179   3.629   0.153 -0.4666  0.0132  0.7698
 6944SOL    HW132291   1.140   3.542   0.149  0.3126 -0.3152  0.2878
 6944SOL    HW232292   1.168   3.666   0.065 -3.3969  2.2936  2.0901
 6945SOL     OW32293   2.773   2.961   4.934  0.1532 -0.2394  0.3252
 6945SOL    HW132294   2.709   2.996   4.997 -1.6273 -2.1170 -0.4487
 6945SOL    HW232295   2.770   3.019   4.858 -1.7629  0.7263  1.1337
 6946SOL     OW32296   0.623   3.606  15.513  0.1348 -0.2019 -0.1179
 6946SOL    HW132297   0.697   3.561  15.473 -0.6180  0.0640 -1.8123
 6946SOL    HW232298   0.558   3.535  15.515  0.2692 -0.3230 -0.0691
 6947SOL     OW32299   1.457   4.303   1.497  0.0670  0.2073  0.2988
 6947SOL    HW132300   1.517   4.246   1.449  0.1774 -0.1126  0.8221
 6947SOL    HW232301   1.520   4.334   1.562 -0.1478  0.3511  0.4392
 6948SOL     OW32302   3.018   0.436  13.478  0.0073 -0.0989  0.4028
 6948SOL    HW132303   3.028   0.377  13.553 -0.8041  1.4581  1.7450
 6948SOL    HW232304   3.103   0.478  13.490  0.7822 -1.7067  0.4757
 6949SOL     OW32305   0.412   3.436   4.181 -0.1842  0.2610 -0.9055
 6949SOL    HW132306   0.424   3.362   4.122  1.1296 -0.9171  0.8244
 6949SOL    HW232307   0.317   3.431   4.173 -0.2433  0.2252 -0.1758
 6950SOL     OW32308   3.144   1.578   3.007  0.6124  0.3575 -0.3088
 6950SOL    HW132309   3.154   1.632   2.928 -1.4022  1.2191  0.0035
 6950SOL    HW232310   3.233   1.576   3.041  0.4221 -1.6182  0.0989
 6951SOL     OW32311   4.359   0.619   7.433  0.0075 -0.0012 -0.5968
 6951SOL    HW132312   4.406   0.539   7.456  0.0185 -0.4422 -2.1373
 6951SOL    HW232313   4.308   0.590   7.358 -0.6657  0.7584 -0.4280
 6952SOL     OW32314   3.874   2.332   9.207  0.5936  0.4830  0.3061
 6952SOL    HW132315   3.943   2.269   9.187  1.6771  1.7145  0.0873
 6952SOL    HW232316   3.821   2.338   9.127 -0.5672  3.7880  1.3096
 6953SOL     OW32317   4.119   0.014   5.930 -0.3411  0.1742  0.4615
 6953SOL    HW132318   4.134   0.097   5.885  1.2501 -0.1331  0.4025
 6953SOL    HW232319   4.168   4.678   5.875 -0.5758  1.0986 -0.7846
 6954SOL     OW32320   0.064   2.561   7.250  0.0655  0.0848  0.4699
 6954SOL    HW132321   0.093   2.479   7.210 -1.1652 -0.7964  1.3793
 6954SOL    HW232322   0.092   2.621   7.180  1.6235 -3.5929 -2.0507
 6955SOL     OW32323   0.137   4.419  16.624  0.7222  0.5732 -0.4853
 6955SOL    HW132324   0.073   4.349  16.617  1.2123 -0.0417  1.2227
 6955SOL    HW232325   0.195   4.391  16.695  0.7298  0.0147 -0.7137
 6956SOL     OW32326   0.456   1.961   1.106  0.0453  0.2336 -0.2256
 6956SOL    HW132327   0.535   2.006   1.135  1.8937 -2.4044 -1.1472
 6956SOL    HW232328   0.501   1.881   1.077 -1.3335 -1.1487  1.3993
 6957SOL     OW32329   0.058   2.735   8.369 -0.2358  0.4482 -0.0702
 6957SOL    HW132330   0.037   2.803   8.433 -3.6100  0.1572 -0.8753
 6957SOL    HW232331   0.148   2.707   8.386 -1.1651 -0.9064  2.5777
 6958SOL     OW32332   3.104   2.176  15.332 -0.2963  0.0877 -0.2510
 6958SOL    HW132333   3.097   2.191  15.238 -0.8567  0.8900 -0.0807
 6958SOL    HW232334   3.086   2.083  15.346 -1.7461  0.4946  0.7004
 6959SOL     OW32335   0.183   2.033  15.626 -0.8221 -0.1023  0.3045
 6959SOL    HW132336   0.248   2.056  15.559 -1.4162  0.4103 -0.0952
 6959SOL    HW232337   0.112   2.017  15.565 -0.6810  1.3389 -0.2490
 6960SOL     OW32338   0.057   3.153  14.646 -0.3175 -0.1474 -0.0891
 6960SOL    HW132339   0.104   3.115  14.572 -0.7316 -0.9288  0.0472
 6960SOL    HW232340   0.125   3.150  14.713  0.0976  0.4800 -0.4895
 6961SOL     OW32341   2.341   1.261   3.481  0.0605 -0.1961  0.1679
 6961SOL    HW132342   2.370   1.232   3.394  0.9038  2.0453 -0.3040
 6961SOL    HW232343   2.322   1.351   3.458  0.2488 -0.6004 -1.5667
 6962SOL     OW32344   2.565   4.141  13.943 -0.4174 -0.0792  0.2396
 6962SOL    HW132345   2.541   4.051  13.921  2.2058 -0.1471 -2.2751
 6962SOL    HW232346   2.481   4.183  13.923 -3.0351 -5.2472  0.2793
 6963SOL     OW32347   0.806   4.183   8.764 -0.7814 -0.5271 -0.2932
 6963SOL    HW132348   0.837   4.255   8.818  0.5992 -0.7360 -0.7831
 6963SOL    HW232349   0.773   4.134   8.839  0.5164  1.3958  1.5144
 6964SOL     OW32350   1.434   4.696   2.847  0.2277  0.0186 -0.0385
 6964SOL    HW132351   1.524   4.686   2.818  0.2099 -2.0729  0.6041
 6964SOL    HW232352   1.420   4.605   2.873 -1.5435  0.4621  0.5933
 6965SOL     OW32353   3.762   1.124   3.891  0.0964 -0.4825 -0.0721
 6965SOL    HW132354   3.850   1.105   3.926 -0.9039 -1.1082  2.1263
 6965SOL    HW232355   3.767   1.220   3.890  0.8545 -0.4963  1.7211
 6966SOL     OW32356   4.071   0.881   0.808  0.3433  0.0113 -0.2305
 6966SOL    HW132357   4.161   0.908   0.790  0.8976 -0.9622  1.0957
 6966SOL    HW232358   4.083   0.789   0.788  0.6481 -0.3342  1.5537
 6967SOL     OW32359   3.136   0.914   7.786 -0.3624  0.0716 -0.2491
 6967SOL    HW132360   3.172   0.926   7.698 -1.2553  0.7501 -0.5115
 6967SOL    HW232361   3.200   0.949   7.848 -0.0115 -0.8218 -0.1093
 6968SOL     OW32362   3.049   3.957   5.762 -0.5263  0.2702 -0.0278
 6968SOL    HW132363   3.083   3.881   5.716 -1.5716  0.5189 -1.2091
 6968SOL    HW232364   3.029   3.908   5.842  0.8287 -1.6717 -0.8938
 6969SOL     OW32365   1.156   1.371   0.935  0.1682 -0.4056 -0.1399
 6969SOL    HW132366   1.171   1.382   0.841  0.2209  0.4908 -0.0248
 6969SOL    HW232367   1.085   1.307   0.945  1.1653 -1.3396  0.9605
 6970SOL     OW32368   1.100   4.136  10.331 -0.6065  0.0708 -0.3885
 6970SOL    HW132369   1.156   4.154  10.406  0.9387 -1.1263 -1.2604
 6970SOL    HW232370   1.045   4.069  10.372 -1.2085  1.0622  0.4354
 6971SOL     OW32371   4.244   4.342   3.005 -0.4786  0.7168 -0.3993
 6971SOL    HW132372   4.171   4.289   2.974  0.4029 -0.9897  0.4629
 6971SOL    HW232373   4.315   4.291   2.966  1.1297  1.5512  1.4006
 6972SOL     OW32374   2.474   2.679   0.108 -0.4848  0.3955 -0.4995
 6972SOL    HW132375   2.439   2.657   0.021  0.8632 -2.1390 -0.3867
 6972SOL    HW232376   2.398   2.650   0.159 -0.2885  0.0969 -0.3776
 6973SOL     OW32377   0.427   1.439  14.958  0.2330  0.7559  0.3169
 6973SOL    HW132378   0.418   1.405  15.047  0.9932  1.2189  0.5685
 6973SOL    HW232379   0.401   1.363  14.905  3.3990 -0.1544  0.0886
 6974SOL     OW32380   2.231   2.680  14.944  0.0962 -0.9893 -0.4109
 6974SOL    HW132381   2.156   2.697  15.001 -0.0345  2.1180 -1.4999
 6974SOL    HW232382   2.200   2.689  14.854  0.9350 -2.4873 -0.8545
 6975SOL     OW32383   2.680   1.359   7.760 -0.4492 -0.4132 -0.1374
 6975SOL    HW132384   2.662   1.298   7.687  0.2334  0.1470 -0.7740
 6975SOL    HW232385   2.665   1.295   7.829  1.0507 -1.3169 -0.6431
 6976SOL     OW32386   1.969   0.784   1.351  0.2693 -0.1467  0.4452
 6976SOL    HW132387   2.060   0.754   1.344  0.3520  0.3991 -0.7494
 6976SOL    HW232388   1.981   0.877   1.335  1.4607  0.1126  2.7473
 6977SOL     OW32389   0.542   2.314   1.548 -0.0294 -0.6435  0.3878
 6977SOL    HW132390   0.520   2.402   1.579  3.3777  0.4460 -0.3127
 6977SOL    HW232391   0.535   2.323   1.453 -1.4265 -0.1949  0.5396
 6978SOL     OW32392   4.019   4.277   6.575 -0.5501 -0.8912  0.1324
 6978SOL    HW132393   3.964   4.317   6.642  0.6190  1.8071 -0.5283
 6978SOL    HW232394   4.076   4.221   6.629  3.1315 -0.0483 -2.8623
 6979SOL     OW32395   1.695   2.714   4.947  0.2852 -0.6758  0.0621
 6979SOL    HW132396   1.778   2.688   4.988 -0.9611  0.3264  3.2472
 6979SOL    HW232397   1.636   2.665   5.005  1.5988  1.3279  3.0617
 6980SOL     OW32398   3.173   0.588   2.359  0.1039  0.0014  0.0430
 6980SOL    HW132399   3.248   0.622   2.407 -0.1011 -0.7669  0.9090
 6980SOL    HW232400   3.166   0.657   2.293 -0.5221 -1.1444 -1.0911
 6981SOL     OW32401   4.641   3.597   5.676  0.2299  0.5696  0.0798
 6981SOL    HW132402   4.573   3.602   5.608  0.7544 -3.0052 -0.6967
 6981SOL    HW232403   4.660   3.503   5.680 -1.9428  0.0107 -2.4386
 6982SOL     OW32404   1.741   3.358   4.936 -0.5270 -0.2318 -0.1253
 6982SOL    HW132405   1.705   3.277   4.900  0.1851  0.3277 -2.0714
 6982SOL    HW232406   1.761   3.406   4.856 -1.2891  0.3569  0.0372
 6983SOL     OW32407   2.498   0.272   7.914 -0.3888 -0.1474  0.5827
 6983SOL    HW132408   2.517   0.365   7.905 -1.1504 -0.0258  0.2157
 6983SOL    HW232409   2.492   0.266   8.009 -0.4220  2.8647  0.7613
 6984SOL     OW32410   2.977   1.336  17.407 -0.4508 -0.9913 -0.0676
 6984SOL    HW132411   2.974   1.432  17.405  1.4292 -0.9463 -1.6175
 6984SOL    HW232412   2.917   1.312  17.477 -0.1062 -3.3138 -0.5694
 6985SOL     OW32413   0.090   3.757   8.293  0.0905  0.8992  0.7870
 6985SOL    HW132414   0.044   3.699   8.353  2.4152  1.6845  3.3141
 6985SOL    HW232415   0.166   3.703   8.270 -0.7532 -0.9070  2.3028
 6986SOL     OW32416   0.333   4.560   6.665 -0.4257 -0.0300  0.7174
 6986SOL    HW132417   0.388   4.566   6.587 -2.9494 -3.3655 -1.2661
 6986SOL    HW232418   0.272   4.503   6.619  0.8143 -1.2731  0.5866
 6987SOL     OW32419   2.532   0.824   8.916  0.3166 -0.5311 -0.0395
 6987SOL    HW132420   2.487   0.907   8.933  1.5704 -0.0166  0.7331
 6987SOL    HW232421   2.454   0.769   8.908 -0.7465  1.0566 -0.7618
 6988SOL     OW32422   2.871   1.213   4.009  0.9788  0.1141  0.0872
 6988SOL    HW132423   2.784   1.244   3.983  0.2385 -1.1921  1.0176
 6988SOL    HW232424   2.862   1.218   4.104  0.4486  3.0267 -0.1432
 6989SOL     OW32425   4.562   1.775   1.259  0.0686  0.8413  0.2278
 6989SOL    HW132426   4.611   1.808   1.333  2.9972 -1.7098 -0.5886
 6989SOL    HW232427   4.504   1.705   1.289  1.5483 -0.6472 -0.4303
 6990SOL     OW32428   1.039   3.871  16.916  0.1477 -0.4594  0.6986
 6990SOL    HW132429   1.055   3.960  16.949  1.0554 -0.3853  0.0505
 6990SOL    HW232430   0.956   3.852  16.959 -0.9044 -2.0088 -2.0137
 6991SOL     OW32431   1.717   1.426   0.789 -0.0275  0.3893 -0.2422
 6991SOL    HW132432   1.760   1.507   0.818  1.0607 -0.1439 -0.3782
 6991SOL    HW232433   1.794   1.377   0.762  1.5625  1.5783  2.1251
 6992SOL     OW32434   2.373   0.846  17.259 -0.4850 -0.2379  0.2050
 6992SOL    HW132435   2.442   0.784  17.283  0.3565  1.4056  1.9486
 6992SOL    HW232436   2.316   0.846  17.335  2.5111 -1.1605  2.4381
 6993SOL     OW32437   2.915   0.936   4.032 -0.1665 -0.1454  0.0005
 6993SOL    HW132438   2.867   0.932   3.949  1.6932  1.8099 -1.1453
 6993SOL    HW232439   2.895   1.024   4.065 -2.2341 -0.1144 -1.3465
 6994SOL     OW32440   2.873   2.330   7.568 -0.6320 -0.1915  0.1495
 6994SOL    HW132441   2.917   2.245   7.575  2.4383  1.5195  1.7350
 6994SOL    HW232442   2.949   2.389   7.573 -1.1410  0.8148 -3.8207
 6995SOL     OW32443   2.968   1.966  13.829  0.1378  0.7314 -0.0239
 6995SOL    HW132444   3.060   1.945  13.847  0.2394  0.2947 -1.0337
 6995SOL    HW232445   2.967   1.988  13.736 -0.2583 -2.0670 -0.6847
 6996SOL     OW32446   3.559   1.402  13.650  0.2229 -0.0367 -0.3246
 6996SOL    HW132447   3.475   1.372  13.685  0.9529 -1.6452  0.0701
 6996SOL    HW232448   3.603   1.320  13.629 -1.8023 -1.5286  1.1863
 6997SOL     OW32449   1.347   3.274   0.813  0.0993 -0.3725 -0.0091
 6997SOL    HW132450   1.370   3.337   0.881  1.3093 -0.7269 -0.0971
 6997SOL    HW232451   1.422   3.215   0.809 -0.0849 -0.7187  1.9051
 6998SOL     OW32452   1.802   2.082  16.388  0.3383 -0.7176 -0.5687
 6998SOL    HW132453   1.800   2.060  16.295  1.4223  1.6939 -1.1450
 6998SOL    HW232454   1.891   2.116  16.393  0.4900 -1.0007 -1.3810
 6999SOL     OW32455   2.427   0.388   4.696  0.0583  0.0588  0.1833
 6999SOL    HW132456   2.431   0.330   4.772 -0.3978 -1.7028 -1.1367
 6999SOL    HW232457   2.340   0.427   4.702 -0.8327 -1.8326 -0.3012
 7000SOL     OW32458   2.858   4.206   4.763  0.3306  0.7357 -0.2716
 7000SOL    HW132459   2.862   4.169   4.674  1.2603  0.0075  0.0748
 7000SOL    HW232460   2.945   4.248   4.763  0.0501  1.3158  0.0140
 7001SOL     OW32461   1.935   2.383   3.720 -0.4984  0.5429 -0.1674
 7001SOL    HW132462   1.844   2.355   3.718  0.2244 -1.8260 -0.1687
 7001SOL    HW232463   1.970   2.300   3.688 -3.7125 -0.5788 -0.7314
 7002SOL     OW32464   2.369   2.237  17.002 -0.0749 -0.1745  0.3065
 7002SOL    HW132465   2.297   2.246  16.940  1.7472  0.6098 -1.6919
 7002SOL    HW232466   2.437   2.199  16.946 -0.5234 -0.6473  0.0913
 7003SOL     OW32467   1.767   3.857   9.454  0.0497 -0.5273 -0.0256
 7003SOL    HW132468   1.827   3.925   9.425 -0.1038 -0.2404  0.3331
 7003SOL    HW232469   1.757   3.877   9.547  1.2607  0.9835 -0.2291
 7004SOL     OW32470   0.681   3.882   9.328 -0.2926  0.5521 -0.5708
 7004SOL    HW132471   0.773   3.857   9.317 -0.3054  0.9496 -1.5924
 7004SOL    HW232472   0.693   3.977   9.336  1.1664  0.2535  0.7644
 7005SOL     OW32473   3.501   4.469  12.507  0.2797 -0.1908  0.0591
 7005SOL    HW132474   3.556   4.547  12.504 -2.4086  1.7398  0.1239
 7005SOL    HW232475   3.573   4.407  12.517 -1.7270 -2.5838 -0.3393
 7006SOL     OW32476   0.665   2.290   2.803 -0.1750  0.0283 -0.6743
 7006SOL    HW132477   0.622   2.205   2.797  1.2697 -0.8086  0.5611
 7006SOL    HW232478   0.601   2.325   2.866  1.3385 -1.5315  1.7480
 7007SOL     OW32479   3.295   1.590   2.213  0.0102  0.1830  0.4866
 7007SOL    HW132480   3.297   1.495   2.203  2.0019  0.0227  2.4500
 7007SOL    HW232481   3.320   1.598   2.305  0.1519  1.3532  0.3519
 7008SOL     OW32482   1.778   0.509   5.670 -0.1941 -0.4982  0.2621
 7008SOL    HW132483   1.772   0.549   5.583  2.4835  0.9510  0.7381
 7008SOL    HW232484   1.872   0.491   5.677 -0.0014  0.0117 -1.0395
 7009SOL     OW32485   3.093   2.487  12.757 -0.1735  0.4355  0.1725
 7009SOL    HW132486   3.146   2.422  12.804 -0.9510  0.2496  0.7950
 7009SOL    HW232487   3.080   2.557  12.820 -1.7952 -1.3489  1.8096
 7010SOL     OW32488   2.914   3.135   5.179 -0.0064 -0.0485  0.5686
 7010SOL    HW132489   2.822   3.108   5.178  0.2203 -0.8323  0.6160
 7010SOL    HW232490   2.925   3.179   5.263  1.3372 -0.1502  0.4464
 7011SOL     OW32491   1.374   0.214   6.651 -0.2139  0.0280 -0.3930
 7011SOL    HW132492   1.312   0.170   6.593 -0.4671 -0.7564  0.4675
 7011SOL    HW232493   1.378   0.304   6.619  0.0566  1.7390  4.5144
 7012SOL     OW32494   4.662   0.479   7.362  0.0959 -0.4756  0.2489
 7012SOL    HW132495   4.634   0.389   7.347  0.1803 -0.5278  0.4088
 7012SOL    HW232496   4.691   0.471   7.453  1.0095  2.5483  0.2307
 7013SOL     OW32497   0.501   4.200   4.972  0.1516  0.2913  0.0643
 7013SOL    HW132498   0.512   4.119   4.922  1.6678 -0.2999  1.3315
 7013SOL    HW232499   0.429   4.248   4.931 -0.9989  0.9741  2.8688
 7014SOL     OW32500   1.336   0.054   1.708  0.0225  0.3022 -0.1385
 7014SOL    HW132501   1.428   0.041   1.728  0.2180  2.4458  0.3103
 7014SOL    HW232502   1.342   0.008   1.624 -0.3014  0.6683 -0.3673
 7015SOL     OW32503   1.499   3.270   4.517  0.0037 -0.4418  0.1226
 7015SOL    HW132504   1.586   3.299   4.489 -0.9438  2.4536  0.1647
 7015SOL    HW232505   1.443   3.276   4.440 -0.6302 -0.2390  0.5930
 7016SOL     OW32506   2.131   0.232   6.310  0.5205 -0.1915  0.4466
 7016SOL    HW132507   2.170   0.319   6.303  1.3620 -0.6017  0.0758
 7016SOL    HW232508   2.140   0.206   6.218  1.3438 -0.6597  0.6603
 7017SOL     OW32509   2.095   1.208   4.978 -0.7367 -0.3982  0.6270
 7017SOL    HW132510   2.138   1.133   4.937  1.3073  1.0777  0.0897
 7017SOL    HW232511   2.116   1.198   5.070  1.7754 -3.2684 -0.2340
 7018SOL     OW32512   4.122   3.295  16.284  0.2307 -0.3735  0.5620
 7018SOL    HW132513   4.112   3.371  16.341  0.8990  0.4258 -0.3788
 7018SOL    HW232514   4.176   3.341  16.219  1.3659 -1.4008  0.7725
 7019SOL     OW32515   4.155   4.217   3.262  0.0287  0.1942  0.3762
 7019SOL    HW132516   4.066   4.250   3.270  0.7156  2.1155  0.1253
 7019SOL    HW232517   4.173   4.259   3.178  3.1325  0.5410  1.2243
 7020SOL     OW32518   2.513   3.269   5.333 -0.0852 -0.3149 -0.3581
 7020SOL    HW132519   2.419   3.264   5.314 -0.0791  1.2023 -0.7808
 7020SOL    HW232520   2.517   3.339   5.398 -1.9361 -0.3835 -0.1621
 7021SOL     OW32521   4.202   0.072  15.696 -0.3112  0.1763 -0.7410
 7021SOL    HW132522   4.255   0.141  15.737  0.2632  0.9131 -2.7408
 7021SOL    HW232523   4.223   0.084  15.603  1.0087  2.3195 -0.1695
 7022SOL     OW32524   1.342   1.762   3.916  0.2783  0.1908 -0.0105
 7022SOL    HW132525   1.399   1.745   3.841  0.0652  1.7103 -0.5185
 7022SOL    HW232526   1.414   1.809   3.958 -1.1934  1.5334  1.0018
 7023SOL     OW32527   2.648   2.589   4.084  0.0457 -0.2613  0.2351
 7023SOL    HW132528   2.622   2.524   4.019  2.6746 -0.9044 -0.1586
 7023SOL    HW232529   2.734   2.554   4.108  1.2046  1.3398 -1.6671
 7024SOL     OW32530   4.374   1.643   1.971 -0.2160  0.1864 -0.1331
 7024SOL    HW132531   4.469   1.645   1.958 -0.4292  0.6897 -1.6404
 7024SOL    HW232532   4.342   1.721   1.924 -0.5555  0.3400  0.3556
 7025SOL     OW32533   1.526   3.067   2.248 -0.1881  0.2328  0.3344
 7025SOL    HW132534   1.597   3.074   2.185 -0.2740  0.7912  0.3071
 7025SOL    HW232535   1.560   3.032   2.330  0.3814 -1.7562 -0.7320
 7026SOL     OW32536   2.806   0.715  10.798 -0.3315  0.1466 -0.0475
 7026SOL    HW132537   2.809   0.644  10.861 -2.3535  1.1294  1.1522
 7026SOL    HW232538   2.712   0.721  10.782  0.2492  2.5390 -2.7840
 7027SOL     OW32539   0.149   3.651   4.907  0.8856 -0.2849  0.0216
 7027SOL    HW132540   0.164   3.727   4.851 -0.2095 -0.2252 -0.1814
 7027SOL    HW232541   0.212   3.645   4.979  1.0231 -1.7060 -0.2150
 7028SOL     OW32542   2.066   3.812   8.825 -0.3662 -0.2698 -0.2188
 7028SOL    HW132543   2.105   3.831   8.911  1.4790 -2.6603 -0.5207
 7028SOL    HW232544   2.019   3.892   8.801 -1.9724 -1.0357  0.3944
 7029SOL     OW32545   1.805   0.394   7.286  0.5085 -0.2743 -1.2794
 7029SOL    HW132546   1.806   0.334   7.212  2.9963  0.5634 -1.9064
 7029SOL    HW232547   1.899   0.399   7.301  0.4204 -0.1599 -0.7592
 7030SOL     OW32548   3.571   3.881   2.859 -0.0574 -0.4001  0.5489
 7030SOL    HW132549   3.507   3.899   2.790  1.3258 -1.6398 -1.0585
 7030SOL    HW232550   3.623   3.959   2.841 -0.3016  0.0967  2.0090
 7031SOL     OW32551   1.708   4.684   6.466  0.1346 -0.0250 -0.0059
 7031SOL    HW132552   1.700   0.004   6.550 -0.4688  0.7626 -0.4842
 7031SOL    HW232553   1.646   4.614   6.488 -0.7853  0.3154 -1.5075
 7032SOL     OW32554   4.701   1.922  15.131  0.3098  0.3777 -0.2335
 7032SOL    HW132555   4.646   1.923  15.052 -2.2493 -1.8685  1.4980
 7032SOL    HW232556   0.062   1.923  15.091  0.6185 -0.9822  0.4079
 7033SOL     OW32557   4.270   3.447   1.403 -0.6108 -0.2078 -0.2159
 7033SOL    HW132558   4.322   3.488   1.472  0.1846 -0.3608 -0.7331
 7033SOL    HW232559   4.196   3.508   1.406  0.0217  0.5321  0.3191
 7034SOL     OW32560   4.369   3.595   3.752  0.0010 -1.2158  0.0142
 7034SOL    HW132561   4.445   3.539   3.740  0.3577 -1.2591  2.3799
 7034SOL    HW232562   4.333   3.585   3.664  1.4496  0.3179 -0.7478
 7035SOL     OW32563   2.047   4.518   6.153  0.4014  0.0807 -0.2690
 7035SOL    HW132564   2.122   4.531   6.211  0.8540  2.5243 -1.4111
 7035SOL    HW232565   1.982   4.492   6.219  0.8673  1.6755  0.8417
 7036SOL     OW32566   4.164   0.955   6.698 -0.2209  0.5447  0.4631
 7036SOL    HW132567   4.185   0.871   6.657 -0.9169  0.6103 -0.0367
 7036SOL    HW232568   4.212   0.945   6.780  1.6365  1.4239 -0.5122
 7037SOL     OW32569   3.841   2.528   6.204 -0.0008 -0.2004  0.1205
 7037SOL    HW132570   3.872   2.599   6.260  0.8823 -0.3858 -0.1273
 7037SOL    HW232571   3.890   2.544   6.123  0.5736 -0.9185  0.3201
 7038SOL     OW32572   2.235   1.356   6.662  0.1085  0.2226  0.4996
 7038SOL    HW132573   2.199   1.372   6.575  1.0957  1.1816  0.2696
 7038SOL    HW232574   2.182   1.418   6.712 -1.6581 -1.6946  1.0147
 7039SOL     OW32575   0.634   2.290   9.374 -0.0233  0.3224  0.4614
 7039SOL    HW132576   0.700   2.360   9.378 -0.0286  0.3892 -0.4624
 7039SOL    HW232577   0.624   2.276   9.468 -0.0541  1.4314  0.6261
 7040SOL     OW32578   3.667   4.526   4.200 -0.5285 -0.1632  1.0886
 7040SOL    HW132579   3.729   4.473   4.250 -0.3397 -1.6827 -0.7918
 7040SOL    HW232580   3.649   4.464   4.130  1.1197 -1.5834  1.9407
 7041SOL     OW32581   2.701   3.380   5.069 -0.4386  0.7688  0.2867
 7041SOL    HW132582   2.739   3.332   5.143  1.7264  1.8361 -0.1030
 7041SOL    HW232583   2.639   3.318   5.031 -0.7421 -0.1691  2.3468
 7042SOL     OW32584   1.059   3.848   5.798  0.1084 -0.1702 -0.1823
 7042SOL    HW132585   0.996   3.892   5.740 -0.0950 -1.2584 -0.7807
 7042SOL    HW232586   1.093   3.924   5.846 -0.9577  0.0569  0.2322
 7043SOL     OW32587   0.131   1.849  14.685  0.2529 -0.0122 -0.1969
 7043SOL    HW132588   0.091   1.915  14.629  0.7466 -0.7767 -1.4510
 7043SOL    HW232589   0.113   1.775  14.627  0.2096  1.0258 -1.5200
 7044SOL     OW32590   3.864   1.406   0.614  0.2133  0.1597  0.1548
 7044SOL    HW132591   3.796   1.474   0.608 -0.2705 -0.4882 -1.9453
 7044SOL    HW232592   3.868   1.368   0.526  0.5938 -2.0132  1.1161
 7045SOL     OW32593   2.400   4.573   3.093 -0.3148  0.0136 -0.1572
 7045SOL    HW132594   2.388   4.664   3.118  0.0710 -0.1441  0.5954
 7045SOL    HW232595   2.458   4.546   3.164  1.8148  0.4154 -1.7210
 7046SOL     OW32596   2.354   0.735   9.315 -0.2268 -0.1051  0.4949
 7046SOL    HW132597   2.355   0.647   9.278 -1.3511  0.2265 -0.3270
 7046SOL    HW232598   2.289   0.722   9.384  1.0530 -4.1089  0.9631
 7047SOL     OW32599   2.273   3.096   0.869  0.4234 -0.4419  0.3321
 7047SOL    HW132600   2.209   3.039   0.827  2.0425 -1.5502 -0.6313
 7047SOL    HW232601   2.326   3.035   0.919 -0.5657  0.0144  1.9427
 7048SOL     OW32602   0.544   0.294   8.707  0.2037  0.4727 -0.1971
 7048SOL    HW132603   0.537   0.358   8.636  1.1762  1.2584  0.4349
 7048SOL    HW232604   0.466   0.239   8.697  0.6067 -0.0366 -0.5432
 7049SOL     OW32605   2.912   1.407  10.037 -0.0229 -0.6284  0.0223
 7049SOL    HW132606   2.949   1.321  10.054 -1.9015 -1.6913 -1.3746
 7049SOL    HW232607   2.894   1.429  10.128 -1.1827 -0.9463 -0.1431
 7050SOL     OW32608   2.988   1.436   8.275  0.7740 -0.3443 -0.7213
 7050SOL    HW132609   3.082   1.423   8.280  0.6747 -0.7997 -0.1460
 7050SOL    HW232610   2.969   1.492   8.199  0.9954  0.0619 -0.4808
 7051SOL     OW32611   3.404   1.893   1.096  0.2061  0.2366  0.2731
 7051SOL    HW132612   3.404   1.988   1.088 -0.5810  0.2505  0.4504
 7051SOL    HW232613   3.473   1.871   1.033 -1.1291  0.2013 -1.1996
 7052SOL     OW32614   2.803   1.130  14.049 -0.6540 -0.8480 -0.4810
 7052SOL    HW132615   2.799   1.154  13.957 -0.7418  1.1861  0.0565
 7052SOL    HW232616   2.866   1.193  14.085  0.5409 -2.5992  0.5214
 7053SOL     OW32617   2.740   0.954   7.761 -0.3129  0.5963 -0.7746
 7053SOL    HW132618   2.685   1.017   7.715 -0.0794  1.2333 -0.1637
 7053SOL    HW232619   2.814   1.005   7.793 -2.0861  2.3758  0.4221
 7054SOL     OW32620   2.634   0.260  12.480 -0.4990 -0.1954  0.1478
 7054SOL    HW132621   2.690   0.249  12.558  1.8685 -1.0478 -1.6710
 7054SOL    HW232622   2.638   0.171  12.445  0.4793  0.4023 -1.2876
 7055SOL     OW32623   0.801   0.515   1.590 -0.1856 -0.0668  0.2658
 7055SOL    HW132624   0.819   0.464   1.668  1.5272  0.9366  0.5275
 7055SOL    HW232625   0.893   0.534   1.572  0.0441 -0.1356  1.4133
 7056SOL     OW32626   0.495   0.973   6.127  0.3125  0.3926 -0.2745
 7056SOL    HW132627   0.533   0.907   6.185 -0.3016  0.1960 -0.1060
 7056SOL    HW232628   0.412   0.996   6.168  0.2967  1.9593 -1.1697
 7057SOL     OW32629   1.029   4.701   7.965 -0.2732 -0.4707  0.1812
 7057SOL    HW132630   0.963   4.701   7.896  1.2323 -0.2209 -1.2537
 7057SOL    HW232631   1.026   4.608   7.987  0.3420 -0.9292 -1.6368
 7058SOL     OW32632   3.421   1.637  13.243 -0.0685 -0.1853  0.7829
 7058SOL    HW132633   3.485   1.641  13.314 -0.7084 -0.1823  1.3614
 7058SOL    HW232634   3.365   1.562  13.263 -2.4441  1.0819 -1.1657
 7059SOL     OW32635   2.007   0.048   6.026 -0.3197 -0.1676  0.0090
 7059SOL    HW132636   2.022   4.689   6.070  4.0774 -0.1159 -1.4401
 7059SOL    HW232637   2.053   0.041   5.943  1.0995  1.0776  0.7057
 7060SOL     OW32638   1.848   0.690   6.322 -0.1104  0.0023  0.1642
 7060SOL    HW132639   1.881   0.779   6.338  0.4187 -0.2474  0.4653
 7060SOL    HW232640   1.909   0.670   6.251 -0.9290 -0.5144 -0.3864
 7061SOL     OW32641   3.118   3.960   6.929 -0.2455 -0.0455  0.3193
 7061SOL    HW132642   3.070   4.003   7.000  0.7138  1.3992  0.0963
 7061SOL    HW232643   3.116   4.025   6.859 -3.7925  0.6361  1.0718
 7062SOL     OW32644   3.751   1.736   3.489  0.4969  0.3531 -0.6991
 7062SOL    HW132645   3.702   1.806   3.533  0.8981  0.4337 -0.3789
 7062SOL    HW232646   3.802   1.681   3.548 -1.0699 -0.2236  0.0900
 7063SOL     OW32647   2.558   0.542  10.990 -0.1636  0.2086 -0.0540
 7063SOL    HW132648   2.574   0.473  11.054  0.1804 -0.3623 -0.7700
 7063SOL    HW232649   2.590   0.617  11.040  0.1321 -0.8664  1.3567
 7064SOL     OW32650   3.047   3.447  12.162  0.0996 -0.1039  0.4797
 7064SOL    HW132651   3.068   3.432  12.254  0.5172 -3.4660 -0.1526
 7064SOL    HW232652   3.071   3.538  12.142  3.5402 -0.4021  3.4356
 7065SOL     OW32653   4.246   1.396   3.907 -0.0242  0.0204 -0.2617
 7065SOL    HW132654   4.279   1.316   3.948 -1.5676 -1.8112 -2.5506
 7065SOL    HW232655   4.266   1.379   3.815  0.1159  3.1100 -0.7922
 7066SOL     OW32656   0.184   2.915   7.435  0.4768 -0.0110 -0.4205
 7066SOL    HW132657   0.147   2.841   7.386 -0.6596  1.6975 -2.1729
 7066SOL    HW232658   0.278   2.909   7.419  1.2512 -0.3837  4.1242
 7067SOL     OW32659   1.272   3.182   7.794 -0.1143 -0.3019  0.3409
 7067SOL    HW132660   1.267   3.262   7.743  1.9517  1.8087  3.4341
 7067SOL    HW232661   1.366   3.178   7.815  0.0020 -0.8216 -0.2858
 7068SOL     OW32662   0.434   3.295   7.267  0.1570  0.3382  0.4174
 7068SOL    HW132663   0.504   3.269   7.207  0.7280  0.3414  1.0713
 7068SOL    HW232664   0.454   3.388   7.265 -1.1405  0.6356  1.1000
 7069SOL     OW32665   0.269   0.249   6.235  0.1479  0.3597  0.4609
 7069SOL    HW132666   0.265   0.202   6.151  4.0861  1.7076 -0.4970
 7069SOL    HW232667   0.179   0.237   6.266  0.0865 -2.2728 -0.6957
 7070SOL     OW32668   2.184   3.933   5.331 -0.1897 -0.1825  0.8058
 7070SOL    HW132669   2.252   3.989   5.294 -2.3576  0.9766 -1.4200
 7070SOL    HW232670   2.228   3.849   5.318  0.5944  0.5837 -1.5375
 7071SOL     OW32671   3.658   2.391  15.280 -0.1074  0.4800 -0.2072
 7071SOL    HW132672   3.693   2.319  15.332 -0.3401  0.0566 -0.6306
 7071SOL    HW232673   3.613   2.348  15.208 -2.0684  0.1779  1.2052
 7072SOL     OW32674   4.436   3.800   5.125  0.4989  0.5635 -0.0117
 7072SOL    HW132675   4.521   3.764   5.152 -0.2818 -0.6172  0.8951
 7072SOL    HW232676   4.440   3.872   5.187 -2.2134  0.1353  0.6543
 7073SOL     OW32677   0.215   3.147  11.944 -0.4386 -0.4231  0.1647
 7073SOL    HW132678   0.237   3.212  11.878  1.1970  2.2986  3.3785
 7073SOL    HW232679   0.166   3.209  11.998 -1.9724  0.1308 -1.8744
 7074SOL     OW32680   1.900   4.356   9.572 -0.1947 -0.1796 -0.2012
 7074SOL    HW132681   1.834   4.421   9.547 -0.0633  0.0974  0.1686
 7074SOL    HW232682   1.964   4.378   9.504 -0.3293  1.2025  0.1035
 7075SOL     OW32683   0.758   2.469   6.795  0.3208  0.0133  0.8198
 7075SOL    HW132684   0.765   2.376   6.771 -3.4546 -0.5620  1.9811
 7075SOL    HW232685   0.672   2.479   6.835  0.1749 -1.1382  0.8112
 7076SOL     OW32686   3.922   3.137   5.230  0.0939  0.6495  0.1602
 7076SOL    HW132687   3.936   3.230   5.212 -1.7412  1.0281  0.6207
 7076SOL    HW232688   3.843   3.118   5.178  2.1084 -1.8565 -1.9254
 7077SOL     OW32689   1.475   3.502   6.075  0.4021  0.0240  0.3681
 7077SOL    HW132690   1.500   3.578   6.128 -0.4466  1.0787 -0.7499
 7077SOL    HW232691   1.488   3.436   6.144  1.1312 -2.4082 -2.0766
 7078SOL     OW32692   2.499   4.426   1.210 -0.0261 -0.3625 -0.7091
 7078SOL    HW132693   2.528   4.383   1.129  0.6315 -0.3064 -0.5049
 7078SOL    HW232694   2.409   4.401   1.227 -0.4042  0.6649 -1.1573
 7079SOL     OW32695   2.584   2.803   3.886 -0.8083  0.1986 -0.6723
 7079SOL    HW132696   2.560   2.728   3.941  0.6356  0.0535 -0.2220
 7079SOL    HW232697   2.506   2.801   3.831 -1.4817  0.1160  0.2814
 7080SOL     OW32698   1.815   3.345   2.212  0.1158  0.3642  0.0422
 7080SOL    HW132699   1.798   3.264   2.259 -0.3434 -0.0820 -0.8976
 7080SOL    HW232700   1.838   3.408   2.281 -0.7069 -1.7205  2.2191
 7081SOL     OW32701   4.703   4.012  15.674 -0.1139 -0.1167 -0.3854
 7081SOL    HW132702   0.069   4.018  15.647 -0.3277 -0.3091 -1.1546
 7081SOL    HW232703   4.709   3.933  15.728  0.5519  0.2889  0.1169
 7082SOL     OW32704   4.366   3.815  17.309 -0.5644 -0.0933 -0.4193
 7082SOL    HW132705   4.457   3.786  17.308 -0.3549  0.4522  2.2306
 7082SOL    HW232706   4.339   3.780  17.394 -0.0212  1.3101  0.3193
 7083SOL     OW32707   1.933   1.369   2.877  0.3573  0.3269  0.1324
 7083SOL    HW132708   1.938   1.459   2.845 -0.7795  0.0176 -0.8780
 7083SOL    HW232709   1.841   1.350   2.892  0.1991 -0.4083 -1.8862
 7084SOL     OW32710   0.550   3.350   7.541  0.6443  0.2157 -0.1274
 7084SOL    HW132711   0.579   3.315   7.457  1.9304 -1.0390  0.8265
 7084SOL    HW232712   0.510   3.273   7.581  1.9823 -0.4013  0.0134
 7085SOL     OW32713   2.569   2.369   4.415  0.2295 -0.8959  0.1431
 7085SOL    HW132714   2.517   2.372   4.335  2.1273  1.0766 -1.0062
 7085SOL    HW232715   2.567   2.273   4.421 -1.5526 -1.0038 -2.2379
 7086SOL     OW32716   1.519   0.756   6.690 -0.6921  0.2645  0.0797
 7086SOL    HW132717   1.598   0.784   6.644 -0.1704 -4.0192 -1.6131
 7086SOL    HW232718   1.457   0.828   6.676  0.6783  1.2868 -0.7924
 7087SOL     OW32719   4.455   1.425  16.889  0.2480  0.7111 -0.1960
 7087SOL    HW132720   4.424   1.347  16.843 -1.7924  0.8789  0.8435
 7087SOL    HW232721   4.429   1.492  16.825 -0.8157 -0.2240 -0.7523
 7088SOL     OW32722   2.108   1.487  10.476  0.6456 -0.3073 -0.2059
 7088SOL    HW132723   2.118   1.541  10.554 -0.0418  1.7517 -1.5358
 7088SOL    HW232724   2.152   1.519  10.397 -0.1304  0.8404 -0.1689
 7089SOL     OW32725   4.149   1.926   3.172  0.9973 -0.0727 -0.3207
 7089SOL    HW132726   4.085   1.934   3.243 -0.8805  3.8186 -2.4508
 7089SOL    HW232727   4.112   1.852   3.125  0.5976 -1.3444  2.0002
 7090SOL     OW32728   2.841   0.215  11.928  0.2950 -0.4352 -0.1376
 7090SOL    HW132729   2.800   0.160  11.862 -3.4649 -0.5251  2.2396
 7090SOL    HW232730   2.933   0.204  11.904  0.3207 -1.2693  0.3406
 7091SOL     OW32731   0.938   2.731   3.246 -0.5938 -0.2204 -0.0241
 7091SOL    HW132732   0.854   2.689   3.266 -1.4525  2.0265  1.0270
 7091SOL    HW232733   0.974   2.667   3.184 -0.0525 -0.8992  0.9853
 7092SOL     OW32734   1.093   3.070  16.487 -0.1148  0.4096  0.4618
 7092SOL    HW132735   1.139   3.153  16.500 -1.2333  1.2527 -0.9872
 7092SOL    HW232736   1.002   3.099  16.490 -0.4153 -0.3274 -2.0039
 7093SOL     OW32737   3.437   1.059   2.981  0.3177  0.2125  0.0185
 7093SOL    HW132738   3.440   0.969   3.012 -1.0285  0.0645 -0.2865
 7093SOL    HW232739   3.521   1.067   2.935 -0.3771  2.4533 -0.8715
 7094SOL     OW32740   0.157   2.490  13.776  0.2481 -0.8466  0.5803
 7094SOL    HW132741   0.229   2.431  13.751  0.7526 -0.0562  0.1941
 7094SOL    HW232742   0.191   2.522  13.860 -0.2721 -0.5335  0.6647
 7095SOL     OW32743   2.288   2.368   7.706  0.1477 -0.3118 -0.5344
 7095SOL    HW132744   2.212   2.419   7.735 -0.5197 -1.0755 -0.9263
 7095SOL    HW232745   2.336   2.360   7.789  0.2221  1.2273 -0.4236
 7096SOL     OW32746   4.341   3.646   4.514  0.0351 -0.5176  0.4066
 7096SOL    HW132747   4.285   3.724   4.518  0.2347 -0.1398 -3.6420
 7096SOL    HW232748   4.297   3.593   4.580  1.5167  0.8081  2.4575
 7097SOL     OW32749   3.128   1.954  14.915 -0.4835  0.2675  0.2231
 7097SOL    HW132750   3.063   2.011  14.876 -0.7191  0.4005  0.8082
 7097SOL    HW232751   3.146   1.900  14.838  1.8189  0.1430  0.8234
 7098SOL     OW32752   0.650   4.132   0.022  0.1079 -0.4243 -0.6099
 7098SOL    HW132753   0.624   4.150   0.112 -1.3762 -0.5024 -1.0339
 7098SOL    HW232754   0.622   4.043   0.004 -0.2436  0.0010 -2.1939
 7099SOL     OW32755   1.673   2.898   8.053  0.2127 -0.0686 -0.1249
 7099SOL    HW132756   1.628   2.914   8.136 -0.1850 -1.1192 -0.1407
 7099SOL    HW232757   1.764   2.919   8.075 -0.4877  0.9278  1.8382
 7100SOL     OW32758   3.891   1.056   8.847 -0.3389 -0.1990 -0.2759
 7100SOL    HW132759   3.886   1.137   8.797  1.0939 -0.8009 -1.3936
 7100SOL    HW232760   3.811   1.057   8.900  0.0385 -1.3751  0.3257
 7101SOL     OW32761   2.365   1.642   7.374 -0.8664 -0.0052  0.1557
 7101SOL    HW132762   2.275   1.610   7.379 -0.6904 -0.4120  0.8085
 7101SOL    HW232763   2.361   1.737   7.369  0.1036 -0.1187 -2.6796
 7102SOL     OW32764   3.418   0.059  12.032 -0.1366  0.2527 -0.0418
 7102SOL    HW132765   3.506   0.044  12.066 -0.7028  1.2957  1.8900
 7102SOL    HW232766   3.407   0.148  12.066 -0.3640  0.3278 -0.3096
 7103SOL     OW32767   2.894   1.974   4.996  0.1561 -0.5365  0.1978
 7103SOL    HW132768   2.827   1.985   5.064  0.2113 -0.7863  0.2907
 7103SOL    HW232769   2.912   2.066   4.979  0.7921 -0.7501 -0.2474
 7104SOL     OW32770   2.957   2.611   5.405 -0.1635 -0.5730 -0.2249
 7104SOL    HW132771   2.974   2.626   5.312  1.9340 -2.9534 -0.2127
 7104SOL    HW232772   2.923   2.522   5.403  1.4849 -1.2187 -0.0452
 7105SOL     OW32773   3.949   2.942   5.442 -0.0415  0.5218  0.1690
 7105SOL    HW132774   3.962   3.006   5.372  2.7426  0.2290  0.4164
 7105SOL    HW232775   3.863   2.976   5.467 -0.0367 -0.6573  1.7703
 7106SOL     OW32776   2.111   0.453   1.860 -0.6885  0.1603  0.1291
 7106SOL    HW132777   2.030   0.504   1.868  0.5058  1.9745  0.5891
 7106SOL    HW232778   2.180   0.518   1.846 -0.9409  0.7073  1.4374
 7107SOL     OW32779   2.563   1.138   7.635 -0.2374 -0.4617  0.3132
 7107SOL    HW132780   2.559   1.129   7.540 -2.2082  0.0460  0.3509
 7107SOL    HW232781   2.473   1.164   7.655 -0.7412 -0.9670 -1.2791
 7108SOL     OW32782   2.925   0.811  12.012  0.1070  0.5079 -0.3918
 7108SOL    HW132783   2.975   0.893  12.012 -1.1597  1.2885 -1.1593
 7108SOL    HW232784   2.955   0.760  11.937  1.0253  0.0927  0.2633
 7109SOL     OW32785   4.626   2.105  15.998  0.0930 -0.4729  0.5918
 7109SOL    HW132786   4.647   2.018  15.967  1.1482  0.6954 -1.9544
 7109SOL    HW232787   4.538   2.095  16.034 -0.4624 -0.6206 -0.8158
 7110SOL     OW32788   1.716   1.541  12.514 -0.1653  0.2320  0.0468
 7110SOL    HW132789   1.766   1.563  12.592  0.9057 -0.5926 -0.4073
 7110SOL    HW232790   1.784   1.505  12.456 -0.5760  0.9100 -0.8662
 7111SOL     OW32791   0.797   1.664   8.946  0.1672  1.0275  1.1451
 7111SOL    HW132792   0.766   1.581   8.981  0.6809  0.1856 -0.4088
 7111SOL    HW232793   0.713   1.700   8.917 -0.0425 -1.3106 -1.1426
 7112SOL     OW32794   2.036   2.353   6.476 -0.2124 -0.2063 -0.4634
 7112SOL    HW132795   2.097   2.410   6.524 -0.8798 -0.4437  0.6818
 7112SOL    HW232796   1.973   2.328   6.544  0.4134  2.8579  1.2776
 7113SOL     OW32797   1.077   2.836   9.308  0.3210 -0.1816  0.5056
 7113SOL    HW132798   1.126   2.904   9.355 -0.5308  0.0271  1.0919
 7113SOL    HW232799   1.002   2.814   9.362 -0.5542 -0.6749 -0.9031
 7114SOL     OW32800   0.262   4.003   3.653 -0.2708  0.3639  0.4864
 7114SOL    HW132801   0.188   4.060   3.678  0.6838  1.2914  1.1885
 7114SOL    HW232802   0.334   4.047   3.698  0.2418  0.5715 -0.5395
 7115SOL     OW32803   4.098   0.617   0.678  0.2263  0.0302  0.1736
 7115SOL    HW132804   4.036   0.598   0.608  0.7484 -2.1330  0.2998
 7115SOL    HW232805   4.090   0.540   0.734  1.4696 -0.3895 -0.2353
 7116SOL     OW32806   1.928   0.040   3.963  0.1407  0.1091 -0.1902
 7116SOL    HW132807   1.953   0.089   4.041  1.1026  0.1215 -0.5002
 7116SOL    HW232808   1.839   0.025   3.994  0.8061 -1.1314  1.1370
 7117SOL     OW32809   1.917   4.214  17.685  0.1363  0.4635 -0.2569
 7117SOL    HW132810   2.007   4.200   0.015 -0.1989 -0.9358  0.0893
 7117SOL    HW232811   1.869   4.213   0.066  0.2491  0.0238 -0.1956
 7118SOL     OW32812   1.760   0.966   9.360 -0.3994  0.0413  0.2939
 7118SOL    HW132813   1.674   0.938   9.328 -0.4718 -0.6667  1.1065
 7118SOL    HW232814   1.748   1.010   9.444 -0.7496 -0.6580  0.6169
 7119SOL     OW32815   1.207   0.393   2.196 -0.0925 -0.0286  0.4614
 7119SOL    HW132816   1.144   0.440   2.142  1.6553 -0.3806 -1.9023
 7119SOL    HW232817   1.171   0.396   2.285  0.1855  0.8493  0.5456
 7120SOL     OW32818   2.217   1.646  11.663  0.4836 -0.1038 -0.3724
 7120SOL    HW132819   2.125   1.665  11.679  0.5228 -0.0050 -0.2620
 7120SOL    HW232820   2.227   1.670  11.570  3.8835  0.2260  0.0851
 7121SOL     OW32821   4.090   0.635   6.591 -0.0896  0.0695  0.4677
 7121SOL    HW132822   4.168   0.658   6.541  0.4567 -0.1949  1.1928
 7121SOL    HW232823   4.018   0.676   6.544 -0.1155 -1.4297 -0.8142
 7122SOL     OW32824   3.850   0.346   4.526 -0.1701 -0.1187 -0.0416
 7122SOL    HW132825   3.826   0.428   4.569 -2.7596 -0.7491 -0.2970
 7122SOL    HW232826   3.862   0.298   4.608  0.5214 -1.3049 -0.8370
 7123SOL     OW32827   2.652   4.200   5.629  0.6573  0.3362 -0.1879
 7123SOL    HW132828   2.626   4.187   5.538  0.4894  1.8893 -0.3768
 7123SOL    HW232829   2.612   4.120   5.663  0.3077  0.0776 -1.2208
 7124SOL     OW32830   3.891   0.270   8.253 -0.4320  0.0618 -0.8834
 7124SOL    HW132831   3.864   0.180   8.234 -0.4195 -0.2536  0.6013
 7124SOL    HW232832   3.851   0.283   8.339 -0.0361 -1.3530 -0.4793
 7125SOL     OW32833   4.447   0.310  10.553 -0.5048  0.3456  0.6591
 7125SOL    HW132834   4.451   0.405  10.564  0.3237  0.5069 -0.9059
 7125SOL    HW232835   4.534   0.276  10.534 -1.2998 -1.6315  0.6307
 7126SOL     OW32836   4.354   3.489  17.292 -0.3207  0.3036  0.0642
 7126SOL    HW132837   4.436   3.538  17.282 -0.8177  1.5986  2.2298
 7126SOL    HW232838   4.378   3.430  17.364  1.2384 -0.5409 -1.1552
 7127SOL     OW32839   0.956   3.223   8.425 -0.2346  0.3472 -0.5150
 7127SOL    HW132840   0.935   3.316   8.422  2.2433  0.8531 -2.1278
 7127SOL    HW232841   0.992   3.211   8.513  1.4894  1.2289 -1.0947
 7128SOL     OW32842   4.288   2.894   1.769 -0.1444 -0.3409 -0.2285
 7128SOL    HW132843   4.276   2.973   1.822  0.5223  0.5626 -1.4430
 7128SOL    HW232844   4.269   2.924   1.680  0.8940  0.3924 -0.1977
 7129SOL     OW32845   3.445   1.329  15.191  0.1648 -0.6470 -0.1358
 7129SOL    HW132846   3.491   1.376  15.122  0.8682 -0.8821  0.1732
 7129SOL    HW232847   3.429   1.399  15.255 -3.0333 -0.2602 -1.3612
 7130SOL     OW32848   2.905   1.281   2.215  0.3818  0.4091  0.3580
 7130SOL    HW132849   2.852   1.202   2.209 -0.1567  0.6936  1.3453
 7130SOL    HW232850   2.944   1.268   2.128 -0.2352 -1.1989  0.3245
 7131SOL     OW32851   0.836   4.452   1.332 -0.2082  0.1974 -0.2586
 7131SOL    HW132852   0.784   4.415   1.403  1.5107 -0.4646  0.6463
 7131SOL    HW232853   0.868   4.375   1.286 -0.5052  0.0319 -0.1850
 7132SOL     OW32854   1.892   0.659   1.842  0.0613  0.1222  0.0769
 7132SOL    HW132855   1.800   0.655   1.817 -0.1827 -2.4301  1.3133
 7132SOL    HW232856   1.926   0.710   1.769  1.0462 -0.1415  0.3449
 7133SOL     OW32857   3.735   1.046  16.408  0.1340 -0.0158 -0.0101
 7133SOL    HW132858   3.660   1.101  16.430 -1.2823 -1.3310 -1.5277
 7133SOL    HW232859   3.756   1.072  16.319 -1.1902  0.5233 -0.1665
 7134SOL     OW32860   0.996   2.013  12.923 -0.1239 -0.0715  0.1824
 7134SOL    HW132861   1.061   2.082  12.935 -1.4128  1.0906  0.4855
 7134SOL    HW232862   1.027   1.957  12.994 -1.2466 -1.7002 -0.6234
 7135SOL     OW32863   1.693   4.579   8.942 -0.1600  0.3810  0.0562
 7135SOL    HW132864   1.662   4.617   9.024  0.2039  0.9035 -0.0393
 7135SOL    HW232865   1.613   4.552   8.898  0.8909  0.0874 -1.7079
 7136SOL     OW32866   3.681   1.830   1.778  0.5385 -0.2474 -0.0261
 7136SOL    HW132867   3.708   1.755   1.726  0.8359 -1.1941  1.4810
 7136SOL    HW232868   3.654   1.788   1.860 -0.0691  1.0527  0.4300
 7137SOL     OW32869   2.828   3.081   0.496 -0.4345  0.1848 -0.3507
 7137SOL    HW132870   2.839   3.005   0.553 -0.5127  0.6619  0.3031
 7137SOL    HW232871   2.919   3.103   0.479 -0.6007  1.1251 -0.0638
 7138SOL     OW32872   2.743   0.314   1.847 -0.5626 -0.5042 -0.2914
 7138SOL    HW132873   2.823   0.276   1.808  0.2176  0.8899 -0.0340
 7138SOL    HW232874   2.685   0.312   1.771  0.4254 -0.1509 -1.0674
 7139SOL     OW32875   3.054   0.609  16.825  0.4687  0.0597  0.5035
 7139SOL    HW132876   3.080   0.541  16.763  2.5376  1.2616  0.0554
 7139SOL    HW232877   3.036   0.672  16.756 -1.8893 -1.4736 -0.2814
 7140SOL     OW32878   2.916   2.121  12.618  0.6160 -0.6117  0.6110
 7140SOL    HW132879   2.860   2.061  12.570  0.3808 -0.7660  1.0706
 7140SOL    HW232880   2.992   2.112  12.562 -2.3739  0.8894 -3.6632
 7141SOL     OW32881   3.346   2.348  12.485  0.2927 -0.0200 -0.9990
 7141SOL    HW132882   3.355   2.274  12.545  3.0935  1.5908  0.5339
 7141SOL    HW232883   3.254   2.373  12.498  0.9463  1.9036 -0.0766
 7142SOL     OW32884   4.536   3.031   8.578  0.4213 -0.1434 -0.1389
 7142SOL    HW132885   4.482   2.970   8.527  1.0454  0.0073 -0.9787
 7142SOL    HW232886   4.476   3.106   8.578  1.2695  0.5272  1.8983
 7143SOL     OW32887   1.503   1.608   4.378 -0.0698  0.9892 -0.5251
 7143SOL    HW132888   1.588   1.581   4.345 -0.4660 -0.2768 -0.4934
 7143SOL    HW232889   1.517   1.684   4.435 -1.7223 -1.3757  2.9867
 7144SOL     OW32890   4.302   0.751   3.855  0.0306  0.4644 -0.3844
 7144SOL    HW132891   4.305   0.718   3.765 -1.3533  0.2704 -0.3599
 7144SOL    HW232892   4.288   0.843   3.834 -0.1535  0.8018  1.2324
 7145SOL     OW32893   1.201   3.947  12.001 -0.8722  0.3512 -0.4978
 7145SOL    HW132894   1.272   3.987  12.050 -1.2949 -0.7509  1.0366
 7145SOL    HW232895   1.236   3.858  11.995 -0.6465  0.4692 -0.9108
 7146SOL     OW32896   0.341   1.639   4.538 -0.4165 -0.3163  1.0296
 7146SOL    HW132897   0.350   1.646   4.633 -3.7462  1.1537  1.2619
 7146SOL    HW232898   0.349   1.729   4.505  1.2583  0.0418  2.4361
 7147SOL     OW32899   0.841   2.248   6.419  0.0337 -0.0460  0.5534
 7147SOL    HW132900   0.888   2.300   6.355 -1.4445 -0.2736 -0.7295
 7147SOL    HW232901   0.761   2.300   6.429 -1.2976 -2.1234  0.7729
 7148SOL     OW32902   0.717   4.366   5.537  0.1027  0.1196 -0.1225
 7148SOL    HW132903   0.743   4.334   5.450  1.0087 -0.1133  0.2300
 7148SOL    HW232904   0.784   4.331   5.596 -0.3528  2.5862  1.8658
 7149SOL     OW32905   3.754   1.837  15.605  0.4038 -0.2613 -0.0434
 7149SOL    HW132906   3.796   1.859  15.522 -2.0965 -1.1459 -1.5454
 7149SOL    HW232907   3.710   1.921  15.619 -1.8166 -1.3118 -0.7019
 7150SOL     OW32908   2.271   3.304  12.731  0.1844  0.2218 -0.4039
 7150SOL    HW132909   2.365   3.308  12.713  0.3841  0.3131  0.6279
 7150SOL    HW232910   2.236   3.316  12.643 -1.7081 -1.4602  0.1188
 7151SOL     OW32911   4.453   3.917   3.592  0.3483  0.7190  0.1976
 7151SOL    HW132912   4.419   3.860   3.524 -1.1430  0.6901  0.9879
 7151SOL    HW232913   4.405   3.890   3.670  2.1609  1.0476  1.4574
 7152SOL     OW32914   2.572   1.016  13.180 -0.3456 -0.1560  0.3674
 7152SOL    HW132915   2.614   0.933  13.203  0.6264  0.6739  1.5895
 7152SOL    HW232916   2.487   0.997  13.220 -0.5792 -0.5440 -0.3287
 7153SOL     OW32917   1.233   2.792   6.522  0.4816 -0.0437 -0.2469
 7153SOL    HW132918   1.231   2.733   6.597 -0.4999  1.1448  0.6605
 7153SOL    HW232919   1.260   2.872   6.567  1.4253 -1.0859  1.0347
 7154SOL     OW32920   0.361   0.292   4.935 -0.6086 -0.3795  0.2824
 7154SOL    HW132921   0.312   0.374   4.923  2.0219  1.2964  0.9018
 7154SOL    HW232922   0.307   0.252   5.003 -1.9472  2.1589  0.7316
 7155SOL     OW32923   4.333   4.070  16.787 -0.3472 -0.5483 -0.3599
 7155SOL    HW132924   4.419   4.027  16.792 -0.6608 -1.2528 -1.0042
 7155SOL    HW232925   4.341   4.109  16.700 -1.3394 -3.2022 -1.6340
 7156SOL     OW32926   0.416   2.680   2.281 -0.2559  0.1176  0.2707
 7156SOL    HW132927   0.396   2.677   2.187 -0.8030 -1.3313  0.4355
 7156SOL    HW232928   0.351   2.622   2.320  1.1927  0.0872  2.6128
 7157SOL     OW32929   1.839   2.386   4.756 -0.5532  0.1581 -0.3160
 7157SOL    HW132930   1.914   2.431   4.796 -2.1219  1.2197  1.4626
 7157SOL    HW232931   1.871   2.296   4.754 -0.7334  0.0958 -0.3788
 7158SOL     OW32932   4.037   3.192   1.026 -0.4465  0.0468  0.0566
 7158SOL    HW132933   4.066   3.117   0.974 -0.2649  0.3335 -0.2512
 7158SOL    HW232934   3.984   3.150   1.094 -1.2559 -0.1869 -0.7140
 7159SOL     OW32935   0.469   3.145   6.612  0.1327 -0.5837 -0.1503
 7159SOL    HW132936   0.561   3.141   6.638 -0.3488  2.8606  2.0795
 7159SOL    HW232937   0.433   3.112   6.694  3.3386  0.2721  1.6118
 7160SOL     OW32938   0.289   3.639   5.905  0.0214  0.0237  0.0536
 7160SOL    HW132939   0.229   3.698   5.950 -0.7271 -1.0630  0.4579
 7160SOL    HW232940   0.307   3.677   5.818  0.2164 -0.6753 -0.2132
 7161SOL     OW32941   2.266   1.778  15.364  0.1599 -0.1267 -0.2129
 7161SOL    HW132942   2.310   1.801  15.282  1.5995 -0.7136  0.3776
 7161SOL    HW232943   2.335   1.733  15.414 -0.5183 -0.8214  0.0964
 7162SOL     OW32944   4.561   0.956  11.676  0.5045  0.4682  0.1462
 7162SOL    HW132945   4.553   1.051  11.683 -0.9708  0.2767  1.0897
 7162SOL    HW232946   4.643   0.954  11.626 -0.4466  0.8724 -1.4028
 7163SOL     OW32947   3.703   0.917   1.430  0.5539  0.5425 -0.3244
 7163SOL    HW132948   3.764   0.981   1.468 -0.6478  0.9042  0.9791
 7163SOL    HW232949   3.660   0.986   1.379 -0.4255 -1.6888 -2.5051
 7164SOL     OW32950   3.253   0.395   8.932  0.4069 -0.6413  0.4137
 7164SOL    HW132951   3.281   0.468   8.987  1.2913 -0.4376 -0.3012
 7164SOL    HW232952   3.166   0.379   8.968  0.4696 -1.8679  0.0419
 7165SOL     OW32953   3.288   1.283   2.106  0.0915 -0.2737  0.0245
 7165SOL    HW132954   3.222   1.276   2.174 -0.8427  2.6463 -0.5902
 7165SOL    HW232955   3.242   1.342   2.046 -0.6165  1.4816  2.3328
 7166SOL     OW32956   4.129   2.547   1.150 -0.7249  0.0012 -0.0682
 7166SOL    HW132957   4.049   2.564   1.101 -0.6489  0.7150  0.0589
 7166SOL    HW232958   4.096   2.534   1.238  1.1143 -1.2241  0.4440
 7167SOL     OW32959   1.215   1.893   6.265  0.2006  0.7039  0.3361
 7167SOL    HW132960   1.127   1.906   6.228  1.2218  0.3707 -2.2161
 7167SOL    HW232961   1.255   1.980   6.260  0.3621  0.6609  0.9647
 7168SOL     OW32962   1.499   1.423   3.121 -0.2033 -0.1660 -0.0169
 7168SOL    HW132963   1.409   1.428   3.089  0.4274  0.8472 -1.6427
 7168SOL    HW232964   1.515   1.332   3.145  1.1161  0.3631  1.1444
 7169SOL     OW32965   1.508   2.227  16.038 -0.4750  0.2320 -0.8287
 7169SOL    HW132966   1.533   2.314  16.008 -0.9846 -0.3421 -2.8699
 7169SOL    HW232967   1.568   2.169  15.993  1.1608 -0.6104  2.4043
 7170SOL     OW32968   2.859   4.698   2.511  0.8028 -0.2630 -0.4631
 7170SOL    HW132969   2.901   4.642   2.576 -0.7915  0.2286  0.9961
 7170SOL    HW232970   2.895   0.057   2.540  0.7118 -0.6210  0.6862
 7171SOL     OW32971   2.693   1.369   9.857 -0.1707  0.1969 -0.1865
 7171SOL    HW132972   2.737   1.301   9.805  0.4558  1.2157 -0.9681
 7171SOL    HW232973   2.766   1.418   9.895 -0.2111 -0.8347  1.2508
 7172SOL     OW32974   2.123   3.100   7.924  0.2668 -0.0044 -0.3423
 7172SOL    HW132975   2.068   3.074   7.850 -0.3997 -0.3220  0.2584
 7172SOL    HW232976   2.098   3.190   7.944  1.0370  0.3703 -1.1106
 7173SOL     OW32977   4.247   1.140   6.106  0.1139  0.5485 -0.1321
 7173SOL    HW132978   4.189   1.202   6.151 -0.9392  1.9489 -3.3927
 7173SOL    HW232979   4.279   1.191   6.031  0.1286 -1.6757 -1.6319
 7174SOL     OW32980   0.131   4.257   7.588  0.5426  0.4684  0.3588
 7174SOL    HW132981   0.053   4.242   7.535  0.9391 -0.8009  0.1308
 7174SOL    HW232982   0.135   4.187   7.654  0.7350  0.6150  0.5040
 7175SOL     OW32983   1.805   3.184   6.559 -0.2854  0.5405 -0.0773
 7175SOL    HW132984   1.851   3.227   6.487  0.4911  0.5101  0.4053
 7175SOL    HW232985   1.874   3.125   6.588 -0.8326  0.1155  0.3701
 7176SOL     OW32986   2.848   0.911   7.151 -0.2471  0.6245 -0.0066
 7176SOL    HW132987   2.875   0.966   7.077 -2.1400  1.3875 -0.1281
 7176SOL    HW232988   2.761   0.946   7.168 -0.3432 -0.0930  0.9765
 7177SOL     OW32989   0.408   2.742   6.368  0.4151 -0.0686  0.1091
 7177SOL    HW132990   0.430   2.805   6.299 -2.1982  1.3049  0.5179
 7177SOL    HW232991   0.313   2.753   6.379  0.2214 -0.3328 -1.2517
 7178SOL     OW32992   0.351   0.772  11.263  0.3229  0.1585  0.4083
 7178SOL    HW132993   0.327   0.743  11.351  1.0893 -1.3081  0.1325
 7178SOL    HW232994   0.421   0.833  11.283  0.8399  0.0133 -0.9750
 7179SOL     OW32995   4.298   3.892   6.001  0.4681 -0.4858 -0.3198
 7179SOL    HW132996   4.296   3.851   5.915  3.7299  0.3397 -0.7836
 7179SOL    HW232997   4.230   3.847   6.051  1.1384 -0.5068  0.5912
 7180SOL     OW32998   2.001   1.342   1.504 -0.6372 -0.1636 -0.3631
 7180SOL    HW132999   1.949   1.405   1.552 -1.6804  0.0948 -1.8267
 7180SOL    HW233000   1.971   1.368   1.417  0.0135  0.5727 -0.3700
 7181SOL     OW33001   0.757   0.618  11.633  0.5760 -0.5970 -0.1164
 7181SOL    HW133002   0.770   0.542  11.575  0.1089 -0.2719 -0.6546
 7181SOL    HW233003   0.829   0.610  11.695  1.5112 -2.3438 -1.3939
 7182SOL     OW33004   4.097   3.064   7.346  0.2560  0.8194  0.2628
 7182SOL    HW133005   4.043   3.078   7.268  0.1508  0.6620  0.3077
 7182SOL    HW233006   4.177   3.054   7.295 -0.2742 -1.3524 -0.1524
 7183SOL     OW33007   0.442   0.198   4.698 -0.5259  0.7521  0.2857
 7183SOL    HW133008   0.413   0.108   4.715 -1.3243  0.7777 -0.8861
 7183SOL    HW233009   0.397   0.242   4.769 -0.7283  2.2324 -0.7563
 7184SOL     OW33010   1.674   3.641   2.094 -0.3508 -0.7192  0.1304
 7184SOL    HW133011   1.683   3.599   2.179  0.0399  1.7902  1.3091
 7184SOL    HW233012   1.583   3.627   2.068  0.2225 -0.3618 -2.0865
 7185SOL     OW33013   2.385   0.150   8.531  0.1155 -0.0812  0.4240
 7185SOL    HW133014   2.425   0.154   8.618  1.5486 -1.5050 -0.1552
 7185SOL    HW233015   2.473   0.144   8.493  0.7706  3.0017  1.4570
 7186SOL     OW33016   0.027   0.917   9.516  0.8331 -0.2562  0.3673
 7186SOL    HW133017   0.121   0.930   9.509  1.1053 -1.1582  2.1186
 7186SOL    HW233018   0.008   0.873   9.433  0.8782 -0.2023  0.3292
 7187SOL     OW33019   1.425   4.049   9.642  0.2480 -0.1987 -0.1814
 7187SOL    HW133020   1.397   4.089   9.724 -0.1865 -1.3559  0.2390
 7187SOL    HW233021   1.496   4.110   9.625 -1.0131  1.0701 -0.8313
 7188SOL     OW33022   2.658   0.490   8.652 -0.3626  0.2393  0.1561
 7188SOL    HW133023   2.652   0.586   8.653  0.6903  0.3004 -0.0239
 7188SOL    HW233024   2.751   0.481   8.670 -0.2859 -1.7963 -1.2152
 7189SOL     OW33025   1.758   2.262   1.769  0.2021 -0.1238 -0.0831
 7189SOL    HW133026   1.662   2.262   1.770  0.1955  0.9220 -1.0284
 7189SOL    HW233027   1.765   2.304   1.684 -1.6554 -0.1694 -0.2662
 7190SOL     OW33028   3.001   1.265   0.638 -0.3788  0.1677  0.1306
 7190SOL    HW133029   2.944   1.336   0.606 -2.3129 -2.1455 -1.5517
 7190SOL    HW233030   3.008   1.217   0.556  1.3053  0.8058 -0.0957
 7191SOL     OW33031   4.595   0.607   2.132 -0.1823 -0.2349 -0.8051
 7191SOL    HW133032   4.662   0.631   2.068 -0.2334 -1.6121 -1.3676
 7191SOL    HW233033   4.522   0.599   2.072 -1.8801  0.6445  1.1335
 7192SOL     OW33034   2.286   3.466   7.972  0.1726 -0.9050 -0.2186
 7192SOL    HW133035   2.366   3.453   8.022  1.3214  1.5063 -1.4117
 7192SOL    HW233036   2.214   3.436   8.027  0.7137  2.4216  2.2792
 7193SOL     OW33037   1.518   4.487   6.594  0.2401  0.2256 -0.5647
 7193SOL    HW133038   1.498   4.539   6.672 -0.1848 -0.4858 -0.1901
 7193SOL    HW233039   1.432   4.454   6.568 -0.3040  0.2265  1.2341
 7194SOL     OW33040   3.284   3.592  13.280 -0.2973 -0.1340  0.2334
 7194SOL    HW133041   3.345   3.588  13.206 -0.8378  1.1366 -0.2808
 7194SOL    HW233042   3.235   3.671  13.257  1.8788  1.9429  2.6554
 7195SOL     OW33043   4.368   0.446   8.934  0.1220  0.4891 -0.1583
 7195SOL    HW133044   4.332   0.360   8.953 -0.2649 -0.0275 -3.3874
 7195SOL    HW233045   4.427   0.438   9.009  0.0689  0.7227 -0.0875
 7196SOL     OW33046   2.696   4.325   9.078 -0.5079  0.0632  0.0874
 7196SOL    HW133047   2.723   4.417   9.077 -0.4843  0.0572  0.1455
 7196SOL    HW233048   2.669   4.320   8.987 -0.3027 -2.3206  0.1688
 7197SOL     OW33049   1.542   0.714   3.294  0.1820 -0.6692  0.1700
 7197SOL    HW133050   1.544   0.810   3.298 -0.7216 -0.6650  0.5660
 7197SOL    HW233051   1.458   0.702   3.248 -0.3923  3.3622  0.1534
 7198SOL     OW33052   2.673   3.546   7.767 -0.5073 -0.3558 -0.3580
 7198SOL    HW133053   2.678   3.602   7.844  1.1214  0.1319 -0.8037
 7198SOL    HW233054   2.623   3.601   7.706 -1.4348  0.0432  0.7741
 7199SOL     OW33055   0.700   4.121   2.672 -0.0366  0.3005  0.1329
 7199SOL    HW133056   0.631   4.064   2.706 -1.1440  0.1225 -2.4304
 7199SOL    HW233057   0.773   4.100   2.731 -0.5769  1.3385  1.1831
 7200SOL     OW33058   0.319   2.816   8.061  0.8675 -0.8016 -0.1830
 7200SOL    HW133059   0.342   2.831   7.969  0.6492 -1.2436 -0.3115
 7200SOL    HW233060   0.246   2.756   8.052  0.5488 -0.7507  2.0561
 7201SOL     OW33061   3.668   3.364   2.929  0.0253 -0.1686 -0.0437
 7201SOL    HW133062   3.671   3.459   2.918  2.6463 -0.2747 -0.2253
 7201SOL    HW233063   3.595   3.367   2.990  0.8313  0.7429  0.8731
 7202SOL     OW33064   3.954   1.710   9.965 -0.0035  0.7961 -0.0656
 7202SOL    HW133065   3.883   1.705   9.900 -0.2233  0.3050  0.2108
 7202SOL    HW233066   3.964   1.804   9.976 -0.5096  0.7486  0.8288
 7203SOL     OW33067   4.674   1.607   4.270  1.0579  0.0694 -0.0481
 7203SOL    HW133068   4.668   1.684   4.213  3.2484  0.7743  0.6912
 7203SOL    HW233069   4.625   1.549   4.211  0.1417 -0.6656  1.4574
 7204SOL     OW33070   2.551   3.171   1.691  0.0055 -0.5654  0.0810
 7204SOL    HW133071   2.554   3.092   1.636 -0.4514  1.1580 -2.4279
 7204SOL    HW233072   2.460   3.171   1.719 -0.1391  0.6383 -0.3896
 7205SOL     OW33073   0.230   0.102   1.658 -0.6256 -0.6904  0.6321
 7205SOL    HW133074   0.250   0.141   1.573 -0.9758 -1.7731  0.0664
 7205SOL    HW233075   0.194   0.184   1.694 -0.0537  0.7364 -2.0562
 7206SOL     OW33076   1.213   1.188   5.996  0.7828 -0.1038  0.0614
 7206SOL    HW133077   1.301   1.168   6.026  0.4774 -0.1676  0.9241
 7206SOL    HW233078   1.168   1.199   6.080  0.0501 -1.2578 -0.1896
 7207SOL     OW33079   1.285   2.843   5.468  0.1028  0.0823 -0.4009
 7207SOL    HW133080   1.363   2.832   5.522 -0.5980  0.4387  0.6842
 7207SOL    HW233081   1.235   2.893   5.533  1.6523  0.0114  0.8234
 7208SOL     OW33082   0.429   3.364   2.771 -0.4749  0.1390  0.0842
 7208SOL    HW133083   0.347   3.315   2.758  0.6177 -1.4203 -0.9385
 7208SOL    HW233084   0.411   3.432   2.835  0.8334  0.7071 -0.1509
 7209SOL     OW33085   4.141   4.196   4.786 -0.1468 -0.5065  0.7819
 7209SOL    HW133086   4.107   4.111   4.756 -3.3345  1.0382  0.0391
 7209SOL    HW233087   4.073   4.258   4.760  1.4056  0.5842 -0.7132
 7210SOL     OW33088   3.249   3.085   5.992  0.0576 -0.1576  0.0210
 7210SOL    HW133089   3.206   3.081   6.078 -1.0912  1.3302 -0.4786
 7210SOL    HW233090   3.340   3.094   6.020 -0.1013  2.4717 -0.2979
 7211SOL     OW33091   0.514   2.500   4.540  0.1903  0.4991 -0.3368
 7211SOL    HW133092   0.601   2.508   4.580 -0.8751  2.5730  1.5517
 7211SOL    HW233093   0.530   2.571   4.478  1.0721 -1.0514 -1.8808
 7212SOL     OW33094   3.605   3.375   7.414  0.1001 -0.3907 -0.2277
 7212SOL    HW133095   3.628   3.287   7.445  2.3059  0.5366  0.7333
 7212SOL    HW233096   3.682   3.422   7.447  0.1753 -0.0236 -0.9453
 7213SOL     OW33097   4.317   3.325  13.178  0.1053 -0.5910  0.4348
 7213SOL    HW133098   4.402   3.316  13.221  0.1013  0.9077  0.7732
 7213SOL    HW233099   4.270   3.380  13.240 -0.6055  0.9253 -1.4598
 7214SOL     OW33100   4.370   0.127  10.733  0.0048 -0.1598  0.3275
 7214SOL    HW133101   4.452   0.110  10.779  2.6356 -0.9988 -4.5909
 7214SOL    HW233102   4.400   0.185  10.662  1.6083 -1.6578 -0.1999
 7215SOL     OW33103   1.663   3.860   6.662  0.0993 -0.0686  0.3655
 7215SOL    HW133104   1.693   3.895   6.746  1.4378 -0.9135  0.2511
 7215SOL    HW233105   1.583   3.820   6.695  0.5822 -0.9149  0.5195
 7216SOL     OW33106   0.348   2.199   6.090 -0.0423  0.1039 -0.4753
 7216SOL    HW133107   0.426   2.153   6.120  0.2154  1.1783  0.5155
 7216SOL    HW233108   0.279   2.133   6.093 -2.2051  2.3686  0.2979
 7217SOL     OW33109   4.711   1.684   8.656 -0.7008 -0.6916 -0.0147
 7217SOL    HW133110   4.628   1.675   8.608 -0.6116  0.0057 -0.2874
 7217SOL    HW233111   0.044   1.638   8.596 -0.8754 -0.9864  0.0404
 7218SOL     OW33112   2.231   3.174   5.772  0.1121  0.2413 -0.5467
 7218SOL    HW133113   2.206   3.092   5.730 -0.3628  0.0362  0.1239
 7218SOL    HW233114   2.309   3.189   5.718  0.5079 -3.6670 -1.0865
 7219SOL     OW33115   2.611   3.043   2.195 -0.1330  0.4192 -0.6606
 7219SOL    HW133116   2.602   3.122   2.141 -3.3315 -1.3918 -2.7861
 7219SOL    HW233117   2.530   2.994   2.180 -1.1014  1.7117  0.3618
 7220SOL     OW33118   2.202   4.150  10.851 -0.5319 -0.0783 -0.1696
 7220SOL    HW133119   2.293   4.121  10.856 -0.4656  0.5003  2.4801
 7220SOL    HW233120   2.170   4.084  10.789 -0.4888 -1.1934  0.9833
 7221SOL     OW33121   3.883   4.256   6.040 -0.3807 -0.2569  0.0922
 7221SOL    HW133122   3.844   4.169   6.030  0.1111 -0.5610  0.8147
 7221SOL    HW233123   3.889   4.253   6.135 -0.7542  0.1635  0.1248
 7222SOL     OW33124   2.247   4.316   1.292 -0.1347 -0.2161 -0.2106
 7222SOL    HW133125   2.186   4.242   1.284 -0.4088  0.0797 -0.9156
 7222SOL    HW233126   2.181   4.382   1.274  1.2725  0.6980 -2.0805
 7223SOL     OW33127   3.041   3.004   7.562  0.3107  0.1545  0.3019
 7223SOL    HW133128   3.022   3.087   7.518 -0.7046  0.2901  0.9883
 7223SOL    HW233129   3.004   2.936   7.507  1.4666 -0.7028  0.5891
 7224SOL     OW33130   0.472   3.927   3.389  0.3732 -0.0342 -0.0503
 7224SOL    HW133131   0.494   3.985   3.462  0.1488 -0.3102  0.2352
 7224SOL    HW233132   0.377   3.942   3.387  0.6316  1.8738  1.6117
 7225SOL     OW33133   2.926   2.072   8.322  0.2146 -0.3339 -0.2059
 7225SOL    HW133134   2.948   2.136   8.389 -1.3390 -0.5070  0.4839
 7225SOL    HW233135   2.913   2.127   8.245 -0.2200 -1.4545 -0.9439
 7226SOL     OW33136   4.393   3.314  17.551 -0.3929 -0.0981 -0.0690
 7226SOL    HW133137   4.407   3.235  17.498  2.8876  0.2961  0.2343
 7226SOL    HW233138   4.469   3.319  17.609  0.0564 -1.0019 -0.5817
 7227SOL     OW33139   0.764   0.460   5.669  0.6261  0.2225 -0.2587
 7227SOL    HW133140   0.731   0.532   5.722  0.3709 -0.3465  0.3546
 7227SOL    HW233141   0.787   0.510   5.590 -1.0247  0.7131 -0.4261
 7228SOL     OW33142   3.876   2.859   7.819  0.3699  0.3447  0.5123
 7228SOL    HW133143   3.897   2.881   7.728 -0.4193  3.6528  1.1233
 7228SOL    HW233144   3.880   2.763   7.815 -1.9712  0.2125  0.9313
 7229SOL     OW33145   1.182   0.325   8.219 -0.1111  0.0295 -0.1917
 7229SOL    HW133146   1.209   0.250   8.271 -0.2900 -0.4728 -0.8199
 7229SOL    HW233147   1.264   0.355   8.179 -0.6031  0.2262 -1.0528
 7230SOL     OW33148   3.122   3.859  13.886 -0.2874 -0.0049 -0.0395
 7230SOL    HW133149   3.118   3.862  13.790 -1.3561  2.0138  0.0741
 7230SOL    HW233150   3.029   3.861  13.908 -0.2033 -0.2917  0.3442
 7231SOL     OW33151   1.372   0.485  10.229  0.4162 -0.7182  0.2780
 7231SOL    HW133152   1.320   0.410  10.258 -1.9978  0.9063  0.0764
 7231SOL    HW233153   1.435   0.473  10.301  0.0793  0.4406  0.7728
 7232SOL     OW33154   3.115   4.575   3.925  0.4669  0.0412  0.4309
 7232SOL    HW133155   3.162   4.539   3.849  2.6293 -1.9157  2.6956
 7232SOL    HW233156   3.179   4.556   3.993  0.3520 -1.0495  0.2351
 7233SOL     OW33157   0.233   2.133   1.295 -0.7026  0.6880  0.3297
 7233SOL    HW133158   0.254   2.103   1.384  1.9710  3.1703  0.5384
 7233SOL    HW233159   0.295   2.205   1.294  0.4649 -0.3274 -0.4158
 7234SOL     OW33160   4.365   0.145   8.131 -0.2216  0.2244 -0.1562
 7234SOL    HW133161   4.296   0.167   8.069  0.6706 -0.3744 -1.3501
 7234SOL    HW233162   4.384   0.055   8.105  0.4498  0.0492  0.9299
 7235SOL     OW33163   4.091   4.627   9.490  0.1986  0.2638 -0.0125
 7235SOL    HW133164   4.135   4.613   9.573 -0.3957 -2.6099 -0.1919
 7235SOL    HW233165   4.104   4.722   9.488  0.8586  0.1715 -0.0392
 7236SOL     OW33166   1.891   2.768   2.901 -0.1166  0.0776  0.1335
 7236SOL    HW133167   1.979   2.774   2.865 -0.7437 -2.4791 -1.7928
 7236SOL    HW233168   1.901   2.784   2.995  1.5951 -0.8153  0.1029
 7237SOL     OW33169   2.296   1.252   7.000  0.3557 -0.3509 -0.6111
 7237SOL    HW133170   2.219   1.304   7.021  1.6532 -0.3954  4.2068
 7237SOL    HW233171   2.361   1.320   6.986 -0.6519  0.7479  0.0466
 7238SOL     OW33172   4.640   2.566   1.688  0.0382  0.0864  0.4261
 7238SOL    HW133173   4.695   2.637   1.722 -1.6679  1.2761  0.7567
 7238SOL    HW233174   4.698   2.492   1.674 -0.9142 -1.0159  2.2401
 7239SOL     OW33175   0.903   1.962   8.082  0.3538  0.1617  0.2518
 7239SOL    HW133176   0.976   2.017   8.052 -0.2019  1.5092  1.3581
 7239SOL    HW233177   0.843   1.974   8.009  1.7180  0.9213 -0.7448
 7240SOL     OW33178   0.785   3.600   5.723 -0.2505 -0.1854 -0.0158
 7240SOL    HW133179   0.741   3.635   5.645  1.0311 -0.4685 -0.8649
 7240SOL    HW233180   0.743   3.515   5.734 -1.5256  0.5259  0.6302
 7241SOL     OW33181   3.756   2.847   6.115 -0.0013 -0.3662  0.1640
 7241SOL    HW133182   3.799   2.831   6.031 -1.0421  2.1540 -0.8366
 7241SOL    HW233183   3.825   2.814   6.173 -1.6667 -2.2313  1.0706
 7242SOL     OW33184   0.097   1.913   8.965 -0.2196  0.6392  0.0236
 7242SOL    HW133185   0.115   1.877   9.052  0.2290 -0.3824 -0.4967
 7242SOL    HW233186   0.089   2.007   8.977 -1.3703  0.7478 -1.5086
 7243SOL     OW33187   0.754   3.984   3.943  0.0768  0.1234  0.3129
 7243SOL    HW133188   0.754   4.010   3.851 -1.1242 -0.5272  0.1312
 7243SOL    HW233189   0.667   3.944   3.954 -0.8082  2.6531  2.5581
 7244SOL     OW33190   2.313   4.298   8.141  0.2095 -0.2527 -0.1922
 7244SOL    HW133191   2.341   4.364   8.077 -1.0819 -0.3170 -0.8309
 7244SOL    HW233192   2.230   4.340   8.165 -0.8368 -2.0913 -0.5877
 7245SOL     OW33193   1.328   2.915   2.041  0.2074 -0.2278 -0.3219
 7245SOL    HW133194   1.319   2.943   2.132 -0.4328  0.4055 -0.5852
 7245SOL    HW233195   1.408   2.862   2.032 -0.6084 -1.7132  1.2401
 7246SOL     OW33196   0.849   0.242   2.454  0.9895  0.2240  0.1136
 7246SOL    HW133197   0.872   0.327   2.417 -2.1410  1.9478  2.0723
 7246SOL    HW233198   0.914   0.185   2.414  0.3902 -0.2982 -0.1134
 7247SOL     OW33199   1.396   4.144   2.480 -0.5631 -0.0324  0.0577
 7247SOL    HW133200   1.352   4.059   2.484 -1.3764  0.2097 -3.3468
 7247SOL    HW233201   1.328   4.192   2.433 -0.3985  0.0781 -0.0667
 7248SOL     OW33202   4.329   0.573   3.400  0.2754  0.2042  0.0233
 7248SOL    HW133203   4.245   0.541   3.433  0.0328  0.8441  0.0194
 7248SOL    HW233204   4.327   0.550   3.307  0.8435 -1.2759  0.3862
 7249SOL     OW33205   2.378   2.122   8.200 -0.0490  0.0463 -0.2701
 7249SOL    HW133206   2.324   2.044   8.188 -2.0618  1.3547  0.3219
 7249SOL    HW233207   2.318   2.193   8.224 -1.1994 -0.9536 -0.1957
 7250SOL     OW33208   0.618   3.800   5.574  0.3628 -0.2261 -0.5810
 7250SOL    HW133209   0.529   3.778   5.600 -0.2671  1.2842 -1.4651
 7250SOL    HW233210   0.600   3.861   5.503  2.0548 -1.0027 -1.6909
 7251SOL     OW33211   1.684   1.213   0.465  0.8901  0.1020  0.3473
 7251SOL    HW133212   1.710   1.296   0.425  0.5294  0.5489  1.0346
 7251SOL    HW233213   1.693   1.155   0.390  1.6032 -0.4430  0.8512
 7252SOL     OW33214   2.232   2.868  14.157 -0.0114  0.4641 -0.1802
 7252SOL    HW133215   2.235   2.929  14.083 -2.3323  0.5767 -0.1765
 7252SOL    HW233216   2.316   2.892  14.196  0.5462 -3.1463  0.8372
 7253SOL     OW33217   1.929   2.189   5.807  0.0796  0.3105  0.6060
 7253SOL    HW133218   1.864   2.157   5.870 -1.7399  1.0747 -0.8930
 7253SOL    HW233219   1.877   2.238   5.744  0.9085  0.0861 -0.2478
 7254SOL     OW33220   3.569   3.404   6.460  0.3174  0.1598  0.1993
 7254SOL    HW133221   3.493   3.358   6.496 -1.2782  2.7726  0.1287
 7254SOL    HW233222   3.549   3.497   6.451  2.1345  0.4844 -0.4155
 7255SOL     OW33223   1.186   4.429   5.804 -0.1456 -0.1874  0.1427
 7255SOL    HW133224   1.256   4.494   5.801  0.2762 -0.5804  1.6458
 7255SOL    HW233225   1.115   4.470   5.754  0.7773 -0.1073 -1.1071
 7256SOL     OW33226   2.917   1.174   3.735 -0.1707 -0.5956 -0.3549
 7256SOL    HW133227   2.906   1.143   3.825  1.3957 -0.9502 -0.2795
 7256SOL    HW233228   2.952   1.098   3.688 -0.0142 -1.0837  0.5493
 7257SOL     OW33229   0.246   2.603   4.049  0.0430  0.1284 -0.3712
 7257SOL    HW133230   0.245   2.508   4.061 -0.0427  0.0887 -0.7027
 7257SOL    HW233231   0.235   2.630   4.140  0.1151 -2.3199  0.3746
 7258SOL     OW33232   4.262   0.700   3.033 -0.1291  0.4003 -0.2631
 7258SOL    HW133233   4.249   0.665   2.945  3.6408  0.2042 -0.7442
 7258SOL    HW233234   4.351   0.673   3.054 -0.6016  1.5935  3.2603
 7259SOL     OW33235   1.381   0.578   2.924 -0.3915 -0.0717  0.1836
 7259SOL    HW133236   1.355   0.627   3.002 -0.4461  1.0437 -0.5424
 7259SOL    HW233237   1.427   0.503   2.962  0.9690  0.4226 -0.5249
 7260SOL     OW33238   2.870   2.600   7.947  0.2309  0.6031 -0.1800
 7260SOL    HW133239   2.928   2.575   7.875 -0.6855 -2.4705  0.1461
 7260SOL    HW233240   2.783   2.573   7.917  0.5978 -3.1412  2.1496
 7261SOL     OW33241   3.699   0.459  13.661  0.0774 -0.4549 -0.0129
 7261SOL    HW133242   3.736   0.381  13.619  1.6455  0.5406 -0.4333
 7261SOL    HW233243   3.711   0.438  13.754 -3.0919  2.2482  1.0147
 7262SOL     OW33244   4.342   4.043   0.633 -0.2251  0.5172 -0.4486
 7262SOL    HW133245   4.429   4.009   0.655  0.5671  3.2242  0.7346
 7262SOL    HW233246   4.345   4.017   0.542 -1.2071 -0.4472 -0.1904
 7263SOL     OW33247   4.529   0.367   9.614  0.4670  0.0460 -0.2524
 7263SOL    HW133248   4.500   0.447   9.569  1.6539 -1.0322 -2.9393
 7263SOL    HW233249   4.575   0.411   9.685  0.1158 -0.4173  0.2583
 7264SOL     OW33250   2.303   4.321   1.728  0.9418 -0.4875 -0.0432
 7264SOL    HW133251   2.362   4.386   1.688  1.2783  0.8691  2.6699
 7264SOL    HW233252   2.227   4.330   1.670  0.8807  5.3307  0.9616
 7265SOL     OW33253   1.546   0.154   0.190 -0.3147 -0.1800  0.6375
 7265SOL    HW133254   1.482   0.223   0.207  0.2827  1.1202 -2.3331
 7265SOL    HW233255   1.587   0.174   0.106  0.4685 -0.6411  0.9121
 7266SOL     OW33256   0.499   0.752  17.021 -0.1064 -0.6772  0.5730
 7266SOL    HW133257   0.438   0.731  16.951  0.9321 -3.8528  0.6382
 7266SOL    HW233258   0.488   0.847  17.012  0.3745 -0.6727  0.0256
 7267SOL     OW33259   1.696   0.503   4.636 -0.1845  0.3040 -0.0167
 7267SOL    HW133260   1.750   0.425   4.626 -0.8267 -0.0148 -0.9566
 7267SOL    HW233261   1.693   0.517   4.731 -1.9936  0.0399 -0.0404
 7268SOL     OW33262   1.624   0.140  14.142 -0.0695 -0.3889 -0.4534
 7268SOL    HW133263   1.604   0.234  14.148 -0.3524 -0.6513  2.5880
 7268SOL    HW233264   1.560   0.104  14.204 -0.3812 -0.2645 -0.6988
 7269SOL     OW33265   3.335   2.261  14.024  0.0936 -0.1707 -0.4027
 7269SOL    HW133266   3.280   2.279  13.948 -0.1563  1.7898  0.2352
 7269SOL    HW233267   3.413   2.314  14.011  0.6161 -0.2922  2.1987
 7270SOL     OW33268   3.793   2.909   7.290 -0.9353 -0.5589 -0.0264
 7270SOL    HW133269   3.726   2.896   7.357  0.0591  1.9696  1.5000
 7270SOL    HW233270   3.847   2.830   7.294  0.9614  0.7503  0.6146
 7271SOL     OW33271   0.273   0.997   4.839  0.3350  0.0556  0.2900
 7271SOL    HW133272   0.269   1.018   4.746  1.8988 -1.8879 -0.2050
 7271SOL    HW233273   0.334   0.924   4.834 -0.9507 -1.0551  0.8636
 7272SOL     OW33274   4.580   3.056   4.120  0.1640  0.5511  0.4060
 7272SOL    HW133275   4.534   2.977   4.148 -0.2920  0.5803 -0.2645
 7272SOL    HW233276   4.515   3.103   4.068 -0.1778 -0.7929 -0.3774
 7273SOL     OW33277   3.259   4.053   2.958 -0.3980  0.2140  0.4307
 7273SOL    HW133278   3.227   4.084   3.043  1.7046  2.8800  0.2438
 7273SOL    HW233279   3.314   4.129   2.939  0.2751 -0.4170 -0.1706
 7274SOL     OW33280   0.688   1.485   3.705 -0.5116  0.2791 -0.5019
 7274SOL    HW133281   0.783   1.492   3.694 -0.1745 -0.3338  1.9063
 7274SOL    HW233282   0.673   1.578   3.725  2.3697  0.2223  1.9811
 7275SOL     OW33283   3.613   2.634  12.243  0.1489  0.2570  0.0094
 7275SOL    HW133284   3.627   2.555  12.295 -0.7258 -0.1930 -0.4418
 7275SOL    HW233285   3.700   2.674  12.232 -0.5757  1.4526 -1.4317
 7276SOL     OW33286   0.973   4.681   8.606 -0.4587  0.3909 -0.4606
 7276SOL    HW133287   0.935   4.593   8.600 -0.0849  0.1702  0.4232
 7276SOL    HW233288   0.894   0.002   8.581  0.4858  0.7781 -2.7312
 7277SOL     OW33289   3.142   1.993  13.369 -0.0460  0.4955  0.3839
 7277SOL    HW133290   3.126   1.900  13.355 -0.6439  0.5746  0.5423
 7277SOL    HW233291   3.171   2.015  13.281 -3.4473  1.8278 -0.3963
 7278SOL     OW33292   2.744   4.615  11.200  0.2517  0.2181  0.1775
 7278SOL    HW133293   2.748   4.711  11.202 -1.4078  0.2450  2.3293
 7278SOL    HW233294   2.823   4.587  11.248  1.1321 -0.9181 -1.9117
 7279SOL     OW33295   2.182   2.254   5.887  0.2404 -0.2781  0.0164
 7279SOL    HW133296   2.090   2.243   5.862 -0.2618 -0.5991  2.0252
 7279SOL    HW233297   2.171   2.243   5.982  0.8684  2.6192  0.4324
 7280SOL     OW33298   2.353   4.210   5.605  0.2859  0.3427  0.1192
 7280SOL    HW133299   2.412   4.224   5.679  1.1061  0.3429 -0.5345
 7280SOL    HW233300   2.383   4.269   5.535 -1.3892  1.4207  0.3097
 7281SOL     OW33301   1.216   0.774   6.014 -0.1189 -0.2475 -0.7181
 7281SOL    HW133302   1.146   0.710   6.028  0.7057 -1.0242 -0.1628
 7281SOL    HW233303   1.169   0.845   6.058  1.9364  0.4506  0.3058
 7282SOL     OW33304   1.932   0.814   2.641 -0.0292  0.0609  0.1412
 7282SOL    HW133305   1.921   0.804   2.546 -1.0570 -0.1434  0.2830
 7282SOL    HW233306   1.885   0.895   2.655 -1.7048 -1.1696  1.6219
 7283SOL     OW33307   0.097   0.202   4.343 -0.0575  0.2055 -0.2164
 7283SOL    HW133308   0.045   0.282   4.355 -0.4255  0.2470 -2.1371
 7283SOL    HW233309   0.153   0.226   4.269 -1.7669  2.6058 -0.7254
 7284SOL     OW33310   4.450   0.724   4.085  0.4688  0.1744  0.2804
 7284SOL    HW133311   4.540   0.704   4.061  0.4124 -0.8193  0.9155
 7284SOL    HW233312   4.407   0.724   3.999 -2.0023 -0.0414  1.5235
 7285SOL     OW33313   2.796   3.073   7.305 -0.0450 -0.1114 -0.4241
 7285SOL    HW133314   2.780   3.158   7.265 -0.7596 -1.6976 -3.4415
 7285SOL    HW233315   2.741   3.080   7.384 -1.3816 -0.8359 -1.2989
 7286SOL     OW33316   3.258   3.202   8.014  0.1181 -0.0816  0.6005
 7286SOL    HW133317   3.347   3.225   7.984  0.9774  0.2138  3.4249
 7286SOL    HW233318   3.238   3.290   8.044  0.2756  0.2758 -0.3360
 7287SOL     OW33319   1.836   3.387   3.630  0.0989  0.2274  0.3508
 7287SOL    HW133320   1.904   3.340   3.582 -0.0293  0.1736  0.2251
 7287SOL    HW233321   1.792   3.440   3.565 -0.6591  0.6517  1.2031
 7288SOL     OW33322   4.039   2.163  16.703  0.1640 -0.0312  0.4168
 7288SOL    HW133323   3.985   2.241  16.692  0.1124 -0.2891 -1.1274
 7288SOL    HW233324   3.968   2.109  16.738 -1.9696  2.2240 -0.4158
 7289SOL     OW33325   4.545   4.017   9.146  0.1030  0.6168  0.3104
 7289SOL    HW133326   4.507   4.072   9.078 -0.2237 -0.0448 -0.0514
 7289SOL    HW233327   4.539   4.073   9.224  0.5545  1.2585 -0.1227
 7290SOL     OW33328   3.793   1.923   2.731 -0.0324  0.3809 -0.1571
 7290SOL    HW133329   3.779   1.846   2.786 -2.1049  0.7581 -0.1453
 7290SOL    HW233330   3.850   1.884   2.665 -0.5151  0.6954 -0.7714
 7291SOL     OW33331   1.508   3.998   1.792 -0.0282  0.2008 -0.0532
 7291SOL    HW133332   1.581   4.022   1.735 -0.1871 -1.3879 -0.9457
 7291SOL    HW233333   1.544   4.004   1.880 -0.3762 -0.4398  0.1320
 7292SOL     OW33334   3.162   0.965  10.195  0.4983  0.8820 -0.0703
 7292SOL    HW133335   3.222   0.904  10.151 -0.8899 -1.0504  0.7624
 7292SOL    HW233336   3.177   0.945  10.287 -0.3773  1.6812  0.2422
 7293SOL     OW33337   2.513   0.408   8.415 -0.3828  0.5611  0.0093
 7293SOL    HW133338   2.560   0.326   8.397 -1.4576 -0.0869  0.1655
 7293SOL    HW233339   2.573   0.432   8.485  2.1944  0.2016 -2.0336
 7294SOL     OW33340   1.950   2.801   2.006  0.2269  0.4028  0.6584
 7294SOL    HW133341   1.969   2.889   2.038 -1.1764  0.4821  1.2634
 7294SOL    HW233342   1.943   2.765   2.094 -1.3479 -1.0103 -0.0542
 7295SOL     OW33343   3.228   3.880  12.924  0.5912  0.3323  0.1969
 7295SOL    HW133344   3.288   3.811  12.898  0.0091  0.2928 -1.0537
 7295SOL    HW233345   3.282   3.957  12.909 -0.6413  0.7908 -1.8818
 7296SOL     OW33346   3.534   2.242   6.495  0.1557  0.5473 -0.0006
 7296SOL    HW133347   3.523   2.337   6.493 -2.0269  0.3161  1.5713
 7296SOL    HW233348   3.497   2.220   6.410 -1.7007  0.3810  0.8484
 7297SOL     OW33349   3.884   2.025   8.567  0.2150 -0.3795  0.0255
 7297SOL    HW133350   3.868   1.938   8.604  0.4631 -0.5695 -0.3124
 7297SOL    HW233351   3.876   2.068   8.652  2.6792  1.7726 -0.8341
 7298SOL     OW33352   0.202   0.675   5.953 -0.1616  0.0371 -0.5476
 7298SOL    HW133353   0.134   0.616   5.919 -2.3163  1.8603  0.6193
 7298SOL    HW233354   0.169   0.702   6.039  1.9180  0.3714  0.1475
 7299SOL     OW33355   4.683   0.601   8.835 -0.2262 -0.1623  0.4619
 7299SOL    HW133356   0.029   0.631   8.891 -0.7980  0.0204  1.0946
 7299SOL    HW233357   4.673   0.507   8.852 -1.1714 -0.5480 -2.3168
 7300SOL     OW33358   4.335   2.288   2.494 -0.0120  0.0696  0.2240
 7300SOL    HW133359   4.244   2.260   2.510  0.5367 -0.4480  2.4846
 7300SOL    HW233360   4.326   2.376   2.459  1.3313  0.4291  0.8176
 7301SOL     OW33361   0.976   2.901  11.856 -0.4609  0.0512  0.2571
 7301SOL    HW133362   1.024   2.973  11.896  0.4857 -0.6084  0.3211
 7301SOL    HW233363   1.015   2.899  11.769 -2.0770 -2.3953 -0.4369
 7302SOL     OW33364   2.580   1.596   7.864 -0.5845 -0.0327  0.2238
 7302SOL    HW133365   2.590   1.513   7.817 -3.0103 -0.3686  0.2939
 7302SOL    HW233366   2.603   1.563   7.951  0.1667 -0.6134 -0.1909
 7303SOL     OW33367   3.589   1.670   6.196 -0.0565  0.4126 -0.1039
 7303SOL    HW133368   3.645   1.697   6.123 -0.2843 -0.1131 -0.4775
 7303SOL    HW233369   3.503   1.696   6.165  0.0518  0.5904 -0.2538
 7304SOL     OW33370   3.982   1.160   3.551 -0.7441  0.3415  0.5253
 7304SOL    HW133371   3.988   1.159   3.455  2.1044 -1.7492  0.7046
 7304SOL    HW233372   3.912   1.097   3.564  1.8964 -2.9914 -1.1543
 7305SOL     OW33373   2.171   2.273   8.339 -0.1702 -0.0871 -0.2710
 7305SOL    HW133374   2.183   2.230   8.424  2.0111  0.6845 -0.1960
 7305SOL    HW233375   2.076   2.264   8.333 -0.3809  1.0413  1.5715
 7306SOL     OW33376   1.061   2.567   3.048  0.0025  0.4266  0.5452
 7306SOL    HW133377   1.149   2.540   3.072 -0.2561 -0.4611  0.5311
 7306SOL    HW233378   1.060   2.519   2.965 -0.4283  1.4120 -0.0207
 7307SOL     OW33379   3.037   4.669   2.259 -0.3702 -0.1448 -0.5742
 7307SOL    HW133380   3.039   4.590   2.205 -1.4984 -0.2257 -0.5096
 7307SOL    HW233381   2.946   4.683   2.284 -0.9472 -0.6077 -2.3898
 7308SOL     OW33382   1.571   0.199  11.988 -0.3506 -0.4473 -0.0244
 7308SOL    HW133383   1.572   0.175  11.895  1.8733  0.1214 -0.1337
 7308SOL    HW233384   1.646   0.148  12.018 -1.1058 -1.9130 -0.6297
 7309SOL     OW33385   0.453   0.453   4.597 -0.6287 -0.8544 -0.4086
 7309SOL    HW133386   0.402   0.491   4.668 -1.3168 -0.1827 -1.2533
 7309SOL    HW233387   0.442   0.359   4.611 -0.6298 -0.3458  2.9460
 7310SOL     OW33388   0.833   0.588   6.620 -1.0015  0.3795  0.2060
 7310SOL    HW133389   0.750   0.635   6.624 -1.4864 -0.2882 -1.8279
 7310SOL    HW233390   0.797   0.512   6.574 -2.0380  1.8336 -1.3984
 7311SOL     OW33391   3.761   1.227  11.535  0.3740 -0.1980 -0.8797
 7311SOL    HW133392   3.677   1.234  11.489 -0.4843  0.7006  0.8008
 7311SOL    HW233393   3.823   1.241  11.463  3.1121  3.2436  2.1017
 7312SOL     OW33394   1.415   0.755  15.786  0.3459  0.2079  0.2190
 7312SOL    HW133395   1.453   0.691  15.846  1.4081 -0.5198 -1.2402
 7312SOL    HW233396   1.441   0.734  15.696  0.4603  2.6315 -0.3210
 7313SOL     OW33397   2.708   0.007   6.890  0.2317 -0.2190 -0.7355
 7313SOL    HW133398   2.704   4.649   6.937 -1.0982 -0.7787 -1.8420
 7313SOL    HW233399   2.734   0.071   6.956  0.3150  0.4964 -1.4544
 7314SOL     OW33400   0.568   3.517   0.500 -0.0127  0.3641  0.0385
 7314SOL    HW133401   0.510   3.569   0.443  1.6391  1.8394 -0.3041
 7314SOL    HW233402   0.643   3.572   0.476  0.0180  0.7772  1.0923
 7315SOL     OW33403   3.187   3.313   5.833 -0.1947 -0.1913  0.1322
 7315SOL    HW133404   3.169   3.225   5.868  2.7237 -1.0260 -0.4274
 7315SOL    HW233405   3.230   3.345   5.912 -0.8837 -0.3001  0.5516
 7316SOL     OW33406   2.908   2.242   3.975 -0.0254 -0.2445  0.2512
 7316SOL    HW133407   2.838   2.220   4.036  0.6284 -0.4331  0.9370
 7316SOL    HW233408   2.921   2.155   3.937 -0.6336  0.1987 -0.9705
 7317SOL     OW33409   2.007   3.064  13.984  0.2183  0.6774 -0.4666
 7317SOL    HW133410   2.011   3.004  13.910  0.0420  1.3800 -1.0486
 7317SOL    HW233411   2.098   3.092  13.994  0.2462  0.8888 -1.3107
 7318SOL     OW33412   3.778   3.182   8.662  0.2654  0.3170  0.4464
 7318SOL    HW133413   3.760   3.113   8.726 -0.0573 -0.5413 -0.5671
 7318SOL    HW233414   3.760   3.131   8.583  0.7938  2.9284 -1.3551
 7319SOL     OW33415   1.719   2.241   7.238 -0.3526 -0.1737  0.7448
 7319SOL    HW133416   1.698   2.172   7.301 -0.1697 -0.3610  0.6000
 7319SOL    HW233417   1.811   2.233   7.212 -0.1641 -1.8305  1.9134
 7320SOL     OW33418   4.245   3.435   6.363  0.6262  0.1885 -0.3989
 7320SOL    HW133419   4.215   3.381   6.437  1.0861 -1.8481 -1.6960
 7320SOL    HW233420   4.180   3.398   6.303 -0.8157  0.5754  0.8971
 7321SOL     OW33421   3.144   2.199   6.615  0.0238  0.7466 -0.0629
 7321SOL    HW133422   3.158   2.252   6.694  1.1697  2.6520 -1.5604
 7321SOL    HW233423   3.068   2.143   6.635  0.1764  0.7825  0.6037
 7322SOL     OW33424   4.058   4.560   4.281  0.0482  0.0464 -0.3901
 7322SOL    HW133425   4.033   4.469   4.297 -1.6439  0.9206  1.9240
 7322SOL    HW233426   4.153   4.551   4.269 -0.3961 -2.5870 -1.9455
 7323SOL     OW33427   2.079   1.377   7.083 -0.6603  0.1217  0.8495
 7323SOL    HW133428   2.020   1.451   7.069  0.6805  0.6183 -2.3099
 7323SOL    HW233429   2.017   1.303   7.079  0.0361 -0.4348  0.2517
 7324SOL     OW33430   2.254   2.119   2.971  0.2825  0.2198 -0.0381
 7324SOL    HW133431   2.308   2.132   2.893  1.8001  2.8797  1.4807
 7324SOL    HW233432   2.188   2.063   2.930  0.3707  1.4402 -1.8506
 7325SOL     OW33433   2.265   1.495   2.072  0.1622  0.2346 -0.5254
 7325SOL    HW133434   2.297   1.583   2.054 -1.3721  1.3007  2.0054
 7325SOL    HW233435   2.325   1.462   2.138  0.8665 -1.5464 -2.0534
 7326SOL     OW33436   1.338   0.293  14.194 -0.6026  0.3916  0.3047
 7326SOL    HW133437   1.252   0.300  14.237 -1.4662 -0.9009 -1.2061
 7326SOL    HW233438   1.373   0.228  14.256 -1.2911 -0.7741 -0.5339
 7327SOL     OW33439   4.428   2.375  11.322 -0.2388 -0.3464 -0.1267
 7327SOL    HW133440   4.350   2.336  11.281  0.3574 -1.4022 -0.2488
 7327SOL    HW233441   4.389   2.434  11.386  2.2930  1.7478 -0.5279
 7328SOL     OW33442   0.586   1.632   6.687 -0.1240  0.0169  0.2727
 7328SOL    HW133443   0.614   1.696   6.753 -1.1197  0.9328 -0.1907
 7328SOL    HW233444   0.493   1.649   6.671  0.3739  1.1015 -1.4447
 7329SOL     OW33445   0.293   2.492   7.503 -0.3756  0.3041 -0.1127
 7329SOL    HW133446   0.316   2.565   7.446 -2.0293  0.8310 -0.0853
 7329SOL    HW233447   0.222   2.537   7.549 -0.6515 -0.1133 -0.1331
 7330SOL     OW33448   3.948   3.731   5.935 -0.2259  0.3029 -0.7970
 7330SOL    HW133449   4.001   3.701   6.009 -0.1740 -1.0202 -1.3764
 7330SOL    HW233450   3.992   3.693   5.858  1.8861 -0.5015  0.8085
 7331SOL     OW33451   4.163   4.080   6.677  0.2997 -0.2413 -0.7525
 7331SOL    HW133452   4.252   4.097   6.648  0.8287 -1.7838 -0.0522
 7331SOL    HW233453   4.175   3.991   6.711  0.4303  0.0561 -0.0077
 7332SOL     OW33454   0.974   1.320   8.528 -0.8894  0.1514  0.4974
 7332SOL    HW133455   0.912   1.263   8.483 -0.1787  0.9720 -1.5256
 7332SOL    HW233456   0.934   1.317   8.615 -1.6947  2.2731  0.2093
 7333SOL     OW33457   3.260   4.292  17.597 -0.3642  0.1657  1.0577
 7333SOL    HW133458   3.272   4.317  17.505 -2.0081 -1.5017  0.3853
 7333SOL    HW233459   3.206   4.214  17.583  1.6043 -0.8408 -0.8220
 7334SOL     OW33460   0.725   1.067   7.280  0.5773  0.1349 -0.0071
 7334SOL    HW133461   0.674   1.094   7.356  0.1095 -1.5185  0.2649
 7334SOL    HW233462   0.659   1.036   7.217  1.0923  1.0473 -1.0125
 7335SOL     OW33463   0.173   1.976   5.692  0.2646  0.0535 -0.5277
 7335SOL    HW133464   0.164   1.903   5.631 -0.3314 -1.5493  1.4612
 7335SOL    HW233465   0.207   1.939   5.774  1.4525  3.0773  0.3223
 7336SOL     OW33466   1.584   2.181   5.035 -0.4716  1.1174 -0.0362
 7336SOL    HW133467   1.532   2.151   5.110 -1.7966  1.9970 -0.5815
 7336SOL    HW233468   1.616   2.266   5.065  0.2004  1.0996 -0.7063
 7337SOL     OW33469   0.126   1.742   6.457 -0.9699  0.3809 -0.5261
 7337SOL    HW133470   0.207   1.732   6.407 -1.6541  0.1936 -1.6129
 7337SOL    HW233471   0.113   1.836   6.446  3.9066  1.1686  0.7969
 7338SOL     OW33472   4.122   3.254  17.607  0.1626 -0.4918  0.3691
 7338SOL    HW133473   4.073   3.330  17.640  0.5351  0.2690 -0.8422
 7338SOL    HW233474   4.211   3.281  17.585 -0.8812  2.1612 -0.5300
 7339SOL     OW33475   2.715   0.932   3.850 -0.2666  0.2055 -0.6454
 7339SOL    HW133476   2.626   0.897   3.843 -0.0186 -0.6664  0.4790
 7339SOL    HW233477   2.747   0.927   3.761  1.0475  0.2272 -0.1680
 7340SOL     OW33478   2.674   0.246   2.735  0.6128  0.2457 -0.5139
 7340SOL    HW133479   2.740   0.204   2.679  0.6424 -2.0818  1.2424
 7340SOL    HW233480   2.669   0.186   2.810  0.2540  0.7653 -0.1207
 7341SOL     OW33481   4.188   3.112  17.200 -0.2731  0.5580 -0.4961
 7341SOL    HW133482   4.203   3.108  17.105  0.1581  0.9353 -0.4433
 7341SOL    HW233483   4.272   3.107  17.246 -1.6346  1.0316  1.9914
 7342SOL     OW33484   2.672   1.091   9.019  0.0586 -0.2215  0.0130
 7342SOL    HW133485   2.582   1.111   8.992 -0.2410 -2.1235 -0.4042
 7342SOL    HW233486   2.683   1.150   9.093 -0.6748  0.4467 -0.3982
 7343SOL     OW33487   0.224   2.247  11.971 -0.2079 -0.0585 -0.5056
 7343SOL    HW133488   0.226   2.186  11.897 -3.0930  1.5495 -1.8843
 7343SOL    HW233489   0.306   2.296  11.965 -0.2295 -0.3990 -3.5215
 7344SOL     OW33490   0.475   1.434   5.216 -0.1863 -0.0482  0.0338
 7344SOL    HW133491   0.473   1.347   5.174 -0.7656  0.0234 -0.0898
 7344SOL    HW233492   0.533   1.423   5.291 -0.3172 -0.9925  0.0026
 7345SOL     OW33493   1.228   1.486   3.101 -0.3962  0.2999 -0.1664
 7345SOL    HW133494   1.139   1.472   3.133 -0.3598 -0.6110 -0.4515
 7345SOL    HW233495   1.213   1.485   3.007  0.7578  1.2255 -0.3664
 7346SOL     OW33496   3.336   4.368   1.676 -0.6295  0.3656 -0.2456
 7346SOL    HW133497   3.356   4.455   1.641  0.2938  0.4537  0.5129
 7346SOL    HW233498   3.361   4.395   1.764  2.8993  1.5181 -1.5963
 7347SOL     OW33499   4.127   2.901   1.308  0.2977 -0.2687  0.2411
 7347SOL    HW133500   4.207   2.869   1.267  1.4919  2.8792  0.0887
 7347SOL    HW233501   4.143   2.995   1.313  0.9494 -0.2645 -1.8858
 7348SOL     OW33502   0.698   1.032   1.888  0.8472 -0.0339  0.5726
 7348SOL    HW133503   0.776   1.000   1.932  0.6608  1.3276  1.8732
 7348SOL    HW233504   0.652   0.950   1.870  0.8217  0.3175 -0.9880
 7349SOL     OW33505   0.558   1.581   7.104 -0.3235 -0.4487  0.0898
 7349SOL    HW133506   0.532   1.489   7.102 -2.2960  0.1689 -1.9791
 7349SOL    HW233507   0.477   1.618   7.140 -0.4045  2.5738 -3.2164
 7350SOL     OW33508   2.017   4.119  14.992 -0.2721 -0.3822  0.0599
 7350SOL    HW133509   1.927   4.086  14.989 -1.5735  3.1256  0.8785
 7350SOL    HW233510   2.073   4.042  15.006  1.1223  0.4601 -0.9664
 7351SOL     OW33511   3.288   2.510  15.718 -0.5420  0.4542  0.3191
 7351SOL    HW133512   3.218   2.562  15.679 -1.2497 -1.4615 -0.9620
 7351SOL    HW233513   3.331   2.490  15.634  0.1640  0.1764  0.7447
 7352SOL     OW33514   4.056   0.235   3.463 -0.7197  0.1638 -0.1714
 7352SOL    HW133515   4.140   0.188   3.458 -0.4866  0.5922 -0.2512
 7352SOL    HW233516   3.997   0.161   3.478 -0.0884  0.1642  2.4781
 7353SOL     OW33517   4.186   4.684  10.777  0.0571  0.2599 -0.7349
 7353SOL    HW133518   4.230   0.038  10.748 -0.8797  0.0466 -2.7226
 7353SOL    HW233519   4.195   4.698  10.871  1.4212  1.2786 -1.0129
 7354SOL     OW33520   1.060   3.154   9.147 -0.6909  0.3207  0.7279
 7354SOL    HW133521   1.077   3.202   9.228 -0.2905 -1.5997  1.7650
 7354SOL    HW233522   1.085   3.066   9.175  1.5440  0.0745 -2.0353
 7355SOL     OW33523   1.475   1.168  16.166 -0.4984  0.1141 -0.0193
 7355SOL    HW133524   1.472   1.089  16.220  0.9362 -0.8128 -1.3071
 7355SOL    HW233525   1.520   1.229  16.223  1.3704 -0.9028 -0.4098
 7356SOL     OW33526   2.246   2.749   1.611  0.2615 -0.2196 -0.4383
 7356SOL    HW133527   2.152   2.764   1.596  0.4616  1.6555  0.2404
 7356SOL    HW233528   2.268   2.757   1.519 -0.8172  0.8034 -0.6124
 7357SOL     OW33529   3.365   1.466   3.518  0.1146  0.6568  0.3252
 7357SOL    HW133530   3.352   1.556   3.487  0.5038  0.6577  0.1650
 7357SOL    HW233531   3.349   1.416   3.438 -0.1749  0.9904  0.1763
 7358SOL     OW33532   3.392   4.484   8.699 -0.1259 -0.4538  0.3271
 7358SOL    HW133533   3.441   4.564   8.719 -0.2223  0.3210 -2.5553
 7358SOL    HW233534   3.440   4.444   8.626  0.0642  0.8751 -0.2653
 7359SOL     OW33535   1.952   0.020   5.345 -0.6399 -0.3390 -0.0359
 7359SOL    HW133536   1.976   4.681   5.412 -0.3674 -1.0491 -0.8125
 7359SOL    HW233537   1.999   4.714   5.267 -1.7379 -2.4029  0.1294
 7360SOL     OW33538   0.644   1.418   8.966 -0.7463 -0.9283 -0.5754
 7360SOL    HW133539   0.572   1.446   8.909 -0.8741 -0.0228  0.0443
 7360SOL    HW233540   0.633   1.326   8.990  0.1113 -0.5937  1.0484
 7361SOL     OW33541   0.607   0.987   7.953 -0.3910  0.5996  0.1258
 7361SOL    HW133542   0.575   0.985   8.043  0.1945  1.2206  0.3457
 7361SOL    HW233543   0.618   0.894   7.934 -1.5083  0.3789  0.6114
 7362SOL     OW33544   1.713   1.874  14.982 -0.0663 -0.5383  0.1829
 7362SOL    HW133545   1.742   1.791  14.943 -3.4880 -2.4091  1.6522
 7362SOL    HW233546   1.693   1.840  15.069  1.0091 -0.2457  0.5366
 7363SOL     OW33547   1.244   0.928   6.915  0.0630  0.2025  0.3440
 7363SOL    HW133548   1.340   0.928   6.914  0.0625  2.1155  1.1916
 7363SOL    HW233549   1.223   0.978   6.836  0.3454 -0.1064  0.0714
 7364SOL     OW33550   4.716   3.470   2.982  0.6334 -0.4216 -0.0398
 7364SOL    HW133551   0.029   3.540   3.035  0.2967  0.2472 -0.6823
 7364SOL    HW233552   0.047   3.394   2.995  0.0007 -0.7880  0.6020
 7365SOL     OW33553   1.320   2.314   9.305  0.0405  0.0900 -0.6673
 7365SOL    HW133554   1.401   2.306   9.355 -0.2727  0.9264 -0.0299
 7365SOL    HW233555   1.336   2.396   9.258 -1.5697  0.4417 -0.6160
 7366SOL     OW33556   4.212   2.909  13.994 -0.5227  0.2370 -0.1448
 7366SOL    HW133557   4.294   2.938  13.953 -0.9404  0.3594 -0.8926
 7366SOL    HW233558   4.177   2.997  13.985  0.2373  0.7763  2.1935
 7367SOL     OW33559   1.855   1.875   7.258  0.3107 -0.0047  0.2319
 7367SOL    HW133560   1.815   1.936   7.319 -1.0162 -0.1875 -0.4574
 7367SOL    HW233561   1.947   1.902   7.262 -0.0902  1.4353 -0.2836
 7368SOL     OW33562   3.535   2.209  15.136 -0.1750 -0.0705 -0.2478
 7368SOL    HW133563   3.456   2.165  15.106 -0.2648  1.1995 -1.8801
 7368SOL    HW233564   3.610   2.157  15.107 -0.3182 -0.0098 -0.7258
 7369SOL     OW33565   0.524   2.233   3.215 -0.0623 -1.0209 -0.0055
 7369SOL    HW133566   0.521   2.303   3.150  0.9911  0.3826  1.4647
 7369SOL    HW233567   0.599   2.182   3.186  0.4186 -0.5879  0.4950
 7370SOL     OW33568   4.274   3.397  15.308 -0.1659  0.2070 -0.3208
 7370SOL    HW133569   4.300   3.415  15.218 -0.3324 -0.5235 -0.5100
 7370SOL    HW233570   4.329   3.323  15.334 -0.7358 -0.0136  0.2546
 7371SOL     OW33571   3.776   2.781   8.595 -0.3223 -0.1880  0.4614
 7371SOL    HW133572   3.863   2.784   8.556 -0.2090  0.1365  0.7387
 7371SOL    HW233573   3.740   2.855   8.547  0.2503  0.0781  0.4442
 7372SOL     OW33574   4.258   2.665   6.787  0.3557  0.0113  0.0629
 7372SOL    HW133575   4.350   2.637   6.783  0.8916  1.6411  0.7728
 7372SOL    HW233576   4.274   2.759   6.800  0.7769 -0.0979  0.3687
 7373SOL     OW33577   3.500   1.324   9.440 -0.3398  0.0907  0.8954
 7373SOL    HW133578   3.545   1.244   9.466  2.4617  0.6582 -2.2118
 7373SOL    HW233579   3.548   1.350   9.361 -0.0188  0.7806  1.3119
 7374SOL     OW33580   2.334   3.480   7.050  0.2209  0.0894  0.1750
 7374SOL    HW133581   2.360   3.556   7.102  1.3162  1.0441 -1.7420
 7374SOL    HW233582   2.418   3.479   7.003 -0.7206 -2.8905 -1.4257
 7375SOL     OW33583   0.306   0.010   0.101  0.4708  0.1224 -0.2198
 7375SOL    HW133584   0.337   0.098   0.122  0.4900 -0.1047  0.7276
 7375SOL    HW233585   0.214   0.022   0.126  0.0931  0.0546 -1.5513
 7376SOL     OW33586   4.637   2.041  13.016  0.0925 -0.3039  0.3118
 7376SOL    HW133587   4.685   2.049  12.933  0.4067  1.8658  0.7057
 7376SOL    HW233588   4.627   2.135  13.029  4.4648  0.3232 -0.8101
 7377SOL     OW33589   3.786   2.384   4.300  0.0713  0.5113  0.3424
 7377SOL    HW133590   3.721   2.324   4.337  0.3959 -0.6671 -0.9382
 7377SOL    HW233591   3.834   2.422   4.373 -2.4375  1.4451  1.4656
 7378SOL     OW33592   3.633   3.882  16.908 -0.5614  0.3889 -0.1520
 7378SOL    HW133593   3.655   3.947  16.974  1.1982 -0.6012  0.2210
 7378SOL    HW233594   3.617   3.799  16.952  1.9942 -0.2305 -0.4027
 7379SOL     OW33595   0.490   0.684   2.952  0.5382 -0.0110 -0.0973
 7379SOL    HW133596   0.415   0.668   2.895  0.4821  0.5516 -0.1816
 7379SOL    HW233597   0.554   0.634   2.902 -2.1842 -4.0459  0.4705
 7380SOL     OW33598   2.059   2.340   5.471  0.0712 -0.1083 -0.7084
 7380SOL    HW133599   2.040   2.367   5.561  0.6493  0.9644 -0.9110
 7380SOL    HW233600   2.147   2.303   5.483 -0.0973 -0.2230  0.1365
 7381SOL     OW33601   0.454   0.238   8.332  0.0315  0.6758 -0.3613
 7381SOL    HW133602   0.401   0.184   8.273  0.5896 -0.4771  0.1981
 7381SOL    HW233603   0.543   0.203   8.327 -0.4056 -0.4966 -0.0663
 7382SOL     OW33604   1.251   3.706  16.812 -0.0615  0.4357  0.2890
 7382SOL    HW133605   1.302   3.761  16.754  1.0127  1.2512  2.0185
 7382SOL    HW233606   1.197   3.772  16.856  0.4267  0.5010  0.7967
 7383SOL     OW33607   3.696   3.693   1.069  0.0513 -0.0478  0.1069
 7383SOL    HW133608   3.654   3.735   1.145  0.1300 -0.6485  0.4749
 7383SOL    HW233609   3.731   3.766   1.017 -0.8936 -0.4073 -1.0294
 7384SOL     OW33610   3.111   1.491  13.608  0.1595  0.5250  0.2229
 7384SOL    HW133611   3.121   1.514  13.701  0.9219 -0.7880  0.4788
 7384SOL    HW233612   3.201   1.506  13.578  0.2499  0.2084  0.3332
 7385SOL     OW33613   1.606   4.626   4.581  0.3305 -1.2517 -0.2763
 7385SOL    HW133614   1.592   4.544   4.627 -1.4924 -1.1093 -0.5590
 7385SOL    HW233615   1.536   4.676   4.624  2.2502  0.0705  1.3194
 7386SOL     OW33616   4.689   0.424   2.339 -0.0204 -0.3566  0.6212
 7386SOL    HW133617   4.667   0.496   2.280 -2.5786 -0.5933  1.3175
 7386SOL    HW233618   4.638   0.447   2.416 -0.5012 -1.2453  0.5683
 7387SOL     OW33619   3.023   2.868   0.883 -0.1167 -0.0872 -0.1464
 7387SOL    HW133620   3.101   2.906   0.843  0.5142  1.5448  2.6202
 7387SOL    HW233621   3.045   2.778   0.858 -2.1187  0.2802 -3.1901
 7388SOL     OW33622   3.120   0.291   7.360  0.2745  0.0174  0.5051
 7388SOL    HW133623   3.095   0.200   7.345 -0.1882  0.2723 -0.2841
 7388SOL    HW233624   3.179   0.289   7.435 -0.2266 -2.5473  0.8302
 7389SOL     OW33625   1.169   1.016   5.467 -0.5339 -0.0987 -0.6100
 7389SOL    HW133626   1.254   1.005   5.510 -1.7069 -0.6673  1.5918
 7389SOL    HW233627   1.118   1.070   5.528 -1.6607 -1.4368 -0.3631
 7390SOL     OW33628   2.772   3.477  12.374 -0.5366  0.5771 -0.0617
 7390SOL    HW133629   2.776   3.570  12.356  2.6774  0.1211 -1.6329
 7390SOL    HW233630   2.721   3.441  12.301  1.9101 -0.4556 -1.2721
 7391SOL     OW33631   4.319   1.966  12.365  0.1941  0.9696 -0.0436
 7391SOL    HW133632   4.353   1.985  12.453 -2.6344  0.8498  1.0639
 7391SOL    HW233633   4.271   2.046  12.343 -0.9612  1.0340  2.6710
 7392SOL     OW33634   1.416   0.652   9.606 -0.3358 -0.0664 -0.3130
 7392SOL    HW133635   1.333   0.605   9.592 -0.6654 -0.1518  1.9650
 7392SOL    HW233636   1.472   0.606   9.544 -0.5275 -1.5236  0.5888
 7393SOL     OW33637   0.188   3.174   7.835 -0.4520  0.0063  0.2206
 7393SOL    HW133638   0.124   3.179   7.905 -2.8395  1.0404 -2.0526
 7393SOL    HW233639   0.176   3.254   7.784  3.5051  0.0696 -0.6481
 7394SOL     OW33640   0.002   4.378   6.801  0.6944 -0.1088  0.2527
 7394SOL    HW133641   4.685   4.343   6.722 -0.2198  1.4458  0.0542
 7394SOL    HW233642   4.655   4.368   6.863  1.0444 -2.9124  0.1975
 7395SOL     OW33643   0.757   1.926  17.087  0.2786 -0.0985 -0.6415
 7395SOL    HW133644   0.843   1.939  17.048  1.0413 -3.2302 -0.0135
 7395SOL    HW233645   0.771   1.947  17.179 -1.2031 -0.1008 -0.4034
 7396SOL     OW33646   4.248   0.758   5.961 -0.3478 -0.2322  0.4087
 7396SOL    HW133647   4.202   0.829   5.916 -0.0467  1.0039  2.0707
 7396SOL    HW233648   4.289   0.715   5.886 -2.0189  1.7160 -1.6521
 7397SOL     OW33649   2.848   1.809   8.491 -0.5296  0.4854  0.0854
 7397SOL    HW133650   2.823   1.762   8.571  1.9064 -1.3160 -0.2157
 7397SOL    HW233651   2.860   1.896   8.528  0.5666  0.2383  0.3058
 7398SOL     OW33652   0.391   2.726   7.635  0.5253  0.0575  0.1111
 7398SOL    HW133653   0.380   2.798   7.698  1.6095 -0.2373  0.6485
 7398SOL    HW233654   0.405   2.774   7.554  1.5430 -0.7243 -0.1741
 7399SOL     OW33655   1.930   3.013   8.103  0.0938  0.1871  0.2545
 7399SOL    HW133656   2.022   3.036   8.092  0.5748 -1.1752  1.3492
 7399SOL    HW233657   1.898   3.099   8.129 -1.2165  0.0477 -0.9108
 7400SOL     OW33658   2.234   3.689   2.542  0.1501  0.3157  0.7114
 7400SOL    HW133659   2.287   3.651   2.472 -1.2992 -0.7503  0.1821
 7400SOL    HW233660   2.172   3.736   2.487  0.2855 -0.7136 -0.3104
 7401SOL     OW33661   3.234   1.160   4.302  0.5270 -0.0392 -0.0191
 7401SOL    HW133662   3.244   1.195   4.390  1.5163  0.7858 -0.4591
 7401SOL    HW233663   3.198   1.074   4.324 -0.3888  0.2712 -0.3120
 7402SOL     OW33664   1.880   0.350   0.205  0.6124  0.1547  0.4025
 7402SOL    HW133665   1.866   0.279   0.143  1.7755  2.1573 -2.1535
 7402SOL    HW233666   1.971   0.359   0.177  0.4337 -0.5537 -0.3833
 7403SOL     OW33667   0.400   2.778   1.933 -0.1162 -0.1381  0.5101
 7403SOL    HW133668   0.479   2.753   1.885 -0.4824  0.1398 -0.2416
 7403SOL    HW233669   0.369   2.691   1.957 -0.3916 -0.4056 -0.8352
 7404SOL     OW33670   3.219   2.414   1.022  0.4174  0.0452  0.2297
 7404SOL    HW133671   3.189   2.501   1.049  3.5138  0.8958  0.9878
 7404SOL    HW233672   3.214   2.427   0.927  0.5091  0.6203  0.3019
 7405SOL     OW33673   2.020   2.463   1.506  0.2737 -0.2216 -0.4079
 7405SOL    HW133674   1.993   2.449   1.415  0.0768  0.0321 -0.3856
 7405SOL    HW233675   2.047   2.374   1.532 -1.4909 -0.0640  1.9575
 7406SOL     OW33676   3.826   0.286   8.527  0.1468 -0.1054  0.1370
 7406SOL    HW133677   3.810   0.197   8.559  0.3925  0.9399  3.2401
 7406SOL    HW233678   3.755   0.332   8.572  0.1438  1.1172 -1.1304
 7407SOL     OW33679   4.269   4.712   1.507  0.1759 -0.2069 -0.3788
 7407SOL    HW133680   4.278   0.038   1.588 -1.8601 -1.6907  0.7938
 7407SOL    HW233681   4.308   4.627   1.527 -1.1287 -0.5900  0.5487
 7408SOL     OW33682   3.242   4.705   8.931 -0.0946 -0.1398 -0.4614
 7408SOL    HW133683   3.297   0.002   9.006  1.8726  2.1138 -2.5420
 7408SOL    HW233684   3.211   4.616   8.950 -0.0143  0.0658  0.5859
 7409SOL     OW33685   2.297   4.131  13.431  0.2241  0.4732 -0.3003
 7409SOL    HW133686   2.333   4.121  13.519  2.2864  0.1039 -1.1756
 7409SOL    HW233687   2.234   4.060  13.440 -1.8233  2.0408 -2.4699
 7410SOL     OW33688   3.306   1.852   2.955 -0.3024  0.2430  0.2965
 7410SOL    HW133689   3.345   1.834   3.040 -0.1985 -0.0792  0.1824
 7410SOL    HW233690   3.267   1.938   2.972 -0.5109 -0.0333  1.2142
 7411SOL     OW33691   4.127   1.978   4.792  0.5518 -0.0952 -0.1160
 7411SOL    HW133692   4.033   1.972   4.779  0.7379 -2.6095 -0.4348
 7411SOL    HW233693   4.151   1.896   4.837  0.3427  0.1799  0.4946
 7412SOL     OW33694   3.464   1.670   9.470 -0.0533  0.6534 -0.6107
 7412SOL    HW133695   3.371   1.694   9.470 -0.7132 -1.9920 -1.0885
 7412SOL    HW233696   3.474   1.640   9.560 -0.1494 -1.7110 -1.4102
 7413SOL     OW33697   0.337   4.568   7.202  0.1632  0.1430 -0.2365
 7413SOL    HW133698   0.268   4.629   7.229  0.2752  0.5889 -0.9362
 7413SOL    HW233699   0.307   4.542   7.114 -0.0109  0.4809 -0.2780
 7414SOL     OW33700   0.581   4.005   9.958  0.4955  0.1383  0.0138
 7414SOL    HW133701   0.592   4.050   9.874 -0.6177  1.1108  0.3926
 7414SOL    HW233702   0.568   3.913   9.934 -2.0873  0.3601  0.5924
 7415SOL     OW33703   0.571   4.435  12.056 -0.0996 -1.0127  0.1910
 7415SOL    HW133704   0.499   4.421  11.995  0.0657  0.9192 -0.4612
 7415SOL    HW233705   0.647   4.438  11.997 -2.0965 -0.5349 -2.3602
 7416SOL     OW33706   2.378   4.539   5.662  0.1043 -0.8195  0.2069
 7416SOL    HW133707   2.369   4.489   5.581 -1.5250 -1.2376  0.6506
 7416SOL    HW233708   2.462   4.583   5.649 -0.6771  1.1298  1.7073
 7417SOL     OW33709   3.772   4.692   3.073  0.4157  0.1426  0.3651
 7417SOL    HW133710   3.784   4.666   3.165  0.2186 -2.5059 -0.3683
 7417SOL    HW233711   3.855   0.016   3.068  0.0324  0.8575  0.9991
 7418SOL     OW33712   3.654   1.980   2.286 -0.7709  0.1605  0.6640
 7418SOL    HW133713   3.590   1.909   2.282 -2.0715  1.5252 -2.9513
 7418SOL    HW233714   3.725   1.944   2.234 -1.0608 -0.5331  0.7561
 7419SOL     OW33715   1.985   1.336   9.182 -0.4644  0.1647 -0.0682
 7419SOL    HW133716   1.999   1.412   9.239 -2.1010 -0.9307  1.7861
 7419SOL    HW233717   1.906   1.294   9.215 -0.1713  0.4204  0.9678
 7420SOL     OW33718   1.380   3.039   3.624  0.2900  0.8114  0.3852
 7420SOL    HW133719   1.375   3.020   3.530  1.7523 -0.3923  0.5613
 7420SOL    HW233720   1.434   2.968   3.658 -1.0576 -0.0635  0.6751
 7421SOL     OW33721   4.644   2.218   6.707  0.0413  0.1588  0.6761
 7421SOL    HW133722   4.557   2.189   6.683 -0.1372 -1.1141  2.8117
 7421SOL    HW233723   4.649   2.307   6.674  0.9376 -0.3013 -0.4334
 7422SOL     OW33724   2.739   1.777   4.850  0.1416  0.0594 -0.4896
 7422SOL    HW133725   2.809   1.711   4.850  0.0924  0.0063 -1.6901
 7422SOL    HW233726   2.794   1.845   4.891  0.2355 -0.8283  0.8309
 7423SOL     OW33727   1.608   1.167   8.630 -0.0448 -0.0911  0.7903
 7423SOL    HW133728   1.517   1.196   8.622  0.5570  1.3087 -0.9606
 7423SOL    HW233729   1.610   1.094   8.568  1.2494  0.6033  0.0076
 7424SOL     OW33730   3.543   0.387  15.433  0.1045 -0.0470  0.5930
 7424SOL    HW133731   3.472   0.391  15.368  0.2923 -2.2856  0.2399
 7424SOL    HW233732   3.541   0.298  15.468  1.5841 -0.7795 -1.1692
 7425SOL     OW33733   1.252   4.361   8.736 -0.1232  0.2563  0.6175
 7425SOL    HW133734   1.227   4.400   8.820  0.6976  3.2951 -0.5701
 7425SOL    HW233735   1.293   4.284   8.777  3.0868 -0.2306 -3.4564
 7426SOL     OW33736   3.928   0.882   7.257 -0.4935  0.1164  0.1330
 7426SOL    HW133737   3.901   0.816   7.320 -0.3504 -1.3329 -1.3269
 7426SOL    HW233738   3.844   0.927   7.250 -1.0344 -1.0394 -0.7848
 7427SOL     OW33739   3.993   1.889   7.921  0.0848  0.2726  0.2457
 7427SOL    HW133740   4.002   1.856   8.010  1.0469 -2.8588 -0.9766
 7427SOL    HW233741   3.899   1.898   7.907 -0.3444 -1.0056  2.4143
 7428SOL     OW33742   3.037   4.344   6.384  0.6888  0.3306  0.1202
 7428SOL    HW133743   2.968   4.383   6.330 -0.5948  0.4939  1.8692
 7428SOL    HW233744   3.040   4.255   6.348 -1.7825 -0.6832  2.3464
 7429SOL     OW33745   1.268   1.337   3.433 -0.1190  0.7716 -0.2407
 7429SOL    HW133746   1.235   1.279   3.365 -2.2276  1.7053 -0.0035
 7429SOL    HW233747   1.294   1.418   3.389 -0.3215  0.6490 -0.5800
 7430SOL     OW33748   3.356   0.835  12.808  0.3110  0.1009 -0.1125
 7430SOL    HW133749   3.428   0.772  12.799  0.0837 -0.2507  0.5868
 7430SOL    HW233750   3.328   0.825  12.717 -1.8674 -2.0150  0.8048
 7431SOL     OW33751   3.330   4.561   4.863  0.2559 -0.4181 -0.0631
 7431SOL    HW133752   3.351   4.654   4.875  1.9141 -0.8229  0.0897
 7431SOL    HW233753   3.237   4.581   4.868 -0.3053 -3.1905  0.5709
 7432SOL     OW33754   3.420   1.131   6.031  0.1580 -0.0214  0.2131
 7432SOL    HW133755   3.510   1.097   6.030  0.3386  0.4462  0.8963
 7432SOL    HW233756   3.405   1.160   5.941  1.4356 -0.2986 -0.0942
 7433SOL     OW33757   2.297   2.888   0.280 -0.2137 -0.0522  0.3908
 7433SOL    HW133758   2.330   2.859   0.365 -0.1521 -3.6560 -0.8774
 7433SOL    HW233759   2.303   2.807   0.230  0.0249 -1.1175  2.1519
 7434SOL     OW33760   3.327   2.273  15.473  0.2004 -0.1154  0.5449
 7434SOL    HW133761   3.381   2.200  15.441  1.0027  0.5562  0.3430
 7434SOL    HW233762   3.240   2.240  15.452 -1.4294  3.4118  1.8584
 7435SOL     OW33763   4.338   2.977   7.601  0.5376  0.1721 -0.1859
 7435SOL    HW133764   4.420   2.986   7.553  0.1425  0.5335 -0.7902
 7435SOL    HW233765   4.356   2.890   7.637 -1.0447  0.6118  1.6903
 7436SOL     OW33766   1.742   1.401   5.332 -0.0480  0.2103 -0.0094
 7436SOL    HW133767   1.683   1.330   5.358  0.1479  0.9243  2.3751
 7436SOL    HW233768   1.741   1.384   5.238  1.0342  0.3092 -0.0364
 7437SOL     OW33769   2.953   2.322   1.609 -0.2582 -0.3652  0.1204
 7437SOL    HW133770   2.876   2.367   1.575  2.1687  2.4626 -1.5640
 7437SOL    HW233771   2.988   2.293   1.525 -0.6591 -1.7411  0.4229
 7438SOL     OW33772   3.646   4.038   4.269 -0.3694 -0.1313  0.4491
 7438SOL    HW133773   3.584   4.046   4.341 -1.4885 -3.1319 -0.1652
 7438SOL    HW233774   3.703   3.962   4.279 -1.8095 -1.0470  1.7214
 7439SOL     OW33775   2.441   1.071   5.020  0.1141 -0.3764  0.3125
 7439SOL    HW133776   2.518   1.020   5.043 -0.6078 -1.4308  0.4131
 7439SOL    HW233777   2.482   1.153   4.993  1.5247 -1.1178  0.1870
 7440SOL     OW33778   0.716   0.500   2.841  0.1748  0.2116  0.1010
 7440SOL    HW133779   0.796   0.493   2.894 -0.8525 -2.6425  1.2415
 7440SOL    HW233780   0.703   0.412   2.806  0.2944  0.2845 -0.1292
 7441SOL     OW33781   3.144   1.045   9.503 -0.6947  0.2711 -0.3140
 7441SOL    HW133782   3.204   1.071   9.434  0.1463 -1.8620 -0.3757
 7441SOL    HW233783   3.130   0.952   9.484  0.7526 -0.0268  0.0888
 7442SOL     OW33784   3.187   3.238   4.701  0.3971 -0.5422  0.1847
 7442SOL    HW133785   3.109   3.211   4.654  0.5202  1.7141 -1.2945
 7442SOL    HW233786   3.182   3.190   4.784  0.4707  0.6534  0.8882
 7443SOL     OW33787   3.323   0.768   4.945 -0.4601  0.2553 -0.2379
 7443SOL    HW133788   3.415   0.793   4.942 -1.0461  2.6187  1.7971
 7443SOL    HW233789   3.287   0.805   4.865  1.8981 -0.5220 -1.6474
 7444SOL     OW33790   0.321   2.669   3.047 -0.3060  0.1527 -0.5580
 7444SOL    HW133791   0.246   2.632   3.001  0.9583  0.1146 -2.5992
 7444SOL    HW233792   0.295   2.642   3.135  0.3590 -1.1328 -0.7604
 7445SOL     OW33793   2.473   3.330   4.708 -0.3613 -0.0197 -0.6893
 7445SOL    HW133794   2.531   3.398   4.744 -0.6731  0.1292 -0.4706
 7445SOL    HW233795   2.390   3.370   4.734  0.2304  0.4430  0.4835
 7446SOL     OW33796   2.191   3.069   5.445  0.1474 -0.0324 -0.1760
 7446SOL    HW133797   2.100   3.069   5.418  0.7952 -1.5329 -2.3758
 7446SOL    HW233798   2.219   3.131   5.377  3.8225 -1.1343  0.2907
 7447SOL     OW33799   3.785   4.538   6.241  0.0479  0.1343 -0.6710
 7447SOL    HW133800   3.708   4.508   6.191  0.7747 -2.3884 -0.2646
 7447SOL    HW233801   3.777   4.633   6.237 -1.4455  0.0588  0.6398
 7448SOL     OW33802   1.320   3.412   7.631  0.4749  0.2477  0.7602
 7448SOL    HW133803   1.382   3.477   7.597  0.7407 -0.2065  0.3684
 7448SOL    HW233804   1.284   3.472   7.696  1.0990 -0.0028  1.3305
 7449SOL     OW33805   1.439   1.388   0.654  0.0909 -0.2578 -0.4423
 7449SOL    HW133806   1.434   1.462   0.714  1.0677 -0.2070 -0.4224
 7449SOL    HW233807   1.526   1.353   0.672 -0.3218 -1.3607 -0.6073
 7450SOL     OW33808   0.562   1.536   9.813 -0.0991  0.1041 -0.4893
 7450SOL    HW133809   0.654   1.562   9.821 -0.1072 -0.0038 -0.0114
 7450SOL    HW233810   0.531   1.549   9.724  1.5518  1.7607 -0.8029
 7451SOL     OW33811   3.557   0.029   6.481  0.0160  0.0678 -0.0271
 7451SOL    HW133812   3.500   0.085   6.427  0.8105 -2.1803 -3.1647
 7451SOL    HW233813   3.635   0.084   6.482 -0.1209  0.2591  0.2983
 7452SOL     OW33814   4.304   0.955   6.939  0.1854  0.2082  0.0240
 7452SOL    HW133815   4.338   1.042   6.918  1.5156 -0.9298 -2.6165
 7452SOL    HW233816   4.245   0.972   7.012  1.2651 -0.6541  1.1067
 7453SOL     OW33817   0.926   1.744  11.126  0.0738 -0.4774  0.2969
 7453SOL    HW133818   0.876   1.662  11.127  0.6538 -0.8271  0.3177
 7453SOL    HW233819   1.011   1.707  11.150  0.3257 -1.2757 -1.7850
 7454SOL     OW33820   0.538   4.060   1.431  0.5965 -0.1667 -0.0727
 7454SOL    HW133821   0.451   4.096   1.418  0.1683 -0.5995  1.7076
 7454SOL    HW233822   0.546   4.074   1.525 -0.1692  1.8213 -0.3013
 7455SOL     OW33823   2.298   2.678   3.939 -0.0706 -0.4970 -0.2106
 7455SOL    HW133824   2.249   2.743   3.990  0.3642  0.6783 -1.2868
 7455SOL    HW233825   2.229   2.613   3.929  1.1921 -1.6802 -1.2820
 7456SOL     OW33826   1.951   0.809   1.623  0.0616  0.4757 -0.2884
 7456SOL    HW133827   1.954   0.792   1.529 -0.9871  0.3356 -0.2973
 7456SOL    HW233828   2.029   0.863   1.633 -0.5650  1.4812 -0.7922
 7457SOL     OW33829   1.286   1.499   7.409  0.1843 -0.5622 -0.7625
 7457SOL    HW133830   1.209   1.549   7.385  1.1272  0.8204 -0.9090
 7457SOL    HW233831   1.282   1.522   7.501  4.8082  2.6179 -1.3298
 7458SOL     OW33832   3.193   2.272   7.533 -0.3525  0.3684  0.3602
 7458SOL    HW133833   3.232   2.293   7.618  0.4662 -1.5213  0.4599
 7458SOL    HW233834   3.250   2.204   7.497 -0.5378 -0.4784  1.6551
 7459SOL     OW33835   2.780   0.849   9.011 -0.1782  0.4678  0.8634
 7459SOL    HW133836   2.774   0.944   9.020 -2.5343  0.6185 -2.2271
 7459SOL    HW233837   2.687   0.827   8.999 -0.0994  0.9569 -0.5882
 7460SOL     OW33838   1.303   2.247   6.741 -0.0532 -0.2885  0.5057
 7460SOL    HW133839   1.254   2.212   6.666 -1.8976  1.3698  0.9261
 7460SOL    HW233840   1.303   2.175   6.804  1.8923 -0.4112  0.3747
 7461SOL     OW33841   0.648   2.689   2.989  0.6159 -0.0336  0.3873
 7461SOL    HW133842   0.728   2.661   2.944  1.7721  0.1765  2.3431
 7461SOL    HW233843   0.598   2.726   2.915  2.2640  2.3685  0.4612
 7462SOL     OW33844   4.470   4.240   9.314  0.2144 -0.3641 -0.1556
 7462SOL    HW133845   4.422   4.276   9.389 -0.8467  0.3166 -1.1497
 7462SOL    HW233846   4.394   4.240   9.255  1.9781  1.0336 -2.4378
 7463SOL     OW33847   3.153   1.512  15.468  0.2032  0.3394  0.2066
 7463SOL    HW133848   3.169   1.431  15.516 -0.7120  0.3753  0.5746
 7463SOL    HW233849   3.243   1.537  15.449  1.1328 -1.2342  2.6404
 7464SOL     OW33850   2.647   0.288  15.914  0.5708 -0.1355  0.2193
 7464SOL    HW133851   2.606   0.202  15.914  1.7739 -0.7001  1.1681
 7464SOL    HW233852   2.737   0.261  15.933  0.2490 -1.3778 -0.0297
 7465SOL     OW33853   4.099   4.098   8.143  0.4874  0.3515  0.6595
 7465SOL    HW133854   4.054   4.015   8.126 -0.4657  0.8627  0.6614
 7465SOL    HW233855   4.143   4.085   8.227  0.8723 -0.1526  0.3817
 7466SOL     OW33856   0.592   0.837  14.454 -0.0004 -0.0780 -0.8410
 7466SOL    HW133857   0.585   0.791  14.537 -1.7711 -0.5170 -1.2342
 7466SOL    HW233858   0.517   0.895  14.451 -0.9166 -1.3128 -1.7319
 7467SOL     OW33859   3.502   0.010   2.153 -0.4233  0.2024 -0.2501
 7467SOL    HW133860   3.500   0.075   2.223  0.4579 -0.2919  0.2397
 7467SOL    HW233861   3.516   4.649   2.193  0.8411  0.2885 -0.4975
 7468SOL     OW33862   0.134   4.719   7.227  0.0596  0.1513 -0.3953
 7468SOL    HW133863   0.072   0.007   7.298 -1.5436 -0.5005 -1.6906
 7468SOL    HW233864   0.082   0.003   7.148 -1.1370 -1.3656  0.2169
 7469SOL     OW33865   1.948   1.267   4.201  0.5593 -0.0241 -0.9833
 7469SOL    HW133866   1.868   1.224   4.171 -0.6525  1.6867 -0.2553
 7469SOL    HW233867   1.985   1.283   4.114  1.1063 -3.8502 -1.4243
 7470SOL     OW33868   1.353   1.166   0.275  0.0444  0.0035  0.1860
 7470SOL    HW133869   1.289   1.099   0.252 -0.1866  0.0107  0.8074
 7470SOL    HW233870   1.437   1.122   0.261 -0.6304 -0.4341 -2.4614
 7471SOL     OW33871   1.951   2.732   0.488 -0.0870 -0.8997 -0.4646
 7471SOL    HW133872   1.959   2.719   0.394 -0.9854 -0.2519 -0.6267
 7471SOL    HW233873   1.861   2.757   0.510  0.1534 -1.5573  1.3025
 7472SOL     OW33874   0.807   4.134   8.024 -0.0719 -0.4474 -0.2561
 7472SOL    HW133875   0.727   4.144   7.972 -0.6828 -2.1561  0.3539
 7472SOL    HW233876   0.765   4.122   8.109  0.0361 -0.4308 -0.2014
 7473SOL     OW33877   0.359   1.206   8.951  0.4134  0.4391 -0.0732
 7473SOL    HW133878   0.452   1.208   8.973  0.1235  1.1222  1.1241
 7473SOL    HW233879   0.320   1.200   9.038 -0.1048  2.9994 -0.1294
 7474SOL     OW33880   4.335   1.096   7.555  0.1496 -0.2002 -0.4368
 7474SOL    HW133881   4.388   1.035   7.504  0.7669  0.4059 -0.5283
 7474SOL    HW233882   4.246   1.092   7.521 -0.0041 -0.2018 -0.0318
 7475SOL     OW33883   2.741   1.912   4.573 -0.2032  0.4685  0.2938
 7475SOL    HW133884   2.776   1.880   4.657  0.9523 -0.9713 -0.7335
 7475SOL    HW233885   2.815   1.882   4.520 -1.4748 -0.2790 -1.0525
 7476SOL     OW33886   1.076   0.426   7.548 -0.3170 -0.1666  0.3194
 7476SOL    HW133887   1.098   0.459   7.461  0.5038 -0.1892  0.5126
 7476SOL    HW233888   1.127   0.345   7.549 -1.0181 -0.5998  0.9084
 7477SOL     OW33889   2.757   1.961   1.738 -0.4213  0.6052  0.1844
 7477SOL    HW133890   2.780   2.022   1.809 -0.0831 -0.7605  1.2577
 7477SOL    HW233891   2.767   2.016   1.661  1.5066 -0.0164 -0.0221
 7478SOL     OW33892   2.336   2.376   2.655  0.0150  0.8058  0.4020
 7478SOL    HW133893   2.305   2.354   2.567 -0.2042  0.9226  0.4499
 7478SOL    HW233894   2.366   2.293   2.693  2.2735  0.2292 -2.5695
 7479SOL     OW33895   1.963   3.100   3.119  0.2960  0.0011  0.2322
 7479SOL    HW133896   2.054   3.075   3.138  0.7631  0.5735 -1.2554
 7479SOL    HW233897   1.981   3.159   3.046  1.3757  0.4606  0.8757
 7480SOL     OW33898   3.954   1.849   6.968 -0.1450 -0.6148  0.5914
 7480SOL    HW133899   3.926   1.937   6.943  0.1625 -0.6536  0.1101
 7480SOL    HW233900   4.049   1.854   6.962 -0.2586 -0.3900 -1.0881
 7481SOL     OW33901   4.637   4.410   1.474 -0.1821 -0.0525 -0.1239
 7481SOL    HW133902   4.603   4.452   1.395  0.2587  0.9373  0.2161
 7481SOL    HW233903   4.563   4.428   1.532  0.2672  0.8849  0.1512
 7482SOL     OW33904   3.852   1.966  15.386  0.0810 -0.3969 -0.0642
 7482SOL    HW133905   3.862   1.974  15.291 -3.8094 -0.7570 -0.5136
 7482SOL    HW233906   3.944   1.967  15.413 -0.3935  2.9302  1.4734
 7483SOL     OW33907   4.464   0.344   4.295  0.1734 -0.0503 -0.0264
 7483SOL    HW133908   4.467   0.263   4.244  0.5230  1.1042 -1.8159
 7483SOL    HW233909   4.524   0.403   4.250 -0.3906  0.7710  0.2950
 7484SOL     OW33910   1.294   0.798  14.853  0.0076  0.2069 -0.1430
 7484SOL    HW133911   1.286   0.838  14.940  1.1212 -1.4605  0.7331
 7484SOL    HW233912   1.205   0.769  14.835  0.0085 -0.5171  1.0736
 7485SOL     OW33913   2.229   3.928  11.778 -0.4183  0.0543 -0.0271
 7485SOL    HW133914   2.193   3.989  11.842 -0.5188 -1.3716  1.2417
 7485SOL    HW233915   2.171   3.853  11.780 -1.1693  0.6579  0.7734
 7486SOL     OW33916   4.446   2.724   4.403 -0.2979 -0.0321 -0.1965
 7486SOL    HW133917   4.444   2.628   4.406 -1.3189 -0.0175 -0.4588
 7486SOL    HW233918   4.497   2.746   4.481  0.0055 -1.3890 -0.0094
 7487SOL     OW33919   2.007   1.138  17.241 -0.0252  0.3234  0.4725
 7487SOL    HW133920   2.055   1.062  17.207  0.7669  0.4127  1.3925
 7487SOL    HW233921   2.028   1.198  17.169 -1.0866 -2.1635 -1.9146
 7488SOL     OW33922   2.259   0.985   3.587 -0.2980 -0.1854 -0.4290
 7488SOL    HW133923   2.236   1.075   3.563  0.8633  0.2066 -0.0537
 7488SOL    HW233924   2.286   0.954   3.501  0.5890  0.9390 -0.5585
 7489SOL     OW33925   0.958   1.915  13.804  0.2330  0.4713  0.4075
 7489SOL    HW133926   0.889   1.848  13.800 -0.4899  0.9120  5.1436
 7489SOL    HW233927   0.951   1.960  13.720  0.2627 -0.7395 -0.2473
 7490SOL     OW33928   1.159   4.399  16.687  0.1629 -0.5849 -0.2480
 7490SOL    HW133929   1.073   4.362  16.664 -0.0193  0.0069 -0.5094
 7490SOL    HW233930   1.138   4.489  16.666 -1.2138 -1.1196 -1.1443
 7491SOL     OW33931   0.418   3.799  10.479 -0.2777  0.4284  0.2096
 7491SOL    HW133932   0.372   3.716  10.488 -2.3844  1.3319 -2.3596
 7491SOL    HW233933   0.513   3.783  10.484 -0.2737  0.3352 -0.1631
 7492SOL     OW33934   3.727   4.183   1.827  0.2268 -0.1873 -0.4189
 7492SOL    HW133935   3.651   4.239   1.841  0.7863 -0.1479  2.4493
 7492SOL    HW233936   3.770   4.230   1.756 -1.6645  0.8310 -0.8842
 7493SOL     OW33937   1.254   2.025   5.166 -0.2135  0.0863 -0.1091
 7493SOL    HW133938   1.249   2.090   5.236 -1.1760 -0.2391  0.1197
 7493SOL    HW233939   1.211   1.950   5.207  1.7913 -0.6172  0.7593
 7494SOL     OW33940   0.523   4.508   5.464 -0.6786  0.2962 -0.2844
 7494SOL    HW133941   0.574   4.442   5.511  1.2036  1.9153 -0.0553
 7494SOL    HW233942   0.512   4.466   5.379 -1.5794 -0.5812  0.2732
 7495SOL     OW33943   1.934   3.121   5.996  0.7041 -0.2913 -0.1544
 7495SOL    HW133944   1.953   3.214   6.002  1.5494 -0.4328 -0.6484
 7495SOL    HW233945   2.020   3.081   6.006  0.4392 -1.3455 -2.0977
 7496SOL     OW33946   3.706   2.590   2.692 -0.5127 -0.3712  0.5181
 7496SOL    HW133947   3.705   2.503   2.732  1.9245 -0.3890  0.5393
 7496SOL    HW233948   3.798   2.613   2.677 -0.3231 -1.1113  0.5151
 7497SOL     OW33949   2.140   0.952   4.497 -0.0153  0.2311 -0.0795
 7497SOL    HW133950   2.185   0.909   4.424  1.0528 -0.5369  1.0347
 7497SOL    HW233951   2.066   0.987   4.448 -1.1554 -1.5424  0.3775
 7498SOL     OW33952   1.986   4.305   3.147 -0.0524  0.7100  0.1883
 7498SOL    HW133953   1.949   4.331   3.063  0.0249 -1.0234 -0.3828
 7498SOL    HW233954   2.021   4.388   3.181 -0.5122  0.7648  0.5172
 7499SOL     OW33955   3.457   1.202   3.757  0.6390 -0.0781  0.0804
 7499SOL    HW133956   3.486   1.151   3.832  1.2939  0.7014  0.3587
 7499SOL    HW233957   3.469   1.140   3.685  0.3693  0.3494 -0.3314
 7500SOL     OW33958   2.056   2.825   1.142  0.4029  0.1136 -0.0727
 7500SOL    HW133959   2.034   2.915   1.169 -1.6073  0.1491 -1.8513
 7500SOL    HW233960   1.976   2.774   1.154 -0.5174  2.6153  4.4452
 7501SOL     OW33961   1.610   2.879   6.893 -0.2191 -0.6907 -0.9739
 7501SOL    HW133962   1.622   2.824   6.970 -1.8278 -1.7643 -1.4997
 7501SOL    HW233963   1.641   2.818   6.826 -1.4342 -1.6542 -0.6548
 7502SOL     OW33964   0.205   3.979   6.205 -0.2679  0.6845  0.3196
 7502SOL    HW133965   0.223   3.903   6.150  0.9858  1.4148 -0.2911
 7502SOL    HW233966   0.235   4.057   6.158  0.9551 -0.2206 -0.4161
 7503SOL     OW33967   1.279   3.184   2.572 -0.3520  0.4156 -0.3741
 7503SOL    HW133968   1.255   3.248   2.640 -1.2528 -0.3436  0.0219
 7503SOL    HW233969   1.370   3.168   2.598 -0.7532 -3.5070 -1.3428
 7504SOL     OW33970   1.099   1.226   1.878  0.5975  0.3455  0.0734
 7504SOL    HW133971   1.158   1.285   1.832  2.3872 -1.0018  0.6381
 7504SOL    HW233972   1.142   1.141   1.869 -0.1893 -0.0910  0.4796
 7505SOL     OW33973   4.443   0.455   6.817 -0.7323  0.1856 -0.5298
 7505SOL    HW133974   4.432   0.547   6.839 -0.6947 -0.1416  0.8710
 7505SOL    HW233975   4.391   0.453   6.737  0.0725  1.9475 -1.0942
 7506SOL     OW33976   0.201   2.804   5.645 -1.1107  0.5532  0.0863
 7506SOL    HW133977   0.277   2.838   5.598  1.8205 -3.6125  1.8461
 7506SOL    HW233978   0.151   2.886   5.646 -0.7385  0.7583  2.9301
 7507SOL     OW33979   3.389   2.321   5.219 -0.3696 -0.2395  0.1407
 7507SOL    HW133980   3.426   2.330   5.131  0.4002 -1.9910  0.2953
 7507SOL    HW233981   3.423   2.393   5.272  0.0297 -0.1717 -0.2132
 7508SOL     OW33982   2.508   4.450   3.618  0.2620  0.1092  0.5036
 7508SOL    HW133983   2.422   4.411   3.633 -0.7222  2.0270 -0.2202
 7508SOL    HW233984   2.553   4.382   3.568 -0.9448  0.5516 -1.1775
 7509SOL     OW33985   3.462   2.685   8.152 -0.0802  0.3984 -0.1132
 7509SOL    HW133986   3.405   2.761   8.142 -0.0603  0.4241 -0.0359
 7509SOL    HW233987   3.489   2.696   8.243 -0.0413 -0.6615 -0.0021
 7510SOL     OW33988   0.563   2.942  12.934  0.1865 -0.4097 -0.1189
 7510SOL    HW133989   0.616   2.862  12.934 -0.9324 -1.1514 -0.3613
 7510SOL    HW233990   0.614   2.989  12.868 -2.1483 -0.8150 -2.2000
 7511SOL     OW33991   0.784   0.173   3.978 -0.0421 -0.3409  1.1896
 7511SOL    HW133992   0.879   0.179   3.965 -0.1808  0.0707  0.4016
 7511SOL    HW233993   0.768   0.088   3.939  1.1984 -0.2457  0.4882
 7512SOL     OW33994   3.150   1.473   6.713  0.1752  0.2263  0.0668
 7512SOL    HW133995   3.120   1.450   6.801  0.0086 -0.2475 -0.1129
 7512SOL    HW233996   3.106   1.410   6.657  2.2168 -2.9142  1.9415
 7513SOL     OW33997   1.768   1.571   3.370  0.2241 -0.6274 -0.1539
 7513SOL    HW133998   1.836   1.525   3.322 -0.1903  0.1459 -1.4768
 7513SOL    HW233999   1.776   1.653   3.322 -0.5448 -0.8581 -0.6880
 7514SOL     OW34000   1.508   0.336   2.842 -0.2598  0.5345 -0.0845
 7514SOL    HW134001   1.549   0.418   2.815  0.3953  0.1005 -0.3829
 7514SOL    HW234002   1.580   0.283   2.875 -0.7055 -0.2072 -0.3224
 7515SOL     OW34003   1.676   1.974   3.743 -0.4497 -1.3473  0.0082
 7515SOL    HW134004   1.742   1.906   3.733  1.2700  0.2219  0.5921
 7515SOL    HW234005   1.701   2.007   3.829  1.7266 -0.4976 -0.9589
 7516SOL     OW34006   2.953   3.757   4.900  0.5609  0.4955  0.1157
 7516SOL    HW134007   2.949   3.787   4.991  1.2409  0.5002  0.1486
 7516SOL    HW234008   3.048   3.757   4.885  0.8042  1.7682  1.6881
 7517SOL     OW34009   4.400   1.430   4.530 -0.3540 -0.0253  0.3612
 7517SOL    HW134010   4.330   1.492   4.513  0.5458  0.3770 -1.8975
 7517SOL    HW234011   4.378   1.361   4.467  0.6784 -0.2744  0.2679
 7518SOL     OW34012   2.726   0.467   2.514  0.0860 -0.0695 -0.5982
 7518SOL    HW134013   2.767   0.458   2.600  0.1707  2.3059 -0.3898
 7518SOL    HW234014   2.634   0.466   2.538  0.4025 -1.1970  0.5463
 7519SOL     OW34015   4.089   2.550   9.700  0.0019 -0.3701 -0.1458
 7519SOL    HW134016   4.094   2.645   9.712 -1.6462 -0.2012 -0.7791
 7519SOL    HW234017   4.152   2.538   9.628 -2.2959 -0.1587 -2.1954
 7520SOL     OW34018   1.248   2.986  14.010  0.1229 -0.0614  0.3784
 7520SOL    HW134019   1.208   2.908  14.050  0.7055  1.0819  3.1946
 7520SOL    HW234020   1.336   2.962  14.036  0.2793 -1.6738 -1.6228
 7521SOL     OW34021   0.841   0.579   5.961  0.1975 -0.0047  0.1122
 7521SOL    HW134022   0.765   0.522   5.977 -2.0392  3.0161  0.3064
 7521SOL    HW234023   0.832   0.626   5.878 -0.0215  1.3787  0.9136
 7522SOL     OW34024   2.998   0.586   1.930 -0.0830  0.4648  0.0934
 7522SOL    HW134025   2.904   0.587   1.916 -0.2033  2.2253  1.0702
 7522SOL    HW234026   3.021   0.526   1.859 -0.8467 -1.0729  1.1443
 7523SOL     OW34027   3.406   3.376  11.194  0.2444 -1.0833  0.3886
 7523SOL    HW134028   3.419   3.375  11.289  1.0693  0.6058  0.2817
 7523SOL    HW234029   3.327   3.322  11.187  0.7666 -2.0070  1.5950
 7524SOL     OW34030   3.350   4.701  10.595  0.2740  0.2014 -0.3227
 7524SOL    HW134031   3.333   4.667  10.507 -1.0160 -0.7701  0.2996
 7524SOL    HW234032   3.268   0.009  10.632 -0.5945 -0.2770 -1.8227
 7525SOL     OW34033   2.139   1.061  11.113  0.1995 -0.4452  0.1427
 7525SOL    HW134034   2.081   1.129  11.079 -0.4184 -1.7104 -1.3334
 7525SOL    HW234035   2.074   0.991  11.116  0.4742 -0.7731 -1.7383
 7526SOL     OW34036   2.708   1.995   5.448 -0.3319  0.1452 -0.4399
 7526SOL    HW134037   2.726   2.051   5.523  0.9640 -1.5178  0.5151
 7526SOL    HW234038   2.792   1.957   5.421 -0.3149 -0.8901  1.0502
 7527SOL     OW34039   1.083   1.589   0.062  0.3500  0.3508 -0.3068
 7527SOL    HW134040   1.179   1.588   0.072  0.3261 -1.5804 -0.3813
 7527SOL    HW234041   1.056   1.498   0.071  1.7191 -0.0690 -0.3554
 7528SOL     OW34042   2.888   2.268   2.903 -0.1050 -0.0323 -0.1504
 7528SOL    HW134043   2.967   2.288   2.954 -0.2982 -2.8569  1.2721
 7528SOL    HW234044   2.888   2.339   2.840 -1.7098 -0.3324 -0.4767
 7529SOL     OW34045   2.370   1.691   6.817  0.4578 -0.6475  0.6136
 7529SOL    HW134046   2.377   1.750   6.743 -1.2213  0.1243  1.0569
 7529SOL    HW234047   2.281   1.711   6.847  0.4570 -0.5938  0.5746
 7530SOL     OW34048   3.416   1.344   5.521  0.7666 -0.0489  0.4081
 7530SOL    HW134049   3.419   1.259   5.478  1.8552  0.3568 -0.3173
 7530SOL    HW234050   3.406   1.405   5.448 -0.4017  1.0120  1.4428
 7531SOL     OW34051   1.978   1.176   3.483 -0.4048 -0.4777  0.0548
 7531SOL    HW134052   1.934   1.253   3.448 -0.1538  0.7626  2.4926
 7531SOL    HW234053   2.004   1.134   3.401  0.6962  1.4643 -0.5938
 7532SOL     OW34054   0.105   0.650   5.461 -0.5128  0.2904 -0.0737
 7532SOL    HW134055   0.104   0.739   5.496  1.5383  0.7212 -1.1015
 7532SOL    HW234056   0.052   0.606   5.527  0.0081 -0.2012  0.0120
 7533SOL     OW34057   2.727   2.445   3.213  0.2429 -0.3616  0.0290
 7533SOL    HW134058   2.727   2.354   3.182  1.3410 -0.2466 -0.3183
 7533SOL    HW234059   2.755   2.441   3.305 -1.4497 -1.0811  0.5072
 7534SOL     OW34060   4.309   3.908  10.634  0.6990  0.1689 -0.2831
 7534SOL    HW134061   4.320   3.938  10.725 -1.3862 -2.1702  0.7340
 7534SOL    HW234062   4.322   3.817  10.660 -0.0623  0.2672  0.4493
 7535SOL     OW34063   2.589   0.337  14.527 -0.3460 -0.1273  0.0401
 7535SOL    HW134064   2.599   0.427  14.559  0.9076  0.6665 -2.5886
 7535SOL    HW234065   2.662   0.323  14.467 -0.4623  4.2732 -1.1972
 7536SOL     OW34066   1.605   0.863   2.906  0.3394  0.5574 -0.2074
 7536SOL    HW134067   1.602   0.777   2.864 -0.2140  1.2981 -1.6814
 7536SOL    HW234068   1.699   0.866   2.923 -0.0769  4.4437  1.2966
 7537SOL     OW34069   2.744   1.917   7.612 -0.4445 -0.0810  0.4027
 7537SOL    HW134070   2.780   1.990   7.562 -0.3565  1.2401  2.3815
 7537SOL    HW234071   2.684   1.875   7.550 -0.4229 -0.8236  0.8779
 7538SOL     OW34072   2.429   1.162   5.419  0.0710  0.3174  0.0947
 7538SOL    HW134073   2.412   1.229   5.353  1.7377 -0.5420 -1.2329
 7538SOL    HW234074   2.346   1.116   5.406 -0.4370  0.6324  2.3629
 7539SOL     OW34075   0.271   1.024   5.165 -0.7475 -0.3732  0.1884
 7539SOL    HW134076   0.347   0.975   5.134  0.1627  0.6607  0.7868
 7539SOL    HW234077   0.205   0.955   5.176 -0.1225 -1.4497 -2.7477
 7540SOL     OW34078   2.258   1.467   4.127 -0.1048  0.1263  0.2432
 7540SOL    HW134079   2.308   1.465   4.045  0.2630  0.3633  0.4604
 7540SOL    HW234080   2.236   1.374   4.136  0.8292 -0.1823 -0.7024
 7541SOL     OW34081   0.303   1.067   2.584  0.2843  0.7168  0.5191
 7541SOL    HW134082   0.361   1.140   2.608 -1.1275  2.6079 -1.8692
 7541SOL    HW234083   0.343   0.992   2.628 -0.9233 -0.7010 -0.8339
 7542SOL     OW34084   1.458   1.624   6.780  0.2780  0.3695  0.5095
 7542SOL    HW134085   1.410   1.624   6.863 -0.6249 -0.2349 -0.0167
 7542SOL    HW234086   1.382   1.622   6.722 -0.3473  1.2392  1.3125
 7543SOL     OW34087   4.136   1.753   2.362 -0.1796  0.3920  0.1467
 7543SOL    HW134088   4.160   1.810   2.290 -1.4664  0.3298 -0.3352
 7543SOL    HW234089   4.186   1.674   2.343 -0.9382  0.6324 -2.8666
 7544SOL     OW34090   1.515   3.747   6.186 -0.1283  0.0167  0.0422
 7544SOL    HW134091   1.574   3.785   6.121 -0.9742 -0.6645 -1.1319
 7544SOL    HW234092   1.584   3.729   6.249  0.3875  0.8089 -0.2897
 7545SOL     OW34093   1.748   4.121  11.150  0.0766 -0.0274 -0.0426
 7545SOL    HW134094   1.831   4.149  11.188  0.3713  0.5016 -1.0579
 7545SOL    HW234095   1.704   4.076  11.221  2.2691 -1.9263  0.0980
 7546SOL     OW34096   2.617   4.022   3.857 -0.5980 -0.3504 -0.1912
 7546SOL    HW134097   2.619   4.013   3.952  0.5264 -0.9949 -0.2673
 7546SOL    HW234098   2.529   3.989   3.838 -0.8363  1.0373 -1.4899
 7547SOL     OW34099   2.494   1.391   6.057  0.3065  0.3272  0.2102
 7547SOL    HW134100   2.440   1.450   6.110 -2.0915 -1.3614 -0.3453
 7547SOL    HW234101   2.508   1.445   5.979  1.7490  1.3262  1.1479
 7548SOL     OW34102   1.139   3.732   8.170  0.1508  0.0479 -0.1494
 7548SOL    HW134103   1.227   3.710   8.139  0.1830 -1.6152  1.1502
 7548SOL    HW234104   1.154   3.821   8.204  0.2934 -0.0190 -0.0365
 7549SOL     OW34105   1.418   1.045   6.497 -0.2182  0.2646 -0.3993
 7549SOL    HW134106   1.510   1.070   6.488  0.1435 -0.6704  0.7293
 7549SOL    HW234107   1.403   0.965   6.448  3.7161 -1.9032  1.9082
 7550SOL     OW34108   4.574   4.452   4.408  0.2878 -0.4312 -0.0654
 7550SOL    HW134109   4.636   4.514   4.371  0.2871  0.0495  0.7509
 7550SOL    HW234110   4.623   4.448   4.490 -0.4900 -0.5012  0.3958
 7551SOL     OW34111   1.489   2.223   5.312  0.1714  0.0219  0.3300
 7551SOL    HW134112   1.423   2.154   5.323  0.5176 -0.3052  0.3631
 7551SOL    HW234113   1.542   2.209   5.391  2.3032  3.1097 -0.5516
 7552SOL     OW34114   1.456   1.027   3.249 -0.2621  0.5228 -0.4446
 7552SOL    HW134115   1.421   1.026   3.159 -2.4391 -0.4307  0.4075
 7552SOL    HW234116   1.375   1.011   3.298  0.4211 -0.2047  0.4342
 7553SOL     OW34117   1.406   2.972   8.754  0.1305  0.0271 -0.4379
 7553SOL    HW134118   1.361   2.912   8.812  1.7327 -1.2371 -0.4923
 7553SOL    HW234119   1.375   3.055   8.790 -1.2670 -0.5398 -0.3354
 7554SOL     OW34120   3.728   1.443   3.355  0.2340  0.1367 -0.6521
 7554SOL    HW134121   3.774   1.526   3.344 -1.1996  0.9299 -0.7121
 7554SOL    HW234122   3.694   1.426   3.267  1.0490  0.5556 -1.0474
 7555SOL     OW34123   3.657   1.973   3.303 -0.4040  0.3458 -0.0690
 7555SOL    HW134124   3.720   1.998   3.370 -0.5216 -1.4919  0.7220
 7555SOL    HW234125   3.691   2.028   3.232 -2.3458 -0.6237 -1.7491
 7556SOL     OW34126   2.107   2.732   4.404  0.0306 -0.2897 -0.1393
 7556SOL    HW134127   2.018   2.719   4.372 -0.1939 -1.4426  0.9115
 7556SOL    HW234128   2.083   2.763   4.492  1.1825 -1.0863  0.4581
 7557SOL     OW34129   3.642   1.970  14.972 -0.8418  0.0593 -0.1033
 7557SOL    HW134130   3.578   1.908  14.937 -0.0876 -0.6053 -0.3149
 7557SOL    HW234131   3.673   2.006  14.888  1.6264  1.5759  1.4489
 7558SOL     OW34132   2.772   3.436  11.863  0.3193 -0.3437 -0.1853
 7558SOL    HW134133   2.863   3.417  11.841  1.1109  2.2541  0.7835
 7558SOL    HW234134   2.738   3.438  11.774  2.8005  0.7685 -1.1173
 7559SOL     OW34135   1.788   0.227   5.316 -0.5185 -0.0376 -0.1072
 7559SOL    HW134136   1.853   0.163   5.344 -1.3350 -1.0513 -0.5314
 7559SOL    HW234137   1.839   0.308   5.309 -2.0893  1.2377  2.9699
 7560SOL     OW34138   0.629   2.711   3.264 -0.3065 -0.5541 -0.1259
 7560SOL    HW134139   0.644   2.720   3.170  2.8042 -2.9694  0.1473
 7560SOL    HW234140   0.570   2.637   3.279 -2.0985  0.8846  0.0296
 7561SOL     OW34141   1.221   0.994   0.708  0.3043  0.2836 -0.0215
 7561SOL    HW134142   1.284   0.990   0.781  1.6839 -1.2812 -1.3168
 7561SOL    HW234143   1.278   1.020   0.636 -0.3116  2.2740  0.2127
 7562SOL     OW34144   0.078   2.059   0.343  0.7755 -0.0589 -0.4701
 7562SOL    HW134145   4.713   2.042   0.316  0.2076  1.8582  0.2198
 7562SOL    HW234146   0.087   2.012   0.426 -0.9919  1.6093  0.6652
 7563SOL     OW34147   1.896   0.944  12.422 -0.4801 -0.6899 -0.4008
 7563SOL    HW134148   1.963   0.945  12.353  0.6561  3.1375  0.7823
 7563SOL    HW234149   1.940   0.974  12.502  0.4717 -1.6974 -0.5315
 7564SOL     OW34150   1.443   0.952   8.528  0.3036  0.2318 -0.2517
 7564SOL    HW134151   1.463   0.899   8.450 -0.2876  0.2243 -0.4003
 7564SOL    HW234152   1.349   0.941   8.545 -0.2712 -0.4699 -3.8805
 7565SOL     OW34153   3.473   0.764   3.738 -0.1994 -0.0167 -0.6396
 7565SOL    HW134154   3.464   0.847   3.692  0.1196  0.7596  0.7395
 7565SOL    HW234155   3.464   0.786   3.830 -0.2388  0.0498 -0.6594
 7566SOL     OW34156   3.590   0.982  11.155 -0.4595  0.1677  0.3355
 7566SOL    HW134157   3.520   1.006  11.093  0.0790  0.5543 -0.1240
 7566SOL    HW234158   3.550   0.909  11.202  1.0244 -1.4602 -0.9331
 7567SOL     OW34159   1.003   1.119   0.550  0.5713  0.0952 -0.7931
 7567SOL    HW134160   1.057   1.193   0.521  1.7725 -0.3687  0.2195
 7567SOL    HW234161   1.061   1.076   0.613  1.7273  1.7613 -0.7057
 7568SOL     OW34162   1.793   4.051  15.429 -0.7499  0.1181 -0.4632
 7568SOL    HW134163   1.739   4.043  15.507 -0.2493  0.0357 -0.1260
 7568SOL    HW234164   1.766   4.135  15.391 -1.4405  0.2470  0.3154
 7569SOL     OW34165   0.126   4.341  13.181  0.4283 -0.0053 -0.1798
 7569SOL    HW134166   0.208   4.325  13.134  0.4047 -1.2026  0.1990
 7569SOL    HW234167   0.073   4.265  13.159 -0.0113  0.1274  0.4115
 7570SOL     OW34168   2.090   3.670   1.059 -0.3783 -0.1642  0.1940
 7570SOL    HW134169   2.072   3.585   1.018 -0.8562 -0.2679  0.6196
 7570SOL    HW234170   2.004   3.701   1.086 -0.8951  1.1204 -2.9000
 7571SOL     OW34171   0.649   3.695   7.681 -0.1061 -0.0837 -0.8383
 7571SOL    HW134172   0.694   3.749   7.746  2.7248 -2.1414 -1.0767
 7571SOL    HW234173   0.721   3.683   7.619  0.4260 -0.7154 -0.0976
 7572SOL     OW34174   3.718   0.311  15.780 -0.1514 -1.0914 -0.1664
 7572SOL    HW134175   3.710   0.359  15.863 -2.2280  0.3070 -1.1661
 7572SOL    HW234176   3.728   0.382  15.717  1.1978 -0.7498  0.4394
 7573SOL     OW34177   3.185   1.724  11.078  0.3109  0.3046 -0.1211
 7573SOL    HW134178   3.255   1.774  11.121  0.8786 -1.9775  1.5847
 7573SOL    HW234179   3.165   1.667  11.152 -1.5544  2.0236  0.6765
 7574SOL     OW34180   1.850   2.878  10.473 -0.0733  0.3242  0.4993
 7574SOL    HW134181   1.804   2.857  10.392  2.3760 -0.6584 -0.6390
 7574SOL    HW234182   1.780   2.874  10.539 -1.1742 -1.9663 -0.8055
 7575SOL     OW34183   3.984   3.410  15.628  0.3441  0.0151  0.6795
 7575SOL    HW134184   3.920   3.423  15.558 -0.7697 -2.5706  1.2380
 7575SOL    HW234185   3.926   3.413  15.704 -1.0171 -0.5571 -0.3516
 7576SOL     OW34186   2.303   2.187   5.430  0.2623 -0.4059 -0.5128
 7576SOL    HW134187   2.356   2.219   5.358 -0.9983 -0.1204 -1.3174
 7576SOL    HW234188   2.353   2.214   5.507 -0.8801 -0.8611  0.3924
 7577SOL     OW34189   4.365   1.755   9.006 -0.6023 -0.1799 -0.2152
 7577SOL    HW134190   4.431   1.756   9.074 -1.3605 -0.7533  0.5329
 7577SOL    HW234191   4.427   1.773   8.936 -2.1982  0.3647 -1.5079
 7578SOL     OW34192   1.393   3.281   7.058  0.4353  0.3136  0.0479
 7578SOL    HW134193   1.456   3.211   7.072 -0.4168 -0.0862  1.7856
 7578SOL    HW234194   1.308   3.241   7.040  1.5502 -1.8983 -0.2964
 7579SOL     OW34195   3.037   1.201   6.060 -0.2558  0.3148  0.5005
 7579SOL    HW134196   3.037   1.200   5.965  1.0105 -0.4594  0.5026
 7579SOL    HW234197   3.123   1.159   6.065 -2.1531 -3.6165 -0.5581
 7580SOL     OW34198   2.631   1.696   5.167 -0.4820 -0.4007  0.2087
 7580SOL    HW134199   2.563   1.651   5.117  0.7653 -2.4135  0.2709
 7580SOL    HW234200   2.625   1.657   5.254 -1.8666 -1.2433 -0.2612
 7581SOL     OW34201   3.123   2.614   4.852  0.3150  0.5088 -0.0160
 7581SOL    HW134202   3.163   2.590   4.936 -2.6580 -0.9016  0.9697
 7581SOL    HW234203   3.070   2.535   4.846  2.0429 -0.6613  0.2109
 7582SOL     OW34204   4.545   1.428   8.836  0.0784  0.3784 -0.6515
 7582SOL    HW134205   4.602   1.439   8.760  1.8959  1.4398  0.8443
 7582SOL    HW234206   4.505   1.342   8.823 -0.9011  1.1658 -2.7712
 7583SOL     OW34207   3.461   2.726   4.188  0.0820  0.6524  0.0808
 7583SOL    HW134208   3.510   2.715   4.106  0.5844  1.6033  0.2478
 7583SOL    HW234209   3.459   2.641   4.232 -0.0810  0.9507  0.6476
 7584SOL     OW34210   2.524   0.349   1.658 -0.0046  0.1264 -0.2266
 7584SOL    HW134211   2.444   0.303   1.686 -0.8155  0.6199 -1.7219
 7584SOL    HW234212   2.503   0.442   1.667  0.8920  0.4805 -1.7544
 7585SOL     OW34213   1.299   0.278   7.388  0.1416 -0.1481  0.3329
 7585SOL    HW134214   1.206   0.296   7.379  0.2330  0.3286  0.3113
 7585SOL    HW234215   1.309   0.199   7.336 -0.4634 -0.6539  0.9846
 7586SOL     OW34216   4.403   0.749   8.927 -0.0747 -0.1075 -0.1735
 7586SOL    HW134217   4.470   0.698   8.882  1.6878  1.9156  0.1493
 7586SOL    HW234218   4.325   0.694   8.937  0.0781 -0.4975 -1.0968
 7587SOL     OW34219   2.032   3.370  16.119  0.2090 -0.4336  0.0012
 7587SOL    HW134220   1.953   3.421  16.103  1.1254  1.0966  0.3068
 7587SOL    HW234221   2.081   3.398  16.042  1.8885  0.5361  1.3954
 7588SOL     OW34222   4.637   4.288   6.199 -0.5000  0.0718  0.2760
 7588SOL    HW134223   4.551   4.326   6.216 -0.3832  0.8986 -1.0171
 7588SOL    HW234224   4.609   4.200   6.173 -0.7082  0.3249 -0.3545
 7589SOL     OW34225   0.093   4.476  16.953 -0.6974 -0.2876 -0.3256
 7589SOL    HW134226   0.165   4.432  16.908  2.1423  0.9387  2.9357
 7589SOL    HW234227   0.036   4.404  16.980  0.8188 -1.4405 -0.1572
 7590SOL     OW34228   3.426   1.660   4.434 -0.1455  0.3723  0.4391
 7590SOL    HW134229   3.423   1.746   4.476 -0.7505  1.1231 -1.1667
 7590SOL    HW234230   3.333   1.646   4.417 -0.6717  1.7856  2.1094
 7591SOL     OW34231   0.852   2.714   6.394 -0.2057  0.3829  0.2384
 7591SOL    HW134232   0.773   2.663   6.373 -1.4883  1.8467  1.4794
 7591SOL    HW234233   0.862   2.698   6.488 -0.1184 -0.6008  0.0558
 7592SOL     OW34234   0.692   0.926  16.331  0.8945 -0.6516 -0.4559
 7592SOL    HW134235   0.676   1.015  16.362 -1.6698 -0.5552 -2.0726
 7592SOL    HW234236   0.753   0.941  16.259  1.4677 -0.7078  0.0173
 7593SOL     OW34237   1.273   1.989   2.061  0.7995  0.2174  0.1431
 7593SOL    HW134238   1.313   1.931   1.996  2.8948  0.1920  1.4374
 7593SOL    HW234239   1.327   1.967   2.138  0.8336  0.9831  0.3428
 7594SOL     OW34240   0.287   2.940   8.292 -0.0591 -0.0619 -0.2093
 7594SOL    HW134241   0.305   2.860   8.341  0.9329  0.7353  0.7376
 7594SOL    HW234242   0.313   2.901   8.208  0.0228  0.4529 -0.4267
 7595SOL     OW34243   0.787   3.591   6.670 -0.2344 -0.1806 -0.3023
 7595SOL    HW134244   0.814   3.534   6.742  2.2341  1.4197  0.0282
 7595SOL    HW234245   0.841   3.669   6.679 -2.6980  1.5208 -0.3180
 7596SOL     OW34246   0.246   4.176   8.742  0.1955  0.3337 -0.0744
 7596SOL    HW134247   0.306   4.205   8.811 -1.1476  0.6861  0.9423
 7596SOL    HW234248   0.280   4.237   8.677 -0.4049 -0.0400 -0.7393
 7597SOL     OW34249   1.126   3.325  15.647 -0.3191 -0.7741 -0.3615
 7597SOL    HW134250   1.068   3.390  15.686  0.1122  1.6767 -3.7318
 7597SOL    HW234251   1.059   3.268  15.609 -2.0111  0.0345  1.4328
 7598SOL     OW34252   1.376   2.083   7.884 -0.3619  0.0121 -0.3277
 7598SOL    HW134253   1.357   2.139   7.960 -0.1224  1.7588 -1.5535
 7598SOL    HW234254   1.469   2.103   7.881  0.2337 -2.4593  2.1151
 7599SOL     OW34255   1.081   2.219   9.391 -0.1295  0.7419  0.3589
 7599SOL    HW134256   1.072   2.124   9.405  0.1157  0.6136 -0.3475
 7599SOL    HW234257   1.171   2.236   9.363 -0.6564  0.1904 -1.7149
 7600SOL     OW34258   3.895   2.395  11.872 -0.6734  0.0147 -0.3668
 7600SOL    HW134259   3.890   2.429  11.962 -1.6278 -1.3300  0.0814
 7600SOL    HW234260   3.976   2.347  11.887 -1.1556 -0.6152  0.2313
 7601SOL     OW34261   1.642   4.293   5.624 -0.6502 -0.2390  0.3169
 7601SOL    HW134262   1.723   4.243   5.615 -0.4161  0.4819 -1.7785
 7601SOL    HW234263   1.583   4.224   5.652 -0.5818 -0.6155 -0.4491
 7602SOL     OW34264   4.207   3.467   4.723  0.3497  0.2131 -0.4574
 7602SOL    HW134265   4.241   3.378   4.728  2.1667  0.8970 -0.5367
 7602SOL    HW234266   4.121   3.438   4.691 -0.3072  1.5959  0.0589
 7603SOL     OW34267   3.285   1.302  14.228 -0.6114 -0.4648  0.3106
 7603SOL    HW134268   3.221   1.301  14.299 -1.2150 -1.5739 -0.2572
 7603SOL    HW234269   3.364   1.324  14.278  0.4316  0.1590 -1.6138
 7604SOL     OW34270   4.632   4.412   9.793  0.5170  0.2432  0.3313
 7604SOL    HW134271   4.671   4.342   9.845 -0.2932 -1.6314 -1.5847
 7604SOL    HW234272   4.538   4.396   9.797  0.2295  1.1579 -2.7139
 7605SOL     OW34273   3.552   3.380   9.165  0.0232 -0.0856 -0.6476
 7605SOL    HW134274   3.597   3.426   9.236  0.5559  0.2152 -1.1801
 7605SOL    HW234275   3.508   3.320   9.226 -0.4471 -1.0385 -1.9390
 7606SOL     OW34276   1.166   2.561   5.939  0.3871 -0.1634  0.1704
 7606SOL    HW134277   1.240   2.507   5.967  0.9782  1.4693  1.8021
 7606SOL    HW234278   1.210   2.638   5.903  0.5588 -0.5629 -0.4772
 7607SOL     OW34279   0.728   0.173  14.762  0.3568 -0.2560  0.4743
 7607SOL    HW134280   0.783   0.242  14.799 -2.5178  0.7301  2.8768
 7607SOL    HW234281   0.760   0.095  14.807 -1.4431 -1.0719  0.3344
 7608SOL     OW34282   3.272   2.453   6.185 -0.1840 -0.7283  0.7078
 7608SOL    HW134283   3.310   2.449   6.272  2.2913 -2.1349 -0.4507
 7608SOL    HW234284   3.206   2.386   6.206  0.3026  0.0512  4.7481
 7609SOL     OW34285   0.208   3.157  14.410  0.0657  0.0276 -0.0231
 7609SOL    HW134286   0.286   3.211  14.401 -0.7391  1.0972 -0.7218
 7609SOL    HW234287   0.162   3.185  14.330  2.2888  1.0990 -0.9247
 7610SOL     OW34288   0.094   4.601   9.722 -0.0986 -0.0747  0.0576
 7610SOL    HW134289   0.027   4.665   9.699 -1.6752 -1.1781  1.5070
 7610SOL    HW234290   0.037   4.529   9.749 -0.9085  0.2575 -0.7520
 7611SOL     OW34291   1.801   0.677   5.228  0.3424  0.2084  0.0031
 7611SOL    HW134292   1.710   0.698   5.252  0.9049  2.1485  0.4011
 7611SOL    HW234293   1.820   0.753   5.174  1.0356 -1.1026 -1.6163
 7612SOL     OW34294   0.214   0.020   6.054  0.2902 -0.4538 -0.0410
 7612SOL    HW134295   0.162   4.667   6.075 -0.2006 -0.4290 -1.1243
 7612SOL    HW234296   0.297   4.698   6.066  0.1706 -1.0927 -1.7368
 7613SOL     OW34297   3.394   1.071   1.979 -0.5272 -0.7514  0.3866
 7613SOL    HW134298   3.367   1.003   2.041  0.0299 -0.5304  0.8750
 7613SOL    HW234299   3.345   1.145   2.014 -1.0864 -0.3899 -1.1620
 7614SOL     OW34300   3.252   1.428   8.560  0.2246  0.3078  0.6929
 7614SOL    HW134301   3.283   1.349   8.604 -2.3225 -2.2988 -2.0994
 7614SOL    HW234302   3.293   1.498   8.610  1.3670  0.3295 -0.2863
 7615SOL     OW34303   1.507   1.156   5.496 -0.1244  0.3565 -0.5282
 7615SOL    HW134304   1.583   1.097   5.492 -0.0936  0.3864 -0.3566
 7615SOL    HW234305   1.490   1.185   5.406 -2.2845  2.2790  0.5161
 7616SOL     OW34306   1.526   1.911   0.687  0.3502 -0.3147  0.2066
 7616SOL    HW134307   1.610   1.909   0.643  0.4085 -1.0410  0.3585
 7616SOL    HW234308   1.543   1.991   0.738 -0.0287 -0.4372  0.5244
 7617SOL     OW34309   1.513   3.450   6.701 -0.2795  0.4148 -0.9337
 7617SOL    HW134310   1.537   3.487   6.785  2.3935  1.1000 -1.9988
 7617SOL    HW234311   1.556   3.364   6.696  0.5019  0.7101  1.0039
 7618SOL     OW34312   1.460   1.158   5.218  1.0150 -0.1160  0.5221
 7618SOL    HW134313   1.415   1.081   5.252  1.3650  0.6900  2.7784
 7618SOL    HW234314   1.517   1.112   5.156  2.1676  0.1085  1.4018
 7619SOL     OW34315   1.661   2.565   6.298  0.0840 -1.0629 -0.0547
 7619SOL    HW134316   1.653   2.611   6.382  1.4310  1.9641 -1.5919
 7619SOL    HW234317   1.660   2.624   6.223  1.6348  0.3917  1.0771
 7620SOL     OW34318   3.575   1.697   2.025  0.1483 -0.6543 -0.0887
 7620SOL    HW134319   3.577   1.627   2.091 -1.5822  0.0136  0.6704
 7620SOL    HW234320   3.568   1.778   2.076 -3.1787 -0.8023 -0.3279
 7621SOL     OW34321   1.061   0.365   0.688 -0.3105 -0.3432 -0.2324
 7621SOL    HW134322   1.020   0.298   0.742 -1.2012 -0.5204 -1.1212
 7621SOL    HW234323   1.028   0.342   0.601 -0.9130  0.3270 -0.1827
 7622SOL     OW34324   2.081   3.373   5.916 -0.3540 -0.6065  0.8342
 7622SOL    HW134325   2.138   3.313   5.867 -3.1712  0.1922 -3.4712
 7622SOL    HW234326   2.120   3.458   5.896  0.2325 -0.8568  0.9241
 7623SOL     OW34327   0.750   4.570   4.496  0.1927 -0.0766 -0.0741
 7623SOL    HW134328   0.790   4.483   4.503  1.0859  0.0396 -4.1339
 7623SOL    HW234329   0.788   4.615   4.572  2.9924  2.4326 -2.9709
 7624SOL     OW34330   0.566   3.448  10.555  0.0346  0.1089  0.7039
 7624SOL    HW134331   0.487   3.477  10.510  0.9669  2.1359  0.3823
 7624SOL    HW234332   0.597   3.384  10.491 -0.1831 -0.2663  0.9739
 7625SOL     OW34333   1.046   2.228  11.317  0.3513  0.5868 -0.3088
 7625SOL    HW134334   1.094   2.244  11.398 -1.8453  0.3851  1.0133
 7625SOL    HW234335   1.049   2.318  11.284  2.1066 -0.0409 -1.8608
 7626SOL     OW34336   4.233   1.897   1.927 -0.0173  0.4797  0.0244
 7626SOL    HW134337   4.234   1.933   2.016 -0.2144  0.0346  0.2075
 7626SOL    HW234338   4.232   1.978   1.876  1.6440  0.5933  0.1799
 7627SOL     OW34339   3.897   1.354  14.066  0.2321 -0.6159  0.2818
 7627SOL    HW134340   3.991   1.339  14.057  0.5146  1.7333 -0.7828
 7627SOL    HW234341   3.862   1.367  13.978 -1.1045 -1.0230  0.7581
 7628SOL     OW34342   4.475   3.594  12.287 -0.4855  0.3237  0.0263
 7628SOL    HW134343   4.511   3.650  12.356  1.8981 -0.3099 -0.6858
 7628SOL    HW234344   4.381   3.602  12.301 -0.6798 -0.8254 -0.6197
 7629SOL     OW34345   2.988   1.072   6.956 -0.1014  0.6530 -0.3023
 7629SOL    HW134346   3.031   1.039   6.878  1.5355 -0.1172  0.9421
 7629SOL    HW234347   2.998   1.166   6.939  2.9255  0.2199 -0.9639
 7630SOL     OW34348   3.800   3.591   2.635  0.3556 -0.3736  0.2682
 7630SOL    HW134349   3.828   3.667   2.583  0.0001 -0.1677  0.3712
 7630SOL    HW234350   3.754   3.631   2.709  0.0522  2.7850 -1.6293
 7631SOL     OW34351   4.280   3.323   7.370  0.2616 -0.2598  0.2241
 7631SOL    HW134352   4.207   3.321   7.431  0.5359  0.6516  0.5892
 7631SOL    HW234353   4.287   3.237   7.329  1.4597 -0.1489  0.1995
 7632SOL     OW34354   0.581   1.837   4.064 -0.2180 -0.0427  0.5321
 7632SOL    HW134355   0.576   1.929   4.035 -1.0994 -0.5447 -0.9302
 7632SOL    HW234356   0.669   1.839   4.100 -0.7393  1.5865  1.7294
 7633SOL     OW34357   2.063   3.617   2.209  0.4864  0.5421 -1.1270
 7633SOL    HW134358   2.133   3.577   2.261 -1.4768 -1.3044  0.0943
 7633SOL    HW234359   1.992   3.604   2.273 -0.3874  2.8653 -1.6355
 7634SOL     OW34360   1.809   4.088   6.300 -0.2634  0.3811  0.3564
 7634SOL    HW134361   1.764   4.107   6.218  1.0569 -0.4281 -0.5637
 7634SOL    HW234362   1.842   3.999   6.289  1.7070  1.2492 -0.8708
 7635SOL     OW34363   2.272   0.732   4.908  0.0264  0.6602  0.5269
 7635SOL    HW134364   2.205   0.679   4.865  0.6934  0.0370  0.2571
 7635SOL    HW234365   2.356   0.718   4.864 -0.3729  1.5823 -0.5059
 7636SOL     OW34366   4.601   2.310  12.998  0.0416  0.6736  0.5754
 7636SOL    HW134367   4.584   2.372  13.069 -0.2177  1.5851 -0.2828
 7636SOL    HW234368   4.611   2.366  12.921  1.0168  0.4648  0.5568
 7637SOL     OW34369   2.203   0.781   1.516  0.2607  0.2557  0.1633
 7637SOL    HW134370   2.295   0.762   1.500  0.7238  1.9620  0.8503
 7637SOL    HW234371   2.212   0.850   1.582  0.1652 -1.2066  1.7092
 7638SOL     OW34372   2.158   1.519   8.844 -0.3363  1.1963 -0.4952
 7638SOL    HW134373   2.166   1.609   8.876 -0.0031  0.3143  1.9516
 7638SOL    HW234374   2.064   1.515   8.829 -0.5470 -0.9883  1.4035
 7639SOL     OW34375   0.029   0.836   8.718 -0.3563  0.0608 -0.1004
 7639SOL    HW134376   4.690   0.890   8.764 -0.0608  0.1043  0.2612
 7639SOL    HW234377   0.011   0.749   8.753  3.0908 -0.2110  1.0796
 7640SOL     OW34378   2.963   1.340   1.321 -0.6068 -0.0780 -0.1828
 7640SOL    HW134379   2.890   1.349   1.382 -0.0185 -1.1487  0.6915
 7640SOL    HW234380   2.967   1.423   1.274  1.3316  0.7025  1.3649
 7641SOL     OW34381   0.724   3.490   8.395 -0.2287 -0.2723  0.1726
 7641SOL    HW134382   0.776   3.558   8.352 -0.9108  0.2048  0.1022
 7641SOL    HW234383   0.782   3.471   8.469 -0.8649  0.8478  0.9545
 7642SOL     OW34384   0.295   3.092   4.950 -0.4747  0.1145 -0.2652
 7642SOL    HW134385   0.346   3.146   4.890 -0.4406 -0.3236 -0.6342
 7642SOL    HW234386   0.299   3.146   5.029  2.0275  0.1282 -0.3771
 7643SOL     OW34387   0.228   0.771  17.616 -0.1856 -0.0384 -0.5452
 7643SOL    HW134388   0.174   0.822  17.676 -0.0516  1.2287 -1.5112
 7643SOL    HW234389   0.276   0.710  17.672 -1.5110 -2.5857 -2.1763
 7644SOL     OW34390   3.968   1.609   6.435  0.0203 -0.1424  0.1837
 7644SOL    HW134391   4.007   1.619   6.348 -1.8780  0.7632 -0.5568
 7644SOL    HW234392   4.026   1.672   6.478  0.2927  2.4381 -3.9524
 7645SOL     OW34393   3.320   1.926   8.358 -0.5730 -0.1167  0.5269
 7645SOL    HW134394   3.347   1.968   8.439  2.9118 -0.6790 -0.3680
 7645SOL    HW234395   3.290   1.996   8.300  2.0990 -1.6273 -2.6620
 7646SOL     OW34396   1.332   3.184   5.795 -0.3784 -0.2587 -0.6181
 7646SOL    HW134397   1.294   3.133   5.866  0.0475 -0.6834 -0.6972
 7646SOL    HW234398   1.310   3.275   5.815 -0.0227 -0.0482 -1.1946
 7647SOL     OW34399   0.565   4.036  13.630 -0.4247  0.0173  0.5787
 7647SOL    HW134400   0.576   4.104  13.563 -1.1316 -0.0302  0.4096
 7647SOL    HW234401   0.529   4.084  13.704 -3.2891 -0.1826 -0.6833
 7648SOL     OW34402   3.312   1.875   5.442  0.2566 -0.4472 -0.2714
 7648SOL    HW134403   3.324   1.967   5.467 -0.5524 -0.5566  0.4928
 7648SOL    HW234404   3.241   1.889   5.378 -0.1200  1.6642  0.6135
 7649SOL     OW34405   4.300   4.456  10.936 -0.0447 -0.3572 -0.2268
 7649SOL    HW134406   4.359   4.492  10.870 -0.5774 -0.2360 -0.6415
 7649SOL    HW234407   4.231   4.521  10.949  0.6624  0.8489 -2.4267
 7650SOL     OW34408   1.712   1.218   2.199  0.4479 -0.0103 -0.1780
 7650SOL    HW134409   1.708   1.223   2.295  2.9243 -0.7573 -0.0256
 7650SOL    HW234410   1.805   1.230   2.180  0.9813 -5.2138 -0.9617
 7651SOL     OW34411   4.220   2.546   7.951 -0.2500  0.5028  0.0469
 7651SOL    HW134412   4.265   2.520   8.032 -1.5541 -0.6906  0.3805
 7651SOL    HW234413   4.140   2.494   7.948  0.4226 -0.5265 -0.0211
 7652SOL     OW34414   0.635   2.775  10.814  0.1444 -0.0875  0.2549
 7652SOL    HW134415   0.679   2.778  10.729 -0.8657 -2.2830 -0.3504
 7652SOL    HW234416   0.708   2.750  10.870  0.6917 -1.5757 -1.0902
 7653SOL     OW34417   1.894   1.632   4.650 -0.4508 -0.6063 -0.2908
 7653SOL    HW134418   1.944   1.550   4.643  0.8326  0.2691 -1.4127
 7653SOL    HW234419   1.906   1.653   4.743 -0.1119  0.2575 -0.5309
 7654SOL     OW34420   0.322   3.774   9.504 -0.3710 -0.0831  0.0741
 7654SOL    HW134421   0.249   3.741   9.557  0.3175  0.1627  1.1692
 7654SOL    HW234422   0.332   3.703   9.441 -0.3354  0.7177 -0.8167
 7655SOL     OW34423   0.621   3.100   0.626 -0.3927 -0.0139  0.7870
 7655SOL    HW134424   0.715   3.113   0.640 -0.1616  1.5235 -2.0474
 7655SOL    HW234425   0.587   3.081   0.713 -1.8951 -1.2237 -0.0612
 7656SOL     OW34426   2.317   2.470  17.312 -0.6399 -0.7449  0.5125
 7656SOL    HW134427   2.282   2.523  17.241 -0.4414  1.4133  2.0237
 7656SOL    HW234428   2.398   2.444  17.267 -1.0592  1.5079 -1.4967
 7657SOL     OW34429   3.949   2.684   4.312  0.3963 -0.3436  0.3445
 7657SOL    HW134430   3.932   2.733   4.232 -2.8381 -1.5190  0.2992
 7657SOL    HW234431   4.013   2.616   4.290  2.4232  0.7306  3.0208
 7658SOL     OW34432   3.851   0.005   7.282  0.0059 -0.2426  0.3126
 7658SOL    HW134433   3.782   0.040   7.226  1.1077 -1.0940 -1.5609
 7658SOL    HW234434   3.911   0.079   7.280  0.4794 -0.6630 -0.9252
 7659SOL     OW34435   1.852   1.576   7.284  0.0145 -0.4385  0.4224
 7659SOL    HW134436   1.855   1.667   7.255 -0.1162 -0.0986  1.4805
 7659SOL    HW234437   1.769   1.576   7.332 -0.8066 -0.1022 -0.9748
 7660SOL     OW34438   0.242   3.174   5.445  0.9395  0.2721 -0.1567
 7660SOL    HW134439   0.188   3.101   5.417  1.5187 -0.1014 -0.3065
 7660SOL    HW234440   0.314   3.121   5.479  1.6073  0.7799 -0.7811
 7661SOL     OW34441   4.223   0.623   1.466  0.9723  0.0234  0.5177
 7661SOL    HW134442   4.248   0.592   1.379 -1.1972  0.3918 -0.2174
 7661SOL    HW234443   4.179   0.704   1.441 -0.1402 -0.9406 -0.6408
 7662SOL     OW34444   0.175   4.476  16.150 -0.4303  0.0114 -0.1276
 7662SOL    HW134445   0.147   4.394  16.109 -0.6510  0.8025 -1.5372
 7662SOL    HW234446   0.148   4.542  16.087  2.6443  1.3768 -0.0048
 7663SOL     OW34447   1.792   2.017   5.013  0.0514 -0.0941  0.2691
 7663SOL    HW134448   1.730   1.944   5.022  1.6570 -1.3342  1.2712
 7663SOL    HW234449   1.730   2.082   5.046 -0.8985 -1.5063  1.2940
 7664SOL     OW34450   1.725   3.861   7.042 -0.3621  0.3474 -0.3469
 7664SOL    HW134451   1.667   3.936   7.028 -0.1567  0.3484 -1.1975
 7664SOL    HW234452   1.704   3.841   7.133 -2.5822 -0.7430 -1.0932
 7665SOL     OW34453   2.434   4.661   2.774 -0.4700  0.0379  0.6709
 7665SOL    HW134454   2.527   4.637   2.777 -0.4492  0.2481  1.5869
 7665SOL    HW234455   2.417   4.617   2.857  0.8464 -2.9122 -0.5956
 7666SOL     OW34456   0.647   2.515  13.876 -0.0686  0.0625  0.2527
 7666SOL    HW134457   0.628   2.426  13.848 -0.0976 -0.0226  0.5450
 7666SOL    HW234458   0.626   2.571  13.801  2.1322 -2.4428 -2.2291
 7667SOL     OW34459   3.232   3.240   5.222 -0.1658  0.0002 -0.1659
 7667SOL    HW134460   3.229   3.145   5.229  1.1866 -0.0538 -0.2178
 7667SOL    HW234461   3.286   3.243   5.143  0.3624 -0.1883  0.1883
 7668SOL     OW34462   2.662   1.198  14.926 -0.6964  0.0769 -0.1597
 7668SOL    HW134463   2.752   1.171  14.947 -0.5278  0.1589 -0.7880
 7668SOL    HW234464   2.619   1.116  14.951 -0.8189  0.3770  0.6180
 7669SOL     OW34465   1.513   0.822  11.972 -0.2142  0.6182 -0.3216
 7669SOL    HW134466   1.514   0.851  11.881  0.6243 -0.4460 -0.6512
 7669SOL    HW234467   1.420   0.808  11.989  0.4141 -0.6740  2.1318
 7670SOL     OW34468   2.645   3.076   4.296  0.3782 -0.0550  0.4745
 7670SOL    HW134469   2.591   3.070   4.217 -1.6091  0.9016  1.7656
 7670SOL    HW234470   2.680   3.165   4.287 -1.1314  0.4255 -0.6374
 7671SOL     OW34471   0.135   3.479   4.108  0.6735  0.5183  0.3317
 7671SOL    HW134472   0.126   3.572   4.129 -0.8056 -0.0691  2.3270
 7671SOL    HW234473   0.090   3.440   4.183 -2.7343 -1.1056 -2.5932
 7672SOL     OW34474   3.789   1.023   2.006 -0.5395  0.2638 -0.5374
 7672SOL    HW134475   3.805   1.118   2.002 -1.5748  0.4841  0.5229
 7672SOL    HW234476   3.861   0.984   2.056 -1.1042 -1.4416 -1.0688
 7673SOL     OW34477   4.129   2.501   1.564  0.0668  0.4391  0.5693
 7673SOL    HW134478   4.201   2.557   1.536 -1.2753  0.8032 -2.1246
 7673SOL    HW234479   4.068   2.526   1.495 -1.3799  0.1272  1.7249
 7674SOL     OW34480   4.219   4.593   5.471  0.3317  0.2075  0.0880
 7674SOL    HW134481   4.248   4.544   5.394 -2.5960 -1.9476  0.3523
 7674SOL    HW234482   4.193   4.523   5.532 -0.3008  0.3744  0.0155
 7675SOL     OW34483   1.291   3.968   3.110  0.6181 -0.3496 -0.5147
 7675SOL    HW134484   1.276   3.902   3.178 -1.3099 -1.0702 -1.6169
 7675SOL    HW234485   1.227   4.030   3.145  3.5485  1.5783  1.3523
 7676SOL     OW34486   3.544   2.703   8.420  0.2711 -0.4418  0.2922
 7676SOL    HW134487   3.534   2.682   8.512 -1.2616 -0.4486  0.1337
 7676SOL    HW234488   3.479   2.774   8.419  1.1088  0.3083 -1.5900
 7677SOL     OW34489   0.890   0.666   7.293 -0.1510  0.0077 -0.3530
 7677SOL    HW134490   0.973   0.713   7.301  1.0145 -2.0695 -0.1467
 7677SOL    HW234491   0.840   0.711   7.225  1.0667  1.6409 -0.1590
 7678SOL     OW34492   4.074   3.400   2.931  0.3869  0.8216  0.4574
 7678SOL    HW134493   4.156   3.368   2.968 -0.0635  0.0999  0.8225
 7678SOL    HW234494   4.086   3.408   2.837  0.7607  0.1204  0.4515
 7679SOL     OW34495   1.590   3.752   1.528 -0.6978  0.1214  0.0477
 7679SOL    HW134496   1.571   3.747   1.434  0.3522  0.6060 -0.1858
 7679SOL    HW234497   1.679   3.786   1.523 -0.4425 -0.8388 -1.9421
 7680SOL     OW34498   4.364   1.826  13.221 -0.3617  0.3140 -0.3636
 7680SOL    HW134499   4.288   1.879  13.246 -0.7880 -1.1179  1.3546
 7680SOL    HW234500   4.354   1.741  13.264  0.0840  1.5705  2.2692
 7681SOL     OW34501   1.255   4.179   4.147 -0.2988 -0.0883 -0.8082
 7681SOL    HW134502   1.186   4.176   4.080 -2.0369  1.8322  0.9029
 7681SOL    HW234503   1.200   4.138   4.213  0.0975  0.1416 -0.3391
 7682SOL     OW34504   0.299   3.230   5.732  0.0079  0.0354 -0.6189
 7682SOL    HW134505   0.346   3.170   5.791  1.1550  0.4754 -1.0858
 7682SOL    HW234506   0.361   3.303   5.723 -1.5943  1.5097  0.3816
 7683SOL     OW34507   2.621   0.662   6.653 -0.3890  0.0639  0.0128
 7683SOL    HW134508   2.548   0.698   6.601 -3.2385 -4.0740  1.1512
 7683SOL    HW234509   2.635   0.575   6.617 -2.2601 -0.6119  0.9098
 7684SOL     OW34510   0.350   1.716  14.628 -0.0468  0.5058  0.6215
 7684SOL    HW134511   0.371   1.662  14.704 -1.8929 -1.3509 -0.1963
 7684SOL    HW234512   0.273   1.760  14.664  0.1085 -0.6281  2.3577
 7685SOL     OW34513   1.151   0.755  16.922 -0.0687 -0.2020 -0.1577
 7685SOL    HW134514   1.141   0.675  16.870  1.1933 -1.7272  1.9576
 7685SOL    HW234515   1.135   0.821  16.855 -0.5661  1.1260  1.2834
 7686SOL     OW34516   2.022   1.300   6.152 -0.0761 -0.5783  0.0824
 7686SOL    HW134517   2.068   1.318   6.070 -0.3743 -0.8020 -0.1343
 7686SOL    HW234518   2.016   1.205   6.144  4.2991 -0.7981 -0.6013
 7687SOL     OW34519   1.229   2.857   6.882 -0.2863 -0.1254  0.0401
 7687SOL    HW134520   1.185   2.785   6.837 -0.6075 -1.0189  1.7869
 7687SOL    HW234521   1.254   2.813   6.963  1.1866  0.3085 -0.1868
 7688SOL     OW34522   1.243   4.018   2.004  0.7053 -0.1446  0.5076
 7688SOL    HW134523   1.323   4.070   2.008 -0.0678  0.9905  1.0667
 7688SOL    HW234524   1.183   4.079   1.963  0.4050 -2.0104 -1.8058
 7689SOL     OW34525   4.059   3.015   4.565  0.6009 -0.1739 -0.4534
 7689SOL    HW134526   4.099   2.979   4.485  1.1139  0.4943 -0.4924
 7689SOL    HW234527   4.112   2.976   4.634  0.9575  0.4899 -0.3579
 7690SOL     OW34528   1.228   1.349   6.397  0.8878  0.3689 -0.5813
 7690SOL    HW134529   1.294   1.321   6.335  0.2378  0.5695 -1.3662
 7690SOL    HW234530   1.224   1.443   6.378  3.0257  0.7767  1.0398
 7691SOL     OW34531   2.220   3.391   4.226  0.1604 -0.6080  0.1918
 7691SOL    HW134532   2.254   3.416   4.140 -1.4954 -2.5560 -1.0197
 7691SOL    HW234533   2.128   3.384   4.202  0.5455 -2.6755 -0.6238
 7692SOL     OW34534   4.576   1.816   6.899 -0.0985  0.3216  0.3865
 7692SOL    HW134535   4.545   1.774   6.980  1.1452 -0.9049  0.2221
 7692SOL    HW234536   4.494   1.850   6.864  0.4603 -0.2948 -1.5128
 7693SOL     OW34537   2.938   2.986  15.111  0.3218  0.1567  0.9049
 7693SOL    HW134538   3.000   2.964  15.181 -0.9943 -0.6365  1.8086
 7693SOL    HW234539   2.913   2.901  15.076 -1.0227  0.8751  0.1384
 7694SOL     OW34540   3.398   1.343   2.445  0.2173 -0.5082  0.4564
 7694SOL    HW134541   3.337   1.280   2.406  0.9789 -0.7949 -0.2737
 7694SOL    HW234542   3.471   1.285   2.467  0.0456 -0.9531 -0.1614
 7695SOL     OW34543   1.960   2.676  15.090 -0.3253  0.7546  0.6735
 7695SOL    HW134544   1.957   2.705  15.181  3.4044  2.3394  0.2679
 7695SOL    HW234545   1.910   2.594  15.094 -0.0680  0.4866 -1.5344
 7696SOL     OW34546   2.922   0.247  13.293 -0.1654  0.6911  0.6040
 7696SOL    HW134547   2.887   0.176  13.347 -3.4017  2.1392  0.3825
 7696SOL    HW234548   2.927   0.313  13.362  2.5928  2.2267 -1.0634
 7697SOL     OW34549   1.509   4.053   4.136  0.1904 -0.3417  0.3139
 7697SOL    HW134550   1.500   3.961   4.113 -0.8118 -0.2092  0.1823
 7697SOL    HW234551   1.418   4.082   4.127  1.0033  2.4121  0.8009
 7698SOL     OW34552   2.540   1.090   8.651 -0.1208 -0.6475  0.0113
 7698SOL    HW134553   2.467   1.091   8.713  0.0388 -0.9907  0.2043
 7698SOL    HW234554   2.498   1.081   8.566 -0.0002  2.4818 -0.3906
 7699SOL     OW34555   3.195   1.738   5.752 -0.1332  0.0507 -0.3874
 7699SOL    HW134556   3.232   1.823   5.777 -1.4066  0.0680  1.4867
 7699SOL    HW234557   3.162   1.754   5.664 -0.0285  0.7393 -0.3011
 7700SOL     OW34558   0.123   1.741   5.569  0.0094 -0.1434 -0.1395
 7700SOL    HW134559   0.123   1.657   5.522 -0.2493 -1.0500  1.4909
 7700SOL    HW234560   0.039   1.775   5.540 -0.3507  0.5237  1.7542
 7701SOL     OW34561   2.027   3.300   7.605 -0.4060 -0.0131  0.7254
 7701SOL    HW134562   2.000   3.308   7.513  1.3776 -2.3084 -0.0066
 7701SOL    HW234563   2.026   3.385   7.649  1.3344 -0.2474  1.2120
 7702SOL     OW34564   1.398   4.089  12.128 -0.4221 -0.3535  0.4444
 7702SOL    HW134565   1.442   4.138  12.198 -1.5655 -1.7617  2.1543
 7702SOL    HW234566   1.454   4.019  12.095  0.6667  0.0609  1.4307
 7703SOL     OW34567   4.211   2.393  13.319 -0.3889 -0.3173  0.3942
 7703SOL    HW134568   4.284   2.429  13.268 -0.1704 -2.1875 -0.6052
 7703SOL    HW234569   4.238   2.425  13.406 -1.3660  0.2058  0.5118
 7704SOL     OW34570   3.531   1.426   3.986 -0.0984 -0.2301  0.4772
 7704SOL    HW134571   3.618   1.400   4.018 -0.0995 -3.3896 -2.2132
 7704SOL    HW234572   3.478   1.361   4.031 -1.3379 -0.2083 -0.9620
 7705SOL     OW34573   4.279   0.946   9.404 -0.3375 -0.0845  0.0192
 7705SOL    HW134574   4.339   0.933   9.477  0.0824  3.5132  0.3070
 7705SOL    HW234575   4.221   1.005   9.451 -1.2383 -1.1940  0.3145
 7706SOL     OW34576   2.946   3.161   4.578  0.3783 -0.4922 -0.3158
 7706SOL    HW134577   2.873   3.136   4.634  2.9861 -2.8517  2.0175
 7706SOL    HW234578   2.941   3.077   4.533  1.4916 -0.0869 -1.2366
 7707SOL     OW34579   1.850   4.401  16.193 -0.3543  0.2776 -0.6316
 7707SOL    HW134580   1.809   4.418  16.109  2.0674  0.6450 -1.7186
 7707SOL    HW234581   1.795   4.456  16.249  1.5381  0.9919  0.5251
 7708SOL     OW34582   2.251   3.032   3.215  0.0575  0.3232 -0.5603
 7708SOL    HW134583   2.255   2.997   3.126 -0.1302  1.0127 -0.8430
 7708SOL    HW234584   2.343   3.048   3.235  0.1572 -0.4474 -0.4163
 7709SOL     OW34585   4.046   4.516   8.184  0.2272  0.3389  0.5947
 7709SOL    HW134586   4.055   4.611   8.183  1.5282  0.2326  2.2819
 7709SOL    HW234587   4.026   4.502   8.091 -0.7729 -0.0684  0.8770
 7710SOL     OW34588   0.604   0.787  10.252 -0.1216  0.0226  0.0031
 7710SOL    HW134589   0.566   0.700  10.236 -0.0839  0.2933 -1.5613
 7710SOL    HW234590   0.548   0.824  10.320  0.5548 -1.8209  1.5498
 7711SOL     OW34591   2.163   3.718  12.745 -0.1027 -0.2174  0.0563
 7711SOL    HW134592   2.185   3.641  12.798  0.1233  1.0936  1.8578
 7711SOL    HW234593   2.117   3.779  12.803  0.3862  0.2690 -0.0744
 7712SOL     OW34594   2.219   2.631   8.423 -0.3675  0.4933 -0.2456
 7712SOL    HW134595   2.159   2.565   8.455  1.1954 -1.1652 -0.7000
 7712SOL    HW234596   2.164   2.670   8.355  0.9718  3.6872  0.5176
 7713SOL     OW34597   0.901   2.664   7.997 -0.5556 -0.1275 -0.3650
 7713SOL    HW134598   0.812   2.689   7.970 -0.6152 -0.3204 -0.3475
 7713SOL    HW234599   0.941   2.746   7.967 -1.4282  0.4640  0.0668
 7714SOL     OW34600   0.584   2.898   3.437 -0.4567  0.0686 -0.1865
 7714SOL    HW134601   0.498   2.932   3.410 -1.0215  0.2758  1.8800
 7714SOL    HW234602   0.603   2.841   3.363 -1.0593 -0.6030  0.1647
 7715SOL     OW34603   4.190   3.152   6.182 -0.2928 -0.1126  0.1071
 7715SOL    HW134604   4.121   3.208   6.218 -0.7780  0.3418 -1.5184
 7715SOL    HW234605   4.174   3.161   6.088 -0.7119  1.0246  0.2862
 7716SOL     OW34606   1.311   0.650   4.399  0.0871  0.3547 -0.4293
 7716SOL    HW134607   1.389   0.595   4.393 -0.3068 -0.1893 -0.5689
 7716SOL    HW234608   1.335   0.694   4.481 -3.7548 -1.6682  1.7985
 7717SOL     OW34609   2.344   3.025  12.031  0.2285 -0.4576 -0.4196
 7717SOL    HW134610   2.318   2.943  11.990  0.3765 -0.3101 -0.8090
 7717SOL    HW234611   2.258   3.050  12.065  0.5671  1.5284 -1.0201
 7718SOL     OW34612   1.568   3.722   8.153 -0.2172  0.0130  0.0743
 7718SOL    HW134613   1.621   3.801   8.150  0.7187 -0.5503  1.7600
 7718SOL    HW234614   1.614   3.673   8.221  0.8230  0.7937 -0.0751
 7719SOL     OW34615   1.033   3.132   6.023  0.2040 -0.4062  0.0751
 7719SOL    HW134616   0.989   3.070   6.081  1.2012 -1.1245  0.0620
 7719SOL    HW234617   1.085   3.186   6.082 -0.9438  0.9418 -0.1368
 7720SOL     OW34618   4.616   3.612   4.380 -0.2267  0.1321 -0.4203
 7720SOL    HW134619   4.589   3.548   4.313 -0.2677  0.1978 -0.4665
 7720SOL    HW234620   4.537   3.629   4.432  0.2571  1.3636 -0.1056
 7721SOL     OW34621   0.469   3.982   4.773  0.4585  0.5049 -0.6221
 7721SOL    HW134622   0.450   4.017   4.686  0.3239 -1.5166 -1.4097
 7721SOL    HW234623   0.384   3.960   4.810  0.2601  0.1061 -1.3181
 7722SOL     OW34624   3.524   0.004   8.676  0.5772 -0.5109 -0.0899
 7722SOL    HW134625   3.491   0.093   8.693 -0.1498 -0.9218  0.6754
 7722SOL    HW234626   3.617   0.012   8.699  0.7715  1.1355 -1.4714
 7723SOL     OW34627   4.203   2.154   2.996 -0.1934  0.2248 -0.1809
 7723SOL    HW134628   4.256   2.123   2.922  1.0307  3.5067 -0.6806
 7723SOL    HW234629   4.172   2.067   3.022  0.3264 -0.0211 -0.3679
 7724SOL     OW34630   3.211   3.739   4.844 -0.8527  0.1370  0.0622
 7724SOL    HW134631   3.218   3.708   4.753 -0.6185 -0.7242  0.3753
 7724SOL    HW234632   3.241   3.662   4.892 -1.4270 -0.2557 -0.2040
 7725SOL     OW34633   3.823   0.863   0.407  0.3228  0.2487 -0.1177
 7725SOL    HW134634   3.809   0.830   0.318 -0.0143  1.7253 -0.6010
 7725SOL    HW234635   3.876   0.942   0.394 -0.5603  1.0947  1.4253
 7726SOL     OW34636   0.845   3.117   7.233 -0.3700  0.0762  0.0183
 7726SOL    HW134637   0.906   3.044   7.241 -0.4635  0.0136  0.1800
 7726SOL    HW234638   0.816   3.129   7.324 -3.3071 -0.4396 -0.8482
 7727SOL     OW34639   2.852   3.815  13.939 -0.0007  0.2179  0.4284
 7727SOL    HW134640   2.798   3.819  13.859 -2.7666 -1.6870  2.2216
 7727SOL    HW234641   2.800   3.772  14.006  0.6880  0.6788  1.2478
 7728SOL     OW34642   4.658   4.673  10.649  0.0323  0.0814 -0.4496
 7728SOL    HW134643   4.686   0.009  10.717 -0.5834 -0.1432  0.0051
 7728SOL    HW234644   4.695   4.723  10.576  0.0283  0.2997 -0.3032
 7729SOL     OW34645   3.502   4.440   5.203 -0.1877  0.0544  0.2922
 7729SOL    HW134646   3.461   4.479   5.280  1.8265  0.7646  1.0155
 7729SOL    HW234647   3.535   4.514   5.151  0.4495  0.8065  1.7869
 7730SOL     OW34648   1.178   3.754   9.395  0.5023 -0.4289 -0.0685
 7730SOL    HW134649   1.213   3.784   9.312  3.6825  2.3975  2.2992
 7730SOL    HW234650   1.259   3.716   9.430  1.2383  1.2832  0.0572
 7731SOL     OW34651   4.174   0.863   5.290 -0.6026 -0.1933  0.0700
 7731SOL    HW134652   4.238   0.800   5.259  0.4122  0.6157  0.5021
 7731SOL    HW234653   4.103   0.803   5.314 -0.5376  0.2118  1.2898
 7732SOL     OW34654   1.271   1.069   2.442 -0.1821 -0.1847  0.1710
 7732SOL    HW134655   1.339   1.065   2.375 -1.2299  0.0011 -0.9044
 7732SOL    HW234656   1.211   1.012   2.394 -0.2888 -0.0371  0.1275
 7733SOL     OW34657   4.537   1.080   2.811  0.4700  0.4022  0.0341
 7733SOL    HW134658   4.519   1.100   2.903 -1.2681 -0.3812 -0.1444
 7733SOL    HW234659   4.576   1.159   2.773  1.0307  0.6710  1.1477
 7734SOL     OW34660   0.576   0.672   8.985  0.2602 -0.6114 -0.0045
 7734SOL    HW134661   0.598   0.678   8.892 -3.1627  1.4267 -0.6671
 7734SOL    HW234662   0.583   0.763   9.013 -1.0421 -0.5120 -0.0128
 7735SOL     OW34663   0.011   0.744  11.704  0.5144  0.5436 -0.0760
 7735SOL    HW134664   0.026   0.821  11.649 -0.3842  1.4977  1.0163
 7735SOL    HW234665   4.648   0.769  11.731 -1.0059 -1.6176 -2.9623
 7736SOL     OW34666   3.142   0.298   4.477 -0.2760  0.0382  0.8176
 7736SOL    HW134667   3.056   0.300   4.436  0.6189  0.3598 -1.0625
 7736SOL    HW234668   3.194   0.351   4.416 -1.7241  1.4244  0.7912
 7737SOL     OW34669   1.815   1.895  14.585 -0.1575 -0.2334  0.5544
 7737SOL    HW134670   1.807   1.975  14.637  2.4987 -0.0188  0.6232
 7737SOL    HW234671   1.729   1.891  14.545 -0.5250  1.5116  1.1526
 7738SOL     OW34672   0.917   0.130   0.752  0.4924 -0.0523  0.8092
 7738SOL    HW134673   0.841   0.076   0.726  0.6908  0.3662 -0.6600
 7738SOL    HW234674   0.895   0.148   0.843 -1.6809 -0.0420  0.3028
 7739SOL     OW34675   2.712   1.388  17.654  0.2701  0.3813 -0.2624
 7739SOL    HW134676   2.705   1.302  17.695 -3.4124  0.1137 -1.4667
 7739SOL    HW234677   2.676   1.371  17.567 -1.6793 -1.7984  0.9787
 7740SOL     OW34678   2.576   4.311   4.373  0.3140  0.2298  0.5743
 7740SOL    HW134679   2.606   4.386   4.323 -0.3398 -0.8003 -1.3691
 7740SOL    HW234680   2.644   4.250   4.345  0.4080  1.6225 -2.1931
 7741SOL     OW34681   2.744   0.934  11.755 -0.0477  0.8941 -0.1000
 7741SOL    HW134682   2.830   0.917  11.793  0.1544 -0.7814 -1.3091
 7741SOL    HW234683   2.758   1.016  11.707 -0.8049  1.3336  0.4328
 7742SOL     OW34684   1.423   3.967   9.384  0.3714 -0.1397 -0.1044
 7742SOL    HW134685   1.497   3.907   9.380  1.8263  1.5347  1.5612
 7742SOL    HW234686   1.412   3.985   9.477  1.4759 -1.5340  0.2878
 7743SOL     OW34687   2.039   0.570   5.704 -0.1116  0.0267 -0.2226
 7743SOL    HW134688   2.002   0.657   5.721 -1.3660 -1.0541  2.4901
 7743SOL    HW234689   2.121   0.594   5.660 -0.8876  1.5375 -0.8461
 7744SOL     OW34690   3.034   3.001   6.946 -0.2341  0.8346  0.1046
 7744SOL    HW134691   3.106   2.937   6.946 -1.2817 -0.3343 -0.3282
 7744SOL    HW234692   3.082   3.071   6.990  0.0648  0.3718  0.5234
 7745SOL     OW34693   2.427   4.095  16.974  0.2229 -0.1701 -0.7470
 7745SOL    HW134694   2.468   4.010  16.991  2.4425  0.9814 -0.3036
 7745SOL    HW234695   2.442   4.143  17.056 -0.6964 -2.9469  1.0525
 7746SOL     OW34696   4.066   2.397   7.183 -0.3488 -0.5821  0.3088
 7746SOL    HW134697   4.093   2.408   7.092  0.0963  0.3685  0.5597
 7746SOL    HW234698   4.121   2.461   7.227 -1.4020 -0.2727  1.1585
 7747SOL     OW34699   4.249   3.517   3.533 -0.4902 -0.4798 -0.2866
 7747SOL    HW134700   4.292   3.493   3.451  0.7330  2.9022 -0.6549
 7747SOL    HW234701   4.187   3.576   3.491 -0.9935  0.5041  1.7921
 7748SOL     OW34702   1.204   0.657   5.514 -0.2448 -0.5815  0.4305
 7748SOL    HW134703   1.163   0.626   5.595  1.2283 -0.7070  1.1310
 7748SOL    HW234704   1.276   0.713   5.544 -1.3599  0.9465  0.2401
 7749SOL     OW34705   2.757   1.806  13.874 -0.0705  0.1763  0.4691
 7749SOL    HW134706   2.711   1.837  13.796  1.5761 -0.0129 -0.5899
 7749SOL    HW234707   2.837   1.858  13.867  0.7225 -1.2716 -1.3340
 7750SOL     OW34708   1.326   3.117  13.316 -0.2215  0.0183 -0.3920
 7750SOL    HW134709   1.243   3.103  13.361 -0.0545 -1.2795 -0.5102
 7750SOL    HW234710   1.384   3.111  13.392 -3.0612  0.2490  1.7970
 7751SOL     OW34711   0.422   2.933   0.502 -0.1168  0.0419  0.1163
 7751SOL    HW134712   0.368   3.006   0.472 -0.8301 -1.2826 -1.8872
 7751SOL    HW234713   0.499   2.981   0.531  1.0974 -0.2277 -2.6381
 7752SOL     OW34714   2.028   1.048   9.922 -0.3907  0.3046 -0.4806
 7752SOL    HW134715   2.105   1.043   9.978 -0.1860  0.8207 -0.7138
 7752SOL    HW234716   1.982   1.125   9.957 -0.4535  0.3835 -0.7326
 7753SOL     OW34717   3.505   2.322   7.611  0.2156  0.1067 -0.5317
 7753SOL    HW134718   3.550   2.275   7.541  0.9405  3.2572 -2.1971
 7753SOL    HW234719   3.445   2.254   7.641  0.1477  0.7367  0.7931
 7754SOL     OW34720   2.431   3.715   1.479 -0.5702 -0.4133 -0.1186
 7754SOL    HW134721   2.381   3.681   1.404  0.6996  2.0656 -2.0844
 7754SOL    HW234722   2.520   3.711   1.445 -0.9237 -0.4486 -1.0392
 7755SOL     OW34723   2.964   4.334   2.401  0.5522  0.0574  0.3613
 7755SOL    HW134724   2.876   4.361   2.427  0.1570 -2.0302  1.1882
 7755SOL    HW234725   2.979   4.393   2.327  0.6718  1.9398  1.8706
 7756SOL     OW34726   1.905   2.966   7.810  0.0167 -0.1437  0.2654
 7756SOL    HW134727   1.886   2.967   7.903  0.0020 -0.3614  0.2642
 7756SOL    HW234728   1.979   2.905   7.809  0.5385  0.4790  1.0728
 7757SOL     OW34729   0.498   4.186   6.103  0.5803  0.5108  0.1596
 7757SOL    HW134730   0.567   4.120   6.094  1.1916  1.2519 -0.5243
 7757SOL    HW234731   0.441   4.152   6.035  1.0605 -0.6294  0.3229
 7758SOL     OW34732   2.566   2.256  11.310  0.2476  0.6779 -0.4405
 7758SOL    HW134733   2.560   2.288  11.400  2.3564 -0.2662  0.0265
 7758SOL    HW234734   2.573   2.341  11.268 -3.0443  0.4510 -1.4812
 7759SOL     OW34735   4.718   0.948   6.936 -0.7106  0.0357 -0.1044
 7759SOL    HW134736   4.659   0.881   6.971  1.9929 -3.0061 -1.2843
 7759SOL    HW234737   4.711   1.020   6.998 -0.8017 -0.8996  0.9780
 7760SOL     OW34738   1.806   1.677  13.277  0.3935  0.6548 -0.1203
 7760SOL    HW134739   1.818   1.638  13.363  0.3320 -3.9491 -2.1873
 7760SOL    HW234740   1.789   1.768  13.300 -0.7672  0.7098 -1.1721
 7761SOL     OW34741   2.377   1.223   2.199 -0.1972  0.1245  0.6492
 7761SOL    HW134742   2.467   1.245   2.174  0.2388 -2.7510 -0.1999
 7761SOL    HW234743   2.379   1.273   2.281  0.0922 -0.4388  0.9846
 7762SOL     OW34744   3.475   4.063   2.300  0.3426  0.2131 -0.0888
 7762SOL    HW134745   3.381   4.059   2.314  0.1229  0.8890 -1.3888
 7762SOL    HW234746   3.498   4.147   2.340 -0.4386  0.0687  0.6540
 7763SOL     OW34747   1.656   1.497   9.139 -0.2512 -0.0196  0.3081
 7763SOL    HW134748   1.630   1.562   9.204  0.5606 -0.9389  1.5418
 7763SOL    HW234749   1.662   1.416   9.190  1.1732 -0.3725 -0.4047
 7764SOL     OW34750   1.995   1.510   3.192 -0.1755 -0.4406 -0.0580
 7764SOL    HW134751   2.062   1.486   3.128 -2.1656  3.4006 -3.6177
 7764SOL    HW234752   1.973   1.602   3.178  2.2979  0.2691  0.7173
 7765SOL     OW34753   3.111   3.350  10.906  0.0250 -0.2696  0.2063
 7765SOL    HW134754   3.104   3.412  10.978 -0.7675  0.8893 -0.8676
 7765SOL    HW234755   3.204   3.329  10.897  0.5641  2.2550 -0.1068
 7766SOL     OW34756   4.618   0.575  10.939 -0.2214 -0.2149  0.1526
 7766SOL    HW134757   4.711   0.559  10.957 -0.2850 -0.0131  0.6436
 7766SOL    HW234758   4.612   0.552  10.846  0.3737  3.2887 -0.7681
 7767SOL     OW34759   0.519   4.214   7.019  0.0587 -0.5700 -0.7505
 7767SOL    HW134760   0.477   4.130   7.034 -0.6023 -0.4374 -1.8635
 7767SOL    HW234761   0.461   4.259   6.957  0.8317  1.0055 -0.3401
 7768SOL     OW34762   2.439   2.980   5.533  0.4623  0.0074  0.0440
 7768SOL    HW134763   2.479   3.067   5.537 -1.3016  0.9825 -3.2615
 7768SOL    HW234764   2.359   2.999   5.484  0.1390 -0.5744  0.3592
 7769SOL     OW34765   3.817   2.160   1.178  0.4365  0.6259  0.0250
 7769SOL    HW134766   3.905   2.125   1.193 -0.5135 -1.2892  1.0779
 7769SOL    HW234767   3.763   2.137   1.254 -0.2249  1.3738 -0.2287
 7770SOL     OW34768   0.648   2.770   5.315  0.7929 -0.2564 -0.3745
 7770SOL    HW134769   0.671   2.832   5.246  2.4045 -1.6819 -1.1034
 7770SOL    HW234770   0.676   2.691   5.268 -1.0596 -1.6009  0.7763
 7771SOL     OW34771   4.402   4.566   3.730 -0.5958 -0.0411  0.0692
 7771SOL    HW134772   4.350   4.507   3.675 -2.7214 -0.3774  2.5039
 7771SOL    HW234773   4.330   4.593   3.786  1.1744  3.3038  0.6935
 7772SOL     OW34774   4.650   4.451  13.736 -0.0219  0.2335 -0.2870
 7772SOL    HW134775   4.663   4.545  13.752 -1.0452  0.1235  1.1885
 7772SOL    HW234776   0.001   4.422  13.785  0.5519  1.2790 -0.5466
 7773SOL     OW34777   4.321   2.564  11.494 -0.1034 -0.8293 -0.1258
 7773SOL    HW134778   4.410   2.577  11.529 -0.8661 -0.9184  1.8444
 7773SOL    HW234779   4.323   2.639  11.434  1.0467 -1.9259 -1.4627
 7774SOL     OW34780   0.719   0.564   6.932 -0.3471  0.0147  0.7282
 7774SOL    HW134781   0.641   0.558   6.987 -1.6663 -0.8278 -1.2255
 7774SOL    HW234782   0.703   0.489   6.874 -2.6728  1.7218 -0.8186
 7775SOL     OW34783   3.334   4.226   4.024 -0.5728  0.1615  0.3780
 7775SOL    HW134784   3.381   4.214   4.106  0.8492  0.0174 -0.4643
 7775SOL    HW234785   3.245   4.228   4.059 -1.0389  1.1742 -0.8497
 7776SOL     OW34786   1.663   3.997  11.825  0.1421  0.2112 -0.8477
 7776SOL    HW134787   1.612   3.953  11.892 -0.8551  3.4912  0.5696
 7776SOL    HW234788   1.743   3.945  11.826 -1.3487 -2.0346 -0.6465
 7777SOL     OW34789   0.854   1.094   8.384  0.7626  0.2369  0.2338
 7777SOL    HW134790   0.775   1.059   8.427  0.5899 -0.9729 -1.0584
 7777SOL    HW234791   0.898   1.014   8.355 -0.7182 -1.3463  2.2520
 7778SOL     OW34792   1.059   1.358   9.985 -0.6918 -0.6988 -1.0724
 7778SOL    HW134793   1.011   1.317   9.913 -2.0055 -2.1173  0.6062
 7778SOL    HW234794   1.078   1.287  10.047 -1.7148  0.4553  0.5539
 7779SOL     OW34795   3.768   1.783   8.644  0.1415 -0.6647 -0.1708
 7779SOL    HW134796   3.797   1.691   8.640  2.3814 -0.0080  0.9929
 7779SOL    HW234797   3.733   1.783   8.555  1.2179  2.5587 -0.5806
 7780SOL     OW34798   2.773   1.203   6.171 -0.1477  0.0315 -0.2676
 7780SOL    HW134799   2.864   1.203   6.143  0.0857 -4.5420  0.4346
 7780SOL    HW234800   2.723   1.191   6.090  2.7646  1.7146 -2.3036
 7781SOL     OW34801   2.592   0.331   3.591  0.1338 -0.1002 -0.1139
 7781SOL    HW134802   2.540   0.250   3.585 -1.1566  0.7696 -0.6643
 7781SOL    HW234803   2.519   0.391   3.578 -0.6814 -0.9450  0.5646
 7782SOL     OW34804   2.456   3.731  16.548  0.6577  0.2306 -0.2013
 7782SOL    HW134805   2.482   3.668  16.481 -0.8569 -0.2965 -0.2817
 7782SOL    HW234806   2.545   3.760  16.570  0.5107  2.2188 -2.1906
 7783SOL     OW34807   1.876   2.315   8.329  0.5953  0.0485  0.2374
 7783SOL    HW134808   1.900   2.388   8.271  1.6520 -0.8154 -0.4146
 7783SOL    HW234809   1.827   2.362   8.397  1.8760  2.3612 -0.4206
 7784SOL     OW34810   1.484   3.783   3.026 -0.2121  0.0225 -0.0660
 7784SOL    HW134811   1.538   3.828   2.961  2.2676 -2.4838  0.2929
 7784SOL    HW234812   1.417   3.848   3.049  0.4869  1.4255 -2.0260
 7785SOL     OW34813   1.726   0.328   4.339 -0.4259  0.4035  0.4483
 7785SOL    HW134814   1.815   0.334   4.373 -0.1359  0.6422 -0.3679
 7785SOL    HW234815   1.723   0.379   4.259  3.0316 -0.4152 -0.1844
 7786SOL     OW34816   1.257   3.970   8.245  0.6122  0.2210  0.5151
 7786SOL    HW134817   1.221   4.058   8.249 -0.6986 -0.2583 -1.3764
 7786SOL    HW234818   1.334   3.972   8.303  0.9567  1.9246 -0.0071
 7787SOL     OW34819   1.638   1.593   2.961 -0.2141  0.3988  0.5491
 7787SOL    HW134820   1.600   1.676   2.990 -1.7868 -0.6633  1.5246
 7787SOL    HW234821   1.596   1.538   3.027 -0.6542  1.8282  1.4528
 7788SOL     OW34822   4.239   0.978  15.331 -0.3389 -0.2235  0.0638
 7788SOL    HW134823   4.184   1.048  15.295 -1.0077 -0.3234  0.9016
 7788SOL    HW234824   4.312   1.032  15.361 -1.6074  1.1617  0.6696
 7789SOL     OW34825   3.831   4.527   8.901 -0.3487 -0.1374  0.4177
 7789SOL    HW134826   3.795   4.455   8.850 -1.3119  0.4909  0.2074
 7789SOL    HW234827   3.798   4.604   8.853  0.1402 -0.1877  0.0033
 7790SOL     OW34828   3.140   0.908   4.366  0.2189 -0.8727  0.1820
 7790SOL    HW134829   3.107   0.859   4.291  0.6537 -3.0049  1.3769
 7790SOL    HW234830   3.076   0.883   4.432  1.6550 -2.0537  1.1141
 7791SOL     OW34831   0.321   4.128   2.164  0.0057  0.4325 -0.0764
 7791SOL    HW134832   0.240   4.155   2.207 -0.8598 -0.3240 -1.2404
 7791SOL    HW234833   0.370   4.105   2.243 -1.4033  1.4326  1.0879
 7792SOL     OW34834   3.737   3.340   5.773 -0.0733 -0.1689 -0.9338
 7792SOL    HW134835   3.645   3.315   5.771 -0.7047  1.8519  2.2690
 7792SOL    HW234836   3.745   3.363   5.866  3.9351 -0.6894 -1.1302
 7793SOL     OW34837   3.241   4.457   3.727  0.2326 -0.0240  0.0441
 7793SOL    HW134838   3.321   4.411   3.752 -0.1141 -1.6480 -1.8785
 7793SOL    HW234839   3.202   4.391   3.669  0.0387  0.1393 -0.0131
 7794SOL     OW34840   0.333   2.676   8.429 -0.1918 -0.1242 -0.5981
 7794SOL    HW134841   0.408   2.661   8.486 -1.0351 -1.4107  0.1922
 7794SOL    HW234842   0.341   2.610   8.361 -1.1310  0.0597 -0.8929
 7795SOL     OW34843   3.429   3.717   6.702  0.3877 -0.2511 -0.0855
 7795SOL    HW134844   3.382   3.720   6.785  1.5114  0.5737  0.5289
 7795SOL    HW234845   3.501   3.779   6.711  1.4211 -1.5276  0.6129
 7796SOL     OW34846   3.685   3.448  13.215  0.0094 -0.3377 -0.0096
 7796SOL    HW134847   3.614   3.495  13.170  0.3962  2.0323  1.8139
 7796SOL    HW234848   3.673   3.465  13.309  0.9222  0.2159  0.0083
 7797SOL     OW34849   0.798   4.234   5.317 -0.1690 -0.3448  0.1475
 7797SOL    HW134850   0.782   4.183   5.238  0.3968  1.1718 -0.9404
 7797SOL    HW234851   0.885   4.197   5.332 -0.4764 -1.9799 -2.0507
 7798SOL     OW34852   2.723   1.996  11.286 -0.7411  0.0089  0.2644
 7798SOL    HW134853   2.817   1.978  11.283 -0.2800  2.0007  2.5290
 7798SOL    HW234854   2.690   1.938  11.218  1.0836  0.9083 -1.4019
 7799SOL     OW34855   2.462   3.049  11.524 -0.0220 -0.2237  0.3804
 7799SOL    HW134856   2.546   3.062  11.569 -0.1938  1.2296  0.2732
 7799SOL    HW234857   2.440   2.963  11.560  1.3191 -0.5243  0.4712
 7800SOL     OW34858   2.400   1.857   5.032  0.2113  0.1006  0.7590
 7800SOL    HW134859   2.483   1.888   4.997  0.8531  0.7315  2.8751
 7800SOL    HW234860   2.412   1.764   5.011 -0.3184 -0.3811  2.6485
 7801SOL     OW34861   3.288   4.304  13.126 -0.0351  0.1889 -0.3258
 7801SOL    HW134862   3.203   4.318  13.168  0.5018  1.1564  0.4328
 7801SOL    HW234863   3.275   4.244  13.052  3.5815 -1.5113  0.4249
 7802SOL     OW34864   1.541   0.507   3.474  0.6573 -0.3308  0.0085
 7802SOL    HW134865   1.469   0.527   3.535  0.2621  0.3944 -0.6965
 7802SOL    HW234866   1.528   0.580   3.413  1.8641 -0.5759 -0.5340
 7803SOL     OW34867   1.632   4.396   8.584 -0.3045 -0.1120  0.1462
 7803SOL    HW134868   1.637   4.408   8.489 -2.1998 -1.9360 -0.1912
 7803SOL    HW234869   1.660   4.481   8.617  2.0885 -0.5728 -0.7124
 7804SOL     OW34870   0.868   1.287   2.003  0.2484  0.5266 -0.4762
 7804SOL    HW134871   0.953   1.256   1.971 -1.8589 -4.5374 -1.1430
 7804SOL    HW234872   0.814   1.225   1.954 -0.6188  2.8061 -2.4187
 7805SOL     OW34873   3.886   0.161   2.258 -0.3121 -0.6283 -0.7260
 7805SOL    HW134874   3.790   0.163   2.266 -0.0896  1.3221  1.3738
 7805SOL    HW234875   3.895   0.066   2.253 -3.6425 -1.0051 -0.0100
 7806SOL     OW34876   1.539   0.052  11.768  0.1778  0.3897  0.0550
 7806SOL    HW134877   1.479   4.706  11.748 -1.3491  1.3636  1.1525
 7806SOL    HW234878   1.618   0.030  11.718  0.6746  1.0572  0.5386
 7807SOL     OW34879   2.319   3.686   5.378 -0.2526 -0.6179 -0.3609
 7807SOL    HW134880   2.374   3.659   5.305  2.4658 -0.2064  1.5332
 7807SOL    HW234881   2.384   3.731   5.433 -1.4768 -0.5709  1.0597
 7808SOL     OW34882   1.398   0.653   2.297  0.4015 -0.3808  0.2816
 7808SOL    HW134883   1.432   0.573   2.257 -0.4074 -0.6534  0.1438
 7808SOL    HW234884   1.417   0.724   2.235 -1.4125  0.0590  0.2441
 7809SOL     OW34885   4.664   2.472   0.442 -0.2290 -0.1973  0.0019
 7809SOL    HW134886   4.630   2.384   0.458 -0.5014  0.6199  3.7408
 7809SOL    HW234887   4.608   2.520   0.503  1.5278  1.3370  0.4025
 7810SOL     OW34888   4.254   0.776  12.677 -0.4269 -0.3091 -0.2182
 7810SOL    HW134889   4.247   0.781  12.773  0.1890 -0.0026 -0.1862
 7810SOL    HW234890   4.274   0.686  12.653 -0.1988 -0.0673 -0.9374
 7811SOL     OW34891   4.543   1.320  14.637  0.3049 -0.0201 -0.2329
 7811SOL    HW134892   4.533   1.410  14.607 -0.3917 -0.3477 -0.9591
 7811SOL    HW234893   4.457   1.282  14.625  0.0703 -0.4485  2.6743
 7812SOL     OW34894   1.060   3.906   9.941 -0.1004 -0.1543 -0.6777
 7812SOL    HW134895   1.122   3.953   9.997  0.2514 -0.4333 -0.8390
 7812SOL    HW234896   1.006   3.974   9.903  0.0187  0.4238  0.1753
 7813SOL     OW34897   3.591   2.791   3.942 -0.0190 -0.5052  0.2369
 7813SOL    HW134898   3.660   2.725   3.951  0.0493 -0.2333  1.7462
 7813SOL    HW234899   3.539   2.745   3.876 -1.6693 -0.5861  1.6178
 7814SOL     OW34900   1.752   2.883   4.735 -0.4940  0.1696 -0.2558
 7814SOL    HW134901   1.730   2.834   4.814 -1.0293 -2.0843 -1.7984
 7814SOL    HW234902   1.669   2.911   4.697 -1.8777 -2.8082  0.6118
 7815SOL     OW34903   2.300   0.517   0.883 -0.0609 -0.1129  0.1714
 7815SOL    HW134904   2.220   0.529   0.832 -0.0885  0.2218  0.2958
 7815SOL    HW234905   2.361   0.576   0.839  0.5119 -0.4886  0.4653
 7816SOL     OW34906   1.911   3.334   7.349  0.1999  0.3975  0.8306
 7816SOL    HW134907   1.973   3.348   7.278 -1.5568  1.6408 -0.4509
 7816SOL    HW234908   1.853   3.273   7.304 -0.6798  1.4461  0.5339
 7817SOL     OW34909   1.127   4.363   3.377  0.5042  0.0677  0.3292
 7817SOL    HW134910   1.163   4.452   3.371  0.5615 -0.0113 -0.5093
 7817SOL    HW234911   1.171   4.323   3.302 -0.0977 -0.5722  0.3207
 7818SOL     OW34912   4.609   4.464  12.679 -0.3527  0.3545  0.1361
 7818SOL    HW134913   4.666   4.433  12.749  0.4344  1.8416  0.1507
 7818SOL    HW234914   4.538   4.403  12.698  0.7707 -0.2850  2.2900
 7819SOL     OW34915   0.526   0.529  10.200  0.2965  0.2373 -0.4679
 7819SOL    HW134916   0.461   0.555  10.135 -0.4046  2.6800  1.2191
 7819SOL    HW234917   0.505   0.439  10.225  1.2775 -0.4898 -2.2544
 7820SOL     OW34918   2.097   1.084   0.189 -0.1387  0.3091 -0.6990
 7820SOL    HW134919   2.184   1.051   0.165  0.4607  0.9135  0.6593
 7820SOL    HW234920   2.046   1.006   0.213  0.5475  0.0029 -0.2350
 7821SOL     OW34921   2.484   0.439  15.752  0.0904  0.0229 -0.7785
 7821SOL    HW134922   2.546   0.476  15.690  0.8501  0.0642  0.0114
 7821SOL    HW234923   2.544   0.392  15.810 -2.9208 -0.1940  2.1934
 7822SOL     OW34924   2.491   1.939   8.914  0.4236  0.2739  0.0163
 7822SOL    HW134925   2.451   1.999   8.976  0.0994 -2.1426  2.1419
 7822SOL    HW234926   2.586   1.945   8.929  0.2111 -0.4064  1.6065
 7823SOL     OW34927   2.768   2.856   7.009  0.2363  0.5856  0.3250
 7823SOL    HW134928   2.858   2.879   6.986  0.6934 -2.1501 -0.5684
 7823SOL    HW234929   2.769   2.832   7.101  3.1146  0.3400  0.2202
 7824SOL     OW34930   4.055   1.736   1.704 -0.0884  0.0370  0.4721
 7824SOL    HW134931   4.128   1.772   1.755  1.3715 -0.2730 -1.4131
 7824SOL    HW234932   4.046   1.804   1.638  0.7444  1.2726  1.6103
 7825SOL     OW34933   3.495   1.112   4.690 -0.3469  0.2217  0.4769
 7825SOL    HW134934   3.513   1.188   4.635  1.3293 -0.3319  0.2697
 7825SOL    HW234935   3.452   1.066   4.618  0.7572 -1.0428  0.6162
 7826SOL     OW34936   2.490   4.229   7.003  0.1332 -1.0057 -0.0510
 7826SOL    HW134937   2.463   4.321   7.005  0.2695 -1.0117  2.7836
 7826SOL    HW234938   2.585   4.239   6.998  0.1379 -0.3751  1.0942
 7827SOL     OW34939   2.500   3.811   5.540 -0.2622 -0.0251  0.2677
 7827SOL    HW134940   2.552   3.870   5.486 -0.3484  1.0233  1.3344
 7827SOL    HW234941   2.565   3.765   5.593  0.8205  0.9744 -0.2016
 7828SOL     OW34942   2.745   1.058   4.772  0.5264  0.1244  0.1364
 7828SOL    HW134943   2.821   1.015   4.732 -1.8373 -1.2308 -2.9437
 7828SOL    HW234944   2.683   0.987   4.753  0.3187  0.7082 -1.3966
 7829SOL     OW34945   4.692   3.781   5.205 -0.2838 -0.6041  1.1706
 7829SOL    HW134946   4.725   3.695   5.229  0.0138 -0.4438  1.3431
 7829SOL    HW234947   0.050   3.821   5.176 -1.4391  2.0199  1.4330
 7830SOL     OW34948   4.425   3.922   9.830  0.3667  0.2230  0.3324
 7830SOL    HW134949   4.394   3.927   9.921 -0.0622 -3.3801  0.3483
 7830SOL    HW234950   4.349   3.891   9.782  0.7730 -0.8380  0.3753
 7831SOL     OW34951   2.705   1.984   2.715  0.1145 -0.1660 -0.5016
 7831SOL    HW134952   2.628   1.934   2.687 -0.8626 -0.2481  2.3082
 7831SOL    HW234953   2.744   2.018   2.634  2.2592 -1.3096  0.0740
 7832SOL     OW34954   2.090   4.572  16.168 -0.0238 -0.7798  0.3911
 7832SOL    HW134955   2.005   4.528  16.168 -0.7035  0.5420  2.6804
 7832SOL    HW234956   2.126   4.510  16.232 -0.6087 -1.6776 -0.1558
 7833SOL     OW34957   2.292   0.922   3.317  0.0212 -0.2638  0.3843
 7833SOL    HW134958   2.214   0.942   3.267 -0.4162  1.0608  1.5979
 7833SOL    HW234959   2.371   0.955   3.273 -0.1449 -0.7291 -0.2636
 7834SOL     OW34960   4.558   0.641   8.237  0.0287  0.0766  0.6902
 7834SOL    HW134961   4.527   0.552   8.258  1.6232 -0.7506 -0.4432
 7834SOL    HW234962   4.539   0.693   8.315 -1.0721  0.5150  0.1250
 7835SOL     OW34963   4.623   0.000   3.708  0.0453 -0.1660 -0.1419
 7835SOL    HW134964   4.557   4.665   3.743 -0.1059 -0.1929 -0.4793
 7835SOL    HW234965   4.596   4.717   3.617 -1.0872 -2.3248  0.3949
 7836SOL     OW34966   4.309   0.074   0.453 -0.2989 -0.0853 -0.6232
 7836SOL    HW134967   4.214   0.086   0.447 -0.1109  1.9907  0.4859
 7836SOL    HW234968   4.344   0.160   0.478 -3.2296  0.0936  2.8215
 7837SOL     OW34969   4.629   2.148   4.481  0.1783  0.5914  0.0972
 7837SOL    HW134970   4.686   2.223   4.465  0.1439  0.7076  0.5084
 7837SOL    HW234971   4.700   2.095   4.517  0.9047 -0.0022 -2.2220
 7838SOL     OW34972   2.709   4.134   6.438  0.4242 -0.5450  0.3737
 7838SOL    HW134973   2.656   4.097   6.508 -3.1030 -0.2306 -2.0975
 7838SOL    HW234974   2.649   4.190   6.387 -0.5224 -0.9239  1.0710
 7839SOL     OW34975   2.354   0.898   7.426 -0.6326  0.7613 -0.0299
 7839SOL    HW134976   2.373   0.913   7.333  0.9877  0.3862  0.2485
 7839SOL    HW234977   2.268   0.939   7.434 -1.1048 -0.4437  0.9655
 7840SOL     OW34978   1.721   1.887   0.100  0.5234 -0.0885  0.3107
 7840SOL    HW134979   1.652   1.937   0.056  0.3539 -1.9087 -1.4781
 7840SOL    HW234980   1.686   1.888   0.189 -0.2407  0.1379  0.0109
 7841SOL     OW34981   1.380   1.442   7.161  0.6902  0.0049  0.1482
 7841SOL    HW134982   1.343   1.456   7.248  1.0411 -0.3237  0.3456
 7841SOL    HW234983   1.347   1.515   7.108 -0.2386 -0.3166  0.2839
 7842SOL     OW34984   4.199   2.210  11.317  0.0512 -0.6616  0.4823
 7842SOL    HW134985   4.261   2.139  11.303  0.2272 -0.1627 -1.2450
 7842SOL    HW234986   4.119   2.172  11.281  1.2043 -1.6369 -1.0193
 7843SOL     OW34987   1.071   0.245   3.833 -0.1297 -0.0982  0.3455
 7843SOL    HW134988   1.075   0.163   3.883  1.8285 -0.2796 -0.1148
 7843SOL    HW234989   1.141   0.233   3.769  2.8193  4.7509  2.6625
 7844SOL     OW34990   4.262   2.641   1.840  1.1964 -0.4082 -0.7365
 7844SOL    HW134991   4.284   2.730   1.814 -0.0041  0.4848  1.3352
 7844SOL    HW234992   4.228   2.604   1.758 -1.4887 -3.5389  1.7819
 7845SOL     OW34993   3.926   4.643   2.554 -0.1247 -0.0922 -0.3258
 7845SOL    HW134994   3.984   4.570   2.575 -0.4083 -0.1156  0.3912
 7845SOL    HW234995   3.929   4.641   2.458 -0.3288  5.4348 -0.4115
 7846SOL     OW34996   1.062   1.905   0.670  0.5204  0.1915 -0.1516
 7846SOL    HW134997   0.970   1.882   0.679  0.1119  2.1066  0.5866
 7846SOL    HW234998   1.108   1.845   0.729  1.9264  3.2649  1.9136
 7847SOL     OW34999   0.123   3.719   3.884 -0.0146  0.3157  0.1487
 7847SOL    HW135000   0.157   3.718   3.974  1.0957  3.8988 -0.2281
 7847SOL    HW235001   0.048   3.778   3.886 -0.2183  0.0663 -0.1234
 7848SOL     OW35002   3.508   1.384  12.164  0.0983  0.4836  0.0721
 7848SOL    HW135003   3.579   1.408  12.105 -0.9276 -3.0869 -2.5727
 7848SOL    HW235004   3.555   1.330  12.228  1.2595  2.5816  0.9922
 7849SOL     OW35005   2.371   4.214   2.544  0.4392  0.1838 -0.4636
 7849SOL    HW135006   2.302   4.214   2.610  1.5626 -1.0669  0.7058
 7849SOL    HW235007   2.341   4.146   2.483 -1.4463 -0.2603  0.9629
 7850SOL     OW35008   0.652   2.496   6.056 -0.6362 -0.3090  0.2930
 7850SOL    HW135009   0.643   2.584   6.093  1.9274 -0.6114  1.5739
 7850SOL    HW235010   0.708   2.454   6.121  0.5392 -1.3677 -1.4137
 7851SOL     OW35011   3.499   3.629  16.065  0.3080 -0.2163  0.0757
 7851SOL    HW135012   3.512   3.643  15.971 -0.3585  1.8098  0.3043
 7851SOL    HW235013   3.539   3.542  16.071  0.6473 -0.1501 -1.2124
 7852SOL     OW35014   2.290   3.223   1.169  0.0425  0.2931  0.1291
 7852SOL    HW135015   2.197   3.233   1.150  0.0052  0.4938  0.4018
 7852SOL    HW235016   2.294   3.170   1.249 -0.8262  0.7329  0.4604
 7853SOL     OW35017   1.207   1.619   7.645 -0.0972  0.3935 -0.4741
 7853SOL    HW135018   1.161   1.537   7.628  3.6553 -2.2875  2.1690
 7853SOL    HW235019   1.136   1.682   7.632 -0.0503  0.4512 -0.4498
 7854SOL     OW35020   1.103   2.365   9.676 -1.0488 -0.6520  0.1378
 7854SOL    HW135021   1.195   2.347   9.660 -0.6311  0.7396  0.9679
 7854SOL    HW235022   1.063   2.318   9.603 -2.0533  0.9971 -0.3606
 7855SOL     OW35023   4.317   3.892   8.270 -0.2560  0.0259  0.6623
 7855SOL    HW135024   4.376   3.907   8.345  0.1060 -2.0537  0.7777
 7855SOL    HW235025   4.310   3.797   8.279  2.5780 -0.4191 -1.6353
 7856SOL     OW35026   0.823   3.846   7.843 -0.4123  0.0451 -0.1233
 7856SOL    HW135027   0.833   3.934   7.805  1.8808 -0.4018 -0.5148
 7856SOL    HW235028   0.745   3.864   7.896 -1.1388  1.8081 -1.7376
 7857SOL     OW35029   2.211   2.222   7.047 -0.2967  0.3118 -0.0741
 7857SOL    HW135030   2.128   2.201   7.004 -0.3291 -0.0555  0.1734
 7857SOL    HW235031   2.182   2.221   7.138  1.1463 -0.7335  0.3762
 7858SOL     OW35032   3.569   0.584   2.028  0.4170  0.4340  0.0135
 7858SOL    HW135033   3.481   0.557   2.002  2.2177 -2.0649 -3.4009
 7858SOL    HW235034   3.621   0.510   1.997 -1.0090 -0.6646  0.2013
 7859SOL     OW35035   0.941   2.018   6.337  0.0416 -0.0478  0.2450
 7859SOL    HW135036   0.935   2.043   6.245 -0.3850  1.0499  0.5711
 7859SOL    HW235037   0.921   2.098   6.386 -2.4430 -0.9766  0.7783
 7860SOL     OW35038   4.115   0.765   1.119  0.0667  0.4491  0.3047
 7860SOL    HW135039   4.096   0.795   1.208  3.2371 -0.5512  1.3260
 7860SOL    HW235040   4.088   0.831   1.057  2.1697 -0.8077 -1.9610
 7861SOL     OW35041   1.609   2.914   3.655 -0.8818  0.3773 -0.2212
 7861SOL    HW135042   1.700   2.942   3.643 -0.7084 -0.1484 -0.1621
 7861SOL    HW235043   1.621   2.828   3.696  1.7970  1.1495  0.6025
 7862SOL     OW35044   2.284   0.639   8.876 -0.5201 -0.0346  0.3601
 7862SOL    HW135045   2.212   0.627   8.938  0.1769 -0.0435  1.1657
 7862SOL    HW235046   2.326   0.554   8.889  0.6814  0.5346  0.1994
 7863SOL     OW35047   0.233   4.602  13.170  0.0565 -0.4112 -0.1073
 7863SOL    HW135048   0.189   4.523  13.201 -1.7900 -0.2243 -2.2392
 7863SOL    HW235049   0.273   4.571  13.089 -0.3957 -0.1515 -0.4313
 7864SOL     OW35050   4.074   2.661   0.806  0.0048  0.0406 -0.5027
 7864SOL    HW135051   4.105   2.591   0.750 -0.9609 -0.6562 -0.1568
 7864SOL    HW235052   4.011   2.618   0.864 -0.1959  0.5651 -0.3234
 7865SOL     OW35053   1.311   1.990   5.586 -0.0531 -0.2776 -0.4175
 7865SOL    HW135054   1.357   1.925   5.534  1.2974  1.6627 -1.6723
 7865SOL    HW235055   1.236   1.937   5.614  0.5843 -1.2813 -0.6447
 7866SOL     OW35056   2.850   2.043   7.103 -0.1699  0.4868 -0.2241
 7866SOL    HW135057   2.883   1.979   7.039  0.5430 -1.1310  1.7450
 7866SOL    HW235058   2.848   2.128   7.059  0.4337  0.6616  0.0790
 7867SOL     OW35059   3.664   1.947   5.190  0.0182  0.0138  0.1412
 7867SOL    HW135060   3.637   2.028   5.232  1.4205  0.6826 -0.2482
 7867SOL    HW235061   3.697   1.908   5.272  2.5037  2.0716  0.1308
 7868SOL     OW35062   0.600   0.427   5.990 -0.7691  0.1352  0.5109
 7868SOL    HW135063   0.518   0.430   6.038  0.2210  2.0195  2.0506
 7868SOL    HW235064   0.557   0.422   5.904 -0.8046  0.8466  0.4901
 7869SOL     OW35065   2.175   3.057   7.626 -0.1821 -0.8211  0.4172
 7869SOL    HW135066   2.267   3.070   7.602 -0.4801 -0.3321 -0.4271
 7869SOL    HW235067   2.137   3.144   7.636  0.0315 -0.6063 -0.7550
 7870SOL     OW35068   3.543   1.508   8.439 -0.5649  0.4514 -0.2747
 7870SOL    HW135069   3.487   1.437   8.406 -0.4959 -0.6832  2.0381
 7870SOL    HW235070   3.472   1.554   8.484 -0.7931  0.7521 -0.9428
 7871SOL     OW35071   0.212   0.916   2.357 -0.0772 -0.3455  0.0441
 7871SOL    HW135072   0.120   0.893   2.344 -0.9990  2.2915  1.8015
 7871SOL    HW235073   0.236   0.934   2.448 -0.0616 -1.8226  0.3179
 7872SOL     OW35074   1.700   2.330   8.864 -0.0016 -0.0489 -0.3186
 7872SOL    HW135075   1.643   2.391   8.816  0.9319  1.4638  0.5104
 7872SOL    HW235076   1.634   2.286   8.918  0.4350  3.1319  2.7899
 7873SOL     OW35077   0.247   2.535   4.673 -0.3321 -0.4327  0.4045
 7873SOL    HW135078   0.325   2.526   4.619 -1.6324 -0.2511 -1.4932
 7873SOL    HW235079   0.251   2.455   4.726 -2.2011 -2.5578 -2.6872
 7874SOL     OW35080   2.340   3.021  13.763 -0.0311 -0.3508  0.0678
 7874SOL    HW135081   2.291   3.065  13.833 -1.4046 -2.3571  0.3771
 7874SOL    HW235082   2.414   2.977  13.805 -2.1175 -1.1474  2.9323
 7875SOL     OW35083   0.857   4.465   1.787 -0.1681  0.1888 -0.3192
 7875SOL    HW135084   0.939   4.475   1.740  0.0622  0.0516  0.0493
 7875SOL    HW235085   0.873   4.518   1.866  0.7765  0.2127 -0.5353
 7876SOL     OW35086   1.065   0.913   6.189 -0.0266 -0.2242 -0.8721
 7876SOL    HW135087   1.080   1.000   6.225 -0.7872  0.1908 -1.5656
 7876SOL    HW235088   0.986   0.870   6.223 -1.3186  1.9611 -1.1311
 7877SOL     OW35089   4.487   3.996   6.630 -0.3968  0.2573 -0.3075
 7877SOL    HW135090   4.528   3.930   6.685 -2.8405  0.0947  1.3463
 7877SOL    HW235091   4.501   4.074   6.684  0.6962  0.1642 -0.4552
 7878SOL     OW35092   0.896   2.714   1.938  0.0158  0.2390 -0.3289
 7878SOL    HW135093   0.991   2.720   1.946 -0.2860  2.2708  1.7819
 7878SOL    HW235094   0.879   2.686   2.028 -1.3750 -0.1443 -0.7018
 7879SOL     OW35095   2.766   3.826   2.115  0.1379 -0.2577  0.4618
 7879SOL    HW135096   2.718   3.902   2.148 -0.6999 -0.3433 -0.5955
 7879SOL    HW235097   2.728   3.750   2.159 -1.9256  0.1681 -0.5768
 7880SOL     OW35098   0.753   1.867   1.768 -0.5351  0.9052 -0.3654
 7880SOL    HW135099   0.723   1.934   1.707 -1.3553 -1.3339 -2.4215
 7880SOL    HW235100   0.848   1.870   1.756 -0.2783 -0.7693  1.0292
 7881SOL     OW35101   2.645   2.365   1.606 -0.1678 -0.0549 -0.1846
 7881SOL    HW135102   2.640   2.277   1.568 -0.1092  1.1898 -3.0561
 7881SOL    HW235103   2.572   2.407   1.561 -0.5265 -0.4295  0.0449
 7882SOL     OW35104   3.506   2.395   1.247 -0.1099 -0.1026 -0.1080
 7882SOL    HW135105   3.473   2.484   1.256 -2.9194 -1.1486  0.0503
 7882SOL    HW235106   3.440   2.336   1.285  0.4658  0.4778  1.7769
 7883SOL     OW35107   0.907   2.314   5.401 -0.4975  0.3626  0.4370
 7883SOL    HW135108   0.977   2.368   5.365  1.3026 -1.3902  1.3653
 7883SOL    HW235109   0.859   2.281   5.324  2.2249 -0.1034 -1.0598
 7884SOL     OW35110   4.309   1.543   2.225  0.3188 -0.5933  0.0315
 7884SOL    HW135111   4.351   1.560   2.140  0.9228 -0.6932  0.3113
 7884SOL    HW235112   4.287   1.451   2.206  0.6294 -0.6836  0.1014
 7885SOL     OW35113   3.960   0.434   2.915 -0.3984 -0.1494  0.1693
 7885SOL    HW135114   3.991   0.524   2.924  0.6570 -0.5775  0.7722
 7885SOL    HW235115   3.993   0.410   2.828 -2.3414  0.4966 -0.7627
 7886SOL     OW35116   3.337   0.091   6.266 -0.1471  0.0149 -0.1405
 7886SOL    HW135117   3.380   0.174   6.284 -0.0572  0.4908 -2.5434
 7886SOL    HW235118   3.321   0.096   6.171 -1.7061  0.6153  0.1569
 7887SOL     OW35119   4.593   2.762   3.101 -0.0408  0.5971 -0.1182
 7887SOL    HW135120   4.576   2.717   3.018  0.4817 -3.9881  2.2721
 7887SOL    HW235121   4.624   2.692   3.157  3.6903  1.7686 -0.6829
 7888SOL     OW35122   1.290   0.047   7.829  0.3501 -0.7230  0.0467
 7888SOL    HW135123   1.284   0.098   7.909  0.1058  0.3650 -0.6634
 7888SOL    HW235124   1.215   4.713   7.840  0.6524 -1.7061 -2.9930
 7889SOL     OW35125   1.953   1.605   6.175  0.0133  0.4243 -0.6407
 7889SOL    HW135126   2.006   1.526   6.187  0.0677  0.7709  1.4878
 7889SOL    HW235127   1.892   1.585   6.104 -0.0955 -1.8694  0.1161
 7890SOL     OW35128   0.957   0.880   8.238  0.6383 -0.4272 -0.4634
 7890SOL    HW135129   1.043   0.918   8.221  0.1679  0.6551 -0.4075
 7890SOL    HW235130   0.943   0.818   8.167 -1.9033  1.1121 -1.3001
 7891SOL     OW35131   4.518   0.514  13.712 -0.5621 -0.1250  0.1518
 7891SOL    HW135132   4.565   0.577  13.768 -1.1785  0.8447 -0.4271
 7891SOL    HW235133   4.453   0.487  13.777 -1.2333  1.4043  0.1278
 7892SOL     OW35134   4.253   1.309   9.855  0.1097  0.7118 -0.5640
 7892SOL    HW135135   4.342   1.341   9.863  0.5343 -0.1365 -1.9574
 7892SOL    HW235136   4.227   1.363   9.780 -2.5097  1.1327  0.6446
 7893SOL     OW35137   2.515   0.636   4.778 -0.4679 -0.3833 -0.5539
 7893SOL    HW135138   2.597   0.611   4.820 -0.6803  0.7447  0.5068
 7893SOL    HW235139   2.493   0.552   4.735 -0.0882 -0.8810  0.2288
 7894SOL     OW35140   0.262   3.006   2.575  0.0705 -0.2373 -0.6515
 7894SOL    HW135141   0.353   2.975   2.580  0.2893  0.1156 -2.5123
 7894SOL    HW235142   0.214   2.923   2.571  1.1896 -0.9611  1.0374
 7895SOL     OW35143   0.094   1.921  15.397 -1.2111 -0.1330  0.0007
 7895SOL    HW135144   0.055   1.956  15.316 -1.7602 -0.5211  0.0992
 7895SOL    HW235145   0.171   1.867  15.381 -0.2561  0.8604  1.2618
 7896SOL     OW35146   4.275   0.434   2.019  0.2343  0.2752  0.0471
 7896SOL    HW135147   4.236   0.350   2.044  1.8032  0.2297  2.4000
 7896SOL    HW235148   4.238   0.495   2.082  1.0583  0.7869  0.0429
 7897SOL     OW35149   2.951   1.149   7.777  0.3262  0.3589  0.5373
 7897SOL    HW135150   2.997   1.229   7.802 -0.7226  1.4535 -1.0258
 7897SOL    HW235151   3.020   1.086   7.758  0.0203  0.0151  0.5769
 7898SOL     OW35152   4.226   4.365   6.908 -0.3536 -0.4015  0.1542
 7898SOL    HW135153   4.155   4.423   6.881 -0.9535 -1.3089 -0.2443
 7898SOL    HW235154   4.194   4.320   6.986 -3.4192  0.5851 -0.5525
 7899SOL     OW35155   4.216   3.400   5.444  0.2841  0.1032  0.0249
 7899SOL    HW135156   4.176   3.481   5.411 -1.1845 -0.9880 -0.8653
 7899SOL    HW235157   4.307   3.429   5.444  0.5026 -0.5498  1.5640
 7900SOL     OW35158   3.020   2.230  10.232 -0.0174 -0.1754  0.0228
 7900SOL    HW135159   2.934   2.267  10.249  0.8893  1.9584 -0.0025
 7900SOL    HW235160   3.012   2.210  10.138  2.0261 -0.3791 -0.1126
 7901SOL     OW35161   4.494   4.423   4.029 -0.2858  0.1706  0.0520
 7901SOL    HW135162   4.476   4.402   3.938 -1.8073  1.5392  0.0417
 7901SOL    HW235163   4.589   4.413   4.033 -0.2991 -1.1691 -2.9999
 7902SOL     OW35164   1.816   0.672   3.339 -0.6123 -0.8075 -0.1761
 7902SOL    HW135165   1.807   0.643   3.430  0.8582 -3.2274 -0.8105
 7902SOL    HW235166   1.727   0.705   3.328 -0.2840  0.5731  1.2900
 7903SOL     OW35167   0.296   0.608   2.392  0.5580 -0.3613 -0.5672
 7903SOL    HW135168   0.243   0.678   2.430  2.6086  1.1272 -0.4410
 7903SOL    HW235169   0.317   0.571   2.477 -0.4933 -0.6456 -0.4399
 7904SOL     OW35170   1.214   4.087   7.289 -0.1827 -0.3954  0.6017
 7904SOL    HW135171   1.160   4.133   7.225 -1.6829  0.0521  2.1881
 7904SOL    HW235172   1.147   4.051   7.347  1.5615 -1.8995  1.6876
 7905SOL     OW35173   0.973   2.022   3.072 -0.1901  0.2375 -0.5314
 7905SOL    HW135174   1.022   2.064   3.002 -2.0964  2.2985 -0.6423
 7905SOL    HW235175   0.891   2.010   3.024 -0.5527  2.6055 -0.5137
 7906SOL     OW35176   2.232   3.693   7.467 -0.0753 -0.7299  0.0322
 7906SOL    HW135177   2.193   3.613   7.431 -0.5445  0.9959 -3.2527
 7906SOL    HW235178   2.183   3.709   7.548 -1.5312 -2.0749 -0.5868
 7907SOL     OW35179   0.003   1.791   2.361 -1.3528  0.1940 -0.4947
 7907SOL    HW135180   0.044   1.791   2.275  1.3691  1.6015  0.7800
 7907SOL    HW235181   4.647   1.743   2.343  0.2921 -3.6359  2.2479
 7908SOL     OW35182   1.661   2.418   1.558 -0.3312  0.4391  0.4953
 7908SOL    HW135183   1.655   2.382   1.470  0.7344  1.6857 -0.0868
 7908SOL    HW235184   1.589   2.371   1.599 -0.8272  0.1972 -0.6595
 7909SOL     OW35185   0.320   1.555   3.567 -0.4681  0.2563 -0.1250
 7909SOL    HW135186   0.337   1.506   3.648 -0.0056  3.5050  1.7303
 7909SOL    HW235187   0.228   1.538   3.548 -0.9293  3.4380 -0.8279
 7910SOL     OW35188   2.885   0.475   8.464  0.9131 -0.1689 -0.1113
 7910SOL    HW135189   2.898   0.435   8.550 -0.0293 -0.2083  0.0053
 7910SOL    HW235190   2.914   0.402   8.410  1.8378  1.1922 -1.4606
 7911SOL     OW35191   4.600   4.166   9.992 -0.0496 -0.4498  0.5918
 7911SOL    HW135192   4.648   4.100   9.942  0.6091 -0.5938  1.4227
 7911SOL    HW235193   4.571   4.111  10.064  0.6116 -1.3202  0.1875
 7912SOL     OW35194   0.043   4.360  12.873  0.0205  0.0441 -0.1040
 7912SOL    HW135195   4.725   4.276  12.888  1.0706 -0.5582 -0.4622
 7912SOL    HW235196   0.047   4.388  12.964  2.5334 -2.0670  0.4159
 7913SOL     OW35197   0.195   1.579   7.791  0.8062 -0.2458  0.2419
 7913SOL    HW135198   0.176   1.632   7.869 -1.5329  1.9225 -1.7975
 7913SOL    HW235199   0.241   1.509   7.837  3.1080  0.8741 -0.3428
 7914SOL     OW35200   1.845   1.830   8.853  0.0496 -0.1419  0.2210
 7914SOL    HW135201   1.923   1.812   8.905  0.9727  1.2756 -0.6714
 7914SOL    HW235202   1.773   1.814   8.914  0.0226 -1.3718 -0.1357
 7915SOL     OW35203   3.821   2.083   0.572  0.2093  0.3054  0.1610
 7915SOL    HW135204   3.771   2.089   0.654  0.5387 -1.4375  0.4871
 7915SOL    HW235205   3.761   2.034   0.517  2.8577  0.8637 -3.2312
 7916SOL     OW35206   4.600   4.589   1.841 -0.3700 -0.6730 -0.5434
 7916SOL    HW135207   4.691   4.583   1.812 -0.4681  0.9886 -1.1820
 7916SOL    HW235208   4.614   4.627   1.927  0.2879  1.1856 -1.4645
 7917SOL     OW35209   0.095   3.645  11.225 -0.1289  0.0173  0.0490
 7917SOL    HW135210   0.176   3.641  11.275 -0.1349  0.6460  0.1067
 7917SOL    HW235211   0.113   3.722  11.171 -1.1238 -0.9379 -1.6587
 7918SOL     OW35212   4.656   3.327   4.663  0.4143  0.4134  0.0624
 7918SOL    HW135213   4.636   3.420   4.666 -0.2193  0.3951 -3.0740
 7918SOL    HW235214   4.702   3.307   4.745  1.4882  2.3439 -0.0799
 7919SOL     OW35215   1.113   1.781   5.275  0.1710 -0.1713 -0.2516
 7919SOL    HW135216   1.025   1.815   5.294  0.6872 -0.0018  1.8520
 7919SOL    HW235217   1.111   1.698   5.324  0.5346  0.2226  0.4351
 7920SOL     OW35218   1.911   1.878   5.224  0.1954 -0.2083  0.4176
 7920SOL    HW135219   2.001   1.911   5.225  0.1873 -0.1529 -0.3879
 7920SOL    HW235220   1.876   1.920   5.145  1.7038  3.2591  1.5831
 7921SOL     OW35221   0.662   1.081   8.746 -0.3445  0.0421 -0.1672
 7921SOL    HW135222   0.616   1.104   8.827 -2.4871  1.9625 -1.9245
 7921SOL    HW235223   0.714   1.160   8.731 -0.2036  0.2571  1.3573
 7922SOL     OW35224   0.480   3.074   5.912 -0.3203  0.6430 -0.0351
 7922SOL    HW135225   0.550   3.066   5.976  0.3933  1.9343 -0.6427
 7922SOL    HW235226   0.522   3.023   5.841 -3.1284 -1.3469 -0.2703
 7923SOL     OW35227   4.126   1.317   5.753  0.0779  0.1106 -0.2574
 7923SOL    HW135228   4.212   1.351   5.729  0.8153 -1.1095  0.6617
 7923SOL    HW235229   4.071   1.394   5.770  0.1673 -0.3232  2.0429
 7924SOL     OW35230   1.167   1.318  12.835  0.1407 -0.4870  0.8347
 7924SOL    HW135231   1.230   1.299  12.904 -0.4671  2.1349  2.1030
 7924SOL    HW235232   1.229   1.334  12.763  1.0313  0.7496  1.8853
 7925SOL     OW35233   4.077   1.053   2.701 -0.4427 -0.0771 -0.0782
 7925SOL    HW135234   4.159   1.089   2.665  0.8552  1.4798  4.4134
 7925SOL    HW235235   4.093   1.029   2.793  2.3928 -1.4380 -0.9169
 7926SOL     OW35236   4.208   2.516  13.566  0.1066  0.4370 -1.0089
 7926SOL    HW135237   4.254   2.474  13.639 -1.6345  1.2641  0.5501
 7926SOL    HW235238   4.199   2.605  13.598 -0.0159  0.3328 -0.7493
 7927SOL     OW35239   1.711   4.027   3.064 -0.0846 -0.2176  0.6686
 7927SOL    HW135240   1.752   3.957   3.115 -1.5901  1.1220  3.7689
 7927SOL    HW235241   1.786   4.055   3.011 -1.1866  0.1543 -0.6870
 7928SOL     OW35242   0.246   1.855   2.131  0.3685 -0.2438 -0.2142
 7928SOL    HW135243   0.294   1.779   2.100 -0.3850 -1.7875  2.4666
 7928SOL    HW235244   0.180   1.852   2.061  0.1085  0.6148 -0.0059
 7929SOL     OW35245   4.495   2.700   9.646 -0.2859 -0.6154  0.1242
 7929SOL    HW135246   4.480   2.720   9.738  0.3829  3.4208 -0.6729
 7929SOL    HW235247   4.413   2.724   9.603 -0.4950 -1.3041  0.1390
 7930SOL     OW35248   0.081   3.943   8.981 -0.1114 -0.0250 -0.1126
 7930SOL    HW135249   0.007   3.970   9.035  2.3077  2.4728  1.9497
 7930SOL    HW235250   0.154   3.995   9.015 -1.2814  1.8030 -0.4062
 7931SOL     OW35251   0.348   1.341   8.246 -0.4582 -0.3653  0.6510
 7931SOL    HW135252   0.312   1.259   8.280  0.7894 -2.5802 -3.4471
 7931SOL    HW235253   0.430   1.332   8.294 -0.0449  0.0907  0.0258
 7932SOL     OW35254   2.214   0.973   2.848 -0.1870  0.2684 -0.0251
 7932SOL    HW135255   2.262   1.046   2.809 -1.0177  0.4647 -0.6736
 7932SOL    HW235256   2.164   1.020   2.915  2.1003  0.5896  1.4582
 7933SOL     OW35257   1.694   4.120   9.629 -0.3010  0.4120 -0.4696
 7933SOL    HW135258   1.737   4.204   9.645 -0.9364  0.1477  2.6267
 7933SOL    HW235259   1.701   4.083   9.717  3.1966 -1.6579 -1.6564
 7934SOL     OW35260   2.274   1.179   4.586 -0.0848 -0.5339  0.4746
 7934SOL    HW135261   2.285   1.119   4.660 -0.4258 -0.6806  0.4061
 7934SOL    HW235262   2.212   1.141   4.524  0.8795 -0.1978 -0.6963
 7935SOL     OW35263   2.736   3.426   8.294 -0.2401 -0.2425 -0.1808
 7935SOL    HW135264   2.720   3.496   8.357  0.6590 -0.2813  0.0933
 7935SOL    HW235265   2.737   3.342   8.338 -0.5455 -0.2320 -0.1517
 7936SOL     OW35266   2.722   2.005  15.199  0.2870  0.3340 -0.5406
 7936SOL    HW135267   2.721   1.931  15.138  0.3404 -2.2312  2.5803
 7936SOL    HW235268   2.711   1.959  15.282  2.7043 -1.5448 -1.2529
 7937SOL     OW35269   2.384   3.322   2.432  0.3581 -0.1881 -0.4281
 7937SOL    HW135270   2.416   3.291   2.517  0.2398  2.2559  0.5017
 7937SOL    HW235271   2.461   3.312   2.376  0.1303  0.2745 -0.8270
 7938SOL     OW35272   3.587   2.000   7.066  0.2183  0.4120  0.3517
 7938SOL    HW135273   3.628   1.936   7.123  1.6266  1.3742  0.4030
 7938SOL    HW235274   3.509   1.960   7.026 -0.4923  0.5562  1.5884
 7939SOL     OW35275   4.605   2.477   8.360  0.2837 -0.6884 -0.1737
 7939SOL    HW135276   4.625   2.562   8.320  0.3943 -0.7627 -0.2735
 7939SOL    HW235277   4.607   2.485   8.455 -0.3296  2.0979 -0.4007
 7940SOL     OW35278   4.566   0.735   3.352 -0.4728  0.6710 -0.1143
 7940SOL    HW135279   4.617   0.685   3.289  1.4679 -1.1170  2.8400
 7940SOL    HW235280   4.479   0.696   3.342 -0.7513  1.4838 -0.7757
 7941SOL     OW35281   2.508   0.412   0.051  0.8492  0.0263  0.8847
 7941SOL    HW135282   2.599   0.416   0.079  1.0297  0.4560  0.2367
 7941SOL    HW235283   2.481   0.331   0.096 -2.6823 -1.3665 -3.8094
 7942SOL     OW35284   3.928   4.526  10.687  0.2966 -0.3291  0.3945
 7942SOL    HW135285   3.951   4.440  10.650  3.9682  0.3586  1.1194
 7942SOL    HW235286   3.917   4.500  10.778 -2.7845 -0.9456 -0.1402
 7943SOL     OW35287   3.065   4.218   8.776  0.2613  0.0005  0.6728
 7943SOL    HW135288   2.995   4.235   8.840 -0.0037  1.8875 -0.0948
 7943SOL    HW235289   3.119   4.144   8.802 -1.8663 -0.5064  3.6514
 7944SOL     OW35290   1.294   0.466   4.667 -0.1206  0.1403  0.3880
 7944SOL    HW135291   1.296   0.560   4.645  0.5502  0.4983  2.0307
 7944SOL    HW235292   1.370   0.436   4.617  1.7767  1.3847  2.5246
 7945SOL     OW35293   3.405   0.718   2.516 -0.0289  0.1406  0.2873
 7945SOL    HW135294   3.441   0.661   2.585 -2.1276  0.5191  1.6892
 7945SOL    HW235295   3.466   0.790   2.502 -0.4753  0.3413 -0.5625
 7946SOL     OW35296   0.210   3.268   6.779 -0.0674 -0.4882 -0.2318
 7946SOL    HW135297   0.233   3.361   6.780 -2.0986 -0.0150  0.7102
 7946SOL    HW235298   0.249   3.246   6.694 -1.7780  0.5751 -1.3059
 7947SOL     OW35299   1.541   1.563   8.341  0.2327  0.6289 -0.2775
 7947SOL    HW135300   1.546   1.645   8.291 -0.9206 -0.4524 -2.1628
 7947SOL    HW235301   1.633   1.537   8.331  0.2731  0.1728  1.2945
 7948SOL     OW35302   2.079   0.529  13.103 -0.0087  0.0351  0.5932
 7948SOL    HW135303   2.140   0.502  13.035 -1.4633 -1.8798  0.0495
 7948SOL    HW235304   2.100   0.622  13.112 -1.0862  0.4424 -0.9380
 7949SOL     OW35305   1.533   3.306   0.500 -0.4425 -0.4424 -0.0091
 7949SOL    HW135306   1.603   3.346   0.449 -1.4985  2.5776  0.8934
 7949SOL    HW235307   1.530   3.354   0.583 -0.1532 -1.1372  0.4062
 7950SOL     OW35308   2.229   0.768  13.132  0.1976 -0.0181 -0.5438
 7950SOL    HW135309   2.215   0.805  13.045  2.4197  0.9569 -0.4600
 7950SOL    HW235310   2.210   0.848  13.181 -0.8126 -0.9637  0.6265
 7951SOL     OW35311   1.549   1.843   5.056 -0.5743 -0.5907  0.2777
 7951SOL    HW135312   1.485   1.886   4.999 -0.9165 -2.1926 -0.5661
 7951SOL    HW235313   1.487   1.798   5.114 -0.8606 -3.0944 -1.9429
 7952SOL     OW35314   3.105   2.789  17.140 -0.3924 -0.5856 -0.1369
 7952SOL    HW135315   3.127   2.709  17.187 -0.6672  0.1607  1.2774
 7952SOL    HW235316   3.010   2.783  17.154 -0.2422 -1.7403  0.3642
 7953SOL     OW35317   0.948   0.471   9.547 -0.0741  1.3102 -0.2679
 7953SOL    HW135318   0.855   0.449   9.553  0.4460 -1.6199 -2.8664
 7953SOL    HW235319   0.976   0.395   9.496  1.2329  1.6657 -0.0924
 7954SOL     OW35320   1.683   0.993  11.561  0.3872  0.6700 -0.1417
 7954SOL    HW135321   1.606   0.953  11.600  1.0791 -0.9462 -0.4171
 7954SOL    HW235322   1.632   1.069  11.534 -0.7258 -0.7196 -1.9705
 7955SOL     OW35323   4.297   3.508   4.028 -0.1343 -0.5409  0.2343
 7955SOL    HW135324   4.214   3.463   4.041 -0.9365  0.8417 -0.0730
 7955SOL    HW235325   4.308   3.494   3.934 -0.9763  1.5350 -0.1723
 7956SOL     OW35326   2.786   4.175   4.251 -0.3198  0.0672  0.3376
 7956SOL    HW135327   2.864   4.219   4.219  0.5356 -1.2092  0.6853
 7956SOL    HW235328   2.812   4.083   4.254  2.8124  1.0553  3.2845
 7957SOL     OW35329   2.793   2.987   2.373 -0.0208 -0.1821 -0.8403
 7957SOL    HW135330   2.781   2.894   2.390 -1.9674  0.5201  1.6012
 7957SOL    HW235331   2.724   3.000   2.308 -1.3589  0.4794  0.7093
 7958SOL     OW35332   1.962   2.776   6.850 -0.4708  0.0998 -0.1138
 7958SOL    HW135333   2.049   2.746   6.822 -0.3044  1.5831 -1.1311
 7958SOL    HW235334   1.936   2.837   6.781 -0.5860 -1.1214 -1.1488
 7959SOL     OW35335   4.171   0.751  16.546 -0.5233 -0.6912  0.5933
 7959SOL    HW135336   4.175   0.661  16.514  2.4389 -0.4997  0.4210
 7959SOL    HW235337   4.101   0.790  16.494  1.4228 -0.1658 -1.6210
 7960SOL     OW35338   3.941   0.845   5.977 -0.2723 -0.3351  0.4018
 7960SOL    HW135339   3.855   0.865   6.012 -1.3444  1.5710 -3.3311
 7960SOL    HW235340   3.976   0.932   5.956 -0.3465 -0.7614 -1.4735
 7961SOL     OW35341   1.476   0.069   6.179 -0.3508  0.4562  0.3377
 7961SOL    HW135342   1.559   0.049   6.223 -0.1763 -1.3912 -0.8410
 7961SOL    HW235343   1.469   4.707   6.141 -0.7968  0.7232 -0.1850
 7962SOL     OW35344   1.645   1.974   5.395 -0.4751  0.1089 -0.4749
 7962SOL    HW135345   1.663   1.962   5.302 -2.1196  0.5474 -0.8466
 7962SOL    HW235346   1.648   1.881   5.416  1.6015  0.7021  1.7505
 7963SOL     OW35347   0.812   0.758   2.782  0.1264  0.5463 -0.0270
 7963SOL    HW135348   0.882   0.768   2.847 -1.5699 -0.0707  1.8840
 7963SOL    HW235349   0.760   0.683   2.810 -1.2662  1.4434 -0.2429
 7964SOL     OW35350   2.189   3.844   9.106 -0.5571  0.3192  0.5106
 7964SOL    HW135351   2.218   3.934   9.121 -0.3931  0.3478  0.0251
 7964SOL    HW235352   2.278   3.809   9.097  0.9981  4.1376  0.8455
 7965SOL     OW35353   0.616   3.184   7.963 -0.6666 -0.0338 -0.6735
 7965SOL    HW135354   0.698   3.206   8.007 -0.6920 -1.8608  0.2674
 7965SOL    HW235355   0.552   3.212   8.028 -0.7675  1.9383 -1.5969
 7966SOL     OW35356   0.006   2.149  13.998  0.0305 -0.6730 -0.1481
 7966SOL    HW135357   4.711   2.206  14.073 -2.6969 -0.8083 -0.7837
 7966SOL    HW235358   4.655   2.091  14.003 -0.3350 -0.1584  0.1694
 7967SOL     OW35359   1.057   0.418   6.652 -0.2104 -0.0432  0.0597
 7967SOL    HW135360   0.984   0.481   6.652 -1.1177 -1.1022  2.0199
 7967SOL    HW235361   1.025   0.358   6.584 -0.8601 -0.2717  0.5648
 7968SOL     OW35362   1.145   4.377  13.141 -0.4529 -0.5976  0.5188
 7968SOL    HW135363   1.197   4.398  13.218 -1.2919 -1.8904  1.4429
 7968SOL    HW235364   1.107   4.299  13.181  1.0559 -1.0597  1.0436
 7969SOL     OW35365   0.628   0.690   7.889 -0.1558  0.0075 -0.5360
 7969SOL    HW135366   0.660   0.697   7.799  2.5797  0.8384  0.4958
 7969SOL    HW235367   0.702   0.647   7.931 -1.0135  0.6836  1.6813
 7970SOL     OW35368   4.576   4.492   7.862 -0.6119  0.2474 -0.4348
 7970SOL    HW135369   4.529   4.436   7.800  0.5067 -1.6687  0.4454
 7970SOL    HW235370   4.650   4.514   7.806  0.0366 -2.2901 -0.5760
 7971SOL     OW35371   3.425   2.343   2.408 -0.3465 -0.4204 -0.0147
 7971SOL    HW135372   3.427   2.265   2.464  0.8187  0.3497  1.0268
 7971SOL    HW235373   3.425   2.309   2.319 -0.3256  3.0339 -1.3345
 7972SOL     OW35374   2.422   1.974   8.624 -0.0023 -0.0179 -0.0693
 7972SOL    HW135375   2.447   1.980   8.716  1.2705 -2.9417 -0.2015
 7972SOL    HW235376   2.346   2.031   8.611 -0.7409 -1.9654 -4.5694
 7973SOL     OW35377   1.308   2.618   0.687  0.1918 -0.1333  0.4995
 7973SOL    HW135378   1.276   2.530   0.669 -0.5826  0.3181 -0.3047
 7973SOL    HW235379   1.247   2.669   0.634  1.1096  0.6250  0.1670
 7974SOL     OW35380   3.619   1.391   4.772 -0.3309 -0.0711  0.0432
 7974SOL    HW135381   3.590   1.337   4.698  0.9191 -1.6670  0.7148
 7974SOL    HW235382   3.677   1.448   4.721 -3.0641  0.3569 -2.5841
 7975SOL     OW35383   2.355   1.022   7.151 -0.2658 -0.4554 -0.4567
 7975SOL    HW135384   2.314   1.101   7.116  1.1500 -0.3519 -1.8876
 7975SOL    HW235385   2.293   0.954   7.124 -1.3400  0.7475 -1.0459
 7976SOL     OW35386   1.988   0.955   4.722  0.8732  0.0342  0.1648
 7976SOL    HW135387   2.060   0.998   4.768  2.1072 -0.6562 -1.1412
 7976SOL    HW235388   2.031   0.938   4.638 -2.8176 -3.3308 -1.0311
 7977SOL     OW35389   4.723   3.485   5.278 -0.5704 -0.2607 -0.2818
 7977SOL    HW135390   0.079   3.467   5.325  0.0887 -1.1065 -1.7226
 7977SOL    HW235391   0.007   3.415   5.213  0.2661  1.1398 -1.6868
 7978SOL     OW35392   2.686   4.310   2.988 -0.0289  0.2631  0.1572
 7978SOL    HW135393   2.749   4.274   3.050  0.0606 -0.9550 -0.6513
 7978SOL    HW235394   2.604   4.265   3.005  0.4603  0.1041  2.0647
 7979SOL     OW35395   4.102   3.964  13.648 -0.0790  0.4537  0.0300
 7979SOL    HW135396   4.022   4.006  13.681 -0.2504  0.3307 -0.2243
 7979SOL    HW235397   4.107   4.005  13.562 -2.8109  0.5422 -0.1005
 7980SOL     OW35398   1.774   1.492   6.014  0.0350 -0.4895  0.2211
 7980SOL    HW135399   1.767   1.422   6.080 -2.1902 -0.8164 -0.3420
 7980SOL    HW235400   1.698   1.473   5.959  0.0555 -1.4770  0.5195
 7981SOL     OW35401   0.068   1.078  12.963 -0.3908  0.4473  0.0217
 7981SOL    HW135402   0.046   1.134  12.888  1.7344  0.7943 -0.3363
 7981SOL    HW235403   0.069   0.990  12.925  1.2228  2.0796 -3.7396
 7982SOL     OW35404   1.480   2.759  12.177  0.3352 -0.5109 -0.1215
 7982SOL    HW135405   1.418   2.791  12.111 -0.5396 -1.0141  0.4579
 7982SOL    HW235406   1.448   2.811  12.250  1.6365  0.3831 -0.1900
 7983SOL     OW35407   2.750   4.132   7.250  0.5926 -0.9702 -0.2699
 7983SOL    HW135408   2.756   4.175   7.164 -1.5168 -2.0687 -0.9613
 7983SOL    HW235409   2.718   4.207   7.300  0.0204 -2.1500  1.1284
 7984SOL     OW35410   4.237   1.478  14.523  0.4894  0.4900  0.1998
 7984SOL    HW135411   4.251   1.553  14.581  1.1840  1.8227 -1.6992
 7984SOL    HW235412   4.214   1.416  14.592  0.8462  0.5710  0.3919
 7985SOL     OW35413   4.481   3.095   5.970 -0.2825 -0.2573  1.1087
 7985SOL    HW135414   4.483   3.008   5.930  0.5715  1.3270 -2.3546
 7985SOL    HW235415   4.388   3.109   5.951  0.1443 -0.6197 -1.2663
 7986SOL     OW35416   2.649   3.711   8.915 -0.4159  0.8193 -0.4883
 7986SOL    HW135417   2.660   3.781   8.851  0.0998  2.0026  0.8952
 7986SOL    HW235418   2.742   3.696   8.933 -0.9415  0.7156  2.1441
 7987SOL     OW35419   4.640   2.211   8.298 -0.2281 -0.7521  0.0792
 7987SOL    HW135420   4.693   2.198   8.219  0.3623 -1.1411  0.5361
 7987SOL    HW235421   4.628   2.305   8.309  1.8913 -0.7398  2.3169
 7988SOL     OW35422   1.333   2.092  17.220 -0.2121 -0.1414  0.8354
 7988SOL    HW135423   1.313   2.149  17.146 -0.3034  1.2914  1.9653
 7988SOL    HW235424   1.362   2.012  17.176 -0.4453 -0.5003  1.3397
 7989SOL     OW35425   1.875   4.345   4.418 -0.6190 -0.4219 -0.0494
 7989SOL    HW135426   1.876   4.414   4.352  2.1850  1.6570  2.1491
 7989SOL    HW235427   1.823   4.289   4.361 -1.0278 -0.2159  0.1184
 7990SOL     OW35428   0.094   1.856   8.232 -0.2275  0.1009 -0.4600
 7990SOL    HW135429   0.073   1.890   8.319 -0.9226 -1.1740 -0.1242
 7990SOL    HW235430   0.173   1.904   8.207 -0.3856 -0.2720 -1.6479
 7991SOL     OW35431   0.164   0.180  13.223 -0.4039  0.3085 -0.3525
 7991SOL    HW135432   0.151   0.096  13.180 -3.1766  0.1220  0.8835
 7991SOL    HW235433   0.132   0.167  13.312  0.2504  1.6941  0.0980
 7992SOL     OW35434   1.392   2.516   6.802  0.3696 -0.1780  0.2411
 7992SOL    HW135435   1.365   2.496   6.892  2.1228  0.9617  1.0102
 7992SOL    HW235436   1.388   2.429   6.762 -2.8586 -0.3925  0.9679
 7993SOL     OW35437   2.310   0.064   6.004  0.3959  0.1079  0.1071
 7993SOL    HW135438   2.251   0.038   5.933  0.4648  1.9371 -0.6246
 7993SOL    HW235439   2.315   0.159   5.995 -4.5579  0.2870 -1.0475
 7994SOL     OW35440   2.334   4.289   2.131 -0.5776  0.3202  0.1888
 7994SOL    HW135441   2.307   4.342   2.207 -2.1431 -0.1276 -0.0555
 7994SOL    HW235442   2.247   4.263   2.102 -0.0389 -1.3054  0.0562
 7995SOL     OW35443   4.569   3.444   3.689 -0.0293 -0.1850 -0.4295
 7995SOL    HW135444   4.585   3.374   3.753  2.1346  1.1156  0.4506
 7995SOL    HW235445   4.622   3.418   3.613  0.0008 -1.9650  0.1949
 7996SOL     OW35446   0.806   4.621   4.011  0.0369  0.0625  0.0315
 7996SOL    HW135447   0.880   4.561   4.015 -0.1248 -0.0411  1.7374
 7996SOL    HW235448   0.777   4.621   4.103  0.9388  2.7437  0.3334
 7997SOL     OW35449   0.272   4.194   6.430 -0.1638 -0.0695 -0.2180
 7997SOL    HW135450   0.339   4.164   6.492 -1.4271 -0.1257  1.1141
 7997SOL    HW235451   0.246   4.115   6.384  0.1795  0.4855 -1.3714
 7998SOL     OW35452   0.858   4.718   5.493  0.1096 -0.5137 -0.2076
 7998SOL    HW135453   0.941   4.714   5.539  0.4825  1.7515 -0.7192
 7998SOL    HW235454   0.805   4.657   5.546 -0.8541  1.4355  1.0599
 7999SOL     OW35455   2.849   3.369   0.220  0.4848 -0.0414  0.3377
 7999SOL    HW135456   2.900   3.359   0.140 -0.2898  0.5451 -0.2326
 7999SOL    HW235457   2.797   3.445   0.194  0.7228  0.6285  1.7791
 8000SOL     OW35458   4.475   2.000  14.095 -0.1854  0.0573 -0.4967
 8000SOL    HW135459   4.553   1.971  14.143  0.4421 -0.4392 -1.8134
 8000SOL    HW235460   4.396   1.953  14.122 -0.5743  1.0810  0.1164
 8001SOL     OW35461   0.654   1.589  10.767  0.3784  0.7363 -0.1454
 8001SOL    HW135462   0.581   1.616  10.712 -2.7528 -2.4160  2.5023
 8001SOL    HW235463   0.711   1.569  10.693 -0.6684  0.3770 -0.8536
 8002SOL     OW35464   2.717   1.763   2.059  0.1884  0.5069 -0.5487
 8002SOL    HW135465   2.726   1.804   1.973 -0.6955  0.1884 -0.7962
 8002SOL    HW235466   2.753   1.676   2.044 -0.6421 -0.0690  0.7610
 8003SOL     OW35467   3.704   1.713  13.971  0.7151 -0.5929  0.0671
 8003SOL    HW135468   3.645   1.755  13.909 -0.3071 -1.1517  0.6518
 8003SOL    HW235469   3.751   1.792  13.996  0.8991 -0.9379  0.8011
 8004SOL     OW35470   2.900   1.441  11.669  0.0653  0.1590 -0.9777
 8004SOL    HW135471   2.901   1.527  11.627 -1.4056  0.7067  0.0855
 8004SOL    HW235472   2.805   1.430  11.669 -0.0986  1.5236  0.3892
 8005SOL     OW35473   3.917   3.261   1.279  0.2552  0.7269  0.0249
 8005SOL    HW135474   3.906   3.352   1.251 -1.8352  0.7287  0.8484
 8005SOL    HW235475   3.886   3.264   1.370  1.0363 -1.7474  0.3719
 8006SOL     OW35476   2.601   0.696  11.789 -0.2933 -0.4988  0.2218
 8006SOL    HW135477   2.633   0.778  11.752 -1.1984 -0.2162  0.0684
 8006SOL    HW235478   2.604   0.711  11.884  1.4511 -1.2607  0.2905
 8007SOL     OW35479   1.024   2.238   4.742 -0.9394 -0.1209  0.4691
 8007SOL    HW135480   1.037   2.195   4.826  1.8040  0.3507  0.3006
 8007SOL    HW235481   0.996   2.325   4.768 -1.5496 -0.3534  0.5995
 8008SOL     OW35482   2.444   1.096  17.234  0.1651 -0.4323  0.0042
 8008SOL    HW135483   2.362   1.113  17.280 -0.1748  1.7183 -1.4208
 8008SOL    HW235484   2.433   1.001  17.221 -0.5169 -0.5133  1.1824
 8009SOL     OW35485   3.475   2.365  16.165 -0.6360  0.3452 -0.0266
 8009SOL    HW135486   3.554   2.413  16.142  1.3879 -1.9525  2.1266
 8009SOL    HW235487   3.456   2.318  16.084 -0.5213 -0.4451  0.3970
 8010SOL     OW35488   4.022   4.354  16.651  0.4427  0.1063 -0.3331
 8010SOL    HW135489   4.032   4.260  16.633  0.0498  0.0732 -0.3784
 8010SOL    HW235490   4.026   4.356  16.746  1.0756  0.1221 -0.3583
 8011SOL     OW35491   2.149   1.535  14.544  0.0091  0.0232  0.2034
 8011SOL    HW135492   2.067   1.576  14.572 -0.1290  0.0296 -0.2083
 8011SOL    HW235493   2.148   1.578  14.459 -1.8609 -0.4187  0.0040
 8012SOL     OW35494   0.123   4.587  12.692  0.6721 -0.4044  0.2011
 8012SOL    HW135495   0.031   4.569  12.673  0.5265  0.0099  0.5239
 8012SOL    HW235496   0.168   4.553  12.614  0.7401  0.3239 -0.0796
 8013SOL     OW35497   0.605   2.237   3.715 -0.0089 -0.2726 -0.7687
 8013SOL    HW135498   0.568   2.299   3.777  2.4752  1.3838 -0.9163
 8013SOL    HW235499   0.682   2.283   3.681  0.7855 -0.2466  1.0941
 8014SOL     OW35500   2.784   3.088   1.862 -0.4563  0.3964  0.7521
 8014SOL    HW135501   2.823   3.174   1.846  0.9264 -0.0202  1.8031
 8014SOL    HW235502   2.704   3.098   1.811  0.2763  3.2819  0.1334
 8015SOL     OW35503   3.197   1.508   7.573  1.1685  0.2555  0.2309
 8015SOL    HW135504   3.263   1.480   7.509  2.3304  1.7290  0.7728
 8015SOL    HW235505   3.159   1.573   7.514  0.9893  0.9425  1.0967
 8016SOL     OW35506   0.573   2.432   8.062 -0.0081 -0.3737 -0.0068
 8016SOL    HW135507   0.619   2.365   8.011 -0.2455 -1.5204  1.2770
 8016SOL    HW235508   0.559   2.492   7.989  1.6030  1.0391  0.8602
 8017SOL     OW35509   4.571   4.205   2.260  0.0963 -0.2304  0.2401
 8017SOL    HW135510   4.631   4.251   2.318 -1.1980 -0.4163  1.7201
 8017SOL    HW235511   4.626   4.176   2.187 -0.8312 -0.1917 -0.4660
 8018SOL     OW35512   1.942   2.216   7.668  0.2064 -0.0307  0.8735
 8018SOL    HW135513   1.959   2.189   7.758  1.1350 -3.8645 -0.4746
 8018SOL    HW235514   2.011   2.281   7.652 -1.5984  1.7861  0.4550
 8019SOL     OW35515   0.333   3.109   3.617 -0.0478  0.0679  0.7654
 8019SOL    HW135516   0.292   3.103   3.531  0.0668 -1.5517  0.8361
 8019SOL    HW235517   0.255   3.078   3.663  0.4379  0.0849  1.5909
 8020SOL     OW35518   2.367   0.333   4.448  0.6887 -0.2372  0.1220
 8020SOL    HW135519   2.412   0.358   4.529  2.8734 -1.0388 -0.8324
 8020SOL    HW235520   2.343   0.242   4.465  3.5144 -1.1800 -0.8899
 8021SOL     OW35521   0.996   2.837   9.926 -0.0458 -0.7997  0.2936
 8021SOL    HW135522   0.993   2.873  10.014  0.8583 -2.7006  1.0991
 8021SOL    HW235523   0.991   2.743   9.947 -1.4600 -0.5632  1.0416
 8022SOL     OW35524   0.163   0.704   4.307 -0.2688  0.0869  0.6366
 8022SOL    HW135525   0.163   0.699   4.402  1.8242  3.7841  0.8173
 8022SOL    HW235526   0.253   0.676   4.293  0.2113  1.3790  1.1631
 8023SOL     OW35527   0.503   3.789   9.140 -0.3076  0.8780 -0.0940
 8023SOL    HW135528   0.566   3.826   9.202  0.7128 -0.4057 -0.3619
 8023SOL    HW235529   0.540   3.831   9.061  4.2540 -0.0503  1.5598
 8024SOL     OW35530   2.394   2.736   7.608  0.0008 -0.6286 -0.7865
 8024SOL    HW135531   2.450   2.804   7.570  0.3976 -1.4525 -1.6586
 8024SOL    HW235532   2.416   2.656   7.561 -2.2903 -1.1901 -0.9206
 8025SOL     OW35533   0.649   2.538  14.415  0.0614  0.1209  0.2774
 8025SOL    HW135534   0.682   2.450  14.394 -1.6350 -0.5653  0.5251
 8025SOL    HW235535   0.717   2.589  14.370 -1.4895  1.0131 -1.0288
 8026SOL     OW35536   4.532   2.067   5.063 -0.0893  0.4642  0.4592
 8026SOL    HW135537   4.478   2.146   5.058 -0.2589  0.1758 -2.1974
 8026SOL    HW235538   4.611   2.103   5.024 -0.9084  1.9124  0.1231
 8027SOL     OW35539   2.107   3.425   2.518  0.8712 -0.1695 -0.0516
 8027SOL    HW135540   2.140   3.514   2.505 -1.4013  0.5446 -0.9716
 8027SOL    HW235541   2.190   3.377   2.511  0.4978 -0.9501  0.9087
 8028SOL     OW35542   0.031   0.115   6.273  0.0505 -0.2100  0.5050
 8028SOL    HW135543   4.674   0.158   6.248  0.1606  0.8710  2.0012
 8028SOL    HW235544   0.050   0.075   6.188  0.2754  2.5013 -0.7408
 8029SOL     OW35545   1.539   4.457   2.629 -0.2239  0.2170  0.4822
 8029SOL    HW135546   1.454   4.482   2.594  0.7777 -1.1952 -2.9090
 8029SOL    HW235547   1.566   4.382   2.576 -0.6061  1.0462 -0.8996
 8030SOL     OW35548   1.072   4.654   1.916 -0.0397 -0.0041 -0.0746
 8030SOL    HW135549   1.084   4.649   1.821  0.6841 -0.7315  0.0494
 8030SOL    HW235550   1.062   0.022   1.936 -1.4125 -0.1212 -0.1855
 8031SOL     OW35551   0.055   2.784  10.642 -0.0042  0.0562  0.0215
 8031SOL    HW135552   0.081   2.692  10.635  1.1929  0.3513  0.5706
 8031SOL    HW235553   0.140   2.821  10.619  0.3979 -0.0963  1.2691
 8032SOL     OW35554   3.585   1.037   7.728  0.0915 -0.6012  0.1150
 8032SOL    HW135555   3.602   0.948   7.757 -0.2435 -1.2512 -1.6599
 8032SOL    HW235556   3.547   1.076   7.806  2.1531 -0.9350  1.2835
 8033SOL     OW35557   3.110   3.033   2.446  0.2881  0.6958 -0.2799
 8033SOL    HW135558   3.157   3.053   2.365  2.4527 -1.7510  0.3672
 8033SOL    HW235559   3.049   2.967   2.414  0.3017 -0.2078  1.5670
 8034SOL     OW35560   1.054   0.751   4.640 -0.2788  0.0419 -0.6093
 8034SOL    HW135561   1.078   0.830   4.688  1.5334 -0.7515 -0.2213
 8034SOL    HW235562   0.959   0.735   4.646 -0.4498  1.5037  0.5333
 8035SOL     OW35563   0.793   1.346   5.156 -0.1566 -0.5572 -0.0386
 8035SOL    HW135564   0.751   1.268   5.191  1.1188 -1.8770 -1.4087
 8035SOL    HW235565   0.833   1.376   5.237 -1.3005  1.7588 -0.3420
 8036SOL     OW35566   3.927   3.323   6.574 -0.2128 -0.1994 -0.4729
 8036SOL    HW135567   3.912   3.415   6.595 -2.7853 -0.6674 -0.3138
 8036SOL    HW235568   4.022   3.327   6.588 -0.2043 -1.2460 -0.2172
 8037SOL     OW35569   0.202   1.992  17.544 -0.2724  0.0900 -0.1236
 8037SOL    HW135570   0.227   1.900  17.537  3.9923  1.1373  1.5152
 8037SOL    HW235571   0.184   2.008  17.637 -1.1939  2.1468 -0.6709
 8038SOL     OW35572   2.311   1.167   7.669  0.1635  0.4029 -0.3424
 8038SOL    HW135573   2.230   1.187   7.621  0.4277 -0.5690 -1.1838
 8038SOL    HW235574   2.282   1.078   7.686  1.4829  0.2309  1.0408
 8039SOL     OW35575   4.501   4.571   8.863  0.5187  0.3141 -0.9871
 8039SOL    HW135576   4.444   4.500   8.833  1.1758 -1.0316  0.9930
 8039SOL    HW235577   4.431   4.635   8.877 -1.4082 -1.8282 -0.7573
 8040SOL     OW35578   1.254   0.172  13.922  0.2672 -0.4525 -0.5765
 8040SOL    HW135579   1.309   0.217  13.987  0.0093 -1.2473  0.1862
 8040SOL    HW235580   1.184   0.238  13.929 -0.2397 -0.9806 -0.6715
 8041SOL     OW35581   0.216   1.471   5.134 -0.5724 -0.2038  0.5969
 8041SOL    HW135582   0.309   1.463   5.157 -0.1115 -0.4060 -1.3554
 8041SOL    HW235583   0.202   1.564   5.152  1.4321  0.2126  0.0463
 8042SOL     OW35584   1.984   0.849   0.291 -0.3258  0.6134 -0.2073
 8042SOL    HW135585   1.901   0.850   0.338 -1.1739  0.1585 -1.6607
 8042SOL    HW235586   2.030   0.795   0.355 -0.1034 -1.4333 -2.0829
 8043SOL     OW35587   3.667   1.555   1.716 -0.5282  0.3029  1.0008
 8043SOL    HW135588   3.587   1.529   1.762  0.3033 -1.2522  1.5692
 8043SOL    HW235589   3.625   1.537   1.632 -0.6802  0.9314  0.9472
 8044SOL     OW35590   1.052   1.202   5.691 -0.1592  0.0986  0.0458
 8044SOL    HW135591   1.085   1.121   5.730 -1.3401  0.1909  1.2413
 8044SOL    HW235592   1.083   1.264   5.757  3.9344 -1.0671 -0.7908
 8045SOL     OW35593   0.910   4.305   3.827 -0.0333  0.2157  0.0733
 8045SOL    HW135594   0.982   4.353   3.784  1.6948 -0.6644  1.9917
 8045SOL    HW235595   0.953   4.289   3.911 -0.2126  0.0677  0.1337
 8046SOL     OW35596   3.720   3.827  12.558 -0.0906 -0.4571 -0.0862
 8046SOL    HW135597   3.784   3.758  12.543  0.7715  0.5515 -1.1080
 8046SOL    HW235598   3.687   3.801  12.643  1.4838 -0.3346  0.5667
 8047SOL     OW35599   1.305   4.512   6.780  0.0741  0.4399  0.4189
 8047SOL    HW135600   1.355   4.516   6.862 -1.0327 -2.5368  1.2489
 8047SOL    HW235601   1.228   4.456   6.790  0.6077 -0.6847 -1.9620
 8048SOL     OW35602   3.610   2.239   5.673  0.5511 -0.3776 -0.1022
 8048SOL    HW135603   3.526   2.277   5.648  0.4865  0.0285  0.7462
 8048SOL    HW235604   3.637   2.188   5.597  0.6768 -1.9039  0.9652
 8049SOL     OW35605   3.354   1.813   1.741  0.1165 -0.4184  0.3920
 8049SOL    HW135606   3.306   1.815   1.658  0.0275 -0.7036  0.4358
 8049SOL    HW235607   3.417   1.884   1.727  0.5770 -0.5278  1.9125
 8050SOL     OW35608   4.036   4.697   8.724 -0.1943 -0.6965  0.6204
 8050SOL    HW135609   4.094   4.625   8.751  2.1347  1.0171  0.1236
 8050SOL    HW235610   4.085   0.045   8.760 -1.3698 -0.2442  1.2920
 8051SOL     OW35611   1.858   1.118   6.724 -0.0502 -0.3339  0.3806
 8051SOL    HW135612   1.856   1.039   6.778 -2.0215  2.1346  3.8907
 8051SOL    HW235613   1.943   1.154   6.750 -0.0025 -1.7258  2.1416
 8052SOL     OW35614   3.620   2.803  15.059 -0.1761 -0.7725 -0.4812
 8052SOL    HW135615   3.618   2.885  15.107 -1.1195 -0.1176 -1.6299
 8052SOL    HW235616   3.568   2.832  14.984  0.2775  0.3943 -0.3349
 8053SOL     OW35617   2.888   4.171   3.116  0.2332 -0.3352  0.2982
 8053SOL    HW135618   2.848   4.090   3.148  2.1477 -0.5342  2.1330
 8053SOL    HW235619   2.915   4.151   3.026 -1.1885  1.4148 -0.5121
 8054SOL     OW35620   0.009   1.648  15.854 -0.0675 -0.0943 -0.4428
 8054SOL    HW135621   0.052   1.701  15.786  0.7862  0.8180  0.8008
 8054SOL    HW235622   4.668   1.702  15.896 -1.6789 -2.0746 -0.4806
 8055SOL     OW35623   0.157   3.451   6.268  0.2260 -0.0172 -0.2789
 8055SOL    HW135624   0.168   3.402   6.187 -0.6149 -0.7115  0.0322
 8055SOL    HW235625   0.248   3.447   6.300 -0.1977  1.6823  1.1372
 8056SOL     OW35626   3.816   0.980   0.633 -0.2977  0.2391 -0.1264
 8056SOL    HW135627   3.815   0.931   0.551  2.7496  0.8877 -0.5682
 8056SOL    HW235628   3.901   0.967   0.675 -0.1057 -1.3042 -0.9901
 8057SOL     OW35629   0.394   2.045  15.444 -0.5010  0.3882 -0.3310
 8057SOL    HW135630   0.375   2.071  15.354 -2.7758 -0.2520 -0.0310
 8057SOL    HW235631   0.486   2.017  15.445 -0.5275  0.3530  1.5212
 8058SOL     OW35632   3.382   0.349   1.784 -0.1395  0.1622 -0.1336
 8058SOL    HW135633   3.357   0.284   1.718 -1.0226  0.3254  0.0317
 8058SOL    HW235634   3.385   0.295   1.863  2.1230  2.4481  1.3096
 8059SOL     OW35635   3.410   0.179   3.380 -0.6503  0.0083  0.9569
 8059SOL    HW135636   3.324   0.195   3.418 -0.1216  3.6053  0.6327
 8059SOL    HW235637   3.453   0.132   3.451 -0.3489 -1.6333 -0.3081
 8060SOL     OW35638   0.949   3.867   7.084  0.4446 -0.2079 -0.2706
 8060SOL    HW135639   1.016   3.799   7.092  0.5070 -0.1973 -0.6962
 8060SOL    HW235640   0.969   3.925   7.010  0.3924 -0.3137 -0.3674
 8061SOL     OW35641   4.655   1.050   9.163 -0.1089  0.3834  0.2857
 8061SOL    HW135642   4.709   0.988   9.213  0.6472  1.8597  1.3034
 8061SOL    HW235643   4.675   1.025   9.073  2.4135 -0.0149  0.9526
 8062SOL     OW35644   0.276   3.928   1.973 -0.0018  0.2642  0.3783
 8062SOL    HW135645   0.298   3.984   1.899 -3.2608 -1.0719 -1.5993
 8062SOL    HW235646   0.282   3.997   2.039  0.3084 -1.8807  2.6058
 8063SOL     OW35647   0.133   1.698   9.204  0.1111 -0.3715 -1.1045
 8063SOL    HW135648   0.104   1.760   9.271  0.4371 -0.8018 -0.5723
 8063SOL    HW235649   0.067   1.629   9.209 -0.4805  0.3314  0.7384
 8064SOL     OW35650   3.181   4.526  16.322 -0.0005 -0.3072  0.1214
 8064SOL    HW135651   3.136   4.446  16.295  1.2677 -0.9194 -0.1729
 8064SOL    HW235652   3.207   4.564  16.238 -0.9691  0.6810  0.2591
 8065SOL     OW35653   2.116   3.773   1.989 -0.0584 -0.3189  0.0097
 8065SOL    HW135654   2.080   3.718   2.060  1.1223 -0.3805  0.5540
 8065SOL    HW235655   2.191   3.816   2.029  0.2572 -1.5795  0.7636
 8066SOL     OW35656   2.477   4.638   8.869 -0.3756  0.3550  0.3546
 8066SOL    HW135657   2.504   4.548   8.847 -1.5906 -0.0189  0.4098
 8066SOL    HW235658   2.393   4.635   8.822 -0.1145 -0.1802 -0.0889
 8067SOL     OW35659   3.299   1.712   6.144  0.1861 -0.0622  0.3789
 8067SOL    HW135660   3.303   1.720   6.239  0.1162  0.0268  0.3734
 8067SOL    HW235661   3.259   1.626   6.133 -2.2890  0.8337  2.3627
 8068SOL     OW35662   3.898   4.289   6.334 -0.4678 -0.5608  0.0100
 8068SOL    HW135663   3.915   4.280   6.428  0.4857  1.9799  0.0951
 8068SOL    HW235664   3.865   4.377   6.314  1.0370 -0.3558 -1.5578
 8069SOL     OW35665   4.327   4.569   8.445 -0.4124 -0.3276 -0.2538
 8069SOL    HW135666   4.343   4.523   8.527 -2.3938 -0.8239 -0.1640
 8069SOL    HW235667   4.417   4.567   8.411 -0.1807  0.4291  0.3254
 8070SOL     OW35668   0.967   1.331   5.386 -0.5328 -0.1999  0.2502
 8070SOL    HW135669   1.030   1.403   5.380  1.2189 -1.7880 -0.3141
 8070SOL    HW235670   0.976   1.295   5.474  0.9893 -2.2566 -0.7615
 8071SOL     OW35671   0.220   1.693   2.805 -0.2962 -0.5470  0.4049
 8071SOL    HW135672   0.134   1.735   2.791 -0.1341 -0.2296  0.3686
 8071SOL    HW235673   0.199   1.617   2.859  0.1805 -2.1689 -1.6773
 8072SOL     OW35674   0.407   0.036   4.217  0.0790  0.3239 -0.3414
 8072SOL    HW135675   0.432   4.684   4.267 -2.1728  1.4340  2.4685
 8072SOL    HW235676   0.434   0.106   4.276 -2.4976 -0.2759  1.5551
 8073SOL     OW35677   2.446   4.516   7.098  0.3369 -0.7248  0.1019
 8073SOL    HW135678   2.418   4.508   7.007 -0.5527 -0.1254  0.3283
 8073SOL    HW235679   2.539   4.539   7.088 -0.2614  1.6463  0.0195
 8074SOL     OW35680   3.475   2.679   1.275 -0.9868 -0.4843  0.6113
 8074SOL    HW135681   3.398   2.731   1.252  0.0009  0.8593  0.4179
 8074SOL    HW235682   3.537   2.664   1.203  1.2840  2.9944  1.8605
 8075SOL     OW35683   3.670   3.052   4.413  0.2322  0.2128  0.0240
 8075SOL    HW135684   3.664   2.960   4.440 -0.0533 -0.6272 -2.9144
 8075SOL    HW235685   3.617   3.055   4.334  0.8386  0.2780 -0.3836
 8076SOL     OW35686   2.835   1.722  11.291 -0.0719  0.0261 -0.4827
 8076SOL    HW135687   2.764   1.718  11.227 -0.8520 -0.9362  0.4459
 8076SOL    HW235688   2.884   1.803  11.273  0.2811 -0.2392 -0.7202
 8077SOL     OW35689   2.019   4.240   6.364  0.1303  0.2803 -0.7206
 8077SOL    HW135690   1.944   4.183   6.353  0.3827 -0.4290  1.2787
 8077SOL    HW235691   1.976   4.326   6.357  1.4458  1.0610  0.6951
 8078SOL     OW35692   1.917   1.036   4.379 -0.2698  0.2953  0.0073
 8078SOL    HW135693   1.846   0.983   4.342  0.8269 -0.4943 -0.9746
 8078SOL    HW235694   1.918   1.110   4.318  0.7643 -0.4761 -0.9146
 8079SOL     OW35695   1.890   2.880   5.871  0.0553 -0.2941  0.1726
 8079SOL    HW135696   1.956   2.900   5.805  0.0628 -0.9358 -0.0144
 8079SOL    HW235697   1.895   2.960   5.924 -2.0856  0.9172 -1.4267
 8080SOL     OW35698   2.051   1.797   1.613  0.6818 -0.1939  0.0111
 8080SOL    HW135699   2.066   1.712   1.655  0.0364  0.6098  1.8683
 8080SOL    HW235700   2.010   1.852   1.680  1.3804  0.1288  0.1648
 8081SOL     OW35701   2.659   2.929  10.518  0.1658  0.0859  0.2575
 8081SOL    HW135702   2.673   2.977  10.436  1.0466  0.9345  0.9049
 8081SOL    HW235703   2.691   2.995  10.578 -1.0643 -0.5899  1.6512
 8082SOL     OW35704   1.032   4.059   3.204  0.3855 -0.1869  0.3068
 8082SOL    HW135705   0.989   3.987   3.158  2.7832 -1.4283  0.0078
 8082SOL    HW235706   1.007   4.046   3.296  0.6221 -3.4506 -0.0797
 8083SOL     OW35707   0.463   4.112   7.492  0.0271 -0.1304  0.0160
 8083SOL    HW135708   0.429   4.170   7.424 -1.5194  2.0973  2.6638
 8083SOL    HW235709   0.481   4.174   7.563  1.8284 -1.7148  0.9322
 8084SOL     OW35710   3.398   4.026   3.664  0.1199 -0.0011  0.5775
 8084SOL    HW135711   3.443   4.010   3.581  0.5482 -0.1141  0.8326
 8084SOL    HW235712   3.465   4.066   3.720  3.0320 -0.5423 -2.4522
 8085SOL     OW35713   4.335   3.594   7.978 -0.4662  0.3043  0.3091
 8085SOL    HW135714   4.430   3.604   7.965 -0.5238 -0.7255 -0.8995
 8085SOL    HW235715   4.325   3.507   7.940 -1.2187 -0.1940  1.6319
 8086SOL     OW35716   1.424   2.172   1.933 -0.3516 -0.1066 -0.4248
 8086SOL    HW135717   1.503   2.121   1.947  0.5087  0.2223 -4.0703
 8086SOL    HW235718   1.359   2.130   1.990 -0.6752  1.0647  0.0719
 8087SOL     OW35719   1.481   3.387  10.381  0.0295 -0.6536 -0.0873
 8087SOL    HW135720   1.400   3.337  10.387  1.0210 -1.8945  2.5844
 8087SOL    HW235721   1.449   3.467  10.338 -0.7649 -0.7219  0.3768
 8088SOL     OW35722   2.133   0.224   0.607 -0.7448  0.0264 -0.0343
 8088SOL    HW135723   2.055   0.174   0.580 -1.6379  1.0727  0.6150
 8088SOL    HW235724   2.119   0.304   0.556  1.3857 -0.9899 -2.1630
 8089SOL     OW35725   0.157   3.329   1.629  0.0021 -0.2990 -0.0172
 8089SOL    HW135726   0.238   3.298   1.589 -1.5993 -2.5470 -1.5482
 8089SOL    HW235727   0.190   3.409   1.670  0.9129  0.0472 -1.4198
 8090SOL     OW35728   3.215   2.045   2.311 -0.0744 -0.4826 -0.4706
 8090SOL    HW135729   3.307   2.068   2.314 -0.0842 -0.0774 -3.0172
 8090SOL    HW235730   3.197   2.012   2.399 -1.8708  0.6293 -0.4133
 8091SOL     OW35731   4.402   0.682   5.336 -0.0440  0.0803 -0.1211
 8091SOL    HW135732   4.446   0.643   5.260 -0.5646 -0.3444 -0.2022
 8091SOL    HW235733   4.404   0.616   5.405  1.3500  0.7635  0.5013
 8092SOL     OW35734   4.323   0.991   1.930  0.2404 -0.5110  0.1717
 8092SOL    HW135735   4.403   0.939   1.919 -0.1767 -1.0254 -0.4460
 8092SOL    HW235736   4.261   0.925   1.898 -1.3435  2.4149 -2.7939
 8093SOL     OW35737   3.546   3.864  15.665 -0.2279  0.2393 -0.0095
 8093SOL    HW135738   3.536   3.905  15.751 -1.1036  0.7662 -0.3664
 8093SOL    HW235739   3.596   3.930  15.619  0.4988 -2.0470 -2.4626
 8094SOL     OW35740   2.431   2.153   5.171 -0.0510  0.4920  0.2754
 8094SOL    HW135741   2.526   2.154   5.165 -0.0403 -0.1220  0.3241
 8094SOL    HW235742   2.418   2.068   5.129 -0.3916  0.2861  0.7826
 8095SOL     OW35743   4.201   3.703  10.170 -0.1667 -0.4913  0.0249
 8095SOL    HW135744   4.234   3.782  10.212 -0.5746  0.1653 -0.8956
 8095SOL    HW235745   4.120   3.701  10.221  0.1599 -2.7967  0.4527
 8096SOL     OW35746   0.404   3.803  13.764 -0.2494  0.2973 -0.1961
 8096SOL    HW135747   0.359   3.887  13.781 -0.9457 -0.5504  2.1789
 8096SOL    HW235748   0.473   3.841  13.710 -0.1505  0.1144 -0.1979
 8097SOL     OW35749   2.970   2.339   8.467 -0.8617 -0.5530 -0.1049
 8097SOL    HW135750   2.974   2.386   8.550  0.9533 -0.9606  0.0539
 8097SOL    HW235751   2.918   2.400   8.416 -2.9260 -2.0717  0.1755
 8098SOL     OW35752   0.708   1.463  16.228 -0.1886  0.5469  0.2776
 8098SOL    HW135753   0.745   1.427  16.309 -0.9917  0.5310  0.6355
 8098SOL    HW235754   0.780   1.446  16.168 -1.7103  0.1844 -1.4196
 8099SOL     OW35755   3.347   3.873   8.063 -0.5121 -0.2672  0.4057
 8099SOL    HW135756   3.341   3.879   7.968 -0.6436  2.0821  0.5673
 8099SOL    HW235757   3.271   3.822   8.091 -1.6918  0.4697 -1.5300
 8100SOL     OW35758   4.279   3.739   5.775 -0.1165 -0.0417  0.4538
 8100SOL    HW135759   4.318   3.780   5.698 -1.6567 -3.9601 -2.3576
 8100SOL    HW235760   4.192   3.724   5.738  1.3637 -0.8835 -2.6390
 8101SOL     OW35761   1.221   3.594   2.187 -0.1256 -0.0301  0.0785
 8101SOL    HW135762   1.170   3.674   2.173  2.8757  2.5529  3.8260
 8101SOL    HW235763   1.293   3.607   2.126  1.0804  2.7486  2.0623
 8102SOL     OW35764   1.895   2.436   1.249  0.3996 -0.0096  0.3220
 8102SOL    HW135765   1.807   2.399   1.259  0.0653  0.5174 -0.6108
 8102SOL    HW235766   1.888   2.495   1.174 -1.9322 -1.1622 -0.3650
 8103SOL     OW35767   0.096   0.400   6.566 -0.0773  0.0999 -0.1471
 8103SOL    HW135768   0.130   0.317   6.532  2.1036  0.5979  0.8304
 8103SOL    HW235769   0.001   0.393   6.567 -0.1073  0.5472 -0.2571
 8104SOL     OW35770   0.144   0.139   5.777 -0.8917 -0.3000 -0.1638
 8104SOL    HW135771   0.056   0.143   5.814 -0.4288 -1.5320  1.0450
 8104SOL    HW235772   0.193   0.109   5.854 -1.1667 -0.4687 -0.0543
 8105SOL     OW35773   2.449   4.101  16.377 -0.4394  0.6690  0.2424
 8105SOL    HW135774   2.394   4.023  16.365 -0.6076  0.7854  0.2648
 8105SOL    HW235775   2.480   4.086  16.467  1.7717 -3.0265 -1.1359
 8106SOL     OW35776   0.899   4.393   9.755 -0.1432 -0.1039  0.3405
 8106SOL    HW135777   0.850   4.328   9.704  3.1456 -1.1477 -1.5163
 8106SOL    HW235778   0.949   4.420   9.678  1.5094  0.6217  1.6684
 8107SOL     OW35779   2.118   4.419   9.370  0.1619  0.2385 -0.4450
 8107SOL    HW135780   2.211   4.396   9.362  0.5007  0.2781  3.3441
 8107SOL    HW235781   2.125   4.508   9.404  2.2485 -0.0623 -0.0553
 8108SOL     OW35782   4.356   2.292   0.625  0.3951  0.5481  0.4136
 8108SOL    HW135783   4.413   2.258   0.557  2.3234  0.7792  1.9183
 8108SOL    HW235784   4.400   2.292   0.710  0.0586  3.8765  0.5847
 8109SOL     OW35785   4.667   2.928   0.752 -0.0822  0.0579 -0.0899
 8109SOL    HW135786   4.659   2.960   0.842 -5.6270 -0.8068 -0.2452
 8109SOL    HW235787   4.593   2.867   0.751 -1.4625  1.6900  0.4895
 8110SOL     OW35788   3.494   2.376   2.942  0.2774 -0.0248  0.1314
 8110SOL    HW135789   3.427   2.442   2.923 -0.5037 -0.9741 -0.4093
 8110SOL    HW235790   3.530   2.416   3.021 -2.3157  2.1824  0.2047
 8111SOL     OW35791   0.852   0.806   7.055 -0.2876  0.0050 -0.3677
 8111SOL    HW135792   0.802   0.729   7.027 -0.6587  0.6212 -1.3956
 8111SOL    HW235793   0.944   0.781   7.051 -0.4635 -0.6866 -0.0692
 8112SOL     OW35794   0.394   1.347   7.148 -0.2075 -0.2737 -0.5107
 8112SOL    HW135795   0.377   1.259   7.116 -0.2022 -0.8769  1.1206
 8112SOL    HW235796   0.344   1.406   7.092 -0.8431  1.2827  1.7034
 8113SOL     OW35797   0.396   4.673   9.418 -0.1817 -0.1577 -0.9029
 8113SOL    HW135798   0.460   4.645   9.483 -2.2370 -1.0293  0.7717
 8113SOL    HW235799   0.448   4.711   9.348  0.4395  0.4781 -0.0933
 8114SOL     OW35800   0.332   1.925   5.914 -0.2067 -0.6953  0.3588
 8114SOL    HW135801   0.405   1.986   5.908 -2.2626  1.6334 -1.4300
 8114SOL    HW235802   0.370   1.855   5.861 -0.3144 -0.7566  0.3620
 8115SOL     OW35803   3.928   1.686   5.489 -0.2147 -0.2128 -0.0816
 8115SOL    HW135804   3.936   1.595   5.517  0.9132  0.1117  0.6469
 8115SOL    HW235805   3.884   1.671   5.405  0.5702 -0.9027 -0.3728
 8116SOL     OW35806   2.370   1.650   8.169  0.0556  0.1080  0.0878
 8116SOL    HW135807   2.321   1.687   8.095  0.8763  0.5696 -0.2192
 8116SOL    HW235808   2.405   1.730   8.208 -0.8864  0.9911 -0.8468
 8117SOL     OW35809   0.801   0.580   9.280 -0.4923  0.7424 -0.7247
 8117SOL    HW135810   0.737   0.645   9.310 -0.0125  1.2998 -0.9128
 8117SOL    HW235811   0.785   0.499   9.328  0.8781  0.5872 -0.5419
 8118SOL     OW35812   1.456   4.655   3.568  0.1857  0.5497 -0.1370
 8118SOL    HW135813   1.550   4.643   3.555 -0.1027 -0.0222 -1.6661
 8118SOL    HW235814   1.425   4.566   3.584 -0.5820  0.7327 -0.6284
 8119SOL     OW35815   0.088   2.177   8.057  0.0123 -0.6060  0.0269
 8119SOL    HW135816   0.145   2.107   8.089 -1.2428 -0.7562  1.9374
 8119SOL    HW235817   0.155   2.228   8.012 -0.2400 -0.4527 -0.1764
 8120SOL     OW35818   2.959   1.091   0.016 -0.2900 -0.0396  0.2239
 8120SOL    HW135819   2.863   1.097   0.019 -0.4143 -3.5021  3.2063
 8120SOL    HW235820   2.981   1.177   0.053  0.5854 -0.5104  0.7833
 8121SOL     OW35821   0.401   1.741   7.727  0.0996  0.0509 -0.4521
 8121SOL    HW135822   0.328   1.679   7.725  0.0558  0.0701  0.5197
 8121SOL    HW235823   0.459   1.717   7.654 -0.5865  0.4454 -1.1311
 8122SOL     OW35824   2.317   0.950   0.124  0.6252  0.0067  0.2541
 8122SOL    HW135825   2.295   0.865   0.088  1.3815  0.9777 -2.4970
 8122SOL    HW235826   2.336   0.937   0.217  0.2447  1.9340  0.5981
 8123SOL     OW35827   1.692   1.005  14.850  0.1211  0.2676  0.1418
 8123SOL    HW135828   1.623   0.938  14.848  4.0951 -3.7742 -0.5734
 8123SOL    HW235829   1.770   0.949  14.850 -1.4891 -1.9566 -1.3915
 8124SOL     OW35830   0.452   1.335  10.645 -0.3582 -0.2570 -0.3168
 8124SOL    HW135831   0.367   1.327  10.687 -0.1827  0.0003  0.0881
 8124SOL    HW235832   0.464   1.429  10.639  0.1156 -0.4564 -2.6734
 8125SOL     OW35833   3.935   1.465  10.059 -0.5467 -0.0188 -0.8119
 8125SOL    HW135834   3.903   1.429   9.976 -1.3441 -2.2988  0.4883
 8125SOL    HW235835   3.959   1.555  10.036 -1.3045  0.1175 -1.0974
 8126SOL     OW35836   2.003   4.052   4.200 -0.2920 -0.1489  0.1372
 8126SOL    HW135837   2.032   3.980   4.145 -1.7495  0.1318 -0.9962
 8126SOL    HW235838   1.927   4.015   4.246 -0.0715  0.0919  0.6929
 8127SOL     OW35839   0.127   0.522   7.943 -0.8276 -0.3832 -0.1759
 8127SOL    HW135840   0.101   0.605   7.983 -1.8104 -0.5185 -0.5359
 8127SOL    HW235841   0.167   0.551   7.861 -1.8968  1.7635  0.0721
 8128SOL     OW35842   2.486   4.678   6.610  0.7755 -0.3331  0.1684
 8128SOL    HW135843   2.418   4.721   6.557  2.0087  1.0062 -0.3236
 8128SOL    HW235844   2.458   4.586   6.613  3.3157 -1.1195 -0.4919
 8129SOL     OW35845   1.241   1.519   8.832  0.3807  0.5447  0.2497
 8129SOL    HW135846   1.318   1.498   8.886  0.4550 -0.9321 -0.4237
 8129SOL    HW235847   1.283   1.577   8.769 -0.0130  1.0752  0.4762
 8130SOL     OW35848   4.122   4.719  12.414 -0.7029  0.4114 -0.0306
 8130SOL    HW135849   4.165   0.040  12.342 -0.4633 -1.0285 -0.8068
 8130SOL    HW235850   4.112   0.067  12.475 -0.0605 -1.0875  1.9109
 8131SOL     OW35851   1.898   0.418   6.956 -0.0589 -0.1413  0.0779
 8131SOL    HW135852   1.904   0.347   6.892 -0.1003 -1.1358  1.1891
 8131SOL    HW235853   1.929   0.367   7.031  1.3575 -0.4827 -0.7349
 8132SOL     OW35854   2.058   3.141   2.674  0.0570  0.0203  0.1377
 8132SOL    HW135855   2.140   3.182   2.702 -0.2374  2.2955 -2.3808
 8132SOL    HW235856   2.089   3.061   2.631  0.2090  0.7054 -1.0205
 8133SOL     OW35857   0.537   4.208   8.122  0.1356  0.7378  0.1119
 8133SOL    HW135858   0.456   4.255   8.141 -0.4619 -0.1036 -0.3451
 8133SOL    HW235859   0.546   4.205   8.027  1.1580  0.6635  0.2076
 8134SOL     OW35860   1.368   4.645   5.780 -0.0387 -0.1054 -0.3643
 8134SOL    HW135861   1.420   4.723   5.800  1.9904 -1.0638 -1.8900
 8134SOL    HW235862   1.411   4.620   5.699  0.1482  1.4005 -0.7307
 8135SOL     OW35863   1.341   2.332   2.227 -0.7568  0.0637  0.0856
 8135SOL    HW135864   1.272   2.371   2.281 -0.3677  1.8386 -0.6931
 8135SOL    HW235865   1.327   2.378   2.144  0.7627 -0.9824 -0.7371
 8136SOL     OW35866   4.686   4.239   5.717  0.3428 -0.6377 -0.3381
 8136SOL    HW135867   0.055   4.248   5.704  0.5421 -0.1936  1.3985
 8136SOL    HW235868   4.671   4.301   5.788  3.3661 -0.6616  0.3435
 8137SOL     OW35869   0.361   2.650  11.000  0.3640  0.2107  0.0870
 8137SOL    HW135870   0.309   2.580  11.041  0.2265  1.2366  1.6503
 8137SOL    HW235871   0.420   2.591  10.953 -0.1872 -0.5569  0.3546
 8138SOL     OW35872   1.108   2.264   2.963  0.2297  0.2920 -0.4517
 8138SOL    HW135873   1.174   2.299   2.903 -0.2765  0.0445 -1.1554
 8138SOL    HW235874   1.051   2.222   2.898  0.3785 -2.3979  1.1611
 8139SOL     OW35875   1.431   2.723   2.991 -0.2926  0.3302  0.3270
 8139SOL    HW135876   1.367   2.671   2.942 -0.4817 -0.2977  1.2396
 8139SOL    HW235877   1.387   2.720   3.076  0.3861 -3.2146  0.5417
 8140SOL     OW35878   1.610   3.194  15.678  0.4407 -0.5455  0.4274
 8140SOL    HW135879   1.640   3.135  15.747 -0.1002  0.1664  1.2782
 8140SOL    HW235880   1.623   3.138  15.602  2.2168  1.0349 -0.4373
 8141SOL     OW35881   2.484   3.909   3.469  0.0669 -0.8880  0.3024
 8141SOL    HW135882   2.485   4.004   3.477 -1.6559 -0.9237  1.1364
 8141SOL    HW235883   2.464   3.899   3.376  2.3400  1.0598 -0.3793
 8142SOL     OW35884   2.783   4.442   4.896 -0.2094  0.4593 -0.3896
 8142SOL    HW135885   2.811   4.372   4.836  0.6267 -0.8067  1.4745
 8142SOL    HW235886   2.698   4.470   4.864  0.5343  0.2152 -2.6183
 8143SOL     OW35887   2.103   1.696   6.515  0.2815 -0.0640 -0.6387
 8143SOL    HW135888   2.114   1.790   6.533  1.2476  0.2379 -2.6914
 8143SOL    HW235889   2.079   1.661   6.600  0.0218  0.3215 -0.5512
 8144SOL     OW35890   1.075   0.075  16.759  0.6095  0.2339  0.1894
 8144SOL    HW135891   1.133   0.028  16.819 -0.0090  0.8354  1.2380
 8144SOL    HW235892   1.063   0.008  16.692 -0.6877  0.3234  0.3436
 8145SOL     OW35893   1.788   2.710   8.340  0.1101  0.4096 -0.6718
 8145SOL    HW135894   1.780   2.629   8.391  1.4683 -0.4617 -1.8505
 8145SOL    HW235895   1.708   2.708   8.287  0.0250 -3.3734 -0.3650
 8146SOL     OW35896   3.035   3.020   1.380  0.0177  0.6516 -0.0753
 8146SOL    HW135897   3.072   3.042   1.295 -1.1453 -1.6282 -1.1649
 8146SOL    HW235898   3.084   3.078   1.439  2.2427 -2.7611  1.4573
 8147SOL     OW35899   3.607   3.909  12.302  0.4276  0.5086  0.0023
 8147SOL    HW135900   3.673   3.852  12.263  2.0105  2.5463 -0.3115
 8147SOL    HW235901   3.624   3.884  12.393 -0.4316  0.3092  0.1078
 8148SOL     OW35902   4.094   1.690   5.906  0.4365 -0.2542 -0.1940
 8148SOL    HW135903   4.030   1.635   5.861  0.2932 -0.2158 -0.0344
 8148SOL    HW235904   4.128   1.747   5.836  2.6366 -0.0970  0.9966
 8149SOL     OW35905   3.603   4.690   5.152 -0.4057  0.0517  0.1155
 8149SOL    HW135906   3.659   4.673   5.076 -1.4512  1.6468 -1.0111
 8149SOL    HW235907   3.670   0.002   5.209 -0.1785 -1.9405  1.1369
 8150SOL     OW35908   2.832   4.484   3.946 -0.3782 -0.2171  0.7560
 8150SOL    HW135909   2.909   4.540   3.956 -1.0083  1.0100 -1.3459
 8150SOL    HW235910   2.884   4.405   3.929 -1.7107 -1.0162  0.3847
 8151SOL     OW35911   1.729   2.170  15.875 -0.3325  0.0810 -0.4098
 8151SOL    HW135912   1.819   2.184  15.905 -1.6142  2.2403  2.3802
 8151SOL    HW235913   1.743   2.190  15.782  0.6104  0.4482 -0.1891
 8152SOL     OW35914   4.365   4.708  11.504 -0.3141 -0.1911  0.4810
 8152SOL    HW135915   4.458   4.720  11.487  0.1137 -2.4758  1.1969
 8152SOL    HW235916   4.364   4.669  11.592  1.7089  1.3649  1.2096
 8153SOL     OW35917   0.327   1.198   3.354  0.1423  0.0699 -0.1516
 8153SOL    HW135918   0.372   1.114   3.366 -0.3966 -0.3294 -0.9220
 8153SOL    HW235919   0.293   1.216   3.441  0.4847  1.5161 -0.3128
 8154SOL     OW35920   0.502   3.905   2.793 -0.2480  0.0558 -0.7414
 8154SOL    HW135921   0.440   3.840   2.761  0.1329 -1.0457  0.6906
 8154SOL    HW235922   0.453   3.986   2.784  1.7723  1.5339  1.3780
 8155SOL     OW35923   3.343   3.870  13.411 -0.2566  0.4898  0.0846
 8155SOL    HW135924   3.347   3.775  13.403  2.1445  0.5524  0.4379
 8155SOL    HW235925   3.370   3.908  13.328  1.3689  1.7461  1.1885
 8156SOL     OW35926   0.184   3.199   7.034 -0.1904  0.3100 -0.0771
 8156SOL    HW135927   0.193   3.249   6.952  0.5677  0.1105 -0.1150
 8156SOL    HW235928   0.161   3.267   7.097  0.4375 -0.5324  1.0399
 8157SOL     OW35929   1.618   4.294   7.071 -0.1152  0.3037  0.0468
 8157SOL    HW135930   1.687   4.360   7.074  0.1743  0.1757 -2.9203
 8157SOL    HW235931   1.539   4.348   7.071  0.6933  1.4689  1.0335
 8158SOL     OW35932   1.970   2.152   0.788 -0.0615  0.0396  0.0329
 8158SOL    HW135933   2.018   2.140   0.706  0.7775  0.5532  0.4410
 8158SOL    HW235934   2.009   2.229   0.829 -1.1141  0.4770  0.2078
 8159SOL     OW35935   4.580   1.727   3.110  0.2245 -0.0530 -0.7174
 8159SOL    HW135936   4.606   1.812   3.075 -0.2446  0.4999  0.2679
 8159SOL    HW235937   4.661   1.694   3.149 -0.1369 -0.3619 -0.2318
 8160SOL     OW35938   2.649   4.425   7.606 -0.3522 -0.3591  0.2215
 8160SOL    HW135939   2.642   4.394   7.697  0.7740 -1.4738 -0.0713
 8160SOL    HW235940   2.698   4.506   7.617  0.1096 -0.4431 -1.2720
 8161SOL     OW35941   3.968   1.026   4.238 -0.3907  0.5605  0.0224
 8161SOL    HW135942   4.017   1.015   4.157 -1.6519  1.2855 -0.8271
 8161SOL    HW235943   4.012   0.959   4.291  0.5599  0.9955 -0.2125
 8162SOL     OW35944   3.974   1.339  13.761 -0.1045 -0.3643 -0.0156
 8162SOL    HW135945   3.916   1.416  13.763 -0.3926 -0.6491  2.3066
 8162SOL    HW235946   3.916   1.263  13.760  1.2981 -1.4337 -0.0162
 8163SOL     OW35947   1.455   4.339   4.375  0.1498 -0.5133  0.1639
 8163SOL    HW135948   1.392   4.298   4.316  0.9510  1.2148 -1.8851
 8163SOL    HW235949   1.398   4.363   4.448 -0.1720  0.0842 -0.2826
 8164SOL     OW35950   2.996   0.254   3.369  0.2880  0.1398 -0.0964
 8164SOL    HW135951   2.939   0.326   3.398 -1.4221 -1.1604 -0.2349
 8164SOL    HW235952   3.075   0.275   3.419  0.6277  3.8620 -2.2103
 8165SOL     OW35953   0.529   0.246   2.471 -0.1479 -0.4020  0.8101
 8165SOL    HW135954   0.502   0.154   2.477  1.7907 -1.0653 -0.6563
 8165SOL    HW235955   0.624   0.245   2.485 -0.4364  0.3006  2.8417
 8166SOL     OW35956   2.375   3.516   0.952  0.0797  0.1101 -0.2091
 8166SOL    HW135957   2.326   3.528   0.871  1.4170 -0.9184 -1.1578
 8166SOL    HW235958   2.417   3.434   0.926 -2.1556  0.1259 -3.8960
 8167SOL     OW35959   4.500   3.174   0.745  0.2184  0.0084  0.4521
 8167SOL    HW135960   4.521   3.095   0.796  0.5148  0.8548  1.6423
 8167SOL    HW235961   4.514   3.241   0.812 -3.8616  1.6506 -0.3294
 8168SOL     OW35962   1.064   2.756  12.573 -0.7649  0.0164  0.2351
 8168SOL    HW135963   1.129   2.727  12.509  0.3791  0.2479  1.3022
 8168SOL    HW235964   0.993   2.768  12.510  0.0365 -0.4411 -0.7533
 8169SOL     OW35965   0.685   1.085   4.376  0.0658  0.4026  0.4648
 8169SOL    HW135966   0.617   1.070   4.311 -0.7137  1.2753  1.0676
 8169SOL    HW235967   0.726   1.000   4.362 -1.2289 -0.0938 -0.2695
 8170SOL     OW35968   2.920   2.494   4.106 -0.2980 -0.1084  0.6201
 8170SOL    HW135969   2.999   2.545   4.087 -1.3893  1.0589 -0.8397
 8170SOL    HW235970   2.936   2.417   4.051  1.6810  0.5368  0.2930
 8171SOL     OW35971   2.869   1.027   5.522  0.1901 -0.3180  0.1330
 8171SOL    HW135972   2.798   0.969   5.494  1.3481 -1.8711  0.3957
 8171SOL    HW235973   2.832   1.070   5.599  0.1174 -1.1904  0.5911
 8172SOL     OW35974   3.547   2.536   4.487  0.6162  0.2724  0.0827
 8172SOL    HW135975   3.603   2.470   4.527  1.5593  0.2004 -1.3471
 8172SOL    HW235976   3.501   2.579   4.559 -0.0181  0.2910 -0.3324
 8173SOL     OW35977   2.492   2.410   4.965 -0.7349  0.4510  0.2541
 8173SOL    HW135978   2.502   2.505   4.962  0.0625  0.3400 -0.4503
 8173SOL    HW235979   2.433   2.397   4.891 -1.3425  1.4100  0.5748
 8174SOL     OW35980   2.102   0.313   8.784 -0.0411  0.0836  0.5743
 8174SOL    HW135981   2.016   0.302   8.742 -0.2447 -2.2546  1.6027
 8174SOL    HW235982   2.127   0.381   8.721 -0.9717 -1.0296 -1.0212
 8175SOL     OW35983   2.542   0.408   5.103 -0.4729  0.2908  0.5669
 8175SOL    HW135984   2.496   0.358   5.036  0.7524  0.6807 -0.5596
 8175SOL    HW235985   2.591   0.332   5.135 -1.0138 -0.4328 -0.3483
 8176SOL     OW35986   1.652   2.639  10.259  0.3699  1.1363 -0.3079
 8176SOL    HW135987   1.675   2.731  10.251 -0.6098  1.4938  0.9450
 8176SOL    HW235988   1.618   2.626  10.170  0.7639 -0.9969 -0.1601
 8177SOL     OW35989   1.698   0.482   4.116 -0.0308  0.4846  0.2234
 8177SOL    HW135990   1.615   0.491   4.070 -0.0575 -0.6811  0.0572
 8177SOL    HW235991   1.757   0.460   4.043 -1.1944  0.8387 -0.8111
 8178SOL     OW35992   3.772   4.014   7.169 -0.4950  0.8771  0.3049
 8178SOL    HW135993   3.823   4.094   7.182 -1.0489  1.1602  0.7129
 8178SOL    HW235994   3.818   3.975   7.094  0.9910  2.7382  0.2572
 8179SOL     OW35995   0.292   3.734  16.134 -0.6601  0.0702  0.0889
 8179SOL    HW135996   0.209   3.705  16.170  0.2081 -2.5690 -0.0735
 8179SOL    HW235997   0.296   3.826  16.162 -1.3649  0.3484 -0.7150
 8180SOL     OW35998   3.938   0.405   8.033  0.3553 -0.2750 -0.2055
 8180SOL    HW135999   4.034   0.409   8.036  0.3866 -0.9702 -0.5040
 8180SOL    HW236000   3.927   0.364   8.119 -2.2378  2.5782  0.8282
 8181SOL     OW36001   1.610   1.511   1.212  0.3930 -0.2046  0.2446
 8181SOL    HW136002   1.533   1.473   1.254  0.9304 -1.0217  0.5029
 8181SOL    HW236003   1.621   1.604   1.228  0.9013  0.0105 -1.3485
 8182SOL     OW36004   0.684   3.593   3.474 -0.0444 -0.2065  0.6886
 8182SOL    HW136005   0.689   3.659   3.405 -1.7376 -1.0724 -0.2404
 8182SOL    HW236006   0.624   3.622   3.543  0.2941  2.6037 -0.2164
 8183SOL     OW36007   0.571   1.780   8.909 -0.0010 -0.1537 -0.2261
 8183SOL    HW136008   0.481   1.752   8.929  0.3950 -1.1327  0.1961
 8183SOL    HW236009   0.565   1.857   8.965 -0.3826  0.0129 -0.4942
 8184SOL     OW36010   2.149   0.128   4.741  0.3776 -0.2627 -0.0264
 8184SOL    HW136011   2.083   0.060   4.739  1.1566 -0.9794 -1.0294
 8184SOL    HW236012   2.115   0.179   4.815  2.5020  0.6222  0.3591
 8185SOL     OW36013   2.150   2.006   5.272  1.0434 -0.7551 -0.2561
 8185SOL    HW136014   2.169   2.095   5.302 -1.0491 -1.0048  1.8632
 8185SOL    HW236015   2.232   1.986   5.227  0.0129  0.4646 -2.6268
 8186SOL     OW36016   4.571   4.443   5.327 -0.2799  0.2946 -0.2883
 8186SOL    HW136017   4.542   4.422   5.416 -2.1978  1.9198 -0.5263
 8186SOL    HW236018   4.514   4.382   5.279 -0.0720 -0.0568 -0.0909
 8187SOL     OW36019   1.878   0.784   5.464 -0.1782 -0.5867 -0.1906
 8187SOL    HW136020   1.943   0.847   5.433  1.3168 -2.2613 -0.4051
 8187SOL    HW236021   1.873   0.719   5.394  0.5797  2.2655 -2.8866
 8188SOL     OW36022   0.720   1.677  14.325  1.1022  0.1063  0.3539
 8188SOL    HW136023   0.674   1.598  14.354  1.0594 -0.7278 -2.0147
 8188SOL    HW236024   0.729   1.733  14.402  0.3971 -1.1664  1.3569
 8189SOL     OW36025   0.567   4.324  16.908  0.4981  0.6581  0.3869
 8189SOL    HW136026   0.654   4.298  16.938  1.3128  0.6660 -1.8972
 8189SOL    HW236027   0.548   4.374  16.987 -0.7929  2.5275 -1.1103
 8190SOL     OW36028   1.577   2.780  17.153  0.4960  0.4305  0.2108
 8190SOL    HW136029   1.521   2.843  17.109  2.5883  2.1966  0.0845
 8190SOL    HW236030   1.596   2.714  17.086  0.6232  0.2103  0.4622
 8191SOL     OW36031   1.896   3.919   5.267 -0.2945 -0.8019 -0.3148
 8191SOL    HW136032   1.985   3.943   5.293 -0.2415 -0.5385 -0.7326
 8191SOL    HW236033   1.900   3.824   5.280 -0.3689 -0.5277  1.7104
 8192SOL     OW36034   1.501   3.446  15.714 -0.0529  0.6026 -0.8797
 8192SOL    HW136035   1.530   3.360  15.685 -2.5336 -1.4016  2.5507
 8192SOL    HW236036   1.416   3.469  15.675  0.1386  0.9782 -1.0764
 8193SOL     OW36037   1.289   2.463   3.169  0.0211  0.0526 -0.8341
 8193SOL    HW136038   1.374   2.477   3.210 -0.6167 -1.5323  1.0183
 8193SOL    HW236039   1.309   2.469   3.075  0.8387 -3.7336 -0.8871
 8194SOL     OW36040   1.776   0.366  16.084 -0.8410 -0.2250  0.0480
 8194SOL    HW136041   1.686   0.381  16.111 -1.8507  0.6510 -3.8513
 8194SOL    HW236042   1.803   0.434  16.022  0.4587 -2.7113 -2.1525
 8195SOL     OW36043   4.692   2.243   8.629 -0.4322  0.4045 -0.9514
 8195SOL    HW136044   4.685   2.338   8.626  0.4214  0.5533  2.1202
 8195SOL    HW236045   0.062   2.234   8.633 -0.4315 -0.4343 -2.7265
 8196SOL     OW36046   0.262   1.169   6.616 -0.0189  0.2445  0.2420
 8196SOL    HW136047   0.276   1.202   6.705  0.6411  0.4117  0.0790
 8196SOL    HW236048   0.297   1.236   6.557 -0.4356  1.9155  1.8783
 8197SOL     OW36049   3.388   3.152   7.207 -0.0663 -0.0890  0.1810
 8197SOL    HW136050   3.461   3.181   7.260  1.0425  1.1583 -2.0297
 8197SOL    HW236051   3.343   3.090   7.264  1.1939  0.3941  1.6729
 8198SOL     OW36052   3.633   3.184  17.275 -0.3581  0.1486  0.3215
 8198SOL    HW136053   3.652   3.136  17.194 -0.4989  2.1509 -0.8832
 8198SOL    HW236054   3.538   3.172  17.269 -0.2848 -0.6855  0.7787
 8199SOL     OW36055   1.053   2.298   6.871 -0.2173  0.2468  0.0080
 8199SOL    HW136056   1.139   2.295   6.830 -0.7265 -0.0325 -1.0227
 8199SOL    HW236057   1.061   2.377   6.924  0.4811 -0.6780  1.2939
 8200SOL     OW36058   0.102   3.079   6.488  0.2334 -0.0686 -0.3270
 8200SOL    HW136059   0.187   3.097   6.448  0.6448  1.0869  1.1199
 8200SOL    HW236060   0.051   3.045   6.414  0.5194  2.6174 -1.7752
 8201SOL     OW36061   2.867   4.301   8.593 -0.1000  0.3171 -0.0198
 8201SOL    HW136062   2.929   4.336   8.529 -1.4196  0.8353 -0.9984
 8201SOL    HW236063   2.931   4.252   8.645 -0.5065 -0.1497  0.0352
 8202SOL     OW36064   1.558   2.376   8.026 -0.6250 -0.2147  0.5053
 8202SOL    HW136065   1.560   2.350   8.118  0.7261 -1.0428  0.2598
 8202SOL    HW236066   1.469   2.408   8.015 -0.3076  0.5880  0.3134
 8203SOL     OW36067   0.942   1.217  13.362 -0.1087  0.2316 -0.8352
 8203SOL    HW136068   1.002   1.179  13.426 -0.0026 -0.5315 -1.3838
 8203SOL    HW236069   0.999   1.280  13.317  0.7079 -1.2501 -1.8709
 8204SOL     OW36070   4.399   1.556   1.341  0.2203  0.3505  0.2525
 8204SOL    HW136071   4.316   1.523   1.307 -0.5541  0.0523  2.4326
 8204SOL    HW236072   4.383   1.566   1.435 -1.4780 -0.0466  0.0020
 8205SOL     OW36073   2.098   1.780   5.991 -0.5538 -0.6628 -0.0793
 8205SOL    HW136074   2.056   1.717   6.049 -0.7086  0.1945  0.7372
 8205SOL    HW236075   2.151   1.829   6.055 -0.1208 -0.7875 -0.3404
 8206SOL     OW36076   0.694   4.333   6.441 -0.5134  0.5139  0.5701
 8206SOL    HW136077   0.647   4.261   6.400 -1.3870  0.2878  1.9510
 8206SOL    HW236078   0.624   4.398   6.438  0.0025  1.1272  1.7504
 8207SOL     OW36079   4.325   3.090   7.216 -0.4632 -0.0154  0.2123
 8207SOL    HW136080   4.337   3.131   7.131 -0.5750  1.9244  1.1216
 8207SOL    HW236081   4.360   3.003   7.200  1.6705  0.3364  2.9640
 8208SOL     OW36082   3.014   3.847  13.397  0.3534  0.2935  0.0804
 8208SOL    HW136083   2.948   3.785  13.366  0.5736  0.2839 -0.3631
 8208SOL    HW236084   3.076   3.844  13.324  1.8997  0.5436  1.3511
 8209SOL     OW36085   2.198   2.231   0.545  0.1960  0.2596  0.6866
 8209SOL    HW136086   2.278   2.194   0.508 -0.6012 -0.5266 -0.2439
 8209SOL    HW236087   2.231   2.241   0.634 -1.7042 -4.1378  1.9214
 8210SOL     OW36088   1.612   1.753   5.969 -0.1183  0.3940 -0.3921
 8210SOL    HW136089   1.673   1.708   5.911  0.5075  2.0519 -1.0434
 8210SOL    HW236090   1.623   1.710   6.053 -1.8180 -1.0630 -0.9294
 8211SOL     OW36091   3.026   0.301   2.834 -0.1922 -0.1951  0.2142
 8211SOL    HW136092   2.983   0.229   2.880  1.2680 -1.0639  0.2218
 8211SOL    HW236093   3.116   0.298   2.867 -0.6567 -1.6425  1.3866
 8212SOL     OW36094   3.352   4.243  13.717  0.2622 -0.6741  0.0227
 8212SOL    HW136095   3.345   4.244  13.812 -0.0706  3.6706 -0.0605
 8212SOL    HW236096   3.383   4.154  13.703  0.9129 -0.3513 -0.6002
 8213SOL     OW36097   2.973   1.201   3.053 -0.1656  0.0693  0.4723
 8213SOL    HW136098   2.936   1.117   3.078 -0.3575 -0.0314 -0.1375
 8213SOL    HW236099   3.054   1.206   3.103 -1.5879 -0.3610  2.7795
 8214SOL     OW36100   3.932   1.303   2.622  0.2567 -0.6460  0.3107
 8214SOL    HW136101   4.000   1.371   2.627 -0.7578  0.2313  2.1095
 8214SOL    HW236102   3.988   1.226   2.626 -0.7973 -1.2989  2.2032
 8215SOL     OW36103   4.348   4.175   5.943 -0.1176  0.5958  0.0902
 8215SOL    HW136104   4.261   4.209   5.964 -0.0559 -0.5293  2.2170
 8215SOL    HW236105   4.337   4.085   5.973 -3.2433  1.5462  1.8346
 8216SOL     OW36106   1.149   2.352   3.452  0.5026  0.6079 -1.2088
 8216SOL    HW136107   1.197   2.293   3.395  1.1083 -0.0548  0.0025
 8216SOL    HW236108   1.096   2.282   3.488 -1.2682  0.6901 -3.6385
 8217SOL     OW36109   1.377   0.791   6.397  0.3708 -0.3390  0.0736
 8217SOL    HW136110   1.394   0.705   6.359 -0.9607 -1.0923  1.1983
 8217SOL    HW236111   1.285   0.775   6.418  0.3000 -0.6588 -0.4915
 8218SOL     OW36112   4.083   4.582   6.723  0.0725  0.5220  0.0523
 8218SOL    HW136113   4.106   4.674   6.708  2.0278  0.3848  2.2678
 8218SOL    HW236114   4.128   4.548   6.645 -1.8532 -2.8721  0.4400
 8219SOL     OW36115   1.213   2.899   0.443  0.1152 -0.0417 -0.0069
 8219SOL    HW136116   1.296   2.905   0.489 -0.1452  0.2299  0.4283
 8219SOL    HW236117   1.175   2.823   0.487  2.8554 -0.0831  2.3007
 8220SOL     OW36118   2.492   2.800  16.592  0.2650 -0.1045  0.0773
 8220SOL    HW136119   2.396   2.795  16.589  0.1972  0.8990  0.5269
 8220SOL    HW236120   2.509   2.890  16.563 -0.5089  1.3371  4.1799
 8221SOL     OW36121   2.855   1.555  13.668  0.3319  0.0821  0.0309
 8221SOL    HW136122   2.878   1.559  13.761 -1.9564 -0.1357  0.6013
 8221SOL    HW236123   2.932   1.512  13.630  1.5958  1.8186  0.6326
 8222SOL     OW36124   0.335   4.021   4.519 -0.7856  0.2040  0.8039
 8222SOL    HW136125   0.337   4.089   4.452  1.7643 -1.2721 -0.6331
 8222SOL    HW236126   0.386   3.946   4.486 -1.8048  0.0583 -0.4236
 8223SOL     OW36127   1.421   1.983   2.885 -0.2189 -0.3867 -0.1254
 8223SOL    HW136128   1.427   2.038   2.807  0.3196  0.9378  0.8408
 8223SOL    HW236129   1.456   2.049   2.946 -2.5315  1.1048 -0.3936
 8224SOL     OW36130   1.236   3.223   1.408  0.4384  0.1771  0.1831
 8224SOL    HW136131   1.144   3.223   1.434 -0.4128  1.9496 -2.7547
 8224SOL    HW236132   1.238   3.317   1.391  2.0603 -0.3404 -2.5053
 8225SOL     OW36133   2.661   1.503   3.799 -0.6970  0.1188  0.0854
 8225SOL    HW136134   2.680   1.541   3.713  1.6062 -1.5022 -0.1303
 8225SOL    HW236135   2.656   1.588   3.843 -3.0985  0.6706 -1.2506
 8226SOL     OW36136   2.243   1.134  17.559 -0.3560 -0.2119 -0.5675
 8226SOL    HW136137   2.251   1.040  17.547  1.6639 -0.3263  1.7420
 8226SOL    HW236138   2.327   1.152  17.602  1.1303 -2.8877 -2.3795
 8227SOL     OW36139   4.581   3.734  12.783  0.4687 -0.5955  0.4094
 8227SOL    HW136140   4.497   3.699  12.752  0.2788 -0.1791  0.4667
 8227SOL    HW236141   4.628   3.653  12.763 -1.4813 -1.9163  1.1802
 8228SOL     OW36142   3.939   2.262   5.708 -0.4135 -0.5126  0.1716
 8228SOL    HW136143   3.971   2.292   5.623  1.2688 -1.1562  0.5759
 8228SOL    HW236144   3.868   2.323   5.726  1.0520  1.7332 -1.6836
 8229SOL     OW36145   3.730   0.701  16.424 -0.6618  0.7172  0.5750
 8229SOL    HW136146   3.655   0.696  16.364 -0.9573  0.9447  0.9268
 8229SOL    HW236147   3.684   0.677  16.504  1.4455  0.2592  1.6357
 8230SOL     OW36148   2.184   2.025   4.938 -0.5363  0.2793 -0.5419
 8230SOL    HW136149   2.159   1.970   4.864 -2.9882 -2.7870  2.5403
 8230SOL    HW236150   2.244   1.964   4.981 -2.6496 -0.8117  0.8546
 8231SOL     OW36151   1.672   4.164   4.315  0.1213 -0.0484  0.4149
 8231SOL    HW136152   1.612   4.128   4.250  1.8738 -1.5926 -0.3558
 8231SOL    HW236153   1.616   4.213   4.376  0.5743  1.9800 -0.8013
 8232SOL     OW36154   4.648   0.037   7.397 -0.2885  0.6021 -0.3420
 8232SOL    HW136155   4.609   0.122   7.419 -0.6051  0.7853 -1.6062
 8232SOL    HW236156   4.582   4.697   7.421 -0.2137  0.7722  0.3314
 8233SOL     OW36157   3.546   3.608   7.671  0.0461 -0.0091 -0.6663
 8233SOL    HW136158   3.641   3.620   7.667 -0.0832  1.6653  1.4125
 8233SOL    HW236159   3.520   3.700   7.660 -1.0016 -0.7203 -4.3194
 8234SOL     OW36160   2.781   1.423   9.108  0.2318 -0.2485  0.0779
 8234SOL    HW136161   2.834   1.498   9.082  0.9803 -0.9068 -0.2736
 8234SOL    HW236162   2.834   1.404   9.186  2.1719  0.4645 -1.0764
 8235SOL     OW36163   3.577   2.626   4.832 -0.2522 -0.0287 -0.2372
 8235SOL    HW136164   3.625   2.705   4.807 -0.6706 -0.3987 -2.1758
 8235SOL    HW236165   3.497   2.637   4.780 -1.2760  1.7249  1.7130
 8236SOL     OW36166   3.915   0.446   9.429  0.4649  0.3779 -0.4195
 8236SOL    HW136167   4.004   0.423   9.454  0.8268 -0.7442 -2.7059
 8236SOL    HW236168   3.875   0.438   9.515  0.6415  0.2358 -0.3501
 8237SOL     OW36169   4.396   1.284   1.041 -0.5281 -0.0768  0.0372
 8237SOL    HW136170   4.368   1.374   1.023 -1.1949 -0.3842 -0.4732
 8237SOL    HW236171   4.458   1.272   0.969 -0.2052  3.2094 -0.2268
 8238SOL     OW36172   3.078   1.878   4.571 -0.4468  0.4408 -0.0036
 8238SOL    HW136173   3.171   1.856   4.581 -1.1135 -1.8895  1.1678
 8238SOL    HW236174   3.056   1.812   4.504  2.4528  1.1856 -1.6854
 8239SOL     OW36175   4.343   4.547   9.264  0.1742  0.2599 -0.1144
 8239SOL    HW136176   4.427   4.518   9.300  0.2983  0.5415 -0.1796
 8239SOL    HW236177   4.306   4.588   9.343 -0.2719  1.0017 -0.7156
 8240SOL     OW36178   3.533   3.980   6.144 -0.4741  0.0768  0.3491
 8240SOL    HW136179   3.523   4.065   6.102 -3.8899 -0.2663  0.4846
 8240SOL    HW236180   3.608   3.943   6.098 -0.0570 -0.4040  1.4091
 8241SOL     OW36181   4.674   1.592   1.029  0.1529 -0.9780 -0.0765
 8241SOL    HW136182   4.666   1.617   1.121 -2.6560  1.3875 -0.9264
 8241SOL    HW236183   4.685   1.677   0.985 -2.9157  0.1174  1.2352
 8242SOL     OW36184   2.585   1.768  16.869  0.0296  0.0655 -0.2793
 8242SOL    HW136185   2.499   1.728  16.865 -1.2732  2.6665  1.5268
 8242SOL    HW236186   2.632   1.694  16.909 -0.7333 -0.6725 -0.7588
 8243SOL     OW36187   1.015   1.150   3.895 -0.2552 -0.3140 -0.0210
 8243SOL    HW136188   0.941   1.206   3.870  1.1934  0.9637 -1.4754
 8243SOL    HW236189   1.084   1.215   3.880  0.2280 -0.9929 -0.6912
 8244SOL     OW36190   2.597   1.315   2.016  0.5996  0.4862  0.5470
 8244SOL    HW136191   2.573   1.377   1.947  0.0346  0.9532  1.1654
 8244SOL    HW236192   2.618   1.238   1.964  0.6501  0.3930  0.7059
 8245SOL     OW36193   1.100   1.876   5.745 -0.2611 -0.2276 -0.4601
 8245SOL    HW136194   1.179   1.830   5.776 -2.1531 -2.7186  0.6811
 8245SOL    HW236195   1.028   1.822   5.779  0.1188  0.9696  2.3119
 8246SOL     OW36196   2.204   4.215   4.802 -0.1343  0.2254 -0.1532
 8246SOL    HW136197   2.153   4.295   4.814 -0.5901 -0.1599  0.4931
 8246SOL    HW236198   2.142   4.170   4.744 -0.3637 -0.5591  0.7036
 8247SOL     OW36199   2.482   2.524  10.644 -0.4285  0.4861  0.5496
 8247SOL    HW136200   2.533   2.585  10.592 -0.3656  1.2152  1.4616
 8247SOL    HW236201   2.550   2.472  10.687  0.7080  1.3581 -0.2036
 8248SOL     OW36202   2.582   0.395   7.192 -0.4687  0.4608  0.8798
 8248SOL    HW136203   2.537   0.433   7.117 -0.5865 -0.9220  0.2468
 8248SOL    HW236204   2.599   0.309   7.155 -1.3323  1.0367 -0.8201
 8249SOL     OW36205   4.066   1.422   8.090 -0.3485  0.5508 -0.5133
 8249SOL    HW136206   4.058   1.449   7.999 -0.1682 -0.6405 -0.8839
 8249SOL    HW236207   4.133   1.357   8.070 -1.1237 -0.2315 -0.5893
 8250SOL     OW36208   4.369   1.143   7.819  0.2403 -0.0291 -0.1745
 8250SOL    HW136209   4.357   1.084   7.744 -1.3292  0.5803 -0.3936
 8250SOL    HW236210   4.455   1.182   7.803 -0.3971  1.6824  0.6172
 8251SOL     OW36211   0.961   2.459  14.421  0.1110 -0.4818  0.3514
 8251SOL    HW136212   1.051   2.492  14.418 -0.1127  0.1227  0.2599
 8251SOL    HW236213   0.921   2.527  14.474  1.1104 -0.0437  0.5420
 8252SOL     OW36214   0.205   1.293   1.835 -0.0617  0.3566  0.0065
 8252SOL    HW136215   0.173   1.227   1.774  0.4756 -0.8922  1.0842
 8252SOL    HW236216   0.288   1.266   1.873  0.5277  0.8257 -0.9519
 8253SOL     OW36217   2.934   0.348   4.870  0.1052  0.2113 -0.3751
 8253SOL    HW136218   2.996   0.374   4.938 -0.4089  0.1522  0.1170
 8253SOL    HW236219   2.986   0.296   4.809  2.9990  0.6422  1.7798
 8254SOL     OW36220   1.954   1.462   3.602  0.1329  0.5132  0.1535
 8254SOL    HW136221   1.866   1.454   3.637 -0.0559 -0.2482 -0.4959
 8254SOL    HW236222   1.937   1.540   3.549  0.7805 -0.2950 -1.2469
 8255SOL     OW36223   2.967   0.587   0.333  0.6303  0.0941  0.3602
 8255SOL    HW136224   2.917   0.519   0.378  1.4211 -0.9877 -0.3729
 8255SOL    HW236225   2.920   0.579   0.250  1.1595 -1.5463  0.2172
 8256SOL     OW36226   0.742   4.382  11.573 -0.2124 -0.7772  0.0508
 8256SOL    HW136227   0.670   4.409  11.630  0.0231  0.9950 -0.4847
 8256SOL    HW236228   0.778   4.315  11.631 -2.5598 -3.0369 -1.1461
 8257SOL     OW36229   3.309   2.262   3.289  0.0642  0.1222  0.1868
 8257SOL    HW136230   3.354   2.327   3.343  2.9641 -2.3719  0.7804
 8257SOL    HW236231   3.344   2.183   3.329 -2.0538 -1.6976 -1.5233
 8258SOL     OW36232   0.295   4.045  10.581 -0.2657 -0.3089  0.3515
 8258SOL    HW136233   0.341   4.098  10.516 -1.6359 -0.0420 -0.3943
 8258SOL    HW236234   0.314   3.955  10.554 -0.7338  0.0123 -1.0346
 8259SOL     OW36235   1.082   1.096   3.026  0.1603 -0.3232  0.2506
 8259SOL    HW136236   1.032   1.103   2.945  1.2868 -0.0077 -0.4221
 8259SOL    HW236237   1.171   1.071   3.002  0.5123  2.5438 -1.3443
 8260SOL     OW36238   3.281   4.322  17.319  0.5382  0.2414  0.2748
 8260SOL    HW136239   3.335   4.243  17.319 -0.9781 -0.8355 -3.4246
 8260SOL    HW236240   3.340   4.397  17.312 -0.2000  0.6762 -1.4547
 8261SOL     OW36241   3.460   1.376   7.753  0.3226  0.1847  0.3007
 8261SOL    HW136242   3.504   1.437   7.813  1.4295  0.0889 -0.4079
 8261SOL    HW236243   3.389   1.427   7.713  1.6716  1.1557 -0.8329
 8262SOL     OW36244   4.101   3.281  13.027 -0.0114 -0.8366  0.1580
 8262SOL    HW136245   4.174   3.282  13.088 -0.9893 -1.2602  1.3212
 8262SOL    HW236246   4.031   3.280  13.092 -1.1772  1.7660 -0.9971
 8263SOL     OW36247   3.610   1.230  17.623 -0.1590 -0.2297 -0.1137
 8263SOL    HW136248   3.544   1.253  17.558 -0.4598  0.2748  0.3773
 8263SOL    HW236249   3.652   1.160  17.573  0.1643  0.6890 -1.1310
 8264SOL     OW36250   3.857   0.667  15.256 -0.6897 -0.2456 -0.1410
 8264SOL    HW136251   3.854   0.587  15.307 -0.7831 -0.1667 -0.0236
 8264SOL    HW236252   3.919   0.650  15.185 -0.5038 -0.8452  0.1758
 8265SOL     OW36253   0.960   1.593   5.739  0.1813 -0.2729 -0.3002
 8265SOL    HW136254   0.900   1.522   5.717  0.0394 -0.2351 -0.0397
 8265SOL    HW236255   1.044   1.548   5.742 -0.2797 -1.0837  0.2255
 8266SOL     OW36256   0.144   4.209   6.051  0.3441 -0.1376  0.1558
 8266SOL    HW136257   0.114   4.129   6.009 -0.0405  2.3644 -4.2671
 8266SOL    HW236258   0.069   4.229   6.107 -0.5721 -1.2426 -0.6824
 8267SOL     OW36259   3.201   2.545   2.630 -0.1050  0.1331  0.2141
 8267SOL    HW136260   3.261   2.563   2.558  0.3124 -0.1408  0.4935
 8267SOL    HW236261   3.257   2.561   2.706 -1.0503  0.0485  0.9266
 8268SOL     OW36262   2.078   1.265   8.100  0.3740  0.0937  0.3978
 8268SOL    HW136263   2.027   1.307   8.032  1.1736 -0.4989 -0.5738
 8268SOL    HW236264   2.122   1.337   8.145 -0.9250  0.9181  0.3606
 8269SOL     OW36265   4.211   1.446   2.694  0.1905 -0.2192  0.0713
 8269SOL    HW136266   4.205   1.454   2.599  0.6521 -1.6993 -0.0881
 8269SOL    HW236267   4.227   1.353   2.713  2.1394 -0.4211 -2.6726
 8270SOL     OW36268   1.085   3.069   4.277 -0.3474 -0.0146 -0.1359
 8270SOL    HW136269   1.031   3.076   4.199  1.0882 -0.5017 -1.1776
 8270SOL    HW236270   1.085   2.975   4.294 -1.6668  0.2548  1.3996
 8271SOL     OW36271   0.863   4.254  16.910  0.2598  0.2005  0.2164
 8271SOL    HW136272   0.841   4.211  16.827 -0.3559  0.5383  0.2065
 8271SOL    HW236273   0.956   4.238  16.927 -0.1427 -2.9311 -0.4547
 8272SOL     OW36274   0.278   1.186   0.380 -0.1123  0.0117  0.3537
 8272SOL    HW136275   0.290   1.279   0.400  1.3267  0.4237 -2.4258
 8272SOL    HW236276   0.361   1.153   0.414  0.5475  1.5318  0.2083
 8273SOL     OW36277   4.622   1.240  15.788  0.1901 -0.1308  0.3753
 8273SOL    HW136278   4.657   1.152  15.783  0.2261 -0.1396  0.7631
 8273SOL    HW236279   4.689   1.290  15.834 -0.6790  0.0787  1.4020
 8274SOL     OW36280   2.303   2.283  17.521  0.7061  0.0872 -0.0424
 8274SOL    HW136281   2.307   2.352  17.455  1.6288 -0.4364 -0.5288
 8274SOL    HW236282   2.218   2.249  17.494 -0.4580  1.8359  1.4336
 8275SOL     OW36283   1.015   1.427   7.854 -0.0893 -0.2805  0.0243
 8275SOL    HW136284   0.958   1.363   7.897 -0.3174 -0.7968 -1.0327
 8275SOL    HW236285   1.012   1.382   7.770  1.0206  2.7267 -1.6228
 8276SOL     OW36286   1.519   2.665   5.166 -0.5182 -0.1094 -0.0618
 8276SOL    HW136287   1.481   2.643   5.251  0.2779  1.3049  0.6545
 8276SOL    HW236288   1.580   2.591   5.170 -0.1271  0.0586 -2.7640
 8277SOL     OW36289   3.892   3.698  10.814  0.0607 -0.2996 -0.3944
 8277SOL    HW136290   3.960   3.762  10.834  0.2709 -0.9606  0.9928
 8277SOL    HW236291   3.955   3.631  10.790 -0.8237 -1.3194  0.1374
 8278SOL     OW36292   2.672   1.076   2.230 -0.8487  0.0361  0.3267
 8278SOL    HW136293   2.679   0.982   2.209 -1.0315  0.0162  0.3552
 8278SOL    HW236294   2.630   1.102   2.148  0.6556 -0.8356 -0.7267
 8279SOL     OW36295   3.884   1.838   2.492 -0.4217 -0.7756  0.4829
 8279SOL    HW136296   3.966   1.823   2.445 -0.1346 -3.1200  1.7605
 8279SOL    HW236297   3.828   1.887   2.432  1.4114  1.5307  0.6514
 8280SOL     OW36298   1.783   3.565   2.599 -0.1063  0.0359 -0.0313
 8280SOL    HW136299   1.703   3.511   2.594 -0.4310  0.5749 -0.7459
 8280SOL    HW236300   1.782   3.581   2.693  0.6434  1.0687 -0.2006
 8281SOL     OW36301   2.774   0.473   3.743  0.1358  0.4189 -0.4052
 8281SOL    HW136302   2.723   0.551   3.719 -1.9374 -0.8015  0.0208
 8281SOL    HW236303   2.718   0.404   3.708  0.9459 -0.0724 -0.7211
 8282SOL     OW36304   1.308   1.346   7.882 -0.3299 -0.5494  0.0400
 8282SOL    HW136305   1.225   1.343   7.834  0.1215  0.4492 -0.7933
 8282SOL    HW236306   1.367   1.327   7.810  0.1600  0.6129  0.1310
 8283SOL     OW36307   3.542   1.091   8.365 -0.4287  0.1657  0.4583
 8283SOL    HW136308   3.584   1.005   8.363 -0.6540  0.1210 -4.0659
 8283SOL    HW236309   3.613   1.148   8.336 -0.5475  0.0185 -0.1266
 8284SOL     OW36310   3.840   4.422   6.739 -0.0003 -0.0252  0.3158
 8284SOL    HW136311   3.884   4.500   6.772 -0.0618  0.1067  0.0880
 8284SOL    HW236312   3.752   4.456   6.720 -0.3745  0.4142  2.8330
 8285SOL     OW36313   3.879   1.708   4.711 -0.2419 -0.0914 -0.4433
 8285SOL    HW136314   3.885   1.751   4.797 -2.1562 -0.6285 -0.0368
 8285SOL    HW236315   3.790   1.727   4.681 -1.2872 -2.3484  1.2077
 8286SOL     OW36316   0.708   1.681   3.285  0.4265 -0.0947  0.1814
 8286SOL    HW136317   0.650   1.631   3.342  0.6127 -2.2376 -1.4828
 8286SOL    HW236318   0.780   1.698   3.347  2.2355 -2.4788 -1.2526
 8287SOL     OW36319   2.576   4.286   2.276 -0.7943  0.4012  0.0914
 8287SOL    HW136320   2.490   4.317   2.249 -0.0044  1.7995 -0.8698
 8287SOL    HW236321   2.621   4.357   2.323  0.2080 -0.8066  0.9657
 8288SOL     OW36322   0.778   4.568   2.728  0.3189  0.0702  0.5674
 8288SOL    HW136323   0.794   4.638   2.792  1.7880 -1.0634  1.4325
 8288SOL    HW236324   0.684   4.553   2.742 -0.1091  0.9147 -1.4034
 8289SOL     OW36325   2.436   0.870   3.775  0.4581  0.0009  0.0136
 8289SOL    HW136326   2.391   0.944   3.816 -1.5321 -0.8268 -0.7024
 8289SOL    HW236327   2.414   0.873   3.682  1.3921 -1.6886 -0.2639
 8290SOL     OW36328   0.153   4.333  10.037  0.1258  0.1378 -0.3477
 8290SOL    HW136329   0.211   4.259  10.021 -0.8855 -0.2442 -2.3446
 8290SOL    HW236330   0.072   4.282  10.040  0.1732  0.1006  0.2595
 8291SOL     OW36331   3.453   2.775   0.825  0.6327 -0.5355  0.1562
 8291SOL    HW136332   3.366   2.738   0.807  1.5099 -2.6506  0.2813
 8291SOL    HW236333   3.503   2.723   0.888  1.4625  0.2425  0.1339
 8292SOL     OW36334   3.515   4.525  10.730  0.1177 -0.6930  0.1095
 8292SOL    HW136335   3.598   4.505  10.687  0.0032 -3.4597  1.1941
 8292SOL    HW236336   3.479   4.601  10.684 -1.1640 -1.3175  0.0816
 8293SOL     OW36337   3.134   2.697  17.468 -0.3416  0.0195  0.1750
 8293SOL    HW136338   3.120   2.631  17.400  0.6729  1.3934 -1.3657
 8293SOL    HW236339   3.047   2.691  17.509 -0.4022 -1.2354 -0.1421
 8294SOL     OW36340   4.127   3.957   0.452  0.0730 -0.1657  0.5683
 8294SOL    HW136341   4.083   4.037   0.423 -0.3417  0.4119  2.8586
 8294SOL    HW236342   4.171   3.933   0.370  2.5443  0.3904  1.7512
 8295SOL     OW36343   2.108   2.666   5.880 -0.0222  0.2802 -0.1246
 8295SOL    HW136344   2.045   2.695   5.945  0.1534  1.4922 -0.4804
 8295SOL    HW236345   2.103   2.571   5.882  1.4781  0.1980 -0.2726
 8296SOL     OW36346   3.559   2.215   0.991  0.3491 -0.0405  0.3517
 8296SOL    HW136347   3.634   2.273   1.005  0.4794 -0.2681  0.6023
 8296SOL    HW236348   3.591   2.165   0.916 -0.1954  0.9430 -0.5248
 8297SOL     OW36349   1.052   4.174   7.670 -0.8625  0.1963 -0.8889
 8297SOL    HW136350   1.136   4.186   7.625 -1.5066  2.8198 -1.3433
 8297SOL    HW236351   1.077   4.191   7.761 -1.7590 -1.1608 -0.3897
 8298SOL     OW36352   3.815   2.919   4.980 -0.4670 -0.2125 -0.1786
 8298SOL    HW136353   3.797   2.920   4.886  1.7102 -1.6768 -0.6088
 8298SOL    HW236354   3.742   2.971   5.015 -0.1703 -0.6510  1.0696
 8299SOL     OW36355   3.689   1.381  10.770 -0.1776 -0.2259 -0.5448
 8299SOL    HW136356   3.715   1.322  10.699 -1.5218 -0.4746 -0.8163
 8299SOL    HW236357   3.729   1.452  10.720  0.2037  1.0143  1.5194
 8300SOL     OW36358   0.871   2.799  12.764  0.3404 -0.2207  0.0599
 8300SOL    HW136359   0.925   2.775  12.688  0.1250 -0.8726  0.1120
 8300SOL    HW236360   0.864   2.894  12.752  0.9014 -0.1778  0.0693
 8301SOL     OW36361   3.991   2.803   8.456 -0.2772  0.0144 -0.0177
 8301SOL    HW136362   4.028   2.738   8.397 -1.7464 -2.2594  1.5804
 8301SOL    HW236363   4.018   2.883   8.410  0.2432  0.3779  0.9199
 8302SOL     OW36364   0.690   1.262  13.542 -0.2321  0.0702  0.0297
 8302SOL    HW136365   0.689   1.184  13.597 -1.2504 -1.5499 -2.2854
 8302SOL    HW236366   0.756   1.242  13.476  0.2111  2.7420 -0.3685
 8303SOL     OW36367   2.989   4.293   3.819 -0.1109 -0.1403  0.5230
 8303SOL    HW136368   2.953   4.341   3.745 -0.4290 -1.5815 -0.2614
 8303SOL    HW236369   3.048   4.231   3.778 -3.1515 -1.2184 -2.2493
 8304SOL     OW36370   2.182   0.974   1.807 -0.4721  0.0485  0.3183
 8304SOL    HW136371   2.233   1.027   1.868 -1.0417  1.1342 -0.1438
 8304SOL    HW236372   2.184   1.039   1.736 -2.5044 -1.3646 -1.0210
 8305SOL     OW36373   3.345   0.698   1.266  0.3206  0.5847 -0.1527
 8305SOL    HW136374   3.440   0.702   1.272  0.2621 -0.9268  1.7999
 8305SOL    HW236375   3.340   0.605   1.243  1.6279  0.6124 -0.5505
 8306SOL     OW36376   2.563   0.313   2.367 -0.5934 -0.4896 -0.4623
 8306SOL    HW136377   2.532   0.257   2.438  1.9326  0.1020  1.0917
 8306SOL    HW236378   2.624   0.366   2.418  0.6159 -1.5187 -0.8295
 8307SOL     OW36379   3.694   1.672   9.872  0.6919 -0.1102  0.2512
 8307SOL    HW136380   3.622   1.614   9.896 -0.3654  0.0353 -2.4841
 8307SOL    HW236381   3.699   1.651   9.778  0.5026  0.8728  0.0157
 8308SOL     OW36382   2.603   2.290   9.061 -0.1162  0.0617  0.5850
 8308SOL    HW136383   2.672   2.280   9.126  0.9638 -0.2753 -0.5948
 8308SOL    HW236384   2.595   2.385   9.068 -0.8332  0.0998 -0.6354
 8309SOL     OW36385   1.670   3.665   5.010 -0.0165 -0.5474 -0.3671
 8309SOL    HW136386   1.630   3.581   5.033 -0.2473  0.2036  1.9586
 8309SOL    HW236387   1.764   3.651   5.015  0.0488 -0.0134 -0.0193
 8310SOL     OW36388   0.613   3.798   2.490  0.4877  0.6611 -0.1006
 8310SOL    HW136389   0.575   3.735   2.429 -1.8343  0.7789  1.2081
 8310SOL    HW236390   0.532   3.825   2.534 -0.7248  1.1862 -2.6353
 8311SOL     OW36391   0.573   2.333   8.323 -0.5120 -0.2080  0.0561
 8311SOL    HW136392   0.666   2.321   8.340 -0.7153  0.6181  1.7440
 8311SOL    HW236393   0.579   2.371   8.235 -1.2169  0.5557  0.3426
 8312SOL     OW36394   0.737   1.379  12.529  0.0619  0.0297 -0.3110
 8312SOL    HW136395   0.794   1.413  12.598 -2.2288  0.1091  1.5269
 8312SOL    HW236396   0.797   1.367  12.456 -0.5683 -0.9028 -0.6775
 8313SOL     OW36397   0.893   1.267   9.789  0.2670  0.4141  0.2641
 8313SOL    HW136398   0.803   1.242   9.810  0.3807 -0.5564 -0.4010
 8313SOL    HW236399   0.876   1.296   9.699  0.0249  0.4172  0.3107
 8314SOL     OW36400   0.048   4.187   8.065  0.1763 -0.5222 -0.1758
 8314SOL    HW136401   0.118   4.240   8.026  0.6168 -2.8334 -2.5229
 8314SOL    HW236402   0.085   4.190   8.154 -0.7047  1.1113  0.1403
 8315SOL     OW36403   1.715   0.746   4.454 -0.2044  0.4137 -0.4673
 8315SOL    HW136404   1.770   0.694   4.512 -1.6373  0.0901  0.6211
 8315SOL    HW236405   1.740   0.729   4.364  0.8566 -1.4115  0.1658
 8316SOL     OW36406   0.608   0.443   0.802 -0.0635 -0.2438  0.2698
 8316SOL    HW136407   0.539   0.378   0.815 -1.0746  0.4513 -1.5996
 8316SOL    HW236408   0.678   0.389   0.840 -0.5223  0.1593  1.6804
 8317SOL     OW36409   3.119   2.783   5.123 -0.1261  0.7082  0.0746
 8317SOL    HW136410   3.106   2.831   5.041 -1.1325 -0.2633 -0.3460
 8317SOL    HW236411   3.213   2.767   5.126 -0.1207  0.9417  1.0347
 8318SOL     OW36412   1.734   1.629  14.884 -0.3579  0.5894  0.1866
 8318SOL    HW136413   1.776   1.615  14.800  0.6414  2.3241  0.3731
 8318SOL    HW236414   1.682   1.550  14.896  0.6280 -0.2776 -1.3208
 8319SOL     OW36415   1.769   2.949   9.559 -0.5012  0.0356  0.5655
 8319SOL    HW136416   1.852   2.979   9.596 -0.4265 -1.0520  1.2766
 8319SOL    HW236417   1.719   2.968   9.638  1.2039 -0.5900  1.7923
 8320SOL     OW36418   0.312   1.399   6.228 -0.4003  0.2706  0.5075
 8320SOL    HW136419   0.239   1.338   6.240  0.2800 -0.5570  0.3435
 8320SOL    HW236420   0.298   1.425   6.137  0.8145 -1.3767 -0.1316
 8321SOL     OW36421   1.802   0.914   5.086 -0.3867 -0.4459  0.1079
 8321SOL    HW136422   1.818   1.006   5.106  2.2631 -1.0771  0.9426
 8321SOL    HW236423   1.773   0.916   4.995  0.5074  3.6797 -0.0830
 8322SOL     OW36424   3.903   2.845   4.087 -0.8842  0.0047  0.3675
 8322SOL    HW136425   3.964   2.855   4.014  1.1880  0.0817  2.1139
 8322SOL    HW236426   3.845   2.775   4.054 -2.4840  0.8630  1.3432
 8323SOL     OW36427   1.248   2.873   6.175  0.6162 -0.3235  0.0293
 8323SOL    HW136428   1.165   2.920   6.167  2.6231  3.0742 -1.1343
 8323SOL    HW236429   1.215   2.789   6.205  1.8365 -0.7046  0.3110
 8324SOL     OW36430   0.067   3.996   5.898  0.5744  1.1246  0.5483
 8324SOL    HW136431   4.701   4.005   5.868  0.3641 -0.3198  0.7452
 8324SOL    HW236432   0.068   3.915   5.948 -1.4619  1.4088  1.0741
 8325SOL     OW36433   3.409   0.390   3.821 -0.2151 -0.0999 -0.4630
 8325SOL    HW136434   3.447   0.324   3.764  2.2003  1.2735 -0.4441
 8325SOL    HW236435   3.480   0.400   3.885  1.5171  1.4983 -2.6291
 8326SOL     OW36436   1.032   3.533   5.150 -0.9060  0.0712 -0.0900
 8326SOL    HW136437   1.012   3.505   5.240  3.1219  1.9824  1.4072
 8326SOL    HW236438   1.121   3.564   5.169 -0.7413  0.5558 -1.6838
 8327SOL     OW36439   0.680   4.321   1.507  0.2527 -0.5136 -0.2217
 8327SOL    HW136440   0.689   4.270   1.588  2.3591  1.2503  0.6591
 8327SOL    HW236441   0.596   4.364   1.521  0.5439 -0.0588  0.1526
 8328SOL     OW36442   4.706   2.424   4.641 -0.5541 -0.1564 -0.2472
 8328SOL    HW136443   0.011   2.370   4.714 -0.5720 -1.1767 -1.0087
 8328SOL    HW236444   0.055   2.414   4.582 -0.6018  3.3240 -0.9423
 8329SOL     OW36445   2.330   1.798   2.146  0.0436  0.2757 -0.3287
 8329SOL    HW136446   2.407   1.770   2.197 -0.5244 -0.1523  0.3032
 8329SOL    HW236447   2.365   1.833   2.065 -2.1671 -0.2876 -1.5216
 8330SOL     OW36448   2.378   1.310   7.898 -0.2453  0.0604  0.1802
 8330SOL    HW136449   2.372   1.253   7.822 -0.7716  0.9494 -0.4373
 8330SOL    HW236450   2.380   1.244   7.968  1.8896  0.2360  0.2717
 8331SOL     OW36451   4.304   1.370  11.604  0.4224 -0.4528 -0.6252
 8331SOL    HW136452   4.384   1.343  11.648  0.9319  1.6422 -0.2557
 8331SOL    HW236453   4.256   1.288  11.613  0.7116 -0.4556  0.8382
 8332SOL     OW36454   0.515   3.926   5.967  0.1503  0.0564 -0.6373
 8332SOL    HW136455   0.604   3.916   6.001  0.9277 -0.2626 -2.7965
 8332SOL    HW236456   0.482   3.838   5.986  0.3615 -0.0687 -0.8518
 8333SOL     OW36457   3.931   2.602   7.800  0.7588 -0.1049 -0.0747
 8333SOL    HW136458   3.874   2.539   7.756 -0.9317  3.7293 -3.3629
 8333SOL    HW236459   3.944   2.569   7.889  1.1337 -0.7817 -0.3842
 8334SOL     OW36460   0.745   4.375   9.106  0.2443 -0.4440  0.0449
 8334SOL    HW136461   0.745   4.303   9.170 -0.2116 -0.3878  0.1032
 8334SOL    HW236462   0.667   4.413   9.146 -0.8050 -2.2983 -0.2069
 8335SOL     OW36463   1.967   3.365   1.215  0.3590  0.2061  0.3255
 8335SOL    HW136464   1.892   3.415   1.183 -0.8691 -2.4742 -0.9955
 8335SOL    HW236465   2.008   3.341   1.132  0.8117  0.9468  0.3394
 8336SOL     OW36466   3.558   4.018   8.920 -0.0920  0.5990 -0.5395
 8336SOL    HW136467   3.532   3.944   8.865 -2.5626  2.0256 -1.2736
 8336SOL    HW236468   3.510   4.091   8.881 -1.6588 -0.1402  0.0113
 8337SOL     OW36469   3.345   1.058   5.370  0.1846 -0.4757  0.3258
 8337SOL    HW136470   3.262   1.026   5.334 -0.1216 -0.4242  0.9722
 8337SOL    HW236471   3.357   1.144   5.328  1.2166 -0.7313  0.0929
 8338SOL     OW36472   2.889   1.018   1.846 -0.3221 -0.2967 -0.4359
 8338SOL    HW136473   2.883   0.993   1.754  0.9843 -2.7267  0.1315
 8338SOL    HW236474   2.968   0.968   1.867  0.7568  0.4928 -2.6254
 8339SOL     OW36475   3.910   0.283  10.623  0.3045 -0.3409 -1.0386
 8339SOL    HW136476   3.892   0.374  10.598 -2.7455 -0.2725  1.4367
 8339SOL    HW236477   3.995   0.267  10.583 -0.0257  0.9893 -2.2564
 8340SOL     OW36478   3.005   3.063   6.699 -0.1144 -0.1822 -0.1942
 8340SOL    HW136479   2.917   3.027   6.688 -0.3834 -0.0013  1.3973
 8340SOL    HW236480   3.019   3.040   6.791  2.8412  3.5281  0.3054
 8341SOL     OW36481   4.056   1.039   7.797 -0.3700 -0.1261  0.1502
 8341SOL    HW136482   4.100   1.117   7.829  0.1039  0.8900 -3.0029
 8341SOL    HW236483   4.083   1.039   7.705 -0.1914 -0.6162  0.2051
 8342SOL     OW36484   3.556   2.941   3.188 -0.0696  0.1371  0.0604
 8342SOL    HW136485   3.521   2.952   3.276 -0.4868  2.0422 -0.3423
 8342SOL    HW236486   3.632   2.886   3.208  0.0245  0.4166  0.4894
 8343SOL     OW36487   4.085   3.725   6.170 -0.3874 -0.2026  0.6581
 8343SOL    HW136488   4.049   3.667   6.238  2.1987 -2.2199  0.2844
 8343SOL    HW236489   4.067   3.808   6.216  2.2103  0.2339  0.8898
 8344SOL     OW36490   0.431   3.006   1.074  0.0156 -0.1320  0.2561
 8344SOL    HW136491   0.457   2.914   1.065 -2.1445 -0.4946 -2.3103
 8344SOL    HW236492   0.482   3.030   0.996  0.6097  1.3728  1.1228
 8345SOL     OW36493   0.543   2.788   6.030 -0.3112 -0.0354  0.5458
 8345SOL    HW136494   0.595   2.837   5.965 -1.4344  0.1929 -0.1782
 8345SOL    HW236495   0.487   2.734   5.975  2.3012 -1.5451 -0.6615
 8346SOL     OW36496   0.436   0.631   7.708 -0.1629 -0.2086 -0.0875
 8346SOL    HW136497   0.499   0.624   7.780  3.5215  1.8909 -3.0652
 8346SOL    HW236498   0.455   0.552   7.657  0.6635  1.2470 -2.0415
 8347SOL     OW36499   3.155   1.466   5.638  0.2811  0.6625  0.6158
 8347SOL    HW136500   3.225   1.435   5.582 -0.1056  0.8900  0.0096
 8347SOL    HW236501   3.110   1.508   5.565 -0.7683  0.2163  1.0110
 8348SOL     OW36502   2.481   1.638  14.276 -0.4497  0.5262  0.6821
 8348SOL    HW136503   2.515   1.724  14.250 -0.6170  0.7363  1.1597
 8348SOL    HW236504   2.559   1.592  14.307 -0.0690  0.7455  0.0545
 8349SOL     OW36505   0.633   2.528   6.342 -0.0266  0.1850 -0.1975
 8349SOL    HW136506   0.592   2.471   6.407 -1.1889  0.6127 -0.5604
 8349SOL    HW236507   0.561   2.590   6.336  0.5113  0.8889  0.5223
 8350SOL     OW36508   3.188   2.131   5.307 -0.2589  0.4003 -0.2623
 8350SOL    HW136509   3.264   2.186   5.290  0.8026 -0.8042  0.6775
 8350SOL    HW236510   3.120   2.194   5.283 -1.9226 -1.8853 -1.5117
 8351SOL     OW36511   0.188   4.718   4.506  0.2701  0.3174 -1.4119
 8351SOL    HW136512   0.283   4.717   4.502  0.3778  2.4798  0.5727
 8351SOL    HW236513   0.180   0.070   4.449  0.3354  2.1373  0.9949
 8352SOL     OW36514   1.695   1.438   0.066 -0.0086  0.0021  0.5314
 8352SOL    HW136515   1.747   1.367   0.104 -0.0340 -0.1393  0.3060
 8352SOL    HW236516   1.765   1.498   0.041  0.9724 -0.3155  2.5354
 8353SOL     OW36517   2.254   3.492   6.673  0.4134 -0.1910 -0.3007
 8353SOL    HW136518   2.161   3.494   6.651  0.4681  2.4694 -0.2765
 8353SOL    HW236519   2.261   3.407   6.716 -0.9616 -0.2868 -0.2851
 8354SOL     OW36520   3.658   0.049   1.898  0.3449  0.3063  0.1645
 8354SOL    HW136521   3.634   0.026   1.987  0.1531 -0.4701 -0.0804
 8354SOL    HW236522   3.577   0.090   1.867  0.8534 -0.9546 -2.9364
 8355SOL     OW36523   4.257   2.730   0.130 -0.1929 -0.4007 -0.0905
 8355SOL    HW136524   4.265   2.756   0.222  1.3382 -1.6128  0.1158
 8355SOL    HW236525   4.232   2.817   0.099 -1.6053 -1.2334 -1.2780
 8356SOL     OW36526   1.590   1.670   6.223 -0.3243 -0.0062 -0.1542
 8356SOL    HW136527   1.581   1.652   6.317  0.3655  0.1371 -0.0626
 8356SOL    HW236528   1.502   1.635   6.207  0.7431 -1.4694 -2.8102
 8357SOL     OW36529   2.515   0.615  17.295  0.5333 -0.8479 -0.1811
 8357SOL    HW136530   2.545   0.633  17.384 -2.3473 -0.9697  0.8146
 8357SOL    HW236531   2.486   0.527  17.318  0.0188 -0.4719  0.6350
 8358SOL     OW36532   3.570   3.724  12.756 -0.0995 -0.0673  0.2753
 8358SOL    HW136533   3.485   3.691  12.785 -0.1217 -0.3228 -0.0822
 8358SOL    HW236534   3.632   3.689  12.820  1.1310  1.5735 -0.0014
 8359SOL     OW36535   0.952   1.740   0.238 -0.1938 -0.4062  0.4379
 8359SOL    HW136536   1.019   1.795   0.278 -0.1273  0.3755 -0.7553
 8359SOL    HW236537   1.007   1.688   0.180 -1.1726  0.2045 -1.0448
 8360SOL     OW36538   2.099   4.541   5.489  0.2109 -0.3757 -0.2053
 8360SOL    HW136539   2.076   4.528   5.581 -2.6089  0.5412 -0.7966
 8360SOL    HW236540   2.085   4.457   5.444 -2.5386  1.2515 -2.3756
 8361SOL     OW36541   0.470   1.515   8.757 -0.1214 -0.5386 -0.1034
 8361SOL    HW136542   0.393   1.567   8.781  0.0563  0.9380 -2.6742
 8361SOL    HW236543   0.439   1.427   8.738  0.1828 -0.8897  1.0493
 8362SOL     OW36544   2.917   2.088  12.897 -0.4470 -0.0537 -0.3148
 8362SOL    HW136545   2.917   2.097  12.802  1.5152 -0.0261 -0.3140
 8362SOL    HW236546   2.979   2.157  12.920 -2.5695  1.4261  0.9070
 8363SOL     OW36547   3.022   2.232   2.435 -0.6550  0.0675  0.7773
 8363SOL    HW136548   3.082   2.175   2.387 -0.7395  1.7609 -1.3449
 8363SOL    HW236549   3.015   2.311   2.381 -1.2611 -1.3298 -1.2046
 8364SOL     OW36550   4.026   4.299   4.361  0.6901 -0.3010 -0.2186
 8364SOL    HW136551   4.043   4.287   4.454  0.5694 -2.7437 -0.5003
 8364SOL    HW236552   3.931   4.287   4.363  1.0235 -2.7226  1.2834
 8365SOL     OW36553   3.094   2.876   4.849  0.5380 -0.3094 -0.2261
 8365SOL    HW136554   3.123   2.786   4.836  1.6471  0.0074  0.0756
 8365SOL    HW236555   3.013   2.876   4.798 -1.2942 -0.3446  2.7033
 8366SOL     OW36556   2.507   3.846  16.980 -0.0929 -0.9471 -0.2215
 8366SOL    HW136557   2.588   3.796  16.982  0.4936  0.0247  0.5488
 8366SOL    HW236558   2.478   3.836  17.071  2.5032  0.4648  0.7390
 8367SOL     OW36559   2.538   0.615   3.007 -0.2356 -0.5234 -0.2355
 8367SOL    HW136560   2.593   0.545   3.040  0.4775  1.0027  1.8555
 8367SOL    HW236561   2.592   0.658   2.941 -0.3023  0.5241  0.3866
 8368SOL     OW36562   3.336   2.491  16.654 -0.4383  0.5005  0.5043
 8368SOL    HW136563   3.344   2.562  16.718  1.3577 -0.9830  1.9213
 8368SOL    HW236564   3.396   2.425  16.689 -2.2808  0.2052  3.1183
 8369SOL     OW36565   3.760   3.465  15.472 -0.7509  0.4156 -0.3895
 8369SOL    HW136566   3.704   3.538  15.497 -0.2035  0.8651 -0.4782
 8369SOL    HW236567   3.714   3.427  15.397  1.0927 -0.6327 -0.9776
 8370SOL     OW36568   4.113   2.173   8.510  0.2926 -0.6465  0.0266
 8370SOL    HW136569   4.094   2.266   8.528  0.3970 -0.7882  0.8462
 8370SOL    HW236570   4.030   2.125   8.503 -0.4108  0.5229  0.2951
 8371SOL     OW36571   3.166   0.601   6.546  0.3363  0.0825 -0.1968
 8371SOL    HW136572   3.084   0.562   6.516  0.4119 -0.9502  0.9581
 8371SOL    HW236573   3.231   0.571   6.483 -0.8240  1.6458 -2.1287
 8372SOL     OW36574   0.684   0.818  12.131  0.3399  0.5897  0.1645
 8372SOL    HW136575   0.779   0.806  12.134  0.3075  0.5734  1.0688
 8372SOL    HW236576   0.651   0.730  12.115 -1.5919  1.5876 -1.3654
 8373SOL     OW36577   1.338   3.798   9.192  0.4955 -0.2053  0.2994
 8373SOL    HW136578   1.425   3.759   9.203  0.2882 -0.8988 -0.4523
 8373SOL    HW236579   1.362   3.890   9.193 -0.2950 -0.0124  1.5527
 8374SOL     OW36580   4.431   0.644  13.172  0.2172  0.9431  0.7655
 8374SOL    HW136581   4.456   0.554  13.193 -0.9924  0.0180 -1.7994
 8374SOL    HW236582   4.342   0.628  13.141  0.9916  0.3417 -1.1478
 8375SOL     OW36583   1.512   3.436   5.055 -0.2314  0.2279 -0.7250
 8375SOL    HW136584   1.589   3.403   5.009 -0.8523 -1.7112 -0.3875
 8375SOL    HW236585   1.473   3.351   5.077 -2.7564  1.3664 -0.7642
 8376SOL     OW36586   2.213   1.782   8.847 -0.4525 -0.2985  0.2667
 8376SOL    HW136587   2.180   1.838   8.917 -0.6181 -0.0581 -0.0046
 8376SOL    HW236588   2.307   1.792   8.860 -0.2783 -1.0354 -0.4483
 8377SOL     OW36589   0.850   4.172   8.397 -0.1480  0.1972  0.1960
 8377SOL    HW136590   0.907   4.124   8.456 -0.3098  0.9425  0.9577
 8377SOL    HW236591   0.795   4.102   8.361 -0.6551 -0.0857  1.5542
 8378SOL     OW36592   3.680   2.771   3.640 -0.1649 -0.2902  0.7004
 8378SOL    HW136593   3.609   2.808   3.589 -0.3747 -2.0560 -0.2895
 8378SOL    HW236594   3.691   2.683   3.604 -0.9251  0.1925 -0.6822
 8379SOL     OW36595   4.697   3.177   6.696 -0.5661 -0.0679 -0.7535
 8379SOL    HW136596   0.022   3.140   6.623  0.4647  0.0879 -0.1266
 8379SOL    HW236597   0.045   3.219   6.742 -2.5483  2.5674  0.0230
 8380SOL     OW36598   3.641   2.552   8.930 -0.7325 -0.6930 -0.0737
 8380SOL    HW136599   3.658   2.542   9.024  1.6846 -1.1828 -0.5603
 8380SOL    HW236600   3.699   2.483   8.899  2.3150  1.4384  0.9153
 8381SOL     OW36601   3.554   1.834  17.340 -0.2189 -0.5815 -0.4234
 8381SOL    HW136602   3.554   1.912  17.395  0.4466 -0.3847 -0.7091
 8381SOL    HW236603   3.500   1.778  17.396  0.8377  0.2593  1.3884
 8382SOL     OW36604   2.435   4.487   2.536 -0.1383 -0.6646 -0.2741
 8382SOL    HW136605   2.384   4.537   2.600 -0.7091  0.7331 -1.7963
 8382SOL    HW236606   2.421   4.394   2.551 -0.5976 -0.3703  1.1475
 8383SOL     OW36607   4.004   1.259   1.901  0.5308  0.1574 -0.1319
 8383SOL    HW136608   4.076   1.322   1.893 -1.5975  2.6810  0.4050
 8383SOL    HW236609   4.041   1.184   1.855  0.4260  0.0695 -0.0713
 8384SOL     OW36610   1.501   3.837  11.996 -0.3144 -0.1981 -0.4213
 8384SOL    HW136611   1.430   3.794  11.949  0.0567 -0.8221 -0.4143
 8384SOL    HW236612   1.518   3.763  12.055 -2.4857 -0.2634  0.1062
 8385SOL     OW36613   3.653   1.109   2.831  0.5987 -0.6638  0.1640
 8385SOL    HW136614   3.747   1.103   2.812  0.2098 -0.8280 -1.6897
 8385SOL    HW236615   3.627   1.161   2.756 -1.5143 -1.1603  0.5605
 8386SOL     OW36616   4.519   3.404   6.383  0.1431 -0.1569 -0.7420
 8386SOL    HW136617   4.511   3.319   6.338  1.3063 -0.3048 -0.6767
 8386SOL    HW236618   4.430   3.437   6.369  0.0968  0.2391  0.5726
 8387SOL     OW36619   0.533   0.737   2.335 -0.0085 -0.0486 -0.3598
 8387SOL    HW136620   0.579   0.667   2.383  0.3057  0.0415 -0.5335
 8387SOL    HW236621   0.447   0.703   2.361  0.0849 -0.6749 -0.8711
 8388SOL     OW36622   4.270   1.421   6.346  0.8175 -0.4313  0.2077
 8388SOL    HW136623   4.194   1.455   6.298  0.5739  0.9292  1.5551
 8388SOL    HW236624   4.252   1.452   6.434  2.9838 -0.4538  0.6357
 8389SOL     OW36625   4.637   1.818  16.246 -0.8738 -0.4148 -0.2944
 8389SOL    HW136626   4.612   1.827  16.154  0.8609  1.6629 -0.5442
 8389SOL    HW236627   0.006   1.815  16.233 -0.5241  1.1598  1.9177
 8390SOL     OW36628   2.353   4.586   3.404  0.0387  0.0390 -0.3052
 8390SOL    HW136629   2.288   4.562   3.470  1.2916  0.2903  1.0365
 8390SOL    HW236630   2.421   4.551   3.462  0.2917 -0.2659 -0.7831
 8391SOL     OW36631   2.651   0.768  11.099  0.4033  0.3290  0.3249
 8391SOL    HW136632   2.653   0.861  11.079  1.2439  0.2899  0.2288
 8391SOL    HW236633   2.615   0.763  11.187  0.0494 -0.1165  0.1619
 8392SOL     OW36634   0.930   4.110   2.207  0.0073 -0.1065  0.0407
 8392SOL    HW136635   0.862   4.054   2.244  1.1451 -1.6256 -0.1802
 8392SOL    HW236636   0.885   4.194   2.217 -0.3376 -0.5454  2.1509
 8393SOL     OW36637   0.829   0.186   8.546  0.7044 -0.1818  0.3949
 8393SOL    HW136638   0.777   0.169   8.467  1.0106  0.3086  0.0868
 8393SOL    HW236639   0.790   0.268   8.576 -1.3379 -1.5711  1.5820
 8394SOL     OW36640   3.450   1.772   5.101 -0.2939 -0.2043  0.0611
 8394SOL    HW136641   3.426   1.832   5.171 -1.5470 -3.1775  2.1656
 8394SOL    HW236642   3.493   1.696   5.140 -0.0551 -0.4232 -0.6278
 8395SOL     OW36643   4.433   2.931   2.084  0.2809 -0.2439  0.6940
 8395SOL    HW136644   4.468   2.995   2.146 -0.3867  1.2646 -0.4550
 8395SOL    HW236645   4.351   2.981   2.073  0.3568  0.1811  2.0552
 8396SOL     OW36646   2.103   4.488  15.879  0.2258 -0.1782  0.2575
 8396SOL    HW136647   2.068   4.402  15.898  2.3759 -1.3289 -0.9150
 8396SOL    HW236648   2.076   4.532  15.959  2.0931  0.6168  0.4721
 8397SOL     OW36649   3.427   2.228  15.928 -0.1172 -0.0832 -0.2616
 8397SOL    HW136650   3.432   2.271  15.842  0.8863  4.2868  1.9662
 8397SOL    HW236651   3.366   2.156  15.910  0.7254 -0.9187  0.2588
 8398SOL     OW36652   2.706   2.288   2.658  0.3559 -0.0842 -0.7738
 8398SOL    HW136653   2.725   2.255   2.746  1.9349  0.1766 -1.0076
 8398SOL    HW236654   2.800   2.302   2.643 -0.1821  3.8821 -0.5251
 8399SOL     OW36655   0.465   1.887   5.224  0.4771  0.3202  0.2549
 8399SOL    HW136656   0.373   1.895   5.247  0.3601  0.7303 -0.3368
 8399SOL    HW236657   0.493   1.804   5.261  0.5486  1.3272  2.4336
 8400SOL     OW36658   1.628   4.460   3.866 -0.0028  0.2143 -0.6384
 8400SOL    HW136659   1.653   4.372   3.895  1.9691  1.5833  1.8375
 8400SOL    HW236660   1.533   4.450   3.855  0.0006  0.1872 -0.6437
 8401SOL     OW36661   3.480   0.600   8.808 -0.4817  0.1791 -0.3390
 8401SOL    HW136662   3.460   0.576   8.898  0.9303 -1.4966 -0.4678
 8401SOL    HW236663   3.402   0.645   8.776 -1.4872 -1.5765 -0.3941
 8402SOL     OW36664   4.548   2.431   7.657  0.0655  0.3522  0.3289
 8402SOL    HW136665   4.541   2.487   7.733  1.2461 -0.9311  1.3858
 8402SOL    HW236666   4.627   2.386   7.688  0.9250  2.2299  0.8388
 8403SOL     OW36667   2.343   1.246   1.630 -0.1279  0.2320  0.1743
 8403SOL    HW136668   2.397   1.232   1.552  1.5972 -0.6101  1.5257
 8403SOL    HW236669   2.271   1.186   1.616 -0.4465  0.6538  0.0003
 8404SOL     OW36670   1.082   1.579  11.476 -0.0333 -0.7980 -0.0848
 8404SOL    HW136671   1.081   1.618  11.388 -1.1693  0.5465  0.5292
 8404SOL    HW236672   1.174   1.559  11.488  0.0021 -1.3063 -1.1488
 8405SOL     OW36673   4.436   1.295   5.923 -0.1491  0.5844 -0.1038
 8405SOL    HW136674   4.496   1.320   5.993 -0.0746 -1.6705  0.6490
 8405SOL    HW236675   4.487   1.238   5.866  0.7494  1.2411  0.0383
 8406SOL     OW36676   3.171   1.974   5.057 -0.1489 -0.6175 -0.1483
 8406SOL    HW136677   3.086   1.935   5.041 -0.7653  0.0971  1.3554
 8406SOL    HW236678   3.171   2.009   5.146 -0.5578  0.6158 -0.6334
 8407SOL     OW36679   1.184   3.726   3.555  0.0199  0.7555  0.4966
 8407SOL    HW136680   1.117   3.658   3.552  1.6499 -0.7379 -1.8982
 8407SOL    HW236681   1.154   3.777   3.630  3.6127  2.1156  1.0457
 8408SOL     OW36682   2.009   4.604  15.642 -0.1174 -0.2961 -0.0565
 8408SOL    HW136683   2.007   4.574  15.733  0.4087  0.8521  0.3310
 8408SOL    HW236684   2.025   4.695  15.664  0.5369 -0.5202  0.4104
 8409SOL     OW36685   3.692   4.101  17.117  0.7690  0.2323  0.0211
 8409SOL    HW136686   3.687   4.174  17.056  0.1089 -0.4354 -0.7090
 8409SOL    HW236687   3.772   4.119  17.167 -0.4061 -0.2149  2.0994
 8410SOL     OW36688   4.122   0.297   4.691 -0.0958 -0.8518 -0.1405
 8410SOL    HW136689   4.190   0.252   4.742  2.1995 -0.8814 -3.2040
 8410SOL    HW236690   4.139   0.263   4.603  2.2131 -2.6281  0.9827
 8411SOL     OW36691   3.028   4.672   4.872 -0.1690  0.5288  0.4424
 8411SOL    HW136692   3.049   0.016   4.809  0.8363 -1.5137 -1.4614
 8411SOL    HW236693   2.937   4.642   4.863 -0.2062  0.6144  0.5289
 8412SOL     OW36694   0.795   0.069   2.156  0.2313 -0.1407 -0.3365
 8412SOL    HW136695   0.789   0.163   2.135 -1.0069 -0.1495 -0.0648
 8412SOL    HW236696   0.835   0.081   2.242 -0.0029  0.0015 -0.2465
 8413SOL     OW36697   2.202   3.926  15.146 -0.4624  0.0750  0.2692
 8413SOL    HW136698   2.218   3.838  15.113  2.0416  0.8419 -0.5944
 8413SOL    HW236699   2.125   3.922  15.202 -1.1076  1.3981 -0.5160
 8414SOL     OW36700   3.689   1.003   6.471 -0.2571 -0.5391 -0.0232
 8414SOL    HW136701   3.773   1.000   6.516 -0.8441  1.9149  1.2318
 8414SOL    HW236702   3.718   1.065   6.404  0.2057  0.3508  0.9780
 8415SOL     OW36703   2.031   0.169   3.689 -0.2433 -0.0278 -0.4691
 8415SOL    HW136704   2.030   0.158   3.784 -0.5001  0.5237 -0.4102
 8415SOL    HW236705   1.942   0.200   3.674 -0.2582  0.9655  1.7086
 8416SOL     OW36706   2.064   2.251   1.180  0.2479 -0.0061  0.2108
 8416SOL    HW136707   1.998   2.312   1.213  2.8155  3.2243 -0.7034
 8416SOL    HW236708   2.141   2.292   1.218  0.4797 -0.2486 -0.0007
 8417SOL     OW36709   3.592   1.221   2.147 -0.5614 -0.3681  0.0929
 8417SOL    HW136710   3.666   1.230   2.086 -0.4651  1.9451  0.5390
 8417SOL    HW236711   3.541   1.152   2.105  1.7392 -2.1034  0.1040
 8418SOL     OW36712   1.414   0.886   9.457  0.4465  0.2263 -0.0820
 8418SOL    HW136713   1.409   0.951   9.527 -1.5302  0.7463 -0.7042
 8418SOL    HW236714   1.398   0.806   9.506  1.2064  0.4115  0.4687
 8419SOL     OW36715   1.740   1.866  11.929  0.1317 -0.3215  0.2181
 8419SOL    HW136716   1.768   1.823  12.010  0.4294 -0.2111  0.1738
 8419SOL    HW236717   1.646   1.880  11.940  0.0149 -0.7248 -0.3066
 8420SOL     OW36718   0.643   3.717   8.734 -1.0344  0.4693  0.0549
 8420SOL    HW136719   0.616   3.631   8.702 -0.0729  1.0402 -2.2684
 8420SOL    HW236720   0.567   3.738   8.789 -1.0634 -1.9095  0.9280
 8421SOL     OW36721   0.653   0.553   3.802 -0.3722 -0.0179 -0.2483
 8421SOL    HW136722   0.630   0.595   3.719 -1.0183 -3.3356 -1.7663
 8421SOL    HW236723   0.621   0.466   3.775  1.7486 -0.8805  0.0217
 8422SOL     OW36724   3.801   4.464  10.924  0.3712  0.2642  0.1649
 8422SOL    HW136725   3.742   4.389  10.910 -1.2945  1.4654  0.8326
 8422SOL    HW236726   3.852   4.426  10.996 -0.7736 -0.7127  0.4565
 8423SOL     OW36727   3.305   0.565   3.639  0.0596 -0.1846 -0.1341
 8423SOL    HW136728   3.369   0.634   3.655  1.0520 -0.8006 -1.4312
 8423SOL    HW236729   3.314   0.512   3.719  1.2874 -1.1445 -0.9121
 8424SOL     OW36730   2.958   2.622   2.338  0.4074  0.2952 -0.3035
 8424SOL    HW136731   2.987   2.536   2.309 -0.3381  0.4861 -1.6368
 8424SOL    HW236732   3.027   2.673   2.296  0.1903  0.3379 -0.6067
 8425SOL     OW36733   0.774   1.214   7.933  0.1310 -0.3508  0.2553
 8425SOL    HW136734   0.690   1.253   7.907  1.5670  0.9463 -2.4290
 8425SOL    HW236735   0.746   1.123   7.939  1.6401 -0.6633  2.4401
 8426SOL     OW36736   3.608   1.483   2.238  0.1801  0.0090 -0.4831
 8426SOL    HW136737   3.589   1.392   2.213  0.6844 -0.7470  1.8831
 8426SOL    HW236738   3.639   1.465   2.326  2.2807  0.3797 -1.1531
 8427SOL     OW36739   3.487   2.373   4.961 -1.2370 -0.0850 -0.4031
 8427SOL    HW136740   3.546   2.298   4.951 -2.1190 -0.2935 -3.7879
 8427SOL    HW236741   3.535   2.449   4.930  0.5290 -1.3165 -0.6861
 8428SOL     OW36742   4.513   4.127   3.190  1.5151 -0.4853  0.0238
 8428SOL    HW136743   4.444   4.062   3.204  1.0854  0.4846  2.5571
 8428SOL    HW236744   4.558   4.113   3.274  0.6120 -0.1579  0.5574
 8429SOL     OW36745   3.967   2.698   2.649 -0.1508  0.6000  0.0356
 8429SOL    HW136746   3.961   2.787   2.613 -1.7656  1.0832  1.5300
 8429SOL    HW236747   4.006   2.644   2.579  3.1426  0.4624  1.9910
 8430SOL     OW36748   2.836   1.865   3.162 -0.3030 -0.1972 -0.7520
 8430SOL    HW136749   2.749   1.903   3.168  0.9118  2.1524  1.8353
 8430SOL    HW236750   2.793   1.791   3.205 -0.4148 -0.6511 -1.6434
 8431SOL     OW36751   2.481   3.783  10.343  0.2038  0.5807  0.6325
 8431SOL    HW136752   2.469   3.717  10.412  0.7468 -2.8782 -2.5363
 8431SOL    HW236753   2.393   3.812  10.319 -1.2901 -3.8310  0.7590
 8432SOL     OW36754   0.954   2.829  10.641 -0.9481 -0.0020  0.0564
 8432SOL    HW136755   0.948   2.882  10.721  1.1205  1.7474 -0.9407
 8432SOL    HW236756   0.967   2.892  10.570 -0.7698 -0.0451  0.0502
 8433SOL     OW36757   3.122   1.001  13.169  0.5531 -1.0008 -0.4405
 8433SOL    HW136758   3.189   1.029  13.107 -0.7546 -0.1696 -1.4814
 8433SOL    HW236759   3.146   1.056  13.244 -2.3591 -1.8627  1.1303
 8434SOL     OW36760   3.791   0.945   1.718  0.2164 -0.7136  0.4546
 8434SOL    HW136761   3.769   0.975   1.806  2.5302 -2.0347  1.4820
 8434SOL    HW236762   3.878   0.909   1.730  0.1172 -1.7032 -1.8205
 8435SOL     OW36763   2.711   1.237   3.568  0.5056 -0.4958  0.0697
 8435SOL    HW136764   2.709   1.152   3.525  0.6533 -0.8068  0.6816
 8435SOL    HW236765   2.784   1.230   3.629 -1.4400  0.1442  2.4884
 8436SOL     OW36766   2.135   2.008  17.103 -0.4107  0.0219  0.0900
 8436SOL    HW136767   2.102   1.987  17.190  1.1575 -1.4379  0.3399
 8436SOL    HW236768   2.224   1.973  17.116 -1.0173 -2.3855 -2.2247
 8437SOL     OW36769   1.882   3.746   7.263  0.5389  0.6257  0.2409
 8437SOL    HW136770   1.921   3.660   7.247  2.7032  1.7443 -0.3909
 8437SOL    HW236771   1.920   3.805   7.199  2.8488 -0.1489  0.8916
 8438SOL     OW36772   1.452   0.375  12.460  0.1016 -0.3638  0.2026
 8438SOL    HW136773   1.539   0.379  12.502  0.0847 -0.4120  0.2416
 8438SOL    HW236774   1.440   0.280  12.457 -2.3859 -0.0891  1.5392
 8439SOL     OW36775   4.566   2.630   6.140  0.1586  0.1287  1.4141
 8439SOL    HW136776   4.504   2.558   6.149 -3.2584  2.9496  0.4278
 8439SOL    HW236777   4.507   2.704   6.157 -0.7820 -0.6943  1.7150
 8440SOL     OW36778   1.554   2.127  17.384 -0.4837  0.6064 -0.4259
 8440SOL    HW136779   1.476   2.108  17.333 -0.8133  0.1525  0.2520
 8440SOL    HW236780   1.547   2.223  17.376  2.1294  0.7661 -0.7495
 8441SOL     OW36781   2.517   3.570   5.225  0.0480  0.0050  0.5860
 8441SOL    HW136782   2.541   3.527   5.307 -0.4472  0.9910  1.2580
 8441SOL    HW236783   2.568   3.521   5.160 -1.3607 -1.8465  0.8648
 8442SOL     OW36784   0.977   2.446   4.893  0.3510  0.2897 -0.1398
 8442SOL    HW136785   0.882   2.447   4.884  0.4548  2.5540 -1.0322
 8442SOL    HW236786   0.985   2.513   4.961  0.8337  3.2577 -3.0936
 8443SOL     OW36787   4.377   3.817   7.441  0.3633  0.0614  0.1447
 8443SOL    HW136788   4.409   3.874   7.372  0.6593  1.1450  1.1917
 8443SOL    HW236789   4.369   3.732   7.396 -0.2000 -0.2532  0.8398
 8444SOL     OW36790   3.312   3.780   5.337 -0.7586 -0.2134  0.4001
 8444SOL    HW136791   3.345   3.773   5.248 -1.4288 -0.3703  0.1602
 8444SOL    HW236792   3.234   3.725   5.326 -0.5159 -0.6686  0.9426
 8445SOL     OW36793   3.451   2.545   3.380  0.5278  0.1435  0.3516
 8445SOL    HW136794   3.486   2.502   3.458  2.0681 -1.6236 -1.2924
 8445SOL    HW236795   3.435   2.633   3.412  0.1348 -0.0913  0.8012
 8446SOL     OW36796   2.916   2.689   1.612  0.3401  0.0963  0.3611
 8446SOL    HW136797   2.863   2.753   1.564  0.1401  0.6567  1.3263
 8446SOL    HW236798   2.936   2.628   1.542 -1.9607  0.8816 -1.0078
 8447SOL     OW36799   0.566   4.590   1.786 -1.0551 -0.8635  0.1012
 8447SOL    HW136800   0.527   4.608   1.700 -1.3432  0.2474  0.4767
 8447SOL    HW236801   0.644   4.547   1.749 -0.3500 -1.0577  1.8516
 8448SOL     OW36802   2.458   1.593   4.989 -0.2989 -0.1738  0.1240
 8448SOL    HW136803   2.471   1.570   4.897  1.6747  3.3267 -0.4656
 8448SOL    HW236804   2.378   1.546   5.010 -0.6593  0.0640 -0.7170
 8449SOL     OW36805   2.617   2.382   8.177  0.8494  0.1855 -0.7531
 8449SOL    HW136806   2.609   2.313   8.242  1.3790  0.0676 -0.8075
 8449SOL    HW236807   2.530   2.418   8.189  0.5476 -0.6917 -0.2787
 8450SOL     OW36808   4.030   0.999   8.200  0.0496 -0.5961 -0.1102
 8450SOL    HW136809   4.017   0.907   8.222 -2.9666 -0.5333 -1.6564
 8450SOL    HW236810   4.124   1.015   8.204 -0.1777  1.0408 -1.2660
 8451SOL     OW36811   1.544   3.125   2.678 -0.0067 -0.4189  0.3113
 8451SOL    HW136812   1.624   3.076   2.700  0.0221 -1.1152 -1.3604
 8451SOL    HW236813   1.584   3.212   2.675 -1.9673  0.5081  1.1067
 8452SOL     OW36814   3.083   2.502  14.520 -0.1232 -0.0978  0.6251
 8452SOL    HW136815   3.049   2.513  14.431  0.5504  2.0015  0.6145
 8452SOL    HW236816   3.155   2.443  14.502 -0.3088 -0.3239  0.6288
 8453SOL     OW36817   0.299   3.294   3.363 -0.4013  0.0504 -0.5476
 8453SOL    HW136818   0.311   3.349   3.286  2.1979  1.4317  0.8539
 8453SOL    HW236819   0.323   3.359   3.429  0.4386 -0.7070 -0.0972
 8454SOL     OW36820   2.317   3.568   2.308 -0.0094 -0.3424  0.5381
 8454SOL    HW136821   2.359   3.485   2.328 -1.7288 -1.5707 -0.8968
 8454SOL    HW236822   2.351   3.588   2.221 -0.0831 -2.1549  0.0922
 8455SOL     OW36823   3.243   2.409  17.083  0.2499 -0.2748  0.3140
 8455SOL    HW136824   3.256   2.333  17.141 -0.3228 -0.5689  0.0513
 8455SOL    HW236825   3.303   2.394  17.010 -1.1243 -0.5523 -0.7441
 8456SOL     OW36826   2.471   2.617  14.296 -0.3696  0.3177 -0.0626
 8456SOL    HW136827   2.541   2.580  14.242  0.6589  1.5753  0.4176
 8456SOL    HW236828   2.495   2.596  14.386 -1.8365 -0.7476  0.0786
 8457SOL     OW36829   2.686   0.838  14.700 -0.0507 -0.2402 -0.0880
 8457SOL    HW136830   2.606   0.877  14.735 -0.5597 -0.7162 -0.7081
 8457SOL    HW236831   2.728   0.909  14.651  0.3401  2.2976  3.9776
 8458SOL     OW36832   4.578   3.916   6.379 -0.7285 -0.8504  0.4149
 8458SOL    HW136833   4.543   3.929   6.467 -1.5609 -1.2633  0.1514
 8458SOL    HW236834   4.501   3.874   6.339 -2.5061  0.5025  2.3869
 8459SOL     OW36835   4.580   0.467  13.469  0.1784 -0.2046  0.3057
 8459SOL    HW136836   4.547   0.477  13.558 -0.1361 -1.1991  0.3025
 8459SOL    HW236837   4.571   0.558  13.440  1.8604  0.8873  3.2465
 8460SOL     OW36838   2.675   1.467  14.366 -0.4041 -0.4467  0.1385
 8460SOL    HW136839   2.749   1.412  14.341 -1.6369 -1.6497 -0.9288
 8460SOL    HW236840   2.704   1.529  14.432 -1.6438 -0.1638  0.4143
 8461SOL     OW36841   2.006   2.229  15.985  0.4619  0.5030  0.2880
 8461SOL    HW136842   2.082   2.187  16.026 -0.8217 -1.7072  0.3727
 8461SOL    HW236843   2.045   2.301  15.935  2.8205 -0.0284  1.3493
 8462SOL     OW36844   1.377   2.607   8.724 -0.1776 -0.0669  0.4242
 8462SOL    HW136845   1.346   2.693   8.751 -0.0240 -0.2673  1.2342
 8462SOL    HW236846   1.295   2.564   8.750  0.0357  0.1187  1.3872
 8463SOL     OW36847   3.762   1.877  10.830 -0.9707  0.0554 -0.0671
 8463SOL    HW136848   3.808   1.850  10.751 -0.2739  2.5285 -0.5138
 8463SOL    HW236849   3.776   1.802  10.887  2.7342 -0.4974 -1.7121
 8464SOL     OW36850   4.189   0.735  14.721  0.2633 -0.3614 -0.1523
 8464SOL    HW136851   4.112   0.699  14.676  1.0408 -3.4623  0.9733
 8464SOL    HW236852   4.225   0.654  14.756 -0.6787  0.1485  1.9763
 8465SOL     OW36853   1.929   1.960   5.513  0.0032 -0.6188  0.2103
 8465SOL    HW136854   1.937   1.918   5.428 -0.6248 -0.4858  0.0864
 8465SOL    HW236855   1.896   2.045   5.485 -0.7159 -0.4947  1.4091
 8466SOL     OW36856   1.280   0.389   0.109 -0.1581 -0.3602 -0.3153
 8466SOL    HW136857   1.317   0.439   0.036  5.7733 -0.7235  2.4629
 8466SOL    HW236858   1.195   0.373   0.069 -1.4303  1.3833  1.7488
 8467SOL     OW36859   1.482   0.811   9.169 -0.0138  0.2691  0.7157
 8467SOL    HW136860   1.558   0.753   9.170 -0.2657 -0.0546  1.2045
 8467SOL    HW236861   1.459   0.816   9.262 -1.0549  2.4763  0.3390
 8468SOL     OW36862   2.736   0.388  17.488  0.1127  0.1961 -0.1999
 8468SOL    HW136863   2.819   0.342  17.477  0.2541  0.0370  1.5417
 8468SOL    HW236864   2.764   0.479  17.491 -0.2644  0.3627 -1.6916
 8469SOL     OW36865   4.528   3.367   0.932 -0.0083  0.4059 -0.0117
 8469SOL    HW136866   4.504   3.390   1.022 -1.7961  1.9839 -0.9037
 8469SOL    HW236867   4.542   3.454   0.897 -2.3902  0.6023 -0.5105
 8470SOL     OW36868   2.829   1.785   7.838 -0.1551  0.0680 -0.5733
 8470SOL    HW136869   2.740   1.750   7.844 -0.8398  1.4690 -2.4834
 8470SOL    HW236870   2.831   1.838   7.758 -0.5817  2.2748  0.8721
 8471SOL     OW36871   2.636   1.084   1.902  0.1797  0.0392 -0.5809
 8471SOL    HW136872   2.577   1.009   1.896 -1.0327  0.9912 -0.6717
 8471SOL    HW236873   2.723   1.053   1.875 -0.0713 -0.0631 -1.2718
 8472SOL     OW36874   3.399   1.909  14.869 -0.5189  0.8259  0.0567
 8472SOL    HW136875   3.336   1.967  14.912 -1.5892 -1.0479  0.9764
 8472SOL    HW236876   3.458   1.974  14.831  1.1179 -0.0782  1.0559
 8473SOL     OW36877   1.387   1.417   9.460  0.0117  0.0383  0.0080
 8473SOL    HW136878   1.443   1.461   9.525  0.1861 -0.3002  0.0898
 8473SOL    HW236879   1.329   1.370   9.519  0.1650 -0.2422 -0.0660
 8474SOL     OW36880   1.525   0.355   5.158  0.4045 -0.1442 -0.5399
 8474SOL    HW136881   1.620   0.357   5.140  0.8208  0.4060  1.7505
 8474SOL    HW236882   1.494   0.400   5.079  1.4629  0.9407 -0.3558
 8475SOL     OW36883   2.056   0.340   7.591 -0.5079 -0.0460 -0.2167
 8475SOL    HW136884   2.150   0.343   7.609 -0.2610  0.3050 -1.5311
 8475SOL    HW236885   2.052   0.378   7.503  1.1708 -0.1743 -0.3426
 8476SOL     OW36886   2.003   2.458   7.793 -0.3786 -0.4458  0.0096
 8476SOL    HW136887   1.987   2.529   7.855  0.6532  0.0842 -0.3400
 8476SOL    HW236888   2.013   2.382   7.851 -1.3492 -1.1419 -0.7287
 8477SOL     OW36889   0.793   2.524   8.613 -0.3383 -0.0017  0.3714
 8477SOL    HW136890   0.703   2.511   8.585  0.5514 -3.8372 -0.6240
 8477SOL    HW236891   0.828   2.466   8.545 -0.1979 -0.9378  1.2588
 8478SOL     OW36892   2.352   3.647   6.333  0.0026 -0.6072 -0.0500
 8478SOL    HW136893   2.257   3.654   6.325 -0.4837 -3.6262  2.6630
 8478SOL    HW236894   2.371   3.740   6.321 -0.8475 -0.6216 -1.5217
 8479SOL     OW36895   4.492   0.075   0.021  0.0311 -0.0152  0.1695
 8479SOL    HW136896   4.419   0.061   0.082  1.2599 -0.1929  1.5861
 8479SOL    HW236897   4.495   4.717  17.676 -0.4523  0.8904 -1.4593
 8480SOL     OW36898   3.590   4.037  11.667 -0.1205  0.3288  0.0236
 8480SOL    HW136899   3.515   3.985  11.639 -0.3321 -0.2271  1.6229
 8480SOL    HW236900   3.660   3.973  11.673 -0.9978 -0.7612 -1.3153
 8481SOL     OW36901   2.637   2.105   1.442 -0.1308  0.3389 -0.3454
 8481SOL    HW136902   2.633   2.012   1.464  0.5868 -0.1363 -2.2383
 8481SOL    HW236903   2.683   2.098   1.358 -0.6212  0.9604 -0.6641
 8482SOL     OW36904   3.007   3.177  14.623  0.1197 -0.5336 -0.3869
 8482SOL    HW136905   3.061   3.173  14.544  0.4677 -1.2121 -0.1110
 8482SOL    HW236906   3.042   3.102  14.670 -0.1473 -0.3372  0.1200
 8483SOL     OW36907   1.373   1.728   0.105  0.3362 -0.0156 -0.2967
 8483SOL    HW136908   1.369   1.634   0.088  1.2747 -0.6247  2.8228
 8483SOL    HW236909   1.454   1.754   0.062  0.4803 -0.2209 -0.1480
 8484SOL     OW36910   1.430   3.299   7.400 -1.0761 -0.1873  0.2897
 8484SOL    HW136911   1.370   3.317   7.473  0.3111 -0.8215  1.5655
 8484SOL    HW236912   1.510   3.296   7.452 -0.1422  0.8169 -1.0926
 8485SOL     OW36913   1.262   2.909  12.057  0.1335 -0.6977  0.4131
 8485SOL    HW136914   1.313   2.951  11.987 -0.2409  2.6643  2.1688
 8485SOL    HW236915   1.184   2.964  12.052 -0.6984 -1.6505  3.4376
 8486SOL     OW36916   0.544   2.600   9.367  0.6291 -0.3384 -0.1107
 8486SOL    HW136917   0.488   2.669   9.331  0.9797  0.2949  0.5609
 8486SOL    HW236918   0.612   2.594   9.300  0.1894  0.9278 -0.6706
 8487SOL     OW36919   0.633   0.637  17.238  0.1129  0.7192  0.0614
 8487SOL    HW136920   0.591   0.686  17.167 -1.6405  0.1703  0.7258
 8487SOL    HW236921   0.579   0.644  17.316  0.3366 -2.3498  0.4948
 8488SOL     OW36922   4.251   3.980   3.196 -0.4817 -0.2422 -0.2454
 8488SOL    HW136923   4.269   4.012   3.108  1.8525  2.2854  1.1496
 8488SOL    HW236924   4.208   4.060   3.227  1.1189  1.2415 -1.8782
 8489SOL     OW36925   3.932   4.228   7.317 -0.7534 -0.0120 -0.2968
 8489SOL    HW136926   3.911   4.320   7.336 -1.6139  0.1059 -1.9000
 8489SOL    HW236927   3.928   4.193   7.406  4.2924  0.7071  0.2463
 8490SOL     OW36928   3.066   0.172  10.359  0.0491  0.1292  0.0086
 8490SOL    HW136929   2.978   0.138  10.368 -0.6976  1.7951 -0.8521
 8490SOL    HW236930   3.121   0.103  10.321  0.4456  0.9796 -0.9826
 8491SOL     OW36931   0.764   4.044   4.198 -0.3916  0.2943  0.2066
 8491SOL    HW136932   0.779   4.015   4.108 -0.1106  1.4351 -0.1222
 8491SOL    HW236933   0.735   4.136   4.193 -0.1779  0.3161 -0.6493
 8492SOL     OW36934   1.949   2.667   0.749  0.0037 -0.2944  0.4447
 8492SOL    HW136935   1.939   2.574   0.732  0.5617 -0.5909  1.6913
 8492SOL    HW236936   1.948   2.704   0.661  1.0968  0.8619  0.9079
 8493SOL     OW36937   1.877   2.490  10.296  0.4621  0.2937 -0.2396
 8493SOL    HW136938   1.792   2.532  10.299  0.3336  0.2381 -2.9073
 8493SOL    HW236939   1.879   2.417  10.233 -1.3281 -1.0660  1.2932
 8494SOL     OW36940   4.423   3.140   3.739 -0.6320  0.1675  0.3396
 8494SOL    HW136941   4.428   3.127   3.644 -2.1723 -0.4817  0.3470
 8494SOL    HW236942   4.472   3.064   3.768  0.6388  0.2307 -1.6487
 8495SOL     OW36943   2.582   2.152  14.790 -0.2229  0.1862 -0.2773
 8495SOL    HW136944   2.572   2.145  14.696  1.0097  0.7690 -0.4600
 8495SOL    HW236945   2.610   2.243  14.802  2.3209 -0.4240 -1.5465
 8496SOL     OW36946   3.964   0.315   4.274 -0.5243 -0.2439 -0.0029
 8496SOL    HW136947   3.925   0.327   4.361  0.5851  0.1835  0.4355
 8496SOL    HW236948   3.957   0.220   4.263  0.1004 -0.3493  0.5198
 8497SOL     OW36949   1.112   0.471   4.120  0.5042  0.3025  0.1956
 8497SOL    HW136950   1.132   0.559   4.151 -0.2318  0.4603  0.2163
 8497SOL    HW236951   1.118   0.490   4.026  0.3940 -0.8038 -0.0363
 8498SOL     OW36952   4.419   0.217   9.336  0.2592  0.2239  0.0235
 8498SOL    HW136953   4.458   0.165   9.266  2.5409  1.6214  0.2491
 8498SOL    HW236954   4.460   0.181   9.415  1.7389 -0.7681 -1.1981
 8499SOL     OW36955   1.011   2.110   2.195  0.0971 -0.1729 -0.5515
 8499SOL    HW136956   0.986   2.018   2.181 -1.1591  0.0826  0.1121
 8499SOL    HW236957   1.100   2.096   2.162 -0.5221 -0.2864 -2.1700
 8500SOL     OW36958   1.996   4.442   5.724  0.9300 -0.4274  0.0770
 8500SOL    HW136959   2.042   4.428   5.807 -0.2301  0.0613  0.8197
 8500SOL    HW236960   1.953   4.360   5.703 -0.0560  0.3120 -0.7755
 8501SOL     OW36961   3.728   4.108  12.620 -0.0300  0.0895 -0.2239
 8501SOL    HW136962   3.820   4.081  12.625  0.5276  1.2704 -3.5571
 8501SOL    HW236963   3.693   4.026  12.586  0.9039  0.2664 -1.6037
 8502SOL     OW36964   3.416   3.899   4.689  0.7526  0.0727  0.5788
 8502SOL    HW136965   3.465   3.819   4.668  0.1863 -0.4999  1.4217
 8502SOL    HW236966   3.347   3.869   4.749 -0.2423 -0.2608 -0.7208
 8503SOL     OW36967   0.180   1.665   8.072 -0.5375  0.0914  0.3293
 8503SOL    HW136968   0.114   1.606   8.108 -1.0618 -0.3987 -1.4456
 8503SOL    HW236969   0.164   1.730   8.140  1.1756  0.3719  0.4603
 8504SOL     OW36970   3.225   0.778   5.186 -0.2897 -0.2775  0.3767
 8504SOL    HW136971   3.253   0.761   5.096 -1.7557  3.0716 -0.7018
 8504SOL    HW236972   3.175   0.859   5.178  1.5661  1.0381  2.1312
 8505SOL     OW36973   3.357   2.053   3.461 -0.1300  0.7335  0.5565
 8505SOL    HW136974   3.318   2.106   3.530  1.7564  1.6933  0.8880
 8505SOL    HW236975   3.447   2.048   3.493 -0.9540 -0.2809  2.6806
 8506SOL     OW36976   2.360   2.351   0.120 -0.2504 -0.1215 -0.4026
 8506SOL    HW136977   2.309   2.281   0.160  1.1306 -0.4535  0.7512
 8506SOL    HW236978   2.346   2.342   0.025 -1.5898 -0.2616 -0.1876
 8507SOL     OW36979   3.868   0.180   6.781 -0.0369 -0.3001 -0.7658
 8507SOL    HW136980   3.853   0.099   6.830  0.4172 -0.2166 -0.4837
 8507SOL    HW236981   3.829   0.244   6.841 -1.1011 -1.4569 -0.2329
 8508SOL     OW36982   0.320   3.063   9.855  0.1078  0.1502  0.0031
 8508SOL    HW136983   0.234   3.030   9.827 -0.4788  0.5647  1.2865
 8508SOL    HW236984   0.367   2.987   9.822  0.0814  0.3285 -0.4361
 8509SOL     OW36985   2.681   2.821   1.195  0.6942 -0.5291  0.8780
 8509SOL    HW136986   2.700   2.911   1.166 -0.7679 -0.4083  0.3220
 8509SOL    HW236987   2.586   2.820   1.199  0.5894  0.7793 -1.6075
 8510SOL     OW36988   3.649   3.235  13.654  0.6645  0.0027 -0.6159
 8510SOL    HW136989   3.643   3.222  13.559  2.9512 -0.5491 -0.6801
 8510SOL    HW236990   3.566   3.206  13.693  0.8084 -0.9288 -0.9983
 8511SOL     OW36991   4.009   2.802   5.132  0.0150 -0.4134 -0.5249
 8511SOL    HW136992   3.986   2.714   5.102  1.8717 -0.8082 -0.8129
 8511SOL    HW236993   3.944   2.854   5.085  2.0368  1.6516 -1.0510
 8512SOL     OW36994   3.040   3.845   1.758 -0.5680  0.3464  0.3285
 8512SOL    HW136995   3.040   3.880   1.669 -1.2576  0.3132  0.3160
 8512SOL    HW236996   3.133   3.863   1.771 -0.1889 -1.6041  0.3228
 8513SOL     OW36997   2.033   4.181   2.412  0.5389 -0.3573  0.6679
 8513SOL    HW136998   1.966   4.133   2.363  0.7590 -1.5225  1.4959
 8513SOL    HW236999   2.113   4.159   2.363  1.0477  1.3514  0.7319
 8514SOL     OW37000   0.098   2.125   2.972  0.2443  0.3751 -0.4444
 8514SOL    HW137001   0.159   2.051   2.981  0.1548  0.3067 -0.4077
 8514SOL    HW237002   0.121   2.179   3.048 -1.5521  3.6352 -2.1997
 8515SOL     OW37003   3.434   2.460  14.713 -0.6589  0.1303 -0.2732
 8515SOL    HW137004   3.396   2.437  14.628 -1.6889  1.4399 -0.1788
 8515SOL    HW237005   3.368   2.514  14.757 -1.8010  0.1278 -1.9827
 8516SOL     OW37006   1.502   1.764   2.442 -0.1621  0.5536  0.0122
 8516SOL    HW137007   1.457   1.829   2.388  0.8486  1.2745  0.0432
 8516SOL    HW237008   1.591   1.795   2.460  1.2267 -3.0329 -0.7641
 8517SOL     OW37009   1.082   2.474   7.881 -0.2551  0.5268  0.3759
 8517SOL    HW137010   1.032   2.534   7.935 -2.3695  0.4884 -1.5515
 8517SOL    HW237011   1.021   2.443   7.814  0.4326  0.0567 -0.0321
 8518SOL     OW37012   2.150   1.865   6.907  0.4765  0.1721 -0.2464
 8518SOL    HW137013   2.212   1.933   6.880  1.4182 -1.0997 -1.2310
 8518SOL    HW237014   2.128   1.878   7.000 -0.6274  0.3997 -0.5392
 8519SOL     OW37015   1.176   2.185   3.238 -0.4367  0.2390  0.1376
 8519SOL    HW137016   1.202   2.252   3.175  0.0748  0.5592  0.7007
 8519SOL    HW237017   1.103   2.142   3.193 -1.8590  1.8252  0.9535
 8520SOL     OW37018   3.949   0.852  16.419 -0.2429  0.5874  0.0924
 8520SOL    HW137019   3.886   0.791  16.383  0.0715  0.7430 -0.7191
 8520SOL    HW237020   3.883   0.909  16.459 -1.6200  0.0634 -1.4522
 8521SOL     OW37021   3.510   3.031   2.690  0.2549 -0.2267 -0.0844
 8521SOL    HW137022   3.424   3.036   2.731 -0.4007 -0.7206 -1.3823
 8521SOL    HW237023   3.518   2.942   2.655  0.4661  0.5420 -1.9971
 8522SOL     OW37024   0.937   1.189  12.621 -0.1277  0.0207 -0.1088
 8522SOL    HW137025   1.006   1.247  12.589  2.3105 -1.5457  2.3864
 8522SOL    HW237026   0.868   1.222  12.563 -1.8660  1.5081  2.7613
 8523SOL     OW37027   3.204   3.986   6.584  0.4607 -0.1063 -0.0229
 8523SOL    HW137028   3.228   3.915   6.644 -2.8923 -0.1434  1.2242
 8523SOL    HW237029   3.173   4.057   6.640 -0.8557  0.1171 -1.0559
 8524SOL     OW37030   1.486   3.330   7.976 -0.0287 -0.2470 -0.1719
 8524SOL    HW137031   1.512   3.358   8.064 -0.6908 -0.2034  0.0151
 8524SOL    HW237032   1.415   3.394   7.971 -1.3740 -1.5897  1.4813
 8525SOL     OW37033   3.267   0.875   6.586 -0.0664  0.4306 -0.2188
 8525SOL    HW137034   3.355   0.909   6.604  0.3442  0.7961 -2.9293
 8525SOL    HW237035   3.287   0.784   6.565 -1.6279  0.3538 -1.3980
 8526SOL     OW37036   0.681   0.952   5.615  0.1565  0.2158 -0.4197
 8526SOL    HW137037   0.722   0.874   5.652 -0.6221  0.2077  0.4349
 8526SOL    HW237038   0.671   0.929   5.523 -0.1821  0.2153 -0.3855
 8527SOL     OW37039   3.258   1.448   3.839  0.1198  0.3559  0.4090
 8527SOL    HW137040   3.243   1.385   3.909 -1.0998  1.8272  1.4589
 8527SOL    HW237041   3.167   1.465   3.816  0.6246 -0.0319 -1.9605
 8528SOL     OW37042   0.608   4.482   8.309  0.2386  0.6499 -0.2954
 8528SOL    HW137043   0.595   4.411   8.247  0.0399  0.6148 -0.2132
 8528SOL    HW237044   0.528   4.533   8.296  0.3104  0.5140 -1.2395
 8529SOL     OW37045   1.517   1.493   3.471  0.1119  0.4497  0.4985
 8529SOL    HW137046   1.595   1.513   3.420 -0.4678  1.1286 -0.1199
 8529SOL    HW237047   1.508   1.400   3.450  0.6655  0.3519  0.6854
 8530SOL     OW37048   0.006   0.705   4.036  0.1969  0.1921 -0.3877
 8530SOL    HW137049   0.068   0.659   4.093 -3.6240 -2.8918  1.3052
 8530SOL    HW237050   0.006   0.659   3.952 -1.0920 -0.1762 -0.1904
 8531SOL     OW37051   1.908   2.150  11.244 -0.0462 -0.1496 -0.1795
 8531SOL    HW137052   2.002   2.162  11.251 -0.1285  1.7240 -2.5255
 8531SOL    HW237053   1.886   2.116  11.331  1.0014  1.9425  0.9106
 8532SOL     OW37054   0.421   0.904   8.799 -0.5629 -0.1568  0.0120
 8532SOL    HW137055   0.484   0.923   8.869 -0.0668  1.4323 -0.8613
 8532SOL    HW237056   0.462   0.846   8.735  1.4405  1.6543 -0.3538
 8533SOL     OW37057   0.882   0.144   3.638 -0.2954  0.0873 -0.3649
 8533SOL    HW137058   0.936   0.126   3.561 -0.3058  1.4413 -0.6892
 8533SOL    HW237059   0.936   0.202   3.690  1.0298 -0.4402 -1.1542
 8534SOL     OW37060   1.207   2.104   0.339  0.4403 -1.0381 -0.5045
 8534SOL    HW137061   1.209   2.170   0.409  0.3621 -1.2679 -0.2853
 8534SOL    HW237062   1.231   2.155   0.262  0.1830 -2.0471 -1.2489
 8535SOL     OW37063   3.401   4.579   3.386 -0.1346 -0.1863 -0.0958
 8535SOL    HW137064   3.358   4.649   3.338 -1.4071 -0.4130  0.7273
 8535SOL    HW237065   3.404   4.618   3.473 -0.9133  1.3081 -0.7457
 8536SOL     OW37066   3.639   0.122   6.046 -0.2780 -0.0312  0.5783
 8536SOL    HW137067   3.716   0.132   6.102  0.1514  1.2763 -0.2584
 8536SOL    HW237068   3.638   0.027   6.030 -1.3918 -0.3371  2.5484
 8537SOL     OW37069   4.722   1.088   6.041 -0.4170 -0.2467  0.2147
 8537SOL    HW137070   4.701   1.172   6.001  2.3467  1.3627  2.1386
 8537SOL    HW237071   0.043   1.036   5.976  0.6404  0.7393  0.1569
 8538SOL     OW37072   4.123   2.252   7.896 -0.1137 -0.3255  0.7377
 8538SOL    HW137073   4.199   2.193   7.892  0.7460  0.9188 -1.2684
 8538SOL    HW237074   4.064   2.218   7.829 -1.3028  0.4506  1.3908
 8539SOL     OW37075   3.608   1.702  13.019  0.5090  0.1638  0.5651
 8539SOL    HW137076   3.651   1.788  13.021 -0.6062  0.7228  0.6009
 8539SOL    HW237077   3.687   1.649  13.029  1.1003  0.9118 -0.2048
 8540SOL     OW37078   3.310   3.920  12.379 -0.6003 -0.0136 -0.0993
 8540SOL    HW137079   3.235   3.861  12.374  0.3312 -1.3799  1.4341
 8540SOL    HW237080   3.355   3.889  12.459  0.6434  1.8982 -0.0654
 8541SOL     OW37081   0.985   1.237   2.481  0.0341  0.1262  0.1851
 8541SOL    HW137082   0.968   1.248   2.387 -0.0002  1.0775  0.3073
 8541SOL    HW237083   1.060   1.177   2.477 -1.4516 -1.6284 -1.8577
 8542SOL     OW37084   0.578   0.495  10.558 -0.1528  0.1801  0.6410
 8542SOL    HW137085   0.558   0.401  10.563  0.8345 -0.0580  0.0410
 8542SOL    HW237086   0.501   0.519  10.507  0.7964  3.8747  0.9878
 8543SOL     OW37087   4.408   1.845   5.130 -0.1523 -0.2241 -0.1779
 8543SOL    HW137088   4.447   1.917   5.081  0.1353  0.2404  0.7287
 8543SOL    HW237089   4.334   1.814   5.078  0.0979 -2.2828  0.6498
 8544SOL     OW37090   0.383   2.200   2.466 -0.3207  0.1034  0.0400
 8544SOL    HW137091   0.386   2.166   2.377 -0.7777  1.9217 -0.6890
 8544SOL    HW237092   0.363   2.126   2.523 -2.5161  2.7978  2.7796
 8545SOL     OW37093   1.117   3.968   3.750  0.6234  0.0876  0.4778
 8545SOL    HW137094   1.154   4.005   3.669  1.4590 -0.7696  0.4636
 8545SOL    HW237095   1.026   3.945   3.733  1.5537 -2.5104 -0.9079
 8546SOL     OW37096   2.044   4.271  15.219  0.8192 -0.3931  0.6428
 8546SOL    HW137097   2.036   4.248  15.126  0.8231 -0.7885  0.7406
 8546SOL    HW237098   2.001   4.356  15.228  0.5004 -0.5974  1.0296
 8547SOL     OW37099   1.751   3.669   2.897 -0.1157 -0.5283 -0.2263
 8547SOL    HW137100   1.732   3.581   2.929 -0.6186 -1.5678 -3.3831
 8547SOL    HW237101   1.775   3.714   2.978 -0.2963  1.6235 -1.3475
 8548SOL     OW37102   0.375   1.288  16.620  0.5769  0.2104 -0.5156
 8548SOL    HW137103   0.279   1.288  16.623  0.5201 -1.6294 -2.4046
 8548SOL    HW237104   0.398   1.235  16.696 -1.5959  1.0721  0.7327
 8549SOL     OW37105   0.389   4.340   1.565  0.0067 -0.1035  0.1085
 8549SOL    HW137106   0.304   4.316   1.529  0.0872  0.2326 -0.3051
 8549SOL    HW237107   0.378   4.432   1.541  0.2307 -0.4167 -1.1711
 8550SOL     OW37108   2.947   2.522   1.394  0.8319  0.0364  0.3475
 8550SOL    HW137109   2.887   2.527   1.319  1.3713 -0.7567 -0.1348
 8550SOL    HW237110   2.983   2.434   1.398 -1.4094 -0.8453  1.2602
 8551SOL     OW37111   4.679   3.261   3.869 -0.0321 -0.2534 -0.1249
 8551SOL    HW137112   4.720   3.286   3.951 -0.3896 -0.1934  0.0346
 8551SOL    HW237113   4.601   3.220   3.906 -0.5104 -0.5088 -1.4013
 8552SOL     OW37114   4.509   2.885   8.199  0.4134 -0.4024  0.4387
 8552SOL    HW137115   4.422   2.906   8.165  0.7111  0.4499  0.2172
 8552SOL    HW237116   4.525   2.963   8.252 -0.1410 -0.3094  0.4714
 8553SOL     OW37117   4.111   0.296  15.328  0.1599  0.1739  0.2891
 8553SOL    HW137118   4.081   0.296  15.419  0.9634 -0.9876  0.5551
 8553SOL    HW237119   4.028   0.284  15.281  0.7147 -0.7082 -0.4785
 8554SOL     OW37120   3.975   2.424   8.074 -0.2594 -0.4127 -0.0012
 8554SOL    HW137121   3.882   2.402   8.073 -0.9204  2.3940  1.7770
 8554SOL    HW237122   4.014   2.337   8.068  1.8742  0.5026  0.7217
 8555SOL     OW37123   2.655   3.069  11.709  0.1606  0.0445 -0.3338
 8555SOL    HW137124   2.708   3.033  11.780 -1.5332 -2.0085 -0.1100
 8555SOL    HW237125   2.721   3.098  11.647  0.4956 -1.0149 -0.4685
 8556SOL     OW37126   2.334   0.041   9.104 -0.5754 -0.5063 -0.3748
 8556SOL    HW137127   2.404   0.079   9.157 -0.5501 -0.1846 -0.6366
 8556SOL    HW237128   2.378   4.693   9.061  0.2313  0.9302 -2.0140
 8557SOL     OW37129   2.744   0.836   5.693 -0.0977 -0.0075  0.0248
 8557SOL    HW137130   2.822   0.826   5.748 -0.2910 -0.2118  0.2584
 8557SOL    HW237131   2.781   0.796   5.615 -1.3556  0.6394 -0.8969
 8558SOL     OW37132   1.287   4.256   3.148  0.3992  0.3595 -0.2785
 8558SOL    HW137133   1.344   4.230   3.221  0.4610 -1.7635 -1.1032
 8558SOL    HW237134   1.303   4.192   3.079  0.7369  1.2502 -1.0315
 8559SOL     OW37135   0.467   2.375   5.874 -0.0688  0.3977  0.3938
 8559SOL    HW137136   0.393   2.417   5.919 -0.6851 -0.1838 -0.0637
 8559SOL    HW237137   0.536   2.414   5.927  0.9842  0.2240 -0.8368
 8560SOL     OW37138   0.534   3.093   2.691 -0.0544 -0.1255  0.4530
 8560SOL    HW137139   0.556   3.099   2.598 -0.0788 -1.4253  0.3646
 8560SOL    HW237140   0.509   3.182   2.716  0.2845 -0.0304  0.4503
 8561SOL     OW37141   3.071   1.186   2.757  0.3730  0.0592  0.2923
 8561SOL    HW137142   3.159   1.222   2.767  1.0232 -1.0527 -1.4469
 8561SOL    HW237143   3.030   1.206   2.842  0.2197  0.2528  0.1724
 8562SOL     OW37144   0.828   0.005   9.437  0.0214 -0.6740  0.0303
 8562SOL    HW137145   0.742   4.719   9.476  0.3632 -1.1051  0.6487
 8562SOL    HW237146   0.883   4.672   9.489 -0.1757  0.0358  1.0326
 8563SOL     OW37147   2.163   1.730  10.302  0.0658 -0.2587 -0.6650
 8563SOL    HW137148   2.214   1.764  10.376  1.7481 -2.4706 -0.7745
 8563SOL    HW237149   2.210   1.756  10.223 -0.1607 -0.7708 -0.9691
 8564SOL     OW37150   1.255   0.761   9.011  0.0355 -0.0115  0.1207
 8564SOL    HW137151   1.345   0.782   9.034  0.1839  3.1454 -3.4468
 8564SOL    HW237152   1.241   0.688   9.072  2.3866 -0.2739  0.3222
 8565SOL     OW37153   0.461   1.001  11.981  0.2549 -0.5070  0.2056
 8565SOL    HW137154   0.481   1.092  11.960 -0.0590 -0.5157 -0.1114
 8565SOL    HW237155   0.478   1.002  12.076 -0.7666 -2.3254  0.4097
 8566SOL     OW37156   3.651   2.850   7.500 -0.1282 -0.6232 -0.3865
 8566SOL    HW137157   3.695   2.832   7.583 -0.9138 -0.1042  0.1383
 8566SOL    HW237158   3.617   2.763   7.481 -1.1784 -0.5891  1.4086
 8567SOL     OW37159   4.175   1.079   1.041 -0.5569  0.3154 -0.1907
 8567SOL    HW137160   4.237   1.019   1.081 -1.4030  1.3016  2.5753
 8567SOL    HW237161   4.230   1.157   1.043 -1.5061  0.9731  0.1661
 8568SOL     OW37162   0.981   2.416   6.193 -0.4015  0.0218  0.1084
 8568SOL    HW137163   1.014   2.491   6.242 -2.9482  0.0457  1.7768
 8568SOL    HW237164   1.049   2.431   6.127  0.0207  1.6022  0.9210
 8569SOL     OW37165   2.635   0.652  16.987 -0.9816 -0.3049 -0.2366
 8569SOL    HW137166   2.563   0.713  16.975 -0.4255  0.4634  0.3327
 8569SOL    HW237167   2.637   0.613  17.075  1.0305  1.8490  0.6532
 8570SOL     OW37168   4.625   2.504   8.649 -0.4157  0.0826  0.2194
 8570SOL    HW137169   4.539   2.512   8.688 -1.0238  1.2194 -1.3460
 8570SOL    HW237170   4.659   2.585   8.688 -0.4987  0.3945 -0.3616
 8571SOL     OW37171   1.029   1.585   4.851 -0.8692  0.5089 -0.6030
 8571SOL    HW137172   0.954   1.596   4.909  1.0477 -0.1575  1.9763
 8571SOL    HW237173   1.010   1.506   4.800 -1.8849  0.2260  0.2157
 8572SOL     OW37174   1.526   2.024   5.941  0.2203 -1.1409 -0.1801
 8572SOL    HW137175   1.590   2.092   5.964  0.4407 -2.2559  2.5465
 8572SOL    HW237176   1.576   1.943   5.939  0.0718 -1.2180 -0.7018
 8573SOL     OW37177   4.105   4.127   5.519  0.0703  0.2642 -0.7301
 8573SOL    HW137178   4.146   4.184   5.454 -1.3833  0.6845 -1.2755
 8573SOL    HW237179   4.186   4.093   5.558  1.7976  4.8676 -0.3360
 8574SOL     OW37180   0.301   2.926   3.101  0.0380 -0.5453 -0.5659
 8574SOL    HW137181   0.373   2.978   3.066 -0.5641 -0.9439 -2.3673
 8574SOL    HW237182   0.323   2.836   3.077  2.7588  0.0312 -0.2432
 8575SOL     OW37183   3.468   0.799   3.060  0.4797 -0.4997 -0.0965
 8575SOL    HW137184   3.532   0.781   2.991 -1.4213 -3.0883 -1.2163
 8575SOL    HW237185   3.389   0.755   3.030  0.5424  0.1297 -1.1671
 8576SOL     OW37186   1.168   1.887  13.115 -0.0093  0.1048 -0.1975
 8576SOL    HW137187   1.111   1.890  13.191 -0.1441  0.7593 -0.3235
 8576SOL    HW237188   1.239   1.937  13.155 -1.1161 -0.2638  2.2062
 8577SOL     OW37189   3.452   4.351   4.286 -0.0241 -0.2835 -0.1922
 8577SOL    HW137190   3.436   4.346   4.380 -0.6993 -1.7946 -0.3933
 8577SOL    HW237191   3.505   4.431   4.279 -0.6163 -0.1535 -3.1627
 8578SOL     OW37192   1.073   3.606   6.467 -0.4448  0.1195  0.1918
 8578SOL    HW137193   1.110   3.533   6.517 -0.5666  0.7287  1.1540
 8578SOL    HW237194   1.117   3.685   6.497  0.5637 -0.9345  1.5095
 8579SOL     OW37195   1.282   4.286   6.572 -0.0946  0.3239 -0.1703
 8579SOL    HW137196   1.205   4.297   6.629 -0.3118  0.8098 -0.5540
 8579SOL    HW237197   1.339   4.231   6.626  0.0979  1.2424  0.5720
 8580SOL     OW37198   2.005   2.092   3.668  0.0777  0.2977  0.1357
 8580SOL    HW137199   2.065   2.021   3.690 -1.6742 -1.1774  0.0980
 8580SOL    HW237200   1.950   2.053   3.600 -0.0168  1.3390 -0.4041
 8581SOL     OW37201   1.588   1.044   9.001  0.0352 -0.0596  0.2599
 8581SOL    HW137202   1.565   0.975   9.063  1.4362 -0.0549  0.7836
 8581SOL    HW237203   1.599   0.996   8.918  1.1367 -0.8125  0.8327
 8582SOL     OW37204   3.259   2.520   6.462  0.1983  0.5465  0.1305
 8582SOL    HW137205   3.269   2.614   6.447  2.6019  0.2998  0.2748
 8582SOL    HW237206   3.274   2.511   6.556 -0.7225  2.2568  0.4518
 8583SOL     OW37207   2.193   0.664  12.441  0.3958 -0.2244  0.0389
 8583SOL    HW137208   2.273   0.704  12.406 -0.9860  1.2311 -1.4429
 8583SOL    HW237209   2.145   0.741  12.471  1.1639  0.1566  0.2904
 8584SOL     OW37210   1.149   1.059   8.198 -0.1967 -0.0365 -0.1551
 8584SOL    HW137211   1.187   1.138   8.160  0.2385 -0.4740 -0.6366
 8584SOL    HW237212   1.179   1.064   8.289 -0.2967 -0.2623 -0.1098
 8585SOL     OW37213   0.369   2.584   6.697 -0.5064  0.2942 -0.3196
 8585SOL    HW137214   0.464   2.591   6.689 -0.3705  2.0611  3.1432
 8585SOL    HW237215   0.348   2.673   6.723 -1.1614  0.0209  0.0754
 8586SOL     OW37216   1.172   4.186   6.321 -0.3065  0.0460  0.0516
 8586SOL    HW137217   1.100   4.235   6.360 -0.3040  0.9364 -1.0608
 8586SOL    HW237218   1.233   4.188   6.395 -0.3040  0.1569  0.0464
 8587SOL     OW37219   3.142   4.428   4.227 -0.3168  0.0819 -0.1504
 8587SOL    HW137220   3.140   4.524   4.233 -0.2629  0.1100 -0.6020
 8587SOL    HW237221   3.225   4.405   4.268  0.5030  3.3622  0.0097
 8588SOL     OW37222   2.448   4.693   5.204  0.1508 -0.4755  0.4984
 8588SOL    HW137223   2.414   4.699   5.293 -2.8585  1.0431 -0.7427
 8588SOL    HW237224   2.531   4.651   5.228  0.0437 -0.6683  0.5288
 8589SOL     OW37225   1.683   3.152   4.800 -0.8228  0.4782  0.2214
 8589SOL    HW137226   1.609   3.111   4.756  0.0822 -0.0138 -0.8369
 8589SOL    HW237227   1.723   3.080   4.850  1.8336  1.6721 -0.1783
 8590SOL     OW37228   0.492   4.555   0.594  0.1743 -0.1578 -0.3320
 8590SOL    HW137229   0.526   4.622   0.653 -1.9682 -0.2940  1.0843
 8590SOL    HW237230   0.428   4.602   0.541  0.9827  1.2601 -0.0517
 8591SOL     OW37231   0.853   3.721   8.251  0.1747 -0.6602 -0.1173
 8591SOL    HW137232   0.946   3.723   8.230  0.3494 -2.5437  0.4425
 8591SOL    HW237233   0.825   3.696   8.163  0.0453  2.4142 -0.9315
 8592SOL     OW37234   3.003   0.809  13.629  0.0054  0.2919 -0.4047
 8592SOL    HW137235   2.958   0.866  13.567  1.9662 -0.0952 -2.1767
 8592SOL    HW237236   2.964   0.842  13.710  0.0963  1.0979 -0.6906
 8593SOL     OW37237   2.352   2.480   5.254  0.5293  0.2734  0.0836
 8593SOL    HW137238   2.434   2.515   5.288  0.1214  1.9175 -0.6282
 8593SOL    HW237239   2.389   2.445   5.173 -1.2916 -1.1761 -0.1187
 8594SOL     OW37240   4.262   0.927  14.520  0.6777  0.2691  0.4262
 8594SOL    HW137241   4.287   0.852  14.466  2.1571  0.9794  0.1324
 8594SOL    HW237242   4.243   0.885  14.604  1.0178  1.1144  0.9282
 8595SOL     OW37243   3.674   2.239   9.378 -0.4191 -0.3819 -0.2294
 8595SOL    HW137244   3.652   2.151   9.345 -1.0389  0.1411 -1.2257
 8595SOL    HW237245   3.736   2.263   9.309 -0.0557 -1.0105 -0.1266
 8596SOL     OW37246   1.345   2.181   8.134  0.1034 -0.2581 -0.0274
 8596SOL    HW137247   1.364   2.091   8.163  0.4767  0.0111  0.5642
 8596SOL    HW237248   1.405   2.235   8.185 -0.9510  0.3527  0.5357
 8597SOL     OW37249   4.567   0.924   5.383 -0.1880 -0.1216 -0.1481
 8597SOL    HW137250   4.516   0.999   5.412  0.5350  0.4388 -0.3309
 8597SOL    HW237251   4.494   0.863   5.372 -0.1681 -0.4241  1.2665
 8598SOL     OW37252   4.484   3.378   6.678  0.2760  0.1196  0.1995
 8598SOL    HW137253   4.546   3.305   6.681  1.8216  1.4283 -0.0051
 8598SOL    HW237254   4.501   3.421   6.594  0.0850 -1.2981 -0.5576
 8599SOL     OW37255   2.081   2.525   5.254 -0.2457  0.2877  0.2386
 8599SOL    HW137256   2.078   2.459   5.324 -0.9829 -0.2835 -0.3384
 8599SOL    HW237257   2.176   2.516   5.249 -0.3536  0.7706 -2.6134
 8600SOL     OW37258   3.353   1.271  13.789 -0.4642  0.4798  0.7289
 8600SOL    HW137259   3.329   1.350  13.838  4.1112  0.1479  3.5716
 8600SOL    HW237260   3.269   1.226  13.791  0.8957 -2.0722 -0.7315
 8601SOL     OW37261   2.867   1.358  13.144 -0.3543 -0.5057  0.0231
 8601SOL    HW137262   2.872   1.291  13.212  0.8423 -0.6493 -0.2215
 8601SOL    HW237263   2.947   1.409  13.154 -2.1884  2.7137 -1.6052
 8602SOL     OW37264   4.430   4.585   9.531  0.7076  0.0380 -0.3708
 8602SOL    HW137265   4.522   4.591   9.507  0.5238 -0.1855 -1.1106
 8602SOL    HW237266   4.426   4.654   9.597  1.8596 -0.0491 -0.2092
 8603SOL     OW37267   3.291   1.970   5.820 -0.5254 -0.2048  0.3988
 8603SOL    HW137268   3.305   2.040   5.756  1.0052 -1.8537 -1.0498
 8603SOL    HW237269   3.306   2.015   5.903  1.6123  1.1511 -0.7179
 8604SOL     OW37270   2.829   2.344   6.608 -0.3768  0.6679 -0.1715
 8604SOL    HW137271   2.752   2.346   6.552 -0.0200 -0.6599 -0.6950
 8604SOL    HW237272   2.848   2.250   6.606 -2.4308  0.3308 -3.1633
 8605SOL     OW37273   1.435   4.231   8.141 -0.3426  0.0788 -0.4395
 8605SOL    HW137274   1.411   4.320   8.115  0.1241  0.2529 -0.2859
 8605SOL    HW237275   1.496   4.208   8.071  0.5809  0.0713  0.3551
 8606SOL     OW37276   1.228   0.981  14.456 -0.6478 -0.0579  0.1116
 8606SOL    HW137277   1.179   1.044  14.508  3.2735  3.3417 -0.3514
 8606SOL    HW237278   1.172   0.974  14.379 -0.2431 -0.6657 -0.1353
 8607SOL     OW37279   3.828   2.065   8.314 -0.3026  0.2173  0.2296
 8607SOL    HW137280   3.755   2.119   8.346  0.8472  2.4753 -0.9924
 8607SOL    HW237281   3.860   2.028   8.396 -2.7762  1.0947  1.5989
 8608SOL     OW37282   3.359   1.316   8.343 -0.5281  0.5217  0.1518
 8608SOL    HW137283   3.390   1.244   8.397  0.3353  0.8112  0.0341
 8608SOL    HW237284   3.293   1.360   8.397 -1.2172 -0.1919 -0.0973
 8609SOL     OW37285   3.056   0.771   9.444 -0.1581 -0.0218 -0.5850
 8609SOL    HW137286   3.017   0.776   9.531  1.8093 -0.4448  0.3293
 8609SOL    HW237287   2.983   0.725   9.402 -0.5436 -1.1898  1.3763
 8610SOL     OW37288   2.542   0.157   8.751 -0.5584 -0.0657 -0.3751
 8610SOL    HW137289   2.526   0.091   8.818 -2.5606  1.7915  0.9950
 8610SOL    HW237290   2.630   0.136   8.720 -0.4707  0.5716 -0.5604
 8611SOL     OW37291   2.316   0.528   2.395 -0.3524 -0.0111  0.7382
 8611SOL    HW137292   2.235   0.572   2.422 -0.7469 -0.7886  0.8126
 8611SOL    HW237293   2.312   0.439   2.430 -1.5772  1.0260  3.2507
 8612SOL     OW37294   2.866   1.660   8.094 -0.1954  0.2050  0.0314
 8612SOL    HW137295   2.780   1.620   8.090  0.4925 -1.2871 -0.0328
 8612SOL    HW237296   2.897   1.675   8.005 -1.3676 -2.7678 -0.8671
 8613SOL     OW37297   0.078   2.058   5.007 -0.1901  0.0874 -0.3402
 8613SOL    HW137298   0.079   1.986   4.944 -1.1876 -0.3275  0.1218
 8613SOL    HW237299   0.108   2.017   5.088 -0.7681  0.4360  0.0552
 8614SOL     OW37300   3.401   4.181   3.298 -0.3639  0.1317  0.6274
 8614SOL    HW137301   3.316   4.202   3.260 -0.4915 -0.7458  0.4210
 8614SOL    HW237302   3.396   4.094   3.338 -0.4833 -0.5524 -0.8911
 8615SOL     OW37303   1.595   1.286   7.018  0.4628  0.1307 -0.1424
 8615SOL    HW137304   1.547   1.303   6.938 -2.6098  1.3535  1.9960
 8615SOL    HW237305   1.544   1.326   7.088  1.8200 -0.2832  1.0909
 8616SOL     OW37306   1.484   3.990   2.217  1.3208 -0.5875  0.2305
 8616SOL    HW137307   1.540   3.948   2.152  0.4336 -1.6744  0.1681
 8616SOL    HW237308   1.399   3.951   2.197  1.1472 -0.0237 -0.1411
 8617SOL     OW37309   4.285   3.440   5.871  0.2401  0.3666 -0.0882
 8617SOL    HW137310   4.366   3.459   5.918 -1.2726  1.8682  1.8979
 8617SOL    HW237311   4.268   3.528   5.835  0.9114 -0.1113 -1.5651
 8618SOL     OW37312   1.701   2.020   9.433 -0.6526 -0.3124 -0.0445
 8618SOL    HW137313   1.773   1.984   9.380 -0.7054  2.8778 -2.2764
 8618SOL    HW237314   1.709   1.972   9.515  2.1050 -0.6757 -0.5248
 8619SOL     OW37315   3.651   1.097  13.600 -0.1290 -0.5432 -0.0616
 8619SOL    HW137316   3.741   1.068  13.589  0.1834  0.3385  0.1810
 8619SOL    HW237317   3.615   1.059  13.520  0.9664  0.3798 -1.0056
 8620SOL     OW37318   0.157   2.220   1.927  0.2454  0.5649 -0.0288
 8620SOL    HW137319   0.071   2.256   1.904  0.1153  1.7476  2.3314
 8620SOL    HW237320   0.210   2.280   1.874 -0.2121 -0.9773 -2.2062
 8621SOL     OW37321   2.921   3.912   5.155 -0.5041 -0.6947 -0.1636
 8621SOL    HW137322   2.946   3.860   5.231 -2.9690  0.5035  1.4323
 8621SOL    HW237323   2.829   3.886   5.146 -0.9123  1.0670 -1.0885
 8622SOL     OW37324   1.804   3.006   4.412 -0.2031 -0.2747 -0.0909
 8622SOL    HW137325   1.780   2.943   4.480  0.2610 -0.0391  0.2913
 8622SOL    HW237326   1.803   3.085   4.466 -2.1391  0.2206 -0.8543
 8623SOL     OW37327   1.650   2.965   5.100  0.6143 -0.0226 -0.0606
 8623SOL    HW137328   1.627   2.952   5.192  0.7741  0.0228 -0.0131
 8623SOL    HW237329   1.624   2.878   5.070 -0.2141  0.3705 -0.4701
 8624SOL     OW37330   2.438   3.581   3.301  0.1069 -0.1869 -0.3073
 8624SOL    HW137331   2.408   3.518   3.367 -1.3365  0.8118 -0.0148
 8624SOL    HW237332   2.462   3.528   3.225  0.9379  0.4002 -0.4548
 8625SOL     OW37333   0.392   1.954   1.875  0.0313 -0.6241  0.2782
 8625SOL    HW137334   0.328   1.982   1.941  0.1155  4.1177 -1.6218
 8625SOL    HW237335   0.453   2.028   1.873 -0.4190 -0.2046  1.7859
 8626SOL     OW37336   2.514   0.639  17.563 -0.5983 -0.2564  0.0266
 8626SOL    HW137337   2.568   0.686  17.626 -0.2937  2.6094 -2.3409
 8626SOL    HW237338   2.467   0.576  17.617 -2.4301  1.0867  0.0280
 8627SOL     OW37339   2.920   0.355   8.737 -0.8104 -0.3179  0.1570
 8627SOL    HW137340   2.935   0.370   8.831  0.2274  0.4869 -0.1432
 8627SOL    HW237341   3.005   0.384   8.704 -1.6442  1.4231 -0.4204
 8628SOL     OW37342   3.123   3.628   5.235 -0.0484 -0.4570  0.3991
 8628SOL    HW137343   3.051   3.584   5.191  0.9640 -1.2767 -0.4591
 8628SOL    HW237344   3.093   3.605   5.323 -0.0599 -0.2352  0.4552
 8629SOL     OW37345   1.017   3.055   7.700  0.3576  0.0193  0.7326
 8629SOL    HW137346   0.994   3.148   7.690 -3.0862 -0.9171 -0.0659
 8629SOL    HW237347   1.112   3.062   7.703  0.3956  0.3108 -1.7040
 8630SOL     OW37348   2.688   3.020   5.990  0.1989 -0.0204  0.3645
 8630SOL    HW137349   2.646   2.970   5.920 -0.4128  1.2255 -0.1594
 8630SOL    HW237350   2.704   2.960   6.063 -2.6806  1.4652  2.2181
 8631SOL     OW37351   2.750   2.595   6.693 -0.2160  0.1277  0.0462
 8631SOL    HW137352   2.792   2.512   6.671  1.3657  0.8320  0.4533
 8631SOL    HW237353   2.732   2.635   6.608 -1.3305  1.6354  1.0032
 8632SOL     OW37354   3.378   1.853   4.678  0.4151  0.1319  0.0064
 8632SOL    HW137355   3.401   1.805   4.757  0.6042  2.4871  1.3777
 8632SOL    HW237356   3.434   1.930   4.685  0.0752  0.4532 -0.8049
 8633SOL     OW37357   2.130   2.649   7.973 -0.2091  0.1822  0.1031
 8633SOL    HW137358   2.110   2.705   7.898 -0.7534  1.6524  1.3461
 8633SOL    HW237359   2.220   2.672   7.998 -0.2249 -2.2199  2.3555
 8634SOL     OW37360   1.980   1.219  17.612 -0.2202  0.3505 -0.4517
 8634SOL    HW137361   1.975   1.124  17.597  0.1886  0.3530 -0.6130
 8634SOL    HW237362   2.075   1.218  17.605 -0.0262 -1.3950  2.7562
 8635SOL     OW37363   2.787   1.766  17.171 -0.1819 -0.2558 -0.5398
 8635SOL    HW137364   2.736   1.825  17.116 -0.9605 -0.2664  0.1823
 8635SOL    HW237365   2.772   1.686  17.121 -2.7390 -0.2400  0.2274
 8636SOL     OW37366   1.362   1.078  14.802  0.1087 -0.3574  0.6247
 8636SOL    HW137367   1.295   1.091  14.735 -0.1607 -2.8422  0.4138
 8636SOL    HW237368   1.370   0.986  14.827 -3.5039 -1.0744 -0.8368
 8637SOL     OW37369   0.746   4.370   2.511  0.4437  0.2915  0.2641
 8637SOL    HW137370   0.769   4.418   2.591  0.0961 -0.9141  1.0785
 8637SOL    HW237371   0.746   4.277   2.535  1.3444 -0.2170 -1.6876
 8638SOL     OW37372   2.261   1.043   8.623  0.0552  0.2902  0.0191
 8638SOL    HW137373   2.283   0.955   8.652  0.5208  0.0664 -1.0312
 8638SOL    HW237374   2.168   1.038   8.646 -0.4571  0.0710 -2.1170
 8639SOL     OW37375   4.305   4.189   2.632 -0.2640  0.8265  0.4012
 8639SOL    HW137376   4.359   4.254   2.587  1.2473 -0.5045  0.2550
 8639SOL    HW237377   4.345   4.177   2.718 -0.2387  0.9786  0.4096
 8640SOL     OW37378   0.513   4.599   7.663  0.1607  0.0764  0.2293
 8640SOL    HW137379   0.530   4.612   7.569 -0.7643  1.4640  0.2441
 8640SOL    HW237380   0.533   4.686   7.699  1.6176  0.0762 -0.6124
 8641SOL     OW37381   3.005   1.246  12.893  0.0543  0.1450  0.3575
 8641SOL    HW137382   3.076   1.274  12.835  0.6251 -1.5301  0.2329
 8641SOL    HW237383   3.007   1.151  12.879 -0.6870  0.1515  0.1970
 8642SOL     OW37384   3.080   3.706  16.241  0.5101 -0.5672 -0.6156
 8642SOL    HW137385   3.029   3.782  16.268  0.2520 -0.9988  0.1013
 8642SOL    HW237386   3.016   3.678  16.176 -0.7146  1.0192 -0.0822
 8643SOL     OW37387   1.796   3.298  11.141  1.0489 -0.3099 -0.0870
 8643SOL    HW137388   1.741   3.230  11.180  0.9295 -1.3744 -2.1528
 8643SOL    HW237389   1.877   3.267  11.182  1.0764  2.4942  2.0388
 8644SOL     OW37390   3.773   1.486  13.798 -0.6145  0.0054 -0.5320
 8644SOL    HW137391   3.683   1.465  13.774 -1.4809  2.0678  0.9754
 8644SOL    HW237392   3.762   1.565  13.850  0.7782  0.8470 -1.5073
 8645SOL     OW37393   0.803   2.496   9.475 -0.2049  0.2217  0.1907
 8645SOL    HW137394   0.768   2.502   9.564  0.6074  2.4230  0.3496
 8645SOL    HW237395   0.787   2.580   9.433  2.1795  0.6711  0.1752
 8646SOL     OW37396   1.689   4.324   0.489 -0.4123  0.1697  0.2632
 8646SOL    HW137397   1.684   4.404   0.436  1.0137  0.3111  0.3583
 8646SOL    HW237398   1.662   4.366   0.570  1.0727  2.5462 -0.4662
 8647SOL     OW37399   2.055   4.704   9.172  1.0143  0.2894 -0.0715
 8647SOL    HW137400   2.136   4.669   9.208  1.8622 -0.2678 -2.4772
 8647SOL    HW237401   2.089   0.066   9.153 -0.0711  0.8084  0.3383
 8648SOL     OW37402   1.332   1.441  14.702  0.1731  0.1386 -0.2567
 8648SOL    HW137403   1.277   1.363  14.694 -1.4152  1.3219 -0.9129
 8648SOL    HW237404   1.373   1.433  14.788  0.1197  0.9660 -0.1522
 8649SOL     OW37405   3.742   3.671  17.698 -0.6947  1.0505  0.1870
 8649SOL    HW137406   3.761   3.686   0.088 -0.7773 -0.2673  0.4302
 8649SOL    HW237407   3.670   3.608   0.001 -1.0372  1.3858 -0.4095
 8650SOL     OW37408   1.268   0.106   2.298 -0.0791 -0.3604  0.1081
 8650SOL    HW137409   1.313   0.144   2.373 -2.2279  2.1108  0.1607
 8650SOL    HW237410   1.331   0.118   2.227 -2.0126  1.3419 -1.3134
 8651SOL     OW37411   2.515   4.105   8.224 -0.3639 -0.4089 -0.6784
 8651SOL    HW137412   2.454   4.177   8.210  0.8662  1.1021  1.9500
 8651SOL    HW237413   2.587   4.142   8.274 -0.0610  1.6237 -2.5999
 8652SOL     OW37414   1.634   2.902   3.977  0.3470  0.2388  0.2700
 8652SOL    HW137415   1.660   2.991   3.954  0.6699 -0.5577 -2.5835
 8652SOL    HW237416   1.607   2.907   4.068  1.4198  0.6511  0.5718
 8653SOL     OW37417   0.466   3.731   1.911  0.1943  0.3603  0.4005
 8653SOL    HW137418   0.518   3.810   1.895 -1.8355  1.2165 -1.8509
 8653SOL    HW237419   0.383   3.762   1.947 -1.3081 -0.3855 -2.5111
 8654SOL     OW37420   3.755   2.844   8.206  0.4234 -0.5593 -0.7421
 8654SOL    HW137421   3.740   2.799   8.290  2.4386  0.9916  0.4591
 8654SOL    HW237422   3.665   2.834   8.177 -0.0627 -0.7924  0.8183
 8655SOL     OW37423   4.416   0.468  16.195  0.0264 -0.6703 -0.6274
 8655SOL    HW137424   4.404   0.542  16.135  0.5554 -0.5427 -0.5748
 8655SOL    HW237425   4.507   0.480  16.222  0.2899 -1.6961 -1.0392
 8656SOL     OW37426   2.359   2.160   7.548 -0.4986 -0.6489 -0.2771
 8656SOL    HW137427   2.324   2.234   7.598  1.2458  1.8595 -2.7526
 8656SOL    HW237428   2.448   2.168   7.583 -0.2764  0.6270 -1.1031
 8657SOL     OW37429   2.151   1.724  14.335  0.2444 -0.2625  0.0115
 8657SOL    HW137430   2.144   1.773  14.254 -0.7003 -0.7723 -0.2125
 8657SOL    HW237431   2.222   1.772  14.378  1.0878 -0.1152 -1.5646
 8658SOL     OW37432   0.505   2.862   2.494  0.2864 -0.0388  0.0857
 8658SOL    HW137433   0.466   2.787   2.449 -0.3119  0.8972 -0.9561
 8658SOL    HW237434   0.592   2.860   2.455  0.5762 -0.3958  0.7432
 8659SOL     OW37435   2.743   0.489   7.644  0.5397  0.2911  0.7622
 8659SOL    HW137436   2.783   0.554   7.586 -0.3829 -0.7060 -1.0130
 8659SOL    HW237437   2.741   0.539   7.725 -1.7329  0.0499  0.8480
 8660SOL     OW37438   1.271   3.994   8.699 -0.2495  0.6462 -0.3356
 8660SOL    HW137439   1.315   3.918   8.663 -0.9630  0.4447 -0.7971
 8660SOL    HW237440   1.178   3.976   8.683 -0.6036  0.4824  1.9600
 8661SOL     OW37441   1.715   0.834   7.646  0.0244  0.6522 -0.2601
 8661SOL    HW137442   1.713   0.748   7.603  0.0798  1.5257 -1.9977
 8661SOL    HW237443   1.748   0.890   7.577 -0.0967 -0.5029 -1.2478
 8662SOL     OW37444   1.680   2.237   5.980  0.1837  0.1835 -0.0459
 8662SOL    HW137445   1.686   2.272   6.069  2.2589  1.3794 -0.6681
 8662SOL    HW237446   1.709   2.318   5.938  1.7508 -0.5721 -0.4296
 8663SOL     OW37447   1.638   0.253  11.044  0.0868 -0.1774 -0.2458
 8663SOL    HW137448   1.595   0.264  11.129  0.0166  2.2446 -0.6153
 8663SOL    HW237449   1.729   0.240  11.072  0.1952 -1.6883 -1.2927
 8664SOL     OW37450   2.227   0.997  11.358  0.1784 -0.2821  0.8512
 8664SOL    HW137451   2.207   1.024  11.268 -0.5563  0.6526  1.3032
 8664SOL    HW237452   2.137   1.003  11.390  0.0419  2.2887 -0.0259
 8665SOL     OW37453   4.424   3.237   3.986 -0.1770 -0.1240 -0.2717
 8665SOL    HW137454   4.404   3.214   3.895 -2.7035 -0.5821  0.3919
 8665SOL    HW237455   4.338   3.263   4.018  0.2711  1.3401 -0.2634
 8666SOL     OW37456   0.525   4.181   3.297  0.2447  0.1904  0.1859
 8666SOL    HW137457   0.567   4.204   3.214 -1.9555  2.3819 -0.3118
 8666SOL    HW237458   0.462   4.116   3.269  0.3795 -0.5097  1.5312
 8667SOL     OW37459   1.729   0.279   2.636 -0.2752 -0.2955  0.1588
 8667SOL    HW137460   1.706   0.279   2.543 -0.0167 -1.5587  0.0904
 8667SOL    HW237461   1.728   0.372   2.660  1.5634 -0.2853  0.1956
 8668SOL     OW37462   1.410   2.505   0.245 -0.2159 -0.1301  0.0797
 8668SOL    HW137463   1.455   2.516   0.328 -3.3155 -0.2489  1.7744
 8668SOL    HW237464   1.352   2.581   0.245 -2.2209 -1.6207 -0.6239
 8669SOL     OW37465   2.970   0.786  16.620  0.1601  0.2983 -0.0108
 8669SOL    HW137466   2.990   0.781  16.527 -0.4945  0.7671 -0.1783
 8669SOL    HW237467   2.907   0.858  16.625  0.4854  0.5236  0.9873
 8670SOL     OW37468   3.183   2.845   3.321  0.2702  0.3103 -0.1845
 8670SOL    HW137469   3.226   2.817   3.240  0.6447  2.0984 -0.6110
 8670SOL    HW237470   3.112   2.783   3.336  1.7150 -1.3810 -0.3758
 8671SOL     OW37471   1.679   0.755  14.521  0.2476  0.2792  0.6682
 8671SOL    HW137472   1.665   0.772  14.614  1.2444 -2.3963  1.2876
 8671SOL    HW237473   1.586   0.752  14.497  0.1246  0.0492  1.1838
 8672SOL     OW37474   2.727   1.488   2.352 -0.6973 -0.1944 -0.1860
 8672SOL    HW137475   2.682   1.406   2.374 -2.5585  0.7123 -0.6317
 8672SOL    HW237476   2.805   1.453   2.309 -0.5240  0.4891 -0.4219
 8673SOL     OW37477   1.763   2.053  17.223  0.2093 -0.6308 -0.3180
 8673SOL    HW137478   1.697   2.074  17.290  0.1011 -1.3346 -0.1965
 8673SOL    HW237479   1.702   2.010  17.162  1.4522 -2.5667 -0.2024
 8674SOL     OW37480   2.961   0.588   5.797  0.6766  0.4688  0.2388
 8674SOL    HW137481   3.048   0.554   5.777  0.6186  0.4961 -0.0640
 8674SOL    HW237482   2.976   0.675   5.834  1.0585  0.5628 -0.1407
 8675SOL     OW37483   3.386   0.945   4.498 -0.4596 -0.6370  0.1543
 8675SOL    HW137484   3.301   0.941   4.454 -0.1728  2.2689 -0.6117
 8675SOL    HW237485   3.452   0.899   4.445 -1.2806 -0.8830 -0.6602
 8676SOL     OW37486   4.645   2.360   4.220 -0.3589 -0.6798 -0.1700
 8676SOL    HW137487   4.591   2.289   4.187 -3.4267  0.4259  2.5925
 8676SOL    HW237488   4.654   2.414   4.141 -0.0659  0.2556  0.4992
 8677SOL     OW37489   2.453   2.279   4.196  0.2687 -0.1600  0.0533
 8677SOL    HW137490   2.437   2.339   4.123 -2.0987  2.5051  2.7809
 8677SOL    HW237491   2.365   2.288   4.232 -0.5681 -2.4219 -1.4610
 8678SOL     OW37492   0.824   0.655   3.534 -0.6032  1.0880 -0.3781
 8678SOL    HW137493   0.728   0.660   3.540 -0.5433 -0.0055  1.4906
 8678SOL    HW237494   0.841   0.684   3.623 -0.6766 -0.3132  0.1003
 8679SOL     OW37495   0.127   3.741   4.494 -0.0370  0.3602 -0.5578
 8679SOL    HW137496   0.190   3.669   4.488 -0.0997  0.2544  0.0362
 8679SOL    HW237497   0.048   3.703   4.457 -0.7280 -1.0158  2.3474
 8680SOL     OW37498   1.358   1.974   4.925  0.5894  0.1205  0.0350
 8680SOL    HW137499   1.291   1.926   4.878  1.1216  0.3619 -0.9793
 8680SOL    HW237500   1.320   1.979   5.012 -0.9458  0.3901 -0.6456
 8681SOL     OW37501   4.253   1.579   9.988 -0.2807 -0.5215  0.2628
 8681SOL    HW137502   4.322   1.561   9.924 -1.9313  0.2502 -1.7348
 8681SOL    HW237503   4.175   1.576   9.933 -0.9150  2.4102  1.0208
 8682SOL     OW37504   0.918   2.569  10.642 -0.2036 -0.1059  0.0582
 8682SOL    HW137505   1.009   2.556  10.669 -0.3693 -0.9545  0.1877
 8682SOL    HW237506   0.924   2.662  10.620 -1.3790  0.1254  0.7220
 8683SOL     OW37507   1.256   1.359   5.139  0.7217  0.2281  0.2170
 8683SOL    HW137508   1.213   1.276   5.120  0.4282  0.7076 -1.2058
 8683SOL    HW237509   1.347   1.332   5.146  0.1926 -1.5228  0.3046
 8684SOL     OW37510   0.041   2.531  10.362  0.4050  0.6008  0.1093
 8684SOL    HW137511   4.681   2.555  10.398  0.5409  1.8996 -0.4057
 8684SOL    HW237512   0.096   2.528  10.440 -1.4381 -3.1793  1.2421
 8685SOL     OW37513   3.790   1.113   6.939 -0.1597  0.6521  0.2677
 8685SOL    HW137514   3.747   1.028   6.940  1.0096  0.0592  0.2931
 8685SOL    HW237515   3.727   1.158   6.996 -3.1744 -0.9617 -1.8015
 8686SOL     OW37516   2.492   3.411  15.903  0.4935  0.2027 -0.4132
 8686SOL    HW137517   2.426   3.361  15.855  0.4832  1.2607 -1.5210
 8686SOL    HW237518   2.495   3.352  15.978 -1.6121  3.0515  1.9047
 8687SOL     OW37519   4.656   4.405   2.827 -0.1556  0.3481 -0.0213
 8687SOL    HW137520   4.676   4.374   2.915  2.8498 -2.0712 -1.5557
 8687SOL    HW237521   4.716   4.477   2.810 -1.4051  0.7216 -2.8965
 8688SOL     OW37522   0.586   0.759   6.279  0.0976 -0.3112 -0.1133
 8688SOL    HW137523   0.496   0.727   6.267  0.2428 -0.4563 -0.8174
 8688SOL    HW237524   0.606   0.733   6.369  1.3196 -1.5395 -0.7473
 8689SOL     OW37525   2.888   1.941   2.226  0.4269 -0.3840 -0.1627
 8689SOL    HW137526   2.815   1.889   2.193  0.5692 -0.5958 -0.1464
 8689SOL    HW237527   2.938   1.946   2.145 -2.5707 -0.9605 -2.0340
 8690SOL     OW37528   1.586   2.070   3.126 -0.3197 -0.1657 -0.3516
 8690SOL    HW137529   1.541   2.075   3.210  1.0769 -2.0077  0.4998
 8690SOL    HW237530   1.666   2.121   3.134 -0.1943 -0.9573  3.1346
 8691SOL     OW37531   2.393   4.391   5.407 -0.5201  0.4817  0.1742
 8691SOL    HW137532   2.323   4.421   5.349 -0.0960  0.6606 -0.2490
 8691SOL    HW237533   2.464   4.354   5.354 -0.6941  1.4423 -0.7268
 8692SOL     OW37534   4.190   1.919   8.675 -0.3167 -0.0920  0.2058
 8692SOL    HW137535   4.168   2.011   8.655 -0.0835  0.1293  0.9612
 8692SOL    HW237536   4.160   1.873   8.597  0.5158 -2.6198  1.3763
 8693SOL     OW37537   3.646   2.867   7.061  0.1321  0.0815 -0.5128
 8693SOL    HW137538   3.728   2.824   7.034  0.3909  0.7644 -0.8026
 8693SOL    HW237539   3.668   2.895   7.150  0.0646 -1.4285 -0.0059
 8694SOL     OW37540   4.434   2.408   6.652 -0.3010  1.0449  0.0115
 8694SOL    HW137541   4.459   2.418   6.560 -0.2404 -1.3584 -0.2143
 8694SOL    HW237542   4.465   2.488   6.694 -0.3177  1.4510 -0.7432
 8695SOL     OW37543   1.861   1.040  11.765  0.2594 -0.3868  0.6198
 8695SOL    HW137544   1.806   0.995  11.700 -0.2278  0.6571  0.3144
 8695SOL    HW237545   1.848   0.993  11.847  2.2618 -1.4594  0.3183
 8696SOL     OW37546   3.557   4.458   6.727 -0.9107 -0.0971  0.0522
 8696SOL    HW137547   3.516   4.544   6.739 -0.5590 -0.1799  1.9131
 8696SOL    HW237548   3.493   4.419   6.668  0.7368 -3.2580  0.3813
 8697SOL     OW37549   0.704   2.038   5.203  0.6384  0.1139  0.1205
 8697SOL    HW137550   0.710   2.033   5.298  5.1676 -0.6983 -0.2036
 8697SOL    HW237551   0.612   2.015   5.190  1.1434 -1.3727 -0.7922
 8698SOL     OW37552   0.176   4.592   2.503  0.4848  0.4260 -0.4383
 8698SOL    HW137553   0.161   4.598   2.597  0.3866  3.6991 -0.6685
 8698SOL    HW237554   0.123   4.515   2.479  0.7425  0.1670 -0.1715
 8699SOL     OW37555   3.261   2.755  14.668  0.1803  0.4548 -0.1368
 8699SOL    HW137556   3.281   2.715  14.753  0.5751 -0.4071 -0.6333
 8699SOL    HW237557   3.287   2.690  14.603  1.0737 -0.0922  0.7548
 8700SOL     OW37558   4.610   0.212  17.473 -0.1768  0.0315  0.1387
 8700SOL    HW137559   4.584   0.296  17.433  2.2171  0.8981  0.4087
 8700SOL    HW237560   4.599   0.229  17.566 -1.5195  0.3511 -0.0795
 8701SOL     OW37561   4.238   1.950   5.439 -0.0106  1.0156  0.0496
 8701SOL    HW137562   4.183   2.011   5.390 -0.4475  0.0720 -0.6108
 8701SOL    HW237563   4.322   1.972   5.398  1.2718 -0.5910  1.8109
 8702SOL     OW37564   1.913   4.564   8.658  0.1344  0.2206  0.4575
 8702SOL    HW137565   1.820   4.584   8.658 -0.5437 -2.8562  0.8439
 8702SOL    HW237566   1.936   4.575   8.750 -0.2150  1.4654  0.3923
 8703SOL     OW37567   3.093   1.744   8.306  0.1764  0.2576  0.1766
 8703SOL    HW137568   3.167   1.779   8.356  0.6523 -1.0271  0.3522
 8703SOL    HW237569   3.082   1.658   8.346  1.8142 -1.0386 -2.1549
 8704SOL     OW37570   0.315   3.720   7.893  0.0401  0.3340 -0.6303
 8704SOL    HW137571   0.233   3.691   7.853  0.3020 -2.6014  0.9405
 8704SOL    HW237572   0.316   3.809   7.860 -0.4950  0.8433  0.7364
 8705SOL     OW37573   1.324   3.295   8.652  0.5922  0.0050  0.3138
 8705SOL    HW137574   1.346   3.269   8.742 -1.6163  0.0831  0.8793
 8705SOL    HW237575   1.231   3.271   8.650  0.4716  0.7103 -2.1536
 8706SOL     OW37576   2.807   1.045   3.335  0.3478 -0.1598  0.2707
 8706SOL    HW137577   2.813   0.979   3.266  1.6928  0.3746 -0.1126
 8706SOL    HW237578   2.898   1.074   3.346  0.1358  0.4528  0.4294
 8707SOL     OW37579   2.747   2.011  11.595  0.4115 -0.4243 -0.1608
 8707SOL    HW137580   2.756   2.105  11.612  1.0350 -0.6370  0.7029
 8707SOL    HW237581   2.837   1.979  11.599  0.9192  1.0608  0.2352
 8708SOL     OW37582   1.449   1.815  10.078  0.9935 -0.0938  0.5628
 8708SOL    HW137583   1.535   1.814  10.119  0.8110  1.2923  0.9880
 8708SOL    HW237584   1.391   1.762  10.133 -1.2760 -2.5875 -4.2120
 8709SOL     OW37585   3.496   0.908   3.344 -0.7404  0.2203  0.0968
 8709SOL    HW137586   3.518   0.995   3.310 -0.1495  0.3829  0.8714
 8709SOL    HW237587   3.481   0.856   3.266  1.1268  0.6166 -0.5316
 8710SOL     OW37588   2.770   4.583   5.936 -0.0350 -0.0904 -0.2081
 8710SOL    HW137589   2.720   4.534   5.871 -1.1496 -0.4717  0.9390
 8710SOL    HW237590   2.788   4.661   5.883 -1.1147  1.6017  1.9111
 8711SOL     OW37591   0.579   3.138   0.884 -0.8882 -0.5941 -0.1249
 8711SOL    HW137592   0.662   3.174   0.918 -0.5880 -1.9241  0.5400
 8711SOL    HW237593   0.548   3.223   0.853  1.6779 -0.1869 -1.5910
 8712SOL     OW37594   3.203   1.420   1.606 -0.2834 -0.8293 -0.2436
 8712SOL    HW137595   3.222   1.431   1.699 -1.1865 -2.0020  0.0771
 8712SOL    HW237596   3.160   1.334   1.598  2.6749 -2.2272 -0.9649
 8713SOL     OW37597   0.580   4.252   4.153 -0.3971  0.0442 -0.2228
 8713SOL    HW137598   0.580   4.276   4.061  0.6125  0.9465  0.0135
 8713SOL    HW237599   0.606   4.338   4.186  2.1643 -0.7374 -0.2559
 8714SOL     OW37600   4.410   3.899  10.364 -0.3012 -0.3924  0.2950
 8714SOL    HW137601   4.439   3.807  10.366 -0.7913 -0.5369  0.7081
 8714SOL    HW237602   4.394   3.916  10.457  3.3861  1.2516  0.6559
 8715SOL     OW37603   3.992   2.092   2.042  0.6494  0.1339  0.4940
 8715SOL    HW137604   4.066   2.152   2.051  0.6557 -0.1470  2.4212
 8715SOL    HW237605   3.950   2.127   1.963  1.2994  0.1912  0.1768
 8716SOL     OW37606   4.540   0.412   9.128 -0.1146 -0.1736 -0.2679
 8716SOL    HW137607   4.515   0.385   9.217  0.6342 -2.4560 -0.7695
 8716SOL    HW237608   4.620   0.367   9.100 -0.2531 -0.3398 -0.3940
 8717SOL     OW37609   1.754   0.259   3.196 -0.1291  0.0978 -0.5361
 8717SOL    HW137610   1.711   0.342   3.174  2.8988  2.3212  1.9827
 8717SOL    HW237611   1.749   0.227   3.106 -0.2362 -1.9435  0.2067
 8718SOL     OW37612   1.434   0.712  14.167  0.7413 -0.3801 -0.0255
 8718SOL    HW137613   1.524   0.694  14.140  1.1678  0.6271  0.7638
 8718SOL    HW237614   1.439   0.746  14.256 -1.2868  2.7357 -1.1183
 8719SOL     OW37615   3.325   2.687   7.695 -0.4560  0.0695 -0.4198
 8719SOL    HW137616   3.271   2.638   7.634 -1.4226 -0.1420  0.5939
 8719SOL    HW237617   3.287   2.775   7.697  2.1134  1.1461 -0.2496
 8720SOL     OW37618   2.237   2.734   1.340 -0.6233  0.4161 -0.1998
 8720SOL    HW137619   2.274   2.645   1.340  1.7034  1.3945 -0.5300
 8720SOL    HW237620   2.184   2.730   1.260 -0.5609  1.5084 -0.2827
 8721SOL     OW37621   0.365   4.320   8.544 -0.1315  0.2751  0.0057
 8721SOL    HW137622   0.459   4.322   8.556  0.1888  1.4289 -2.5863
 8721SOL    HW237623   0.360   4.242   8.488 -2.7722  1.0369 -0.8596
 8722SOL     OW37624   1.515   0.305  15.543 -0.0416  0.0920 -0.1173
 8722SOL    HW137625   1.436   0.256  15.521  0.0090  0.9270 -2.2590
 8722SOL    HW237626   1.525   0.277  15.633  1.8620  0.7781 -0.1157
 8723SOL     OW37627   1.278   1.736   2.868 -0.2940  0.1255  0.1103
 8723SOL    HW137628   1.190   1.745   2.903 -1.4762  0.2472 -2.9207
 8723SOL    HW237629   1.316   1.824   2.864 -1.9729  0.7638 -1.6301
 8724SOL     OW37630   0.260   4.456   3.646 -0.1167 -0.1061 -0.1302
 8724SOL    HW137631   0.189   4.407   3.686 -1.2239  2.3057  0.8964
 8724SOL    HW237632   0.256   4.429   3.554  1.0792  1.2918 -0.6016
 8725SOL     OW37633   4.119   2.330  16.493  0.1326 -0.0984 -0.0526
 8725SOL    HW137634   4.090   2.244  16.526 -1.1600  0.2147 -0.3523
 8725SOL    HW237635   4.213   2.322  16.506  0.4091  1.9614 -0.8120
 8726SOL     OW37636   2.881   0.146   7.943 -0.3576 -0.2533  0.1148
 8726SOL    HW137637   2.901   0.052   7.940  2.1281  0.2840  0.4649
 8726SOL    HW237638   2.900   0.165   7.851  0.1461  1.1077  0.4999
 8727SOL     OW37639   3.523   3.007   7.801 -0.0592  0.4178  0.2333
 8727SOL    HW137640   3.521   2.912   7.799  0.3993  0.4514 -1.7077
 8727SOL    HW237641   3.442   3.022   7.753 -0.9082 -0.7607  1.3289
 8728SOL     OW37642   1.875   1.800   3.730  0.7014  0.3655  0.0941
 8728SOL    HW137643   1.935   1.787   3.656 -1.0860 -0.8248 -1.1717
 8728SOL    HW237644   1.904   1.727   3.785  0.4319  0.3213  0.1761
 8729SOL     OW37645   1.471   4.077   7.775  0.2233 -0.2270 -0.5140
 8729SOL    HW137646   1.439   4.007   7.831  0.3395  0.9972  1.0680
 8729SOL    HW237647   1.394   4.099   7.723 -1.3048 -2.4293  0.8848
 8730SOL     OW37648   0.469   4.427  17.159 -0.4533 -0.7453 -0.4463
 8730SOL    HW137649   0.381   4.408  17.125 -1.0775 -1.9312  1.8430
 8730SOL    HW237650   0.442   4.496  17.220  1.5385  1.2644 -1.8467
 8731SOL     OW37651   2.773   2.731   7.658  0.1798 -0.3515  0.5383
 8731SOL    HW137652   2.707   2.695   7.717 -0.8991 -0.1083 -0.5244
 8731SOL    HW237653   2.775   2.825   7.676 -1.7397 -0.1025 -0.5026
 8732SOL     OW37654   3.393   1.692  14.711  0.3678  0.0663  0.1781
 8732SOL    HW137655   3.456   1.655  14.773  0.6091  0.4290  0.1499
 8732SOL    HW237656   3.363   1.768  14.761 -0.5997  0.8653 -1.6216
 8733SOL     OW37657   3.415   2.724   7.289  0.4302  0.7442  0.2076
 8733SOL    HW137658   3.470   2.706   7.212  2.3422 -0.7454  1.9323
 8733SOL    HW237659   3.450   2.672   7.361 -0.0585 -1.6974 -1.3251
 8734SOL     OW37660   3.141   0.305   2.425  0.7484  0.4952  0.1552
 8734SOL    HW137661   3.176   0.391   2.401 -1.3630  0.5995 -2.4749
 8734SOL    HW237662   3.109   0.278   2.339 -1.3983  3.2828  0.0911
 8735SOL     OW37663   4.293   1.770  16.076  0.2091  0.2321 -0.4743
 8735SOL    HW137664   4.241   1.698  16.041 -1.6179  0.1518  2.4092
 8735SOL    HW237665   4.227   1.831  16.111 -2.2487 -1.6104 -1.9105
 8736SOL     OW37666   0.503   1.919  15.978 -0.0202 -0.0241 -0.5038
 8736SOL    HW137667   0.498   1.841  16.033 -2.1814 -0.0988 -0.8043
 8736SOL    HW237668   0.579   1.893  15.927 -0.3695 -0.2046 -0.9326
 8737SOL     OW37669   0.444   0.516  11.703 -0.4520  0.1216  0.3017
 8737SOL    HW137670   0.415   0.526  11.794  0.9399 -0.0451  0.7566
 8737SOL    HW237671   0.529   0.559  11.698 -1.4465  1.6189 -3.6317
 8738SOL     OW37672   1.314   0.931  17.078  0.4045 -0.1561 -0.1321
 8738SOL    HW137673   1.237   0.902  17.030 -0.8839 -0.4102  2.0758
 8738SOL    HW237674   1.353   0.854  17.118  3.9791  0.7836 -1.7770
 8739SOL     OW37675   2.367   3.472  11.358  0.0752  0.0641 -0.2056
 8739SOL    HW137676   2.401   3.544  11.411 -0.6693 -0.1633  0.5843
 8739SOL    HW237677   2.392   3.506  11.272 -2.3731  1.4078 -0.4166
 8740SOL     OW37678   0.525   3.084  10.957  0.0030  0.0072  0.3850
 8740SOL    HW137679   0.446   3.113  10.909  0.7778  0.1676 -0.7948
 8740SOL    HW237680   0.555   3.172  10.979 -3.9048  1.0529  1.6647
 8741SOL     OW37681   1.619   3.673   3.831 -0.0083 -0.1886 -0.3178
 8741SOL    HW137682   1.571   3.601   3.790  0.4566  1.0346 -2.9623
 8741SOL    HW237683   1.581   3.671   3.920  0.3315  2.1210 -0.1057
 8742SOL     OW37684   2.999   3.952   6.055  0.3359 -0.4798  0.1096
 8742SOL    HW137685   2.965   3.989   6.136 -3.7069 -1.0113 -1.3469
 8742SOL    HW237686   3.092   3.944   6.073  0.5327 -1.0779 -1.1236
 8743SOL     OW37687   3.376   0.966   5.730  0.3539  0.1605 -0.8945
 8743SOL    HW137688   3.431   0.942   5.656  2.3639  0.6721  0.4204
 8743SOL    HW237689   3.302   1.021   5.706  1.0430  2.6279  2.5321
 8744SOL     OW37690   3.527   3.010   5.998  0.0394  0.0981  0.9697
 8744SOL    HW137691   3.600   2.991   6.057  1.2173  1.0126 -0.1902
 8744SOL    HW237692   3.501   2.922   5.970  2.0560 -0.9876  2.4787
 8745SOL     OW37693   2.116   4.602   7.947  0.7988 -0.2006 -0.3387
 8745SOL    HW137694   2.104   4.548   8.025  0.2958 -0.8762 -0.8853
 8745SOL    HW237695   2.095   4.687   7.985 -0.1161  0.0808 -1.5027
 8746SOL     OW37696   0.198   4.696   1.239 -0.4153 -0.1213  0.3839
 8746SOL    HW137697   0.268   4.699   1.174 -1.0140  0.4548 -0.2379
 8746SOL    HW237698   0.115   4.689   1.192  0.2703 -2.3529 -0.4577
 8747SOL     OW37699   0.899   3.649   2.342 -0.3209 -0.6168  0.3251
 8747SOL    HW137700   0.938   3.726   2.384  0.8058 -2.2356  2.1900
 8747SOL    HW237701   0.875   3.682   2.255  0.8992  1.1072  0.6177
 8748SOL     OW37702   0.140   2.711   1.772 -0.2200 -0.7378 -0.3987
 8748SOL    HW137703   0.179   2.788   1.730  2.9364 -0.8321  2.3244
 8748SOL    HW237704   0.152   2.717   1.866 -1.2650 -2.6541 -0.1460
 8749SOL     OW37705   1.694   3.398   2.937  0.0155  0.2445  0.5283
 8749SOL    HW137706   1.682   3.313   2.981  2.0003  0.4505  1.4667
 8749SOL    HW237707   1.735   3.358   2.861 -0.5879  0.0378  0.3151
 8750SOL     OW37708   3.700   4.044   3.707 -0.0516 -0.4206  1.1323
 8750SOL    HW137709   3.742   4.001   3.781  1.5989 -2.3021 -0.9251
 8750SOL    HW237710   3.700   3.973   3.643  2.0525  0.9063 -0.3381
 8751SOL     OW37711   2.850   1.535   5.098 -0.3643 -0.3383 -0.0029
 8751SOL    HW137712   2.803   1.469   5.148 -0.4688 -0.9793 -0.9399
 8751SOL    HW237713   2.798   1.614   5.112  0.2483  0.0212  0.2400
 8752SOL     OW37714   2.026   2.396   7.342 -0.5018  0.3112  0.4889
 8752SOL    HW137715   1.952   2.429   7.393 -0.7510  0.3670  0.0956
 8752SOL    HW237716   2.047   2.475   7.292  0.1423  0.3512  0.8238
 8753SOL     OW37717   4.543   3.289   5.479 -0.1472  0.3280 -0.0202
 8753SOL    HW137718   4.623   3.298   5.429 -0.8369 -1.4626 -1.4308
 8753SOL    HW237719   4.584   3.325   5.558 -0.4102  0.7788 -0.0834
 8754SOL     OW37720   3.964   1.496   2.233  0.1282  0.0637 -0.0346
 8754SOL    HW137721   3.895   1.557   2.259 -0.0776  0.0554 -0.5539
 8754SOL    HW237722   3.992   1.537   2.151 -0.6200 -1.3952 -0.9974
 8755SOL     OW37723   3.259   2.415   8.836 -0.6881  0.4223 -0.4202
 8755SOL    HW137724   3.174   2.433   8.797 -1.1303 -0.0750  0.3142
 8755SOL    HW237725   3.250   2.330   8.880 -1.2058  0.2301 -0.9036
 8756SOL     OW37726   1.097   1.615   3.360  0.0367 -0.1353  0.2802
 8756SOL    HW137727   1.192   1.623   3.354  0.1969 -1.9582  0.5806
 8756SOL    HW237728   1.087   1.550   3.291  0.9649 -1.0518  1.0140
 8757SOL     OW37729   2.662   2.030  17.153 -0.5642  0.0294 -0.0511
 8757SOL    HW137730   2.678   2.046  17.060  0.0407  0.8455  0.1887
 8757SOL    HW237731   2.717   2.088  17.206  0.3555 -0.5744 -0.3414
 8758SOL     OW37732   0.382   0.417   1.293 -0.5475 -0.2578  0.1246
 8758SOL    HW137733   0.462   0.467   1.308 -0.9163  0.2246  0.4504
 8758SOL    HW237734   0.322   0.461   1.353 -0.8502 -0.6168  0.0823
 8759SOL     OW37735   4.573   4.317   6.561  0.2335  0.1284 -0.3217
 8759SOL    HW137736   4.516   4.271   6.499 -0.0055  3.4851 -2.5790
 8759SOL    HW237737   4.523   4.305   6.641 -0.2146 -1.0959 -0.7742
 8760SOL     OW37738   4.404   4.596   7.038  0.0712  0.9469  0.8310
 8760SOL    HW137739   4.313   4.568   7.026  0.6129  0.0144 -1.1780
 8760SOL    HW237740   4.417   4.645   6.957  0.2611 -2.5796 -1.3057
 8761SOL     OW37741   1.283   3.785   3.304  0.1960 -0.5518  0.5354
 8761SOL    HW137742   1.269   3.781   3.399 -2.4507 -2.4031  0.0526
 8761SOL    HW237743   1.257   3.697   3.279 -0.1363 -0.2850 -0.0426
 8762SOL     OW37744   3.799   2.415  10.848  0.3416 -0.0070 -0.4393
 8762SOL    HW137745   3.737   2.427  10.777  0.1873  0.1824 -0.2710
 8762SOL    HW237746   3.825   2.323  10.846  1.8067  0.4393 -1.6913
 8763SOL     OW37747   3.406   0.214   8.813 -0.0512 -0.0074  0.0741
 8763SOL    HW137748   3.352   0.137   8.833  0.9400 -0.5356  0.7345
 8763SOL    HW237749   3.353   0.287   8.845  1.5006  0.6932  1.0828
 8764SOL     OW37750   0.718   3.881   4.545 -0.0831 -0.3774 -0.5895
 8764SOL    HW137751   0.650   3.843   4.601  1.5519  0.3443  1.8720
 8764SOL    HW237752   0.780   3.810   4.560  1.2717  0.4227 -2.3866
 8765SOL     OW37753   1.174   0.547   2.442 -0.4906  0.1766  0.1303
 8765SOL    HW137754   1.261   0.576   2.412 -0.0419 -0.0460  1.2443
 8765SOL    HW237755   1.178   0.589   2.527  0.6172  0.0590  0.1420
 8766SOL     OW37756   4.284   4.542   5.149 -0.3981 -0.1824 -0.1702
 8766SOL    HW137757   4.341   4.551   5.073 -0.7090 -0.1301 -0.3928
 8766SOL    HW237758   4.245   4.456   5.131 -0.1300 -0.8753  2.5537
 8767SOL     OW37759   1.823   0.254   4.683 -0.2304 -0.2384 -0.1348
 8767SOL    HW137760   1.829   0.268   4.778 -0.2756 -0.8233 -0.0451
 8767SOL    HW237761   1.802   0.161   4.679 -1.8488 -0.0088  2.4217
 8768SOL     OW37762   3.724   2.267   8.083  0.3408 -0.0423 -0.4464
 8768SOL    HW137763   3.734   2.193   8.144  1.5711  0.6344  0.1725
 8768SOL    HW237764   3.735   2.223   7.999 -2.1331 -0.6494 -0.4654
 8769SOL     OW37765   1.771   0.873   8.750 -0.0175 -0.5225 -0.2594
 8769SOL    HW137766   1.786   0.913   8.665  0.5379 -0.3881 -0.1040
 8769SOL    HW237767   1.676   0.882   8.756 -0.0924 -1.0100 -0.6604
 8770SOL     OW37768   1.805   3.915   4.351 -1.0674 -0.0734 -0.1301
 8770SOL    HW137769   1.753   3.995   4.337  0.2346  0.1357 -3.5676
 8770SOL    HW237770   1.807   3.920   4.447  0.0828  1.0494 -0.2183
 8771SOL     OW37771   3.608   0.932   8.006 -0.9963  0.0242  0.3798
 8771SOL    HW137772   3.687   0.982   8.026 -1.0985  0.6822 -0.8622
 8771SOL    HW237773   3.643   0.860   7.954 -0.4071  1.2630 -0.9542
 8772SOL     OW37774   2.551   2.960   1.498 -0.9857  0.0687  0.1902
 8772SOL    HW137775   2.479   2.916   1.452 -0.8699  2.0581 -1.8643
 8772SOL    HW237776   2.633   2.935   1.456  0.1970  0.8316  2.0402
 8773SOL     OW37777   3.391   1.222   4.094  0.1092 -0.4068 -0.5670
 8773SOL    HW137778   3.358   1.200   4.181  3.5519 -0.2931  0.7761
 8773SOL    HW237779   3.310   1.213   4.043  0.0372  1.5716 -0.7745
 8774SOL     OW37780   1.704   1.594  13.577  0.7528  0.3243  0.1810
 8774SOL    HW137781   1.793   1.573  13.607  0.4251 -2.3128 -0.7375
 8774SOL    HW237782   1.672   1.508  13.553 -0.3987  0.1906  2.1970
 8775SOL     OW37783   3.464   3.316   6.972 -0.1365 -0.4912  0.6667
 8775SOL    HW137784   3.529   3.314   7.043  0.1575  0.0653  0.4169
 8775SOL    HW237785   3.433   3.226   6.976  1.5912 -1.1396 -0.1518
 8776SOL     OW37786   3.304   3.735   6.934  0.1061  0.4325  0.2966
 8776SOL    HW137787   3.363   3.723   7.008  1.4547 -0.6740 -0.9512
 8776SOL    HW237788   3.259   3.816   6.959  0.2635  0.5259  0.2822
 8777SOL     OW37789   3.388   3.178   4.512  0.4159 -0.0722 -0.3013
 8777SOL    HW137790   3.333   3.207   4.585  0.5988  1.5428 -0.8179
 8777SOL    HW237791   3.313   3.161   4.454 -0.1331 -1.6115  0.8558
 8778SOL     OW37792   2.992   1.849   6.951  0.1804 -0.5189  0.9930
 8778SOL    HW137793   3.064   1.909   6.969 -1.5564  2.6633 -2.6912
 8778SOL    HW237794   3.026   1.800   6.875 -1.8202  1.1889 -0.9914
 8779SOL     OW37795   3.789   3.096   2.576 -0.1170  0.3342 -0.1304
 8779SOL    HW137796   3.706   3.110   2.622 -1.4395 -2.8792 -1.5379
 8779SOL    HW237797   3.804   3.179   2.530 -2.7757  0.4428 -0.8025
 8780SOL     OW37798   1.703   2.465   2.224 -0.0319 -0.0166 -0.2957
 8780SOL    HW137799   1.664   2.550   2.244  0.8204  0.1237  0.8079
 8780SOL    HW237800   1.766   2.483   2.154 -2.4612  3.0094 -1.7007
 8781SOL     OW37801   0.258   3.788   6.634  0.0437  0.2227  0.0930
 8781SOL    HW137802   0.311   3.768   6.556  1.3271  1.5690  0.6233
 8781SOL    HW237803   0.190   3.825   6.578 -0.1304 -1.3337 -0.7137
 8782SOL     OW37804   4.345   1.273  16.051  0.2583  0.2375 -0.0469
 8782SOL    HW137805   4.358   1.299  15.960  0.3806  0.6745  0.0935
 8782SOL    HW237806   4.412   1.332  16.086  2.3263 -2.1073 -0.0329
 8783SOL     OW37807   3.465   0.299   6.365 -0.5869  0.0799  0.2864
 8783SOL    HW137808   3.522   0.325   6.437 -0.4419 -0.0160  0.2066
 8783SOL    HW237809   3.466   0.373   6.304  1.0106  1.6542  2.1972
 8784SOL     OW37810   1.305   4.227   4.579  0.1288 -0.3042 -0.1622
 8784SOL    HW137811   1.224   4.235   4.528 -0.1706 -1.9352  0.0564
 8784SOL    HW237812   1.277   4.161   4.642  1.5471 -0.1900  0.5798
 8785SOL     OW37813   4.193   1.072   9.732 -0.5521  0.1011  0.0183
 8785SOL    HW137814   4.119   1.077   9.793 -0.3201 -3.0165  0.5770
 8785SOL    HW237815   4.232   1.152   9.766 -0.2652  0.6632 -1.6488
 8786SOL     OW37816   0.362   1.844  17.316 -0.3744  0.4237 -0.2037
 8786SOL    HW137817   0.415   1.828  17.237  0.2841  1.0602  0.1094
 8786SOL    HW237818   0.312   1.763  17.322  1.9479 -0.8960  1.3378
 8787SOL     OW37819   3.221   0.491   4.711 -0.2830  0.8863 -0.0845
 8787SOL    HW137820   3.218   0.437   4.632 -0.8866 -0.7692  1.1009
 8787SOL    HW237821   3.242   0.576   4.672 -1.8017  0.6301 -1.4682
 8788SOL     OW37822   1.049   3.321  13.252  0.1856  0.2967 -0.0415
 8788SOL    HW137823   1.014   3.374  13.324  0.2680  0.5299 -0.1730
 8788SOL    HW237824   0.989   3.246  13.249 -2.7999  2.5772  2.1835
 8789SOL     OW37825   1.155   4.618   2.709  0.3621 -0.3368 -0.0353
 8789SOL    HW137826   1.128   4.591   2.797 -1.1431  0.7952 -0.1440
 8789SOL    HW237827   1.166   4.713   2.717  0.8328 -0.3733 -0.2400
 8790SOL     OW37828   3.963   1.019  17.077  0.0458 -0.5516 -0.1790
 8790SOL    HW137829   4.032   1.028  17.143 -2.1241  1.9169  1.7166
 8790SOL    HW237830   3.967   1.109  17.046 -2.5404 -0.2561  0.3273
 8791SOL     OW37831   4.557   3.763  12.471  0.0817 -0.1105  0.4471
 8791SOL    HW137832   4.538   3.857  12.463  1.5888  0.0841 -0.9540
 8791SOL    HW237833   4.646   3.765  12.506 -0.2122 -0.1991  1.1929
 8792SOL     OW37834   1.801   1.405   9.499 -0.0569 -0.0406  0.2126
 8792SOL    HW137835   1.784   1.388   9.591 -0.7564 -1.8633 -0.2630
 8792SOL    HW237836   1.896   1.415   9.496 -0.1236  0.2577 -0.9725
 8793SOL     OW37837   4.471   1.746   7.838 -0.0717 -0.3032  0.0965
 8793SOL    HW137838   4.512   1.781   7.917  0.5009 -2.0656  0.5648
 8793SOL    HW237839   4.388   1.795   7.834  0.2587  0.3622  1.1770
 8794SOL     OW37840   4.072   0.783  17.025 -0.4861 -0.3580 -0.9473
 8794SOL    HW137841   4.048   0.731  17.102  2.9539  0.2569  0.5475
 8794SOL    HW237842   4.029   0.865  17.050 -0.8190 -1.0764  0.8323
 8795SOL     OW37843   0.522   2.143   7.551  0.4262  0.4453  0.5894
 8795SOL    HW137844   0.538   2.177   7.463 -3.0778 -2.3049 -1.0732
 8795SOL    HW237845   0.610   2.137   7.588  0.8383 -2.3411 -0.8809
 8796SOL     OW37846   2.122   3.335   8.554  0.3654 -0.4187 -0.5666
 8796SOL    HW137847   2.065   3.284   8.497  1.0585 -0.6118 -1.0877
 8796SOL    HW237848   2.055   3.387   8.598  0.1972  0.3313 -1.6862
 8797SOL     OW37849   2.877   0.973  13.060  0.3695  0.3737  0.0363
 8797SOL    HW137850   2.966   0.996  13.088  0.5273 -0.0896 -0.0907
 8797SOL    HW237851   2.900   0.941  12.973  2.7804 -3.1706  1.9802
 8798SOL     OW37852   0.888   3.060   5.799 -0.2980  0.3495 -0.3841
 8798SOL    HW137853   0.938   3.094   5.725 -0.1415 -0.9577 -0.8902
 8798SOL    HW237854   0.960   3.067   5.861 -0.8334  1.6578  0.0958
 8799SOL     OW37855   3.606   2.915   6.644  0.3615 -0.0815  0.1678
 8799SOL    HW137856   3.623   2.974   6.717 -1.6126  2.3558 -1.3696
 8799SOL    HW237857   3.588   2.982   6.579 -1.2769 -0.9004 -0.2147
 8800SOL     OW37858   4.714   2.212  15.122 -0.0669  0.2914 -0.0769
 8800SOL    HW137859   4.697   2.121  15.145  0.6445  0.3895  0.7981
 8800SOL    HW237860   0.000   2.209  15.027  0.6396 -0.5731  0.0402
 8801SOL     OW37861   4.127   3.161  12.061  0.2577  0.1024 -0.3468
 8801SOL    HW137862   4.118   3.067  12.046  3.3863 -0.3686  0.8169
 8801SOL    HW237863   4.084   3.168  12.146  0.3728  0.3277 -0.3080
 8802SOL     OW37864   1.630   2.156   0.342 -0.1126 -0.2148  0.2642
 8802SOL    HW137865   1.625   2.060   0.338 -1.1053 -0.1098 -1.0028
 8802SOL    HW237866   1.556   2.191   0.293  1.6810 -0.9659 -2.9888
 8803SOL     OW37867   3.567   1.428   5.042  0.9574 -0.0289 -0.1207
 8803SOL    HW137868   3.651   1.470   5.056  1.3758 -0.8552 -0.1484
 8803SOL    HW237869   3.582   1.398   4.953 -0.5703 -1.1596 -0.0109
 8804SOL     OW37870   4.156   1.783   4.984  0.1885  0.1351  0.1645
 8804SOL    HW137871   4.160   1.760   5.077  1.9564  2.1517  0.5682
 8804SOL    HW237872   4.149   1.697   4.941 -0.5933 -0.2589  1.0896
 8805SOL     OW37873   0.875   4.664   7.711  0.1434  0.3332 -0.2077
 8805SOL    HW137874   0.808   4.689   7.647 -0.6657 -2.2628 -0.3907
 8805SOL    HW237875   0.824   4.595   7.754 -1.9690  1.0981 -1.4586
 8806SOL     OW37876   2.734   3.571   8.528 -0.3441  0.2023  0.5206
 8806SOL    HW137877   2.696   3.499   8.578  2.0403 -2.6858 -1.8385
 8806SOL    HW237878   2.671   3.642   8.538 -0.9616 -0.0073 -1.9566
 8807SOL     OW37879   1.880   1.140   8.282 -0.0339  0.4209 -0.0215
 8807SOL    HW137880   1.860   1.122   8.190 -1.5519  1.4773  0.1103
 8807SOL    HW237881   1.965   1.098   8.299 -0.5955 -1.2029 -1.1870
 8808SOL     OW37882   4.409   3.327  15.083  0.9456  0.2466  0.8712
 8808SOL    HW137883   4.341   3.319  15.016 -0.2565 -0.7077  2.1967
 8808SOL    HW237884   4.485   3.364  15.038  0.5323  1.7853  1.4546
 8809SOL     OW37885   0.537   0.463   8.490  0.2843  0.0113 -0.1800
 8809SOL    HW137886   0.491   0.400   8.434  0.4928 -0.4621  0.1784
 8809SOL    HW237887   0.609   0.482   8.430  0.3440  0.6240  0.0901
 8810SOL     OW37888   3.847   4.672   5.854  0.3471  0.1811 -0.0922
 8810SOL    HW137889   3.784   4.637   5.918 -0.3338  2.9742  0.7632
 8810SOL    HW237890   3.920   4.699   5.909  0.2544 -0.6655  0.4510
 8811SOL     OW37891   1.655   1.812   8.210  0.1105  0.5159  0.1565
 8811SOL    HW137892   1.657   1.823   8.305  1.0370  1.5627  0.0083
 8811SOL    HW237893   1.720   1.744   8.190 -0.3486  0.3833 -0.8768
 8812SOL     OW37894   2.568   0.908   2.596  0.2375 -0.3282 -0.6774
 8812SOL    HW137895   2.528   0.821   2.587  0.3839 -0.4275 -0.3517
 8812SOL    HW237896   2.495   0.963   2.569 -0.3028  0.0795  1.6130
 8813SOL     OW37897   3.244   4.721   7.127 -0.4952 -0.4769 -0.4549
 8813SOL    HW137898   3.282   4.672   7.200 -0.2944  2.2827  1.2807
 8813SOL    HW237899   3.163   0.028   7.168 -0.4554 -0.8363 -0.0924
 8814SOL     OW37900   1.636   3.208   6.770  0.2112 -0.8099 -0.1916
 8814SOL    HW137901   1.688   3.145   6.818 -1.0657 -1.5912  0.1577
 8814SOL    HW237902   1.684   3.202   6.687  0.9254 -2.7581  0.3810
 8815SOL     OW37903   1.569   2.752   7.151  0.3965  0.5707 -0.2109
 8815SOL    HW137904   1.563   2.790   7.238 -1.2748  0.6184 -0.3581
 8815SOL    HW237905   1.660   2.774   7.129  0.1920  0.0282 -1.6308
 8816SOL     OW37906   4.285   2.950  16.918  0.3468  0.1508 -0.5529
 8816SOL    HW137907   4.227   3.013  16.875 -0.9109 -0.2592  0.5157
 8816SOL    HW237908   4.305   2.894  16.843 -1.0101  0.8357 -1.4251
 8817SOL     OW37909   3.206   1.294   3.300 -0.2580 -0.0930 -0.6290
 8817SOL    HW137910   3.222   1.312   3.207 -0.1170 -1.5538 -0.8952
 8817SOL    HW237911   3.197   1.200   3.287  0.8768 -0.6674  2.7202
 8818SOL     OW37912   4.717   3.470  14.966  0.0337  0.1687 -0.1382
 8818SOL    HW137913   4.681   3.535  15.026  2.7022  1.9843 -0.5383
 8818SOL    HW237914   0.062   3.430  15.016  0.5652  0.5942 -0.5456
 8819SOL     OW37915   3.330   3.745  16.387  0.5038  0.8413  0.7298
 8819SOL    HW137916   3.398   3.689  16.425 -0.3001 -0.1451  0.7132
 8819SOL    HW237917   3.307   3.785  16.471 -0.8401  1.4379  0.0783
 8820SOL     OW37918   3.787   4.156   9.049 -0.0367 -0.3176  0.1697
 8820SOL    HW137919   3.720   4.100   9.010 -0.1279  1.3894 -2.1385
 8820SOL    HW237920   3.733   4.230   9.077  1.1728  0.0244  1.5726
 8821SOL     OW37921   0.820   0.108   7.320  0.3864 -0.2392 -0.0817
 8821SOL    HW137922   0.794   0.186   7.272  1.0716 -0.6844 -1.1852
 8821SOL    HW237923   0.812   0.133   7.412  2.3890  3.2945 -0.8564
 8822SOL     OW37924   2.649   3.399   2.304 -0.1932 -0.1585  0.1634
 8822SOL    HW137925   2.726   3.342   2.300  2.9570  3.8640  2.4394
 8822SOL    HW237926   2.610   3.383   2.218 -0.7643  0.3098  0.3331
 8823SOL     OW37927   4.454   4.235   6.796 -0.0412 -0.1406 -0.3668
 8823SOL    HW137928   4.365   4.269   6.802  0.2580  0.6014 -0.1557
 8823SOL    HW237929   4.488   4.276   6.876 -0.2961  0.7928 -0.7345
 8824SOL     OW37930   3.739   1.276   7.796  0.2631 -0.0320  0.8077
 8824SOL    HW137931   3.667   1.232   7.751 -0.0078  1.5231 -0.2372
 8824SOL    HW237932   3.727   1.238   7.884 -2.5844  0.2923  0.5643
 8825SOL     OW37933   1.125   3.653  13.425  0.4111  0.0641 -0.0668
 8825SOL    HW137934   1.185   3.611  13.487 -0.8233  1.3129  1.9957
 8825SOL    HW237935   1.131   3.739  13.468  0.6456  0.8956 -1.7699
 8826SOL     OW37936   3.840   3.038   3.241  0.2204  0.0099 -0.3664
 8826SOL    HW137937   3.917   3.071   3.195  1.4538 -0.0773  1.6294
 8826SOL    HW237938   3.772   3.076   3.185 -1.7603  1.8356  3.2680
 8827SOL     OW37939   3.751   0.203   6.493  0.0367  0.1964 -0.8430
 8827SOL    HW137940   3.761   0.296   6.472  3.2612 -0.1114 -0.7355
 8827SOL    HW237941   3.802   0.188   6.573 -0.7985 -0.8753 -0.5102
 8828SOL     OW37942   1.716   3.733   6.397  0.3823 -0.1589 -0.3317
 8828SOL    HW137943   1.796   3.779   6.373 -0.6894  0.7859 -2.1068
 8828SOL    HW237944   1.698   3.779   6.480  0.1862 -0.8538  0.0129
 8829SOL     OW37945   4.467   1.491  12.824 -0.0692  0.8008  0.6130
 8829SOL    HW137946   4.435   1.534  12.904 -1.3187  1.4435 -0.2382
 8829SOL    HW237947   4.406   1.417  12.822  1.2260 -0.2550 -0.2387
 8830SOL     OW37948   3.118   1.142   1.575  0.2149 -0.3100  0.1706
 8830SOL    HW137949   3.178   1.097   1.635  0.4465  0.2540  0.3691
 8830SOL    HW237950   3.071   1.065   1.545  1.2656 -0.8989  0.0306
 8831SOL     OW37951   0.519   1.380   6.881 -0.4857  0.2575  0.3214
 8831SOL    HW137952   0.532   1.461   6.832  0.5588  0.4499  0.9297
 8831SOL    HW237953   0.606   1.339   6.878 -0.0993  1.3500 -3.7425
 8832SOL     OW37954   3.550   4.624  10.978  0.0842 -0.2361  0.4218
 8832SOL    HW137955   3.518   4.603  10.891 -2.8006  0.1410  1.3943
 8832SOL    HW237956   3.642   4.599  10.969 -0.0854 -0.8347  0.3782
 8833SOL     OW37957   4.067   2.120   5.326 -0.2772 -0.3016  0.3850
 8833SOL    HW137958   3.986   2.158   5.360 -0.0722  0.1893  0.3343
 8833SOL    HW237959   4.036   2.093   5.240 -0.8215  0.2719  0.3956
 8834SOL     OW37960   4.454   3.366  13.995  0.0959  0.5220 -0.1768
 8834SOL    HW137961   4.449   3.397  13.905 -1.6787 -0.6654 -0.4921
 8834SOL    HW237962   4.533   3.406  14.030  0.9632 -1.6402  0.3868
 8835SOL     OW37963   0.462   1.013  12.252 -0.4563 -1.0844  0.4518
 8835SOL    HW137964   0.496   1.081  12.309  0.6840 -0.0841 -1.4433
 8835SOL    HW237965   0.527   0.944  12.267  0.5147 -0.9458 -3.0795
 8836SOL     OW37966   1.327   1.827  15.212 -0.3959  0.2064 -0.0132
 8836SOL    HW137967   1.407   1.774  15.206 -0.8810 -0.3081 -1.7855
 8836SOL    HW237968   1.263   1.757  15.227  0.2410 -0.3129  0.3211
 8837SOL     OW37969   3.303   4.243   4.852  0.2870 -0.0599  0.2476
 8837SOL    HW137970   3.229   4.187   4.826  1.0064 -1.0425  0.3129
 8837SOL    HW237971   3.315   4.292   4.771  0.5984  0.9608  0.9110
 8838SOL     OW37972   0.244   3.712   3.628  0.1230 -0.2894 -0.7748
 8838SOL    HW137973   0.168   3.701   3.686 -0.4216  0.5690 -1.3287
 8838SOL    HW237974   0.245   3.806   3.613  0.1109 -0.3578 -1.2204
 8839SOL     OW37975   4.228   2.583   0.560 -0.2979 -0.0505 -0.0732
 8839SOL    HW137976   4.145   2.602   0.516 -1.3123 -1.7280  1.0842
 8839SOL    HW237977   4.279   2.664   0.559 -3.0362  1.7191  1.5529
 8840SOL     OW37978   4.503   2.790   4.164 -0.1548  0.0202 -0.8345
 8840SOL    HW137979   4.492   2.755   4.253 -2.7466  0.8336 -0.8374
 8840SOL    HW237980   4.569   2.732   4.127 -1.5239 -1.4471 -0.9923
 8841SOL     OW37981   1.576   2.170  11.096  0.3559  0.4776  0.5014
 8841SOL    HW137982   1.553   2.078  11.111  0.8109  0.4701  1.1336
 8841SOL    HW237983   1.645   2.156  11.031  0.5913  0.5533  0.7371
 8842SOL     OW37984   2.346   4.425   6.551  0.1165 -0.0480  0.0903
 8842SOL    HW137985   2.411   4.355   6.536  1.0329  0.6936  0.5660
 8842SOL    HW237986   2.272   4.386   6.598  0.7852 -1.3869  0.0346
 8843SOL     OW37987   3.628   3.088  16.027 -0.2251 -0.0571  0.1333
 8843SOL    HW137988   3.548   3.039  16.047 -0.2823  0.3274  0.8642
 8843SOL    HW237989   3.653   3.057  15.940  0.4498 -2.2048  1.0830
 8844SOL     OW37990   0.167   0.916   5.854  0.3920 -0.2655 -0.6203
 8844SOL    HW137991   0.188   0.836   5.902 -0.7165 -1.1809 -1.6958
 8844SOL    HW237992   0.257   0.948   5.851 -0.6230  2.5142 -1.9097
 8845SOL     OW37993   4.449   0.088   4.144  0.0778  0.5113 -0.1362
 8845SOL    HW137994   4.499   0.022   4.192 -1.6000 -0.4921  0.2308
 8845SOL    HW237995   4.491   0.083   4.058  0.7603 -1.3593  0.3195
 8846SOL     OW37996   4.315   3.160   5.562 -0.0078  0.2883  0.5217
 8846SOL    HW137997   4.262   3.238   5.547  0.2826  0.6727  1.5507
 8846SOL    HW237998   4.405   3.192   5.558  0.7036 -1.6982  0.4269
 8847SOL     OW37999   3.864   4.050   5.431  0.3400 -0.1661 -0.4650
 8847SOL    HW138000   3.851   4.124   5.372  1.3706  1.2518  1.0773
 8847SOL    HW238001   3.948   4.075   5.469  0.4431  0.5786 -1.1909
 8848SOL     OW38002   3.493   2.188   2.199  0.0793  0.0612 -0.6556
 8848SOL    HW138003   3.540   2.114   2.239 -1.1564 -0.4762 -0.2095
 8848SOL    HW238004   3.494   2.168   2.105  0.1457 -0.4372 -0.5528
 8849SOL     OW38005   4.195   1.576   8.694  0.4158 -0.3757 -0.1974
 8849SOL    HW138006   4.192   1.521   8.772 -0.2432  0.1635  0.1606
 8849SOL    HW238007   4.265   1.535   8.644  0.0228 -0.7210 -0.4614
 8850SOL     OW38008   0.952   0.246   2.925  0.6772 -0.6047  0.2697
 8850SOL    HW138009   0.941   0.305   2.999 -4.4681  0.7626 -1.6041
 8850SOL    HW238010   1.044   0.261   2.901  0.7826 -0.7757  0.5676
 8851SOL     OW38011   1.360   2.140   6.221  0.0545 -0.3337  0.2643
 8851SOL    HW138012   1.333   2.147   6.129 -1.0935  1.6014  0.7462
 8851SOL    HW238013   1.420   2.215   6.225 -0.5831  0.0620  2.1011
 8852SOL     OW38014   0.766   2.411  11.594  0.1722 -0.6879  0.0630
 8852SOL    HW138015   0.808   2.494  11.612 -0.7165  0.0965 -1.4494
 8852SOL    HW238016   0.696   2.422  11.659  0.5969 -1.4792  0.6484
 8853SOL     OW38017   3.624   0.410   4.027  0.0286  0.1861  0.0674
 8853SOL    HW138018   3.705   0.393   3.979 -1.1825 -1.4025 -1.3948
 8853SOL    HW238019   3.638   0.503   4.046  0.4165  0.3150 -0.8895
 8854SOL     OW38020   0.616   4.172  16.682 -0.0840 -0.5570  0.1573
 8854SOL    HW138021   0.592   4.236  16.749 -1.2263 -0.1671 -0.6353
 8854SOL    HW238022   0.709   4.192  16.683 -0.3680  0.8727 -3.2170
 8855SOL     OW38023   1.700   3.120  15.019  0.0451  0.1437  0.2966
 8855SOL    HW138024   1.765   3.183  15.047 -0.3655  1.2409 -1.2533
 8855SOL    HW238025   1.679   3.082  15.105 -1.4838 -1.2740 -0.6910
 8856SOL     OW38026   1.370   3.064   7.256  0.0701  0.0613 -0.7703
 8856SOL    HW138027   1.382   3.003   7.329  0.7504  0.2789 -0.7020
 8856SOL    HW238028   1.393   3.151   7.290 -2.5413  0.6774 -0.5672
 8857SOL     OW38029   0.501   4.010   6.480 -0.1815 -0.6157  0.1879
 8857SOL    HW138030   0.488   3.924   6.440 -2.5754 -0.6619  1.0933
 8857SOL    HW238031   0.590   4.034   6.454 -0.4673 -0.5991 -0.7777
 8858SOL     OW38032   3.328   4.551   7.676  0.2308 -0.0042 -0.0411
 8858SOL    HW138033   3.385   4.591   7.742  1.1970  0.3678 -1.1014
 8858SOL    HW238034   3.382   4.487   7.628 -0.1536 -1.2136  1.1425
 8859SOL     OW38035   1.283   2.737  12.423  0.0190 -0.2287 -0.2837
 8859SOL    HW138036   1.369   2.751  12.463 -0.2877  1.2264 -0.1306
 8859SOL    HW238037   1.259   2.827  12.400 -2.6812 -1.4057 -1.9992
 8860SOL     OW38038   0.052   1.299  16.965  0.8115  0.1717  0.1179
 8860SOL    HW138039   4.704   1.361  16.962  0.4624 -0.1624  1.4532
 8860SOL    HW238040   0.041   1.270  17.056 -1.4933  0.2872 -0.1308
 8861SOL     OW38041   0.937   3.869   8.999  0.3112 -0.0543 -0.6673
 8861SOL    HW138042   0.901   3.958   9.001 -0.5096 -0.4228  0.9704
 8861SOL    HW238043   0.945   3.863   8.904  1.8239  0.1077 -0.5498
 8862SOL     OW38044   0.775   1.636   7.362 -0.2294 -0.2769 -0.5803
 8862SOL    HW138045   0.771   1.541   7.365  0.0296 -0.2869 -0.5149
 8862SOL    HW238046   0.685   1.648   7.391 -0.2909 -3.6337  0.6153
 8863SOL     OW38047   1.828   0.028  10.339  0.2699  0.3522 -0.4223
 8863SOL    HW138048   1.895   0.097  10.348  0.8986 -0.0923 -1.7543
 8863SOL    HW238049   1.744   0.074  10.346 -0.8062 -2.3061  4.5418
 8864SOL     OW38050   2.620   1.033   7.150 -0.2130  0.3828 -0.4497
 8864SOL    HW138051   2.527   1.041   7.130 -0.5681 -0.4953  0.8284
 8864SOL    HW238052   2.649   1.103   7.092 -2.3153  1.6302  0.0003
 8865SOL     OW38053   1.355   0.349  11.889  0.4128  0.2591  0.4784
 8865SOL    HW138054   1.433   0.305  11.922  0.7205 -0.3246 -1.0425
 8865SOL    HW238055   1.394   0.435  11.871  1.9626 -0.7283 -0.7670
 8866SOL     OW38056   4.131   2.708  12.050 -0.1725  0.5676 -0.1452
 8866SOL    HW138057   4.066   2.727  11.983  0.4567 -3.3645 -1.8774
 8866SOL    HW238058   4.207   2.751  12.009  0.7080 -2.0114 -1.2420
 8867SOL     OW38059   1.815   0.669   6.887 -0.2581  0.0890 -0.3701
 8867SOL    HW138060   1.845   0.579   6.906 -2.0329 -0.3376  0.4150
 8867SOL    HW238061   1.774   0.644   6.804  0.7508 -0.1679 -0.7945
 8868SOL     OW38062   3.865   2.504  12.105  0.0954  0.5107 -0.1049
 8868SOL    HW138063   3.865   2.438  12.175  1.3497  1.1918  0.5421
 8868SOL    HW238064   3.848   2.586  12.152  1.1055  0.8810 -0.3919
 8869SOL     OW38065   3.251   2.833   6.591  0.1644 -0.0772 -0.3628
 8869SOL    HW138066   3.223   2.912   6.638  1.2935 -0.8516  1.6124
 8869SOL    HW238067   3.270   2.886   6.513  0.8670  2.1438  1.3134
 8870SOL     OW38068   3.146   0.444   8.676  0.5425  0.3537  0.0085
 8870SOL    HW138069   3.199   0.413   8.602 -0.1046  0.9108 -0.6987
 8870SOL    HW238070   3.213   0.433   8.743 -0.9830 -1.9948  1.1545
 8871SOL     OW38071   3.721   2.443   2.410 -0.1048  0.1342 -0.0966
 8871SOL    HW138072   3.747   2.354   2.435  1.5229  1.2195  1.9715
 8871SOL    HW238073   3.637   2.429   2.455 -0.3549  0.5051 -0.4492
 8872SOL     OW38074   1.958   4.597   8.956  0.3805  0.6222  0.2222
 8872SOL    HW138075   1.867   4.576   8.976  0.6504  0.4090  1.2583
 8872SOL    HW238076   1.975   4.653   9.032 -0.0601 -0.6922  1.2978
 8873SOL     OW38077   2.398   1.453   5.581  0.8348  0.1008  0.3818
 8873SOL    HW138078   2.378   1.519   5.647 -0.4491 -0.2132  0.3039
 8873SOL    HW238079   2.357   1.490   5.503 -2.5618 -2.9409  0.7341
 8874SOL     OW38080   1.296   2.847  13.773 -0.0201  0.8921 -0.4299
 8874SOL    HW138081   1.251   2.908  13.831 -0.8283  0.4815 -0.6199
 8874SOL    HW238082   1.228   2.818  13.711 -0.7635  0.3176  0.6550
 8875SOL     OW38083   0.689   4.634  10.257  0.5532 -0.5042  0.0340
 8875SOL    HW138084   0.731   4.619  10.341  0.8003  0.9964  0.1646
 8875SOL    HW238085   0.615   4.690  10.280  0.6724 -0.4416  0.2621
 8876SOL     OW38086   2.891   0.952  13.411 -0.3677  0.4877  0.1845
 8876SOL    HW138087   2.856   0.901  13.339  1.8017  0.8871 -1.1351
 8876SOL    HW238088   2.812   1.002  13.433  1.1731  1.3152  3.8812
 8877SOL     OW38089   3.842   2.950   1.450  0.0547  0.3977 -0.8396
 8877SOL    HW138090   3.756   2.909   1.456  1.4066 -2.1661  0.8500
 8877SOL    HW238091   3.848   2.974   1.357  0.1558  0.5003 -0.8070
 8878SOL     OW38092   2.949   2.449   8.987  0.2907 -0.2204  0.1503
 8878SOL    HW138093   2.906   2.532   9.008 -0.8721 -0.3943 -1.4872
 8878SOL    HW238094   2.951   2.416   9.077  0.9942 -1.6313 -0.3804
 8879SOL     OW38095   4.268   0.041   2.106 -0.0013 -0.3789 -0.2134
 8879SOL    HW138096   4.199   0.019   2.043 -0.0395  0.6098 -0.5156
 8879SOL    HW238097   4.325   0.084   2.044  0.3256 -2.3306 -1.2693
 8880SOL     OW38098   2.282   4.230   0.982 -0.4030  0.0728 -0.4321
 8880SOL    HW138099   2.253   4.153   1.030  1.5649  0.8248  1.9351
 8880SOL    HW238100   2.218   4.229   0.910  0.3502  0.6278 -1.1072
 8881SOL     OW38101   1.198   0.167   9.066  0.6143  0.1957  0.4912
 8881SOL    HW138102   1.262   0.188   8.998 -0.9977  0.0170 -1.0703
 8881SOL    HW238103   1.151   0.091   9.033  1.5807  0.2569 -0.9746
 8882SOL     OW38104   1.907   1.890   9.921  0.5017 -0.2856 -1.0300
 8882SOL    HW138105   1.926   1.877  10.014 -1.3077  2.2702 -0.3120
 8882SOL    HW238106   1.930   1.800   9.896  0.9292 -0.1386 -1.1614
 8883SOL     OW38107   3.158   0.532   4.985  0.6698  0.1538  0.1355
 8883SOL    HW138108   3.150   0.513   4.892  0.6813 -1.2534  0.4251
 8883SOL    HW238109   3.209   0.612   4.977  0.9134 -0.1446 -1.3339
 8884SOL     OW38110   0.187   3.706   2.098  0.3644  0.4010  0.7248
 8884SOL    HW138111   0.203   3.790   2.056 -0.8491  0.7410  0.9403
 8884SOL    HW238112   0.113   3.683   2.041 -0.8374  1.7973  1.7264
 8885SOL     OW38113   3.680   1.858   5.682 -0.5858 -0.1577  0.6328
 8885SOL    HW138114   3.767   1.836   5.651  0.6845 -0.3128  4.3109
 8885SOL    HW238115   3.632   1.785   5.643  1.6190 -0.6848 -1.0720
 8886SOL     OW38116   4.375   2.068   2.792 -0.1542  0.2654  0.5841
 8886SOL    HW138117   4.374   2.025   2.706  0.5179 -0.8050  1.1012
 8886SOL    HW238118   4.403   2.159   2.781 -0.6476  0.4626  0.9878
 8887SOL     OW38119   0.349   0.869  15.266  0.3293  0.4343  0.0912
 8887SOL    HW138120   0.307   0.814  15.200 -0.6792  2.0451 -0.6198
 8887SOL    HW238121   0.344   0.952  15.219 -1.5789 -0.2268 -0.9058
 8888SOL     OW38122   1.207   1.616   6.643 -0.7913 -0.0212 -0.1855
 8888SOL    HW138123   1.157   1.659   6.713 -0.6951 -0.6951  0.2940
 8888SOL    HW238124   1.181   1.672   6.570 -1.1530 -0.9392 -0.7543
 8889SOL     OW38125   3.308   1.753   6.445  0.1977  0.3895  0.2202
 8889SOL    HW138126   3.323   1.660   6.462 -3.3766 -0.4508 -1.3272
 8889SOL    HW238127   3.378   1.797   6.493  1.1876 -0.9538  0.0282
 8890SOL     OW38128   0.171   4.660   4.067  0.1648 -0.3888 -0.1538
 8890SOL    HW138129   0.246   4.701   4.111 -0.1867  1.7393 -1.5742
 8890SOL    HW238130   0.207   4.673   3.980 -2.4625 -1.5109 -1.3964
 8891SOL     OW38131   0.002   2.806   1.991  0.3214  0.8902  0.1110
 8891SOL    HW138132   4.683   2.865   1.930 -0.5360 -0.5733 -0.7009
 8891SOL    HW238133   4.664   2.785   2.059  0.2450  1.1128  0.1086
 8892SOL     OW38134   0.439   1.024  17.018  0.3913 -0.3860  0.5326
 8892SOL    HW138135   0.408   1.080  17.090 -0.4591 -0.8454  0.5323
 8892SOL    HW238136   0.384   1.057  16.947  1.4402 -0.3854 -0.2735
 8893SOL     OW38137   2.521   1.308  13.669  0.2069  0.3052  0.2820
 8893SOL    HW138138   2.538   1.385  13.614 -1.9027 -0.8333 -2.0027
 8893SOL    HW238139   2.471   1.342  13.742 -1.5170 -2.8038  0.5766
 8894SOL     OW38140   1.904   3.314   2.777 -0.1724  0.1706 -0.2992
 8894SOL    HW138141   1.936   3.391   2.732  1.1660  0.4214  1.0840
 8894SOL    HW238142   1.968   3.254   2.739  1.2223  2.5804 -1.6848
 8895SOL     OW38143   3.148   0.631   7.922  0.1207 -0.0742  0.0544
 8895SOL    HW138144   3.128   0.695   7.991  0.7568 -1.0774  1.1677
 8895SOL    HW238145   3.057   0.606   7.905 -0.2939  0.4349  1.5098
 8896SOL     OW38146   2.298   0.846  17.511 -0.4970 -0.0272  0.1399
 8896SOL    HW138147   2.341   0.768  17.547 -0.2969  1.4552  3.1750
 8896SOL    HW238148   2.211   0.820  17.540 -0.1800 -3.0272 -1.6774
 8897SOL     OW38149   0.817   2.181  13.927  0.2894 -0.3914 -0.0968
 8897SOL    HW138150   0.866   2.099  13.938 -2.4856 -1.7881  1.7391
 8897SOL    HW238151   0.852   2.234  13.999 -0.9489  0.6294 -0.2622
 8898SOL     OW38152   0.540   3.076   8.580  0.1974 -0.2709  0.3068
 8898SOL    HW138153   0.464   3.071   8.522  1.1357 -0.9164 -0.8620
 8898SOL    HW238154   0.613   3.101   8.524  0.1296  0.1864  0.4233
 8899SOL     OW38155   0.671   1.198   6.708 -0.1721 -0.1089  0.2877
 8899SOL    HW138156   0.692   1.274   6.654  1.2195 -0.8988 -0.3190
 8899SOL    HW238157   0.756   1.190   6.752 -0.5484 -1.3674  0.7747
 8900SOL     OW38158   2.490   2.773   4.200 -0.0579  0.9253  0.1009
 8900SOL    HW138159   2.544   2.698   4.173 -1.4385 -0.2028  0.4672
 8900SOL    HW238160   2.431   2.730   4.263  2.4912  0.9213  2.4865
 8901SOL     OW38161   1.145   1.133  17.244 -0.0939 -0.7810  0.2466
 8901SOL    HW138162   1.173   1.151  17.154  1.3418  1.5429  1.1508
 8901SOL    HW238163   1.206   1.065  17.275 -0.2137 -0.4950  1.1069
 8902SOL     OW38164   0.019   3.173   8.375  0.3618 -0.1451 -0.9865
 8902SOL    HW138165   0.083   3.102   8.384 -0.1988 -0.4901  0.2960
 8902SOL    HW238166   4.716   3.188   8.465  1.4885  0.0154 -0.6609
 8903SOL     OW38167   1.875   0.169   0.582  0.4200 -0.1359 -0.1568
 8903SOL    HW138168   1.845   0.248   0.626  0.6725  1.3882 -2.7105
 8903SOL    HW238169   1.815   0.148   0.510  0.2452  1.5263 -0.5022
 8904SOL     OW38170   1.896   4.029   8.802  0.4818 -0.1344  0.1002
 8904SOL    HW138171   1.808   4.064   8.817  1.2848  0.9560  2.2164
 8904SOL    HW238172   1.940   4.111   8.779 -1.4719  0.9894  0.3819
 8905SOL     OW38173   4.458   1.771  16.476 -0.0788 -0.2797 -0.7206
 8905SOL    HW138174   4.403   1.836  16.432 -0.4695 -2.0465 -2.8030
 8905SOL    HW238175   4.526   1.762  16.410 -0.2019  1.1430 -1.0454
 8906SOL     OW38176   4.485   1.205   6.839  0.3984  0.2148 -0.0871
 8906SOL    HW138177   4.545   1.192   6.765 -0.4033  3.1665 -1.2314
 8906SOL    HW238178   4.405   1.211   6.788  1.1186 -1.3510 -1.4048
 8907SOL     OW38179   0.811   1.760   2.576  0.5661  0.5450  0.0620
 8907SOL    HW138180   0.779   1.733   2.491  0.1343  2.5693 -0.4112
 8907SOL    HW238181   0.836   1.675   2.614  1.6932 -0.4290 -2.8783
 8908SOL     OW38182   0.150   2.699   3.786 -0.1759 -0.5032  0.3322
 8908SOL    HW138183   0.136   2.774   3.843  0.0224  1.4817 -2.2395
 8908SOL    HW238184   0.234   2.668   3.821  0.4482  0.5901 -0.1813
 8909SOL     OW38185   0.906   2.339  14.142  0.1369 -0.2974  0.0926
 8909SOL    HW138186   0.998   2.315  14.141 -0.0702 -1.1322  2.2751
 8909SOL    HW238187   0.880   2.326  14.233 -2.5467 -1.3600 -0.8058
 8910SOL     OW38188   0.080   4.606   8.376  0.3431  0.3354  0.4738
 8910SOL    HW138189   0.009   4.543   8.386  1.8246 -1.6398 -1.6212
 8910SOL    HW238190   0.044   4.655   8.302  0.3129  1.4678  1.2253
 8911SOL     OW38191   2.391   0.351   5.894 -0.0421 -0.1009  0.1682
 8911SOL    HW138192   2.343   0.433   5.890 -0.1069 -0.2927 -3.0015
 8911SOL    HW238193   2.452   0.367   5.966 -2.6897  1.5830  2.0056
 8912SOL     OW38194   2.695   0.641   5.234  0.5130  0.3124  0.3034
 8912SOL    HW138195   2.778   0.633   5.189  2.2297  0.3193  3.4494
 8912SOL    HW238196   2.647   0.570   5.191 -0.5010  1.3906 -0.3500
 8913SOL     OW38197   3.982   2.126   3.773  0.1164  0.1983  0.0015
 8913SOL    HW138198   4.019   2.086   3.694  2.7872  4.4330 -0.8852
 8913SOL    HW238199   3.974   2.047   3.827 -1.2234  0.7867  0.6610
 8914SOL     OW38200   3.911   1.964   3.003  1.0498  0.5164  0.0500
 8914SOL    HW138201   3.850   1.902   2.964  1.2538  1.1798 -1.3306
 8914SOL    HW238202   3.992   1.941   2.957 -0.1587 -0.5263 -1.5759
 8915SOL     OW38203   4.190   3.297   6.598  0.4007 -0.4764  0.0128
 8915SOL    HW138204   4.276   3.303   6.640  1.2289 -0.2005 -1.7322
 8915SOL    HW238205   4.195   3.201   6.603  0.7018 -0.3189  2.9927
 8916SOL     OW38206   0.278   4.425   3.358 -0.2883  0.1451 -0.0388
 8916SOL    HW138207   0.340   4.492   3.331 -0.3328  1.0789  2.2362
 8916SOL    HW238208   0.322   4.343   3.335 -0.8657 -0.0053 -0.6037
 8917SOL     OW38209   0.477   4.623   3.273 -0.0673 -0.2895 -0.5936
 8917SOL    HW138210   0.475   4.636   3.178 -0.8381  1.7229 -0.2912
 8917SOL    HW238211   0.570   4.624   3.295  0.0546 -1.8496 -1.0200
 8918SOL     OW38212   2.531   2.990   7.087 -0.0212  0.4968  0.0674
 8918SOL    HW138213   2.491   2.973   7.003  2.8042 -1.5037 -0.8716
 8918SOL    HW238214   2.602   3.045   7.053  1.3740 -0.2460  1.7216
 8919SOL     OW38215   4.398   1.739   6.202  0.0604  0.3760 -0.4619
 8919SOL    HW138216   4.432   1.751   6.113  2.0560  1.5048  0.4250
 8919SOL    HW238217   4.480   1.746   6.252  0.1077 -1.3448 -0.3116
 8920SOL     OW38218   0.334   2.332   4.836  0.4975  0.1136 -0.5263
 8920SOL    HW138219   0.329   2.362   4.927 -0.2008  1.0854 -0.8910
 8920SOL    HW238220   0.424   2.300   4.831  1.0027  1.0365  2.4662
 8921SOL     OW38221   2.695   2.187   4.100  0.0757  0.6044 -0.4441
 8921SOL    HW138222   2.710   2.150   4.187  0.2884 -2.4530 -1.7714
 8921SOL    HW238223   2.624   2.244   4.130 -0.4923 -1.0893  1.4825
 8922SOL     OW38224   2.506   2.679   8.573 -0.6386 -0.6335  0.1571
 8922SOL    HW138225   2.530   2.768   8.548  1.6043 -1.2750  0.0333
 8922SOL    HW238226   2.415   2.675   8.543  0.2959  1.3235 -2.8714
 8923SOL     OW38227   3.046   3.392   4.112 -0.1711  0.5682  0.0984
 8923SOL    HW138228   3.115   3.451   4.082  0.0446 -0.8143 -2.1022
 8923SOL    HW238229   2.966   3.397   4.060 -0.4738 -1.3920  0.3778
 8924SOL     OW38230   1.060   0.339  13.930 -0.3189 -0.4067  0.2721
 8924SOL    HW138231   1.041   0.381  13.846  0.5468  1.0745  0.8084
 8924SOL    HW238232   0.969   0.343  13.962  0.1947  0.5484  1.6368
 8925SOL     OW38233   2.100   1.093   1.551 -0.2164 -0.2648 -0.3831
 8925SOL    HW138234   2.054   1.175   1.533  2.3685  0.9772 -1.2070
 8925SOL    HW238235   2.073   1.060   1.465  1.0691 -3.3261  0.3783
 8926SOL     OW38236   4.316   1.925  12.962  0.4024  0.2244 -0.3215
 8926SOL    HW138237   4.340   1.887  13.047 -2.7613 -1.6653 -0.2649
 8926SOL    HW238238   4.250   1.859  12.942  0.6250  0.1613 -0.8645
 8927SOL     OW38239   4.449   0.901   2.604  0.1006 -0.6237 -0.3973
 8927SOL    HW138240   4.480   0.966   2.668  0.8560 -0.4979 -0.8918
 8927SOL    HW238241   4.466   0.951   2.524 -0.1164  0.1650  0.0453
 8928SOL     OW38242   3.193   4.100  11.011  0.6432  0.1930  0.2539
 8928SOL    HW138243   3.256   4.159  11.052  0.7105  0.7853 -0.6878
 8928SOL    HW238244   3.113   4.153  11.014 -0.5035 -1.4460 -1.7670
 8929SOL     OW38245   0.306   4.437  14.629  0.7480 -0.3574 -0.6811
 8929SOL    HW138246   0.269   4.452  14.542  0.1469  0.6463 -0.2443
 8929SOL    HW238247   0.260   4.353  14.635 -0.7127  0.5702  0.8144
 8930SOL     OW38248   1.903   1.774   3.226  0.2246 -0.1265 -0.0581
 8930SOL    HW138249   1.909   1.808   3.137 -0.3925 -3.5232 -1.4309
 8930SOL    HW238250   1.899   1.858   3.271  1.6141 -0.0948  0.0069
 8931SOL     OW38251   0.939   4.188   1.595  0.6449 -0.3826 -0.6001
 8931SOL    HW138252   0.994   4.193   1.517  0.8000  2.1457 -0.3391
 8931SOL    HW238253   0.989   4.254   1.644 -2.3965  1.7508 -0.4118
 8932SOL     OW38254   2.350   3.967   3.989  0.2006 -0.4741  0.4265
 8932SOL    HW138255   2.329   4.042   3.933 -0.0012 -1.1414 -0.3861
 8932SOL    HW238256   2.410   3.999   4.056 -0.5209  0.2803  0.7203
 8933SOL     OW38257   2.079   1.805  13.017 -0.1537  0.4910 -0.4680
 8933SOL    HW138258   2.140   1.870  13.052 -1.2167 -0.5469  3.3199
 8933SOL    HW238259   2.074   1.853  12.935  1.1347 -0.8736 -1.3420
 8934SOL     OW38260   0.383   1.305   4.650  0.1667  0.6981  0.3035
 8934SOL    HW138261   0.465   1.258   4.636 -0.0570  0.5445 -0.5436
 8934SOL    HW238262   0.320   1.232   4.654  1.3947 -0.2885  1.6893
 8935SOL     OW38263   2.474   1.412   1.790 -0.0135 -0.2408  0.0314
 8935SOL    HW138264   2.459   1.502   1.761  2.1667  0.4295  0.9552
 8935SOL    HW238265   2.427   1.370   1.719  1.7947  1.1968 -2.0018
 8936SOL     OW38266   0.303   0.288   7.207  0.3149 -0.2536  0.2247
 8936SOL    HW138267   0.244   0.238   7.151 -0.5976  0.6259  0.3972
 8936SOL    HW238268   0.241   0.340   7.258 -1.5340  0.4138 -2.6721
 8937SOL     OW38269   2.419   0.374   9.976  0.9264 -0.4088  0.3581
 8937SOL    HW138270   2.408   0.282  10.000 -3.0905 -0.2695 -1.0319
 8937SOL    HW238271   2.383   0.417  10.054 -0.2157 -0.9832  0.1428
 8938SOL     OW38272   3.179   0.694   6.209 -0.6374  0.3441 -0.5940
 8938SOL    HW138273   3.239   0.705   6.283 -2.2278 -0.7086  0.8511
 8938SOL    HW238274   3.230   0.733   6.138 -1.4634 -0.0130 -1.3787
 8939SOL     OW38275   0.045   2.937   4.470 -0.4372 -0.0209 -0.5161
 8939SOL    HW138276   0.026   2.848   4.498 -2.9546  0.8067  0.4248
 8939SOL    HW238277   4.709   2.985   4.526  2.1904  0.7540  1.6976
 8940SOL     OW38278   1.427   3.609   8.902 -0.2776  0.1213  0.1665
 8940SOL    HW138279   1.514   3.647   8.918 -0.5201  1.1689 -0.9722
 8940SOL    HW238280   1.397   3.567   8.982 -0.7066 -1.9075 -1.0599
 8941SOL     OW38281   3.847   0.102   7.869  0.1235 -0.2995 -0.2655
 8941SOL    HW138282   3.757   0.106   7.836 -0.0849  0.0299  0.3397
 8941SOL    HW238283   3.865   0.195   7.877  0.5450 -0.3049 -1.2235
 8942SOL     OW38284   1.336   1.702  12.295  0.0893 -0.0959  0.2422
 8942SOL    HW138285   1.374   1.672  12.378 -2.6044  1.5469  2.0701
 8942SOL    HW238286   1.419   1.701  12.247  0.0918  1.1106  0.2316
 8943SOL     OW38287   2.876   2.774   3.508  0.3162  0.6640  0.4266
 8943SOL    HW138288   2.819   2.736   3.575 -0.7572 -1.3086 -1.5811
 8943SOL    HW238289   2.940   2.705   3.492 -1.5174 -0.8141 -0.6399
 8944SOL     OW38290   4.301   4.488   0.968  0.3084  0.7560  0.6378
 8944SOL    HW138291   4.359   4.458   1.038  1.1419 -0.4173 -0.5688
 8944SOL    HW238292   4.314   4.422   0.900 -1.5137  0.6882  0.3462
 8945SOL     OW38293   0.023   3.895   8.009 -0.3039 -0.4799  0.0912
 8945SOL    HW138294   0.045   3.849   8.090 -2.2287  1.7575  1.8681
 8945SOL    HW238295   4.712   3.974   8.049 -0.9594 -0.5206 -0.4241
 8946SOL     OW38296   4.168   0.220  10.537  0.4207  0.0768  0.0411
 8946SOL    HW138297   4.247   0.197  10.586  1.9408 -1.1266 -3.0033
 8946SOL    HW238298   4.202   0.289  10.479 -0.6151  0.6124  0.0601
 8947SOL     OW38299   1.805   3.184   6.993  0.2893  0.7884  0.8466
 8947SOL    HW138300   1.779   3.254   7.052  2.6837  0.8426  1.8639
 8947SOL    HW238301   1.746   3.121   7.033  1.3429 -1.2564 -0.7835
 8948SOL     OW38302   1.704   0.604   4.877  1.1385  0.0999 -0.8899
 8948SOL    HW138303   1.686   0.693   4.906  0.0414 -0.7428  0.9650
 8948SOL    HW238304   1.623   0.558   4.900  1.0141  1.2106  0.8661
 8949SOL     OW38305   3.125   3.297   5.464  0.3218  0.1281  0.5893
 8949SOL    HW138306   3.153   3.225   5.520  0.3682 -0.7097 -0.5027
 8949SOL    HW238307   3.172   3.282   5.382  0.2804 -1.4635  0.8558
 8950SOL     OW38308   1.558   3.772   1.258  0.8013  0.2699  0.0133
 8950SOL    HW138309   1.497   3.845   1.250 -0.6461 -1.0224 -0.7237
 8950SOL    HW238310   1.605   3.773   1.174  0.8296  1.0162  0.0320
 8951SOL     OW38311   2.430   2.655   8.035 -0.1895 -0.5853  0.0646
 8951SOL    HW138312   2.388   2.738   8.058  1.9479 -0.1004  2.1850
 8951SOL    HW238313   2.487   2.643   8.110  1.0059  0.4470 -0.6930
 8952SOL     OW38314   2.048   4.592   8.422  0.0618 -0.2754  0.3567
 8952SOL    HW138315   2.033   4.687   8.419 -0.9847 -0.4911 -1.3248
 8952SOL    HW238316   2.004   4.566   8.503 -1.0267 -0.2348 -0.2299
 8953SOL     OW38317   1.628   1.931   1.659 -0.2672  0.1270 -0.1701
 8953SOL    HW138318   1.654   1.920   1.568  3.1174  1.0748  0.7089
 8953SOL    HW238319   1.557   1.995   1.661 -1.1911 -0.7713 -3.4590
 8954SOL     OW38320   1.532   1.089   4.954 -0.2407  0.0171 -0.5764
 8954SOL    HW138321   1.463   1.115   4.893 -0.3992  0.4845 -0.1984
 8954SOL    HW238322   1.582   1.022   4.908  1.0007 -0.0882  0.9330
 8955SOL     OW38323   1.652   3.957   5.076 -0.0318  0.9715  0.3104
 8955SOL    HW138324   1.716   3.976   5.145  1.9048  1.1651 -1.5543
 8955SOL    HW238325   1.662   3.865   5.055  0.0866  0.7519  1.3087
 8956SOL     OW38326   0.309   2.626  16.338  0.1096  0.0458 -0.5608
 8956SOL    HW138327   0.364   2.636  16.260  0.9487  0.5777  0.0971
 8956SOL    HW238328   0.235   2.576  16.304 -0.7137  0.1233  1.1335
 8957SOL     OW38329   4.180   1.529   4.909  0.0823 -0.0712 -0.2408
 8957SOL    HW138330   4.242   1.562   4.844  0.8893  0.6860  0.9164
 8957SOL    HW238331   4.200   1.436   4.899 -0.7092 -0.2282 -0.3518
 8958SOL     OW38332   2.026   1.386   4.766  0.2499  0.8043  0.4244
 8958SOL    HW138333   2.031   1.327   4.842 -0.7453 -0.4699 -0.5032
 8958SOL    HW238334   2.119   1.399   4.752 -0.1079  0.8239 -1.8713
 8959SOL     OW38335   0.378   2.352   3.858  0.1521  0.0371 -0.2544
 8959SOL    HW138336   0.426   2.411   3.917 -1.8549  1.3832  0.0344
 8959SOL    HW238337   0.299   2.345   3.911 -0.6968 -0.7229 -1.6457
 8960SOL     OW38338   4.125   3.162   3.408  0.7763 -0.2610 -0.2459
 8960SOL    HW138339   4.218   3.143   3.425  0.7057 -0.6555 -0.2983
 8960SOL    HW238340   4.117   3.147   3.314  2.1918 -1.4677 -0.1669
 8961SOL     OW38341   3.254   1.878  15.293 -0.4936 -0.2699  0.3732
 8961SOL    HW138342   3.298   1.944  15.239 -1.8337  2.0103  2.0835
 8961SOL    HW238343   3.290   1.798  15.253  0.3269 -0.2966  1.1645
 8962SOL     OW38344   0.624   3.490  10.286  0.2029 -0.1298  0.4676
 8962SOL    HW138345   0.635   3.555  10.217 -0.7183  0.0347  0.4741
 8962SOL    HW238346   0.569   3.429  10.237  1.0252  0.2021 -0.8560
 8963SOL     OW38347   0.255   3.916   7.553 -0.2445  0.1434 -0.3263
 8963SOL    HW138348   0.333   3.962   7.522 -0.6961  0.8147 -0.4630
 8963SOL    HW238349   0.263   3.882   7.642  2.9952  2.1193  0.1183
 8964SOL     OW38350   2.666   2.991   9.633 -0.0459 -0.2229  0.9197
 8964SOL    HW138351   2.694   3.063   9.691  0.8703 -0.5074  0.8403
 8964SOL    HW238352   2.697   3.031   9.552 -1.5451  3.1213  1.9653
 8965SOL     OW38353   4.586   1.974   2.943  0.0746  0.0144 -0.4740
 8965SOL    HW138354   4.653   2.042   2.943  0.6015 -0.4952  1.2720
 8965SOL    HW238355   4.516   2.024   2.900 -1.9030 -1.3868  1.1223
 8966SOL     OW38356   2.582   3.078  16.264  0.6331  0.1369 -0.0565
 8966SOL    HW138357   2.505   3.025  16.284  0.2598  0.7462  0.1090
 8966SOL    HW238358   2.653   3.022  16.297  0.2543 -0.2696  0.0661
 8967SOL     OW38359   3.023   2.265   1.365  0.3705 -0.0638 -0.7166
 8967SOL    HW138360   3.114   2.239   1.381  0.5778 -0.1286 -1.9601
 8967SOL    HW238361   3.016   2.252   1.270 -2.3279 -0.3766 -0.4795
 8968SOL     OW38362   3.787   0.170   3.315  0.1770 -0.6204 -0.0024
 8968SOL    HW138363   3.718   0.211   3.265  0.3582  1.0578  1.1168
 8968SOL    HW238364   3.848   0.153   3.244 -0.6564 -2.0103 -0.3911
 8969SOL     OW38365   2.124   0.961  12.233  0.2999 -0.0904 -0.8350
 8969SOL    HW138366   2.189   0.984  12.300  0.0082  1.4283 -1.0761
 8969SOL    HW238367   2.185   0.915  12.174  1.4849  0.1605  0.1798
 8970SOL     OW38368   2.679   1.658   3.236  0.1983 -0.0344  0.5609
 8970SOL    HW138369   2.650   1.574   3.200  0.4413  0.2257 -0.2256
 8970SOL    HW238370   2.651   1.653   3.328 -1.5391  0.7337  0.0693
 8971SOL     OW38371   0.669   1.764   2.257  0.7126  0.3466 -0.0655
 8971SOL    HW138372   0.590   1.804   2.293  0.8024 -1.1331  1.7568
 8971SOL    HW238373   0.654   1.793   2.168 -0.2703 -1.1222 -0.3680
 8972SOL     OW38374   1.515   3.576  17.535 -0.0156 -0.2631 -0.4184
 8972SOL    HW138375   1.478   3.565  17.447  0.3298  0.8999 -0.7107
 8972SOL    HW238376   1.603   3.540  17.523 -0.1666 -1.4374  2.1508
 8973SOL     OW38377   2.377   3.256   8.769 -0.1307 -0.5238 -0.0959
 8973SOL    HW138378   2.430   3.186   8.731 -0.4874 -1.2723  0.7654
 8973SOL    HW238379   2.287   3.229   8.751  0.0345 -1.5668  0.5995
 8974SOL     OW38380   2.533   3.291   9.548  0.3907  0.6311  0.5730
 8974SOL    HW138381   2.556   3.380   9.522 -0.2225  0.5602 -0.2319
 8974SOL    HW238382   2.487   3.292   9.632  1.3310 -2.4795  1.1275
 8975SOL     OW38383   3.437   4.589  17.503 -0.3526  0.1463  0.0810
 8975SOL    HW138384   3.462   4.560  17.590 -0.8244  1.4661  0.6582
 8975SOL    HW238385   3.468   4.678  17.485  0.8175 -0.2482  0.1227
 8976SOL     OW38386   2.992   2.323  13.996 -0.0601 -0.0345 -0.1184
 8976SOL    HW138387   2.952   2.238  14.015  1.4256 -0.8544 -0.6515
 8976SOL    HW238388   3.017   2.331  13.904  1.0679 -2.4243 -0.0274
 8977SOL     OW38389   3.997   0.701  15.705 -0.3077 -0.2965 -0.2450
 8977SOL    HW138390   4.044   0.622  15.731 -0.1197 -0.2291 -0.3796
 8977SOL    HW238391   4.060   0.746  15.649  0.4766 -0.1121  0.7871
 8978SOL     OW38392   3.666   4.401   8.116 -0.5275  0.0464  0.1424
 8978SOL    HW138393   3.685   4.430   8.205 -0.3765 -0.8499  0.3929
 8978SOL    HW238394   3.663   4.307   8.130 -3.4496  0.3615  1.5267
 8979SOL     OW38395   4.552   4.352   7.022 -0.6973 -0.0614 -0.5107
 8979SOL    HW138396   4.557   4.329   7.115 -1.9856  1.3400 -0.0806
 8979SOL    HW238397   4.494   4.428   7.022 -0.2123  0.3109 -0.2189
 8980SOL     OW38398   4.101   0.648   6.925  0.1050 -0.4930 -0.0572
 8980SOL    HW138399   4.196   0.657   6.920  0.1648 -1.5510 -0.9361
 8980SOL    HW238400   4.074   0.738   6.943  1.5985 -0.1119  0.2322
 8981SOL     OW38401   4.522   0.400   1.904  0.4048 -0.1230  0.4874
 8981SOL    HW138402   4.518   0.481   1.853  1.1097 -0.6099 -0.3439
 8981SOL    HW238403   4.431   0.400   1.931  0.2580 -0.5630 -0.0078
 8982SOL     OW38404   3.615   2.798   2.924 -0.6097  0.0304 -0.8075
 8982SOL    HW138405   3.602   2.878   2.976 -0.8264 -0.8455  0.4874
 8982SOL    HW238406   3.570   2.727   2.970 -1.1385  1.7302  1.3273
 8983SOL     OW38407   1.437   4.480   8.029  0.0093 -0.1360 -0.3122
 8983SOL    HW138408   1.444   4.438   7.943 -1.5846 -0.8721 -0.0840
 8983SOL    HW238409   1.498   4.553   8.032 -0.1872 -0.0756  2.3389
 8984SOL     OW38410   0.670   3.565   6.407 -0.1586 -0.4492  0.1186
 8984SOL    HW138411   0.706   3.593   6.491  0.5144  1.2830 -0.7505
 8984SOL    HW238412   0.722   3.624   6.353 -2.1825  0.0429 -1.3059
 8985SOL     OW38413   1.804   2.884  16.105 -0.4513  0.3244 -0.0340
 8985SOL    HW138414   1.849   2.881  16.190  2.4741 -3.0143 -1.7233
 8985SOL    HW238415   1.872   2.881  16.038 -0.7305  1.8495 -0.3944
 8986SOL     OW38416   3.308   2.123   5.572 -0.2162  0.1547 -0.3648
 8986SOL    HW138417   3.240   2.134   5.505  0.0751 -1.5165 -0.9344
 8986SOL    HW238418   3.318   2.216   5.594  0.8079 -0.0784  0.1470
 8987SOL     OW38419   2.875   3.139  17.455 -0.1960  0.1014 -0.3415
 8987SOL    HW138420   2.941   3.183  17.508  0.2207 -0.2342 -0.5900
 8987SOL    HW238421   2.905   3.158  17.367  2.0462  0.3691  0.4953
 8988SOL     OW38422   1.057   4.364   4.766 -0.0379  0.0261 -0.0187
 8988SOL    HW138423   1.114   4.440   4.769  1.5902 -1.1238 -1.4343
 8988SOL    HW238424   1.119   4.295   4.789  0.2455 -0.4743 -2.3012
 8989SOL     OW38425   2.357   3.301   7.759 -0.1615 -0.3520  0.1613
 8989SOL    HW138426   2.398   3.215   7.768 -1.0641 -0.8661 -0.7180
 8989SOL    HW238427   2.369   3.345   7.844  0.9539  0.6379 -0.5096
 8990SOL     OW38428   2.851   2.103  14.026 -1.2091 -0.1807  0.7273
 8990SOL    HW138429   2.757   2.087  14.022 -1.3772  1.2331 -1.3895
 8990SOL    HW238430   2.893   2.053  13.956  0.3199  2.1728 -0.0444
 8991SOL     OW38431   3.604   4.162   8.207 -0.1674  0.4968  0.7347
 8991SOL    HW138432   3.513   4.134   8.209 -0.5379  1.6284  0.1581
 8991SOL    HW238433   3.653   4.080   8.213 -2.4991 -0.9531 -0.3502
 8992SOL     OW38434   1.680   4.454  15.672  0.0392  0.2102 -0.5941
 8992SOL    HW138435   1.758   4.423  15.626  0.2805 -1.2859  0.8550
 8992SOL    HW238436   1.647   4.375  15.714  0.1772  1.3557  1.6796
 8993SOL     OW38437   1.685   2.274   3.740 -0.0568  0.0543 -0.5774
 8993SOL    HW138438   1.689   2.245   3.831 -1.9389  0.5359 -0.3432
 8993SOL    HW238439   1.662   2.191   3.700  0.9130 -1.3830  1.8579
 8994SOL     OW38440   0.966   0.487   2.049 -0.4367  0.2026 -0.5316
 8994SOL    HW138441   0.912   0.463   1.973  1.0677 -0.1007 -1.5011
 8994SOL    HW238442   1.016   0.551   1.998 -1.0709  0.8704 -0.3261
 8995SOL     OW38443   4.304   0.993   5.504  0.5531  0.3227  0.1587
 8995SOL    HW138444   4.247   0.952   5.439  2.2622 -0.9579 -0.5323
 8995SOL    HW238445   4.224   1.034   5.538  0.6449 -1.0723  2.0761
 8996SOL     OW38446   1.078   3.977   1.428  0.2828 -0.4940  0.5378
 8996SOL    HW138447   1.074   3.882   1.415  1.9912 -0.3724 -0.8654
 8996SOL    HW238448   1.164   3.994   1.467  1.8698  0.0691 -3.1710
 8997SOL     OW38449   1.223   4.054   4.791 -0.6865  0.1525  0.8523
 8997SOL    HW138450   1.268   3.975   4.761  0.4344  1.0324  0.2137
 8997SOL    HW238451   1.162   4.017   4.855 -0.6096 -0.8163  0.3754
 8998SOL     OW38452   2.674   2.725   0.789 -0.2162 -0.0296  0.1470
 8998SOL    HW138453   2.648   2.816   0.774  0.6185 -0.0447 -1.3994
 8998SOL    HW238454   2.603   2.682   0.741 -0.6942 -1.2285  1.9635
 8999SOL     OW38455   0.174   1.743   5.140  0.4769 -0.5348  0.2852
 8999SOL    HW138456   0.112   1.734   5.067 -0.2768 -1.1381  1.0108
 8999SOL    HW238457   0.164   1.836   5.163 -0.3804 -0.3604 -0.7818
 9000SOL     OW38458   1.174   2.474   4.290  0.2967  0.0444 -0.3918
 9000SOL    HW138459   1.261   2.466   4.330  0.5389 -1.3788 -1.2132
 9000SOL    HW238460   1.194   2.437   4.204  1.4757 -1.3134  0.4658
 9001SOL     OW38461   2.402   0.830  16.982  0.6410  1.0035  0.3683
 9001SOL    HW138462   2.349   0.899  16.943 -0.7755 -0.1457  0.2712
 9001SOL    HW238463   2.393   0.841  17.077 -1.5004 -1.9592  0.5015
 9002SOL     OW38464   1.745   0.868   0.436 -0.6533 -0.0983  0.1217
 9002SOL    HW138465   1.669   0.885   0.381  1.1412 -0.1893 -2.3468
 9002SOL    HW238466   1.718   0.924   0.509 -0.0007  0.4743 -0.0781
 9003SOL     OW38467   2.069   2.698  10.014  0.4229 -0.6398 -0.1769
 9003SOL    HW138468   2.124   2.714  10.091  0.7419  1.4757 -0.8408
 9003SOL    HW238469   2.116   2.622   9.978  1.1780 -0.1119 -0.3139
 9004SOL     OW38470   1.439   2.187   2.703  0.1651 -0.0521 -0.3682
 9004SOL    HW138471   1.360   2.170   2.652  0.6940  0.5829 -1.4153
 9004SOL    HW238472   1.454   2.280   2.682 -3.0247  0.5760  0.1618
 9005SOL     OW38473   0.441   3.725   6.131 -0.5665 -0.7637 -0.0370
 9005SOL    HW138474   0.509   3.658   6.121 -0.0844 -0.3410  0.4189
 9005SOL    HW238475   0.364   3.678   6.098 -0.4061 -1.4554  0.5608
 9006SOL     OW38476   0.191   1.520   1.718  0.2959  0.4744  0.3901
 9006SOL    HW138477   0.132   1.476   1.657 -0.0217 -1.3618  2.0347
 9006SOL    HW238478   0.205   1.438   1.765 -1.0249 -0.8453 -1.5533
 9007SOL     OW38479   2.682   1.938   6.766 -0.1857 -0.5729  0.6602
 9007SOL    HW138480   2.648   1.949   6.855  0.0008 -1.0728  0.7934
 9007SOL    HW238481   2.649   2.021   6.732 -1.7637 -0.9392  1.2955
 9008SOL     OW38482   0.762   3.040   3.850  0.2088  0.1890 -0.5814
 9008SOL    HW138483   0.680   3.004   3.816  0.0954 -1.1840  1.1140
 9008SOL    HW238484   0.817   3.041   3.772 -0.6265  1.9685 -1.1391
 9009SOL     OW38485   3.341   1.423   4.819 -0.7371  0.1018 -0.2701
 9009SOL    HW138486   3.432   1.437   4.794  0.2618 -0.9182  2.7689
 9009SOL    HW238487   3.318   1.503   4.868 -0.1129  0.4539 -0.5479
 9010SOL     OW38488   3.376   2.270  16.390 -0.2036 -0.0361  0.9311
 9010SOL    HW138489   3.412   2.328  16.323 -1.1804  0.8895  1.2067
 9010SOL    HW238490   3.416   2.306  16.469 -0.7952  0.3812  1.0432
 9011SOL     OW38491   4.238   1.607  11.767  0.7002  0.3246  0.3004
 9011SOL    HW138492   4.314   1.645  11.811  0.2668  2.7261 -0.9930
 9011SOL    HW238493   4.282   1.559  11.697 -2.0123 -0.8627 -0.5957
 9012SOL     OW38494   2.443   2.998   9.828 -0.0910 -0.1611 -0.1745
 9012SOL    HW138495   2.471   2.963   9.743 -0.3579  2.2007 -1.2399
 9012SOL    HW238496   2.523   3.023   9.875 -0.3016 -0.7880  0.4973
 9013SOL     OW38497   3.090   1.662   1.522  0.2141  0.0475 -0.2364
 9013SOL    HW138498   3.139   1.594   1.567  1.0724 -0.2971 -1.6727
 9013SOL    HW238499   3.155   1.732   1.513  0.2003 -0.0145 -0.8735
 9014SOL     OW38500   4.440   1.850  15.266 -0.3795 -0.0348  0.4718
 9014SOL    HW138501   4.518   1.887  15.224 -0.4072 -1.6003 -0.9468
 9014SOL    HW238502   4.384   1.829  15.191  0.8461 -0.9833 -0.1733
 9015SOL     OW38503   2.087   0.026   2.723 -0.0284  0.0653 -0.7679
 9015SOL    HW138504   2.151   4.713   2.783 -3.2156  0.8585  3.1191
 9015SOL    HW238505   2.013   4.724   2.777  1.4104 -1.8890  0.2276
 9016SOL     OW38506   3.370   2.276   4.592  0.7014  0.2045 -0.5984
 9016SOL    HW138507   3.288   2.231   4.614  0.4632  1.2367  0.6768
 9016SOL    HW238508   3.349   2.369   4.600  0.5783  0.2672 -1.7017
 9017SOL     OW38509   0.535   3.114  16.058 -0.1414  0.0413 -0.4378
 9017SOL    HW138510   0.541   3.112  15.962 -0.3662  0.2069 -0.4568
 9017SOL    HW238511   0.607   3.065  16.096  0.1693  1.7357  1.1876
 9018SOL     OW38512   0.266   2.543   3.271  0.6081 -0.0644 -0.6918
 9018SOL    HW138513   0.208   2.576   3.339  1.6731  0.9681 -0.2938
 9018SOL    HW238514   0.344   2.532   3.325  0.4753  2.3601 -0.0245
 9019SOL     OW38515   4.683   4.716   2.071 -0.2774  0.2641 -0.7682
 9019SOL    HW138516   4.688   4.719   2.166 -0.0135 -0.0785 -0.7686
 9019SOL    HW238517   4.702   0.083   2.055 -0.6749  0.7720  1.8304
 9020SOL     OW38518   0.903   0.391   7.758 -0.3801  0.1997 -0.2183
 9020SOL    HW138519   0.967   0.428   7.698  0.2068 -0.5420 -0.0410
 9020SOL    HW238520   0.957   0.338   7.817 -2.5278 -2.0543 -0.2388
 9021SOL     OW38521   1.263   2.554   4.783  0.1470 -0.3505  0.6553
 9021SOL    HW138522   1.256   2.597   4.868 -0.4437  0.1327  0.3608
 9021SOL    HW238523   1.235   2.471   4.823 -1.8922 -0.3085 -0.7091
 9022SOL     OW38524   1.419   0.540   9.888 -0.3072  0.2091 -0.1896
 9022SOL    HW138525   1.419   0.595   9.810 -0.9044 -1.1047 -1.1163
 9022SOL    HW238526   1.428   0.457   9.842  1.1739 -0.1256  0.6981
 9023SOL     OW38527   4.358   3.060   4.554 -0.0025  0.1722  0.9994
 9023SOL    HW138528   4.418   3.104   4.495  1.3086 -1.4350  1.1392
 9023SOL    HW238529   4.299   3.017   4.492 -0.3722  0.6875  0.9936
 9024SOL     OW38530   4.005   1.480   2.889 -0.4228  0.0545 -0.1181
 9024SOL    HW138531   3.968   1.393   2.907  2.8301 -1.8067 -2.4088
 9024SOL    HW238532   4.083   1.470   2.835  1.1781  0.5139  2.1057
 9025SOL     OW38533   4.091   2.925   1.576 -0.3161  0.0437  0.1235
 9025SOL    HW138534   4.119   2.888   1.493 -0.9859  1.9599 -0.9484
 9025SOL    HW238535   4.002   2.937   1.543 -0.3026  1.1504  0.4652
 9026SOL     OW38536   3.182   0.283   0.816  0.5985  0.1056 -0.0991
 9026SOL    HW138537   3.208   0.375   0.808 -1.1677  0.7529  1.9383
 9026SOL    HW238538   3.096   0.291   0.775  0.4699  0.3965  0.2401
 9027SOL     OW38539   0.606   1.867   8.223  0.4089  0.2384 -0.5015
 9027SOL    HW138540   0.640   1.907   8.303 -1.0283  0.4574  0.0173
 9027SOL    HW238541   0.683   1.824   8.188 -0.8737 -1.3111 -1.4177
 9028SOL     OW38542   3.432   2.647  11.116  0.0985 -0.2547 -0.0222
 9028SOL    HW138543   3.509   2.599  11.146  0.1872  0.1380  0.3877
 9028SOL    HW238544   3.465   2.699  11.043 -0.2183  0.3239  0.2485
 9029SOL     OW38545   0.691   4.310  10.235  0.1832 -0.4531 -0.1819
 9029SOL    HW138546   0.721   4.227  10.198 -0.6207  0.3452 -2.6416
 9029SOL    HW238547   0.663   4.370  10.166  1.6842 -1.6241 -1.8180
 9030SOL     OW38548   3.011   4.028   8.494 -0.2700 -0.0119  0.4248
 9030SOL    HW138549   2.957   4.006   8.418 -1.3265 -1.0194  1.4610
 9030SOL    HW238550   2.978   3.971   8.564 -0.2688  0.4201  0.7791
 9031SOL     OW38551   4.613   0.601  12.544  0.1345 -0.3888  0.0900
 9031SOL    HW138552   4.695   0.600  12.593 -0.9677 -0.5349  1.9372
 9031SOL    HW238553   4.648   0.601  12.454  0.1417  1.2075  0.1065
 9032SOL     OW38554   1.280   3.142  15.772  0.0538 -0.2353  0.3245
 9032SOL    HW138555   1.245   3.219  15.727  0.8925  0.0037  0.0780
 9032SOL    HW238556   1.229   3.067  15.742  0.0477  0.5629 -1.6764
 9033SOL     OW38557   3.602   2.531   3.163  0.1857  0.1983  0.2400
 9033SOL    HW138558   3.635   2.610   3.207 -2.2486  1.3691 -0.0562
 9033SOL    HW238559   3.527   2.509   3.218 -0.4721  0.5266 -0.5299
 9034SOL     OW38560   4.262   2.971  17.578  0.4740  0.6865  0.3719
 9034SOL    HW138561   4.221   2.912  17.515  0.2048  0.7051  0.5294
 9034SOL    HW238562   4.190   3.034  17.572 -1.1009 -1.0034  1.4016
 9035SOL     OW38563   4.505   0.524   2.986 -0.1950 -0.0055 -0.8994
 9035SOL    HW138564   4.441   0.476   2.933  0.1736 -0.3818 -1.0057
 9035SOL    HW238565   4.534   0.593   2.927 -0.3067  0.0491 -0.8898
 9036SOL     OW38566   0.345   2.925   9.550 -0.6638  0.3069 -0.1518
 9036SOL    HW138567   0.374   2.848   9.600  0.6581  1.2884  0.5970
 9036SOL    HW238568   0.428   2.939   9.506 -0.4366  0.4330  0.3105
 9037SOL     OW38569   1.830   2.300   9.710  0.1253 -0.1219 -0.4869
 9037SOL    HW138570   1.850   2.387   9.745 -0.2586 -0.6980  1.1512
 9037SOL    HW238571   1.915   2.256   9.710  0.1952 -0.0050  1.4696
 9038SOL     OW38572   1.862   0.856   7.875  0.3674 -0.3290 -0.2122
 9038SOL    HW138573   1.808   0.868   7.796 -1.2404  1.7985  1.2103
 9038SOL    HW238574   1.933   0.912   7.845  0.2312 -0.1612 -0.2173
 9039SOL     OW38575   3.883   2.153  10.786  0.4054 -0.4604 -0.3303
 9039SOL    HW138576   3.835   2.072  10.800 -2.4867  1.5009  1.1770
 9039SOL    HW238577   3.903   2.150  10.692  2.0932 -0.8726  0.0431
 9040SOL     OW38578   4.382   0.958   4.177 -0.3206  0.2619  0.0979
 9040SOL    HW138579   4.400   0.871   4.141 -1.9324 -0.5283  1.1855
 9040SOL    HW238580   4.440   0.948   4.252 -0.5666 -0.0266  0.2480
 9041SOL     OW38581   0.127   4.085   6.905  0.4099 -0.5090  0.1736
 9041SOL    HW138582   0.136   4.180   6.917  2.2336 -0.5656 -0.7357
 9041SOL    HW238583   0.214   4.055   6.933 -0.1184 -2.3648 -0.2237
 9042SOL     OW38584   4.069   3.865   4.476  0.1827  0.4538 -0.2219
 9042SOL    HW138585   4.122   3.866   4.396  1.3921 -0.7220  0.5730
 9042SOL    HW238586   4.035   3.776   4.479 -0.6433  0.8544  2.3923
 9043SOL     OW38587   3.896   3.329   2.470  0.3875  0.8336  0.1976
 9043SOL    HW138588   3.971   3.347   2.414  0.4879  0.6718  0.2801
 9043SOL    HW238589   3.883   3.410   2.519 -0.1006  0.5119  0.5915
 9044SOL     OW38590   0.886   3.455  16.364 -0.3205  0.2391 -0.3467
 9044SOL    HW138591   0.862   3.488  16.450 -0.2339 -0.7687  0.0622
 9044SOL    HW238592   0.813   3.397  16.342 -0.5929  0.0920  0.9353
 9045SOL     OW38593   4.564   4.162   3.468  0.0471 -0.0241 -0.3764
 9045SOL    HW138594   4.489   4.123   3.514  0.0453  2.1714  1.4781
 9045SOL    HW238595   4.626   4.107   3.516  1.3448  1.6032 -0.1902
 9046SOL     OW38596   2.654   1.400   5.184  0.1248  0.5771 -0.3975
 9046SOL    HW138597   2.599   1.366   5.114  0.6727  1.0612 -1.0557
 9046SOL    HW238598   2.584   1.405   5.250 -1.7577  0.4974 -2.4175
 9047SOL     OW38599   2.360   3.995   5.960 -0.5127 -0.1224  0.3914
 9047SOL    HW138600   2.377   4.070   5.904  2.2425 -1.2574 -0.2772
 9047SOL    HW238601   2.316   3.937   5.899  0.4870 -0.8678  0.3841
 9048SOL     OW38602   1.652   0.590   0.174  0.1362  0.3828 -0.4028
 9048SOL    HW138603   1.608   0.551   0.249 -2.4317 -0.8116 -2.5462
 9048SOL    HW238604   1.729   0.534   0.165  0.3046  0.3870  1.0534
 9049SOL     OW38605   4.091   0.467   3.299 -0.0414 -0.6643  0.4714
 9049SOL    HW138606   4.134   0.431   3.221  0.8123 -2.2948  1.7009
 9049SOL    HW238607   4.059   0.387   3.341  1.1931 -0.9632  0.8311
 9050SOL     OW38608   4.682   0.302   8.067  0.1773  0.4384  0.8699
 9050SOL    HW138609   4.607   0.338   8.114 -0.4250  1.4070 -0.8293
 9050SOL    HW238610   0.008   0.379   8.044  1.7302 -1.2231 -1.2379
 9051SOL     OW38611   4.705   2.901   2.715  0.5786 -0.0758 -0.1661
 9051SOL    HW138612   4.663   2.825   2.756 -0.6154  0.6178 -0.1096
 9051SOL    HW238613   0.051   2.863   2.665  0.6101  0.6019 -0.6344
 9052SOL     OW38614   1.905   2.589   7.536 -0.1830 -0.3395  0.1277
 9052SOL    HW138615   1.842   2.533   7.581  0.4696 -1.8322 -0.8324
 9052SOL    HW238616   1.969   2.602   7.606 -0.1662 -3.2550  0.6342
 9053SOL     OW38617   2.940   2.580   4.379  0.3060 -0.4722 -1.4358
 9053SOL    HW138618   3.033   2.600   4.373  0.3497 -0.3468 -0.2077
 9053SOL    HW238619   2.928   2.571   4.284 -2.5573  2.2573 -1.3472
 9054SOL     OW38620   1.630   4.122   8.897  0.3149 -0.3735 -0.2758
 9054SOL    HW138621   1.537   4.141   8.906  0.6080  1.7958 -2.0284
 9054SOL    HW238622   1.655   4.116   8.989 -0.2066 -0.4115 -0.1353
 9055SOL     OW38623   3.140   3.037   9.819 -0.9617 -0.1473 -0.1414
 9055SOL    HW138624   3.092   3.062   9.740  0.2841 -0.2972 -0.9654
 9055SOL    HW238625   3.224   3.009   9.781  0.0800  1.9408  0.6298
 9056SOL     OW38626   3.328   1.029  12.994 -0.0284 -0.3337 -0.6964
 9056SOL    HW138627   3.309   0.978  12.915 -2.8873 -0.3569  0.0112
 9056SOL    HW238628   3.382   0.965  13.042 -1.8477 -1.4607 -0.1330
 9057SOL     OW38629   3.414   3.145  16.349 -0.2253  0.0549  0.1970
 9057SOL    HW138630   3.331   3.099  16.337  0.5173 -1.5832  1.3624
 9057SOL    HW238631   3.414   3.126  16.443 -0.8574  0.0970  0.2092
 9058SOL     OW38632   2.387   3.974   7.099  0.2263  0.4927 -0.3083
 9058SOL    HW138633   2.376   4.068   7.084 -2.2572  0.4939  1.5664
 9058SOL    HW238634   2.356   3.977   7.189  0.2196  0.4772 -0.3100
 9059SOL     OW38635   1.362   0.135   5.518 -0.2597 -0.3591 -0.0895
 9059SOL    HW138636   1.446   0.168   5.547  0.0080 -0.2314 -1.0005
 9059SOL    HW238637   1.386   0.096   5.434 -0.6928 -1.6274  0.3699
 9060SOL     OW38638   1.097   3.141   2.023 -0.6401 -0.1790 -0.1476
 9060SOL    HW138639   1.134   3.053   2.020 -1.2906 -0.4130 -1.6556
 9060SOL    HW238640   1.067   3.156   1.933 -3.0704 -0.7427  0.5671
 9061SOL     OW38641   1.893   3.337  15.057 -0.0692 -0.3081 -0.2371
 9061SOL    HW138642   1.925   3.401  15.121  1.3844  0.0184 -1.2922
 9061SOL    HW238643   1.938   3.349  14.974  2.7694  0.1999  1.3759
 9062SOL     OW38644   3.930   0.009   3.754 -0.4175  0.1897 -0.3132
 9062SOL    HW138645   3.844   4.700   3.729 -0.2823 -0.0547 -0.4489
 9062SOL    HW238646   3.901   0.066   3.825  1.0712  0.5542 -0.0173
 9063SOL     OW38647   0.227   1.005   8.624  0.3279  0.3439 -0.1701
 9063SOL    HW138648   0.151   0.953   8.648 -0.2038  1.4071  0.4332
 9063SOL    HW238649   0.290   0.963   8.683  0.8134  1.2311 -0.0493
 9064SOL     OW38650   1.146   1.245   4.575  0.0092 -0.2626 -0.1176
 9064SOL    HW138651   1.219   1.292   4.535 -0.5487 -0.5035 -1.4443
 9064SOL    HW238652   1.114   1.202   4.495  1.4934  0.0445 -0.8800
 9065SOL     OW38653   4.007   4.250  10.674  0.1437 -0.1414  0.2424
 9065SOL    HW138654   4.014   4.222  10.766 -0.9147  0.2180  0.4337
 9065SOL    HW238655   3.950   4.183  10.635 -0.9163  1.0446 -0.2249
 9066SOL     OW38656   3.979   2.403   4.829 -0.0568  0.2201  0.4712
 9066SOL    HW138657   4.032   2.482   4.839  0.2459  0.1299 -0.4011
 9066SOL    HW238658   4.050   2.349   4.796  0.1908  0.9194 -0.1358
 9067SOL     OW38659   2.679   3.523  10.511  0.1591 -0.4772  0.2645
 9067SOL    HW138660   2.715   3.606  10.481 -0.9904 -0.8436 -2.2116
 9067SOL    HW238661   2.755   3.466  10.502  0.6222  0.0712  0.7708
 9068SOL     OW38662   0.008   1.269  12.784  0.4113  0.4123  0.2011
 9068SOL    HW138663   0.033   1.328  12.855  0.2675  2.3775 -1.3551
 9068SOL    HW238664   4.699   1.331  12.718  0.2518 -1.6503 -1.6415
 9069SOL     OW38665   0.707   2.483   4.767  0.4072  0.2302 -0.1148
 9069SOL    HW138666   0.659   2.402   4.782 -2.8309  2.0561 -0.5191
 9069SOL    HW238667   0.647   2.532   4.823 -1.1629 -0.8878 -0.8254
 9070SOL     OW38668   2.086   4.464   4.584  0.0236  0.4994  0.0961
 9070SOL    HW138669   2.023   4.398   4.555  0.3181  0.0661  0.4477
 9070SOL    HW238670   2.165   4.445   4.533 -0.2065  0.5895 -0.2927
 9071SOL     OW38671   3.696   3.580   9.400 -0.4615 -0.0979 -0.0766
 9071SOL    HW138672   3.764   3.523   9.435 -0.7117 -0.6620 -0.4907
 9071SOL    HW238673   3.745   3.638   9.342  0.5510 -0.9306 -0.0387
 9072SOL     OW38674   3.560   0.372   7.905 -0.1571  0.0554 -0.1363
 9072SOL    HW138675   3.491   0.349   7.843  0.0808  0.8622 -0.6982
 9072SOL    HW238676   3.518   0.438   7.960 -1.7194 -1.1922  0.1953
 9073SOL     OW38677   2.419   3.394   8.202 -0.0399 -0.0744  0.2168
 9073SOL    HW138678   2.349   3.392   8.267 -0.5188  0.9604 -0.2553
 9073SOL    HW238679   2.491   3.429   8.254  1.1006 -0.3080 -1.1876
 9074SOL     OW38680   3.883   2.744   1.201  0.2688  0.8508  0.2830
 9074SOL    HW138681   3.959   2.768   1.253  0.8785  1.9433 -1.1104
 9074SOL    HW238682   3.861   2.832   1.171  0.3787  0.3369 -1.3162
 9075SOL     OW38683   0.230   3.013   2.035 -0.0814 -0.2278  0.2235
 9075SOL    HW138684   0.188   2.929   2.054 -1.4321 -0.1444 -2.4172
 9075SOL    HW238685   0.159   3.076   2.026 -0.4674 -1.1968 -3.4137
 9076SOL     OW38686   2.981   3.741   3.278 -0.0397  0.0749 -0.0416
 9076SOL    HW138687   2.980   3.698   3.192  0.8427 -1.8108  0.8827
 9076SOL    HW238688   2.888   3.760   3.289 -0.3110 -0.0162 -2.0653
 9077SOL     OW38689   3.001   0.378   4.055 -0.1129 -0.4217 -0.8160
 9077SOL    HW138690   2.989   0.296   4.006  1.6878 -1.4867  0.4841
 9077SOL    HW238691   3.079   0.407   4.007  0.5425  0.9379  1.0583
 9078SOL     OW38692   1.603   1.200  16.433  0.2096  0.0155 -0.3908
 9078SOL    HW138693   1.565   1.219  16.519 -0.9483 -0.6743 -0.7587
 9078SOL    HW238694   1.551   1.122  16.411 -0.8756  1.0064 -1.3024
 9079SOL     OW38695   0.234   1.636   3.918 -0.5802 -0.8046  0.3619
 9079SOL    HW138696   0.313   1.650   3.972 -0.7194  0.2563  0.2909
 9079SOL    HW238697   0.250   1.553   3.872  1.4548  0.0548 -0.4917
 9080SOL     OW38698   3.582   0.283   3.193  0.3384  0.4039 -0.5089
 9080SOL    HW138699   3.531   0.272   3.113  0.3867 -0.3368 -0.4346
 9080SOL    HW238700   3.514   0.258   3.255  1.6855 -0.7626  0.5060
 9081SOL     OW38701   4.647   0.029   0.408  0.3772  0.4259  0.1125
 9081SOL    HW138702   4.680   4.665   0.396  1.4739  0.8244  0.1841
 9081SOL    HW238703   4.585   0.021   0.480 -0.4432 -0.4004 -0.6818
 9082SOL     OW38704   2.819   0.754   9.313 -0.0397 -0.3477 -0.5788
 9082SOL    HW138705   2.757   0.818   9.348  0.2747 -0.7870  0.7782
 9082SOL    HW238706   2.812   0.781   9.221  0.4977 -1.5129 -0.9558
 9083SOL     OW38707   0.079   2.944   4.848  0.6430 -0.1232 -0.4763
 9083SOL    HW138708   0.138   3.013   4.879  0.8884 -0.2406 -0.6830
 9083SOL    HW238709   0.018   2.991   4.792  0.0209 -0.7690 -0.3431
 9084SOL     OW38710   3.223   4.582   9.368  0.0514 -0.1020 -0.3524
 9084SOL    HW138711   3.240   4.492   9.395 -1.1315 -0.1713  0.1879
 9084SOL    HW238712   3.295   4.595   9.306  0.6326 -0.4890  0.2457
 9085SOL     OW38713   1.513   3.196   9.999  0.3558 -0.2603  0.1714
 9085SOL    HW138714   1.442   3.238  10.049  0.4557 -0.7835  0.7544
 9085SOL    HW238715   1.559   3.147  10.067  2.5998  1.9966  0.2661
 9086SOL     OW38716   2.459   4.171   3.012  0.1103  0.3060  0.0207
 9086SOL    HW138717   2.410   4.131   2.940  1.2433 -2.8530  0.9767
 9086SOL    HW238718   2.384   4.184   3.070 -1.8444 -2.1515 -1.9339
 9087SOL     OW38719   1.556   3.400   2.589  0.0257 -0.6749  0.5652
 9087SOL    HW138720   1.512   3.423   2.508 -0.2539  1.3107  1.2981
 9087SOL    HW238721   1.500   3.435   2.658  0.0743 -0.0508  0.2813
 9088SOL     OW38722   2.382   1.718   0.279 -0.0714 -0.2015 -0.8560
 9088SOL    HW138723   2.398   1.668   0.360  0.3058  1.3002 -0.0144
 9088SOL    HW238724   2.424   1.663   0.213  1.0564  0.3278 -0.5881
 9089SOL     OW38725   2.731   3.251   3.298 -0.0682  0.0613 -0.2990
 9089SOL    HW138726   2.687   3.250   3.213  2.5815  0.8486 -1.6792
 9089SOL    HW238727   2.681   3.191   3.353  0.1345 -1.1307 -1.4049
 9090SOL     OW38728   1.304   2.180   5.964  0.1049 -0.1713  0.0848
 9090SOL    HW138729   1.349   2.264   5.955 -0.0350  0.2012  2.8508
 9090SOL    HW238730   1.375   2.119   5.945 -1.3098 -1.6529 -0.4527
 9091SOL     OW38731   1.615   3.229   9.132 -0.1779  0.2615  0.4014
 9091SOL    HW138732   1.690   3.256   9.079 -0.8818  0.1320 -0.6428
 9091SOL    HW238733   1.622   3.289   9.207  1.0058 -1.0606  1.3463
 9092SOL     OW38734   1.413   3.419   3.384 -0.1557  0.5349 -0.4311
 9092SOL    HW138735   1.450   3.498   3.424  0.5303 -1.6034  3.1829
 9092SOL    HW238736   1.457   3.353   3.438 -1.2801 -0.1319 -0.3262
 9093SOL     OW38737   1.107   4.450   2.186  0.4070  0.2711 -0.4070
 9093SOL    HW138738   1.187   4.492   2.155 -0.4711  2.2745  0.0276
 9093SOL    HW238739   1.065   4.515   2.242 -2.2203 -0.7766 -1.1529
 9094SOL     OW38740   2.579   0.213   5.555 -0.5407  0.3505 -0.4236
 9094SOL    HW138741   2.647   0.280   5.554 -0.6859  0.5100  0.3261
 9094SOL    HW238742   2.515   0.260   5.502 -3.0521 -1.1189  1.2946
 9095SOL     OW38743   4.491   2.444   4.435 -0.1470  0.4509 -0.0467
 9095SOL    HW138744   4.513   2.426   4.343 -1.8601 -0.6933 -0.2233
 9095SOL    HW238745   4.562   2.404   4.485 -0.2299 -2.4644 -2.2438
 9096SOL     OW38746   1.661   2.486   5.537  0.1176 -0.2778  0.3542
 9096SOL    HW138747   1.573   2.499   5.572 -0.1276 -0.1755 -0.3032
 9096SOL    HW238748   1.703   2.570   5.555 -0.8307  0.3587 -0.3897
 9097SOL     OW38749   3.991   0.328  15.981  0.0222  0.5908  0.9456
 9097SOL    HW138750   4.024   0.270  16.050  0.6558 -1.0187 -0.7000
 9097SOL    HW238751   3.992   0.418  16.012  1.0114  0.9519 -0.1662
 9098SOL     OW38752   1.953   0.458   5.240  0.2193 -0.4778 -0.0749
 9098SOL    HW138753   2.044   0.484   5.254 -0.2399  0.8271  0.4601
 9098SOL    HW238754   1.906   0.540   5.227 -0.0895 -0.4920  0.9396
 9099SOL     OW38755   0.535   2.090   5.845  0.5428 -0.1042 -0.3895
 9099SOL    HW138756   0.521   2.183   5.857 -0.0634 -0.2232 -0.2013
 9099SOL    HW238757   0.628   2.076   5.865  0.0129  0.5767  2.5322
 9100SOL     OW38758   1.918   2.341   9.014  0.2578  0.0282  0.3435
 9100SOL    HW138759   1.924   2.429   8.976  0.4992  0.4999  1.4768
 9100SOL    HW238760   1.831   2.314   8.986  0.0861 -1.1014  1.9470
 9101SOL     OW38761   3.627   2.194   8.450 -0.4265 -0.0232 -0.1323
 9101SOL    HW138762   3.548   2.139   8.449 -0.2593 -0.2923  1.2696
 9101SOL    HW238763   3.603   2.264   8.510 -1.1005 -0.0468 -0.3663
 9102SOL     OW38764   4.557   1.122   0.835 -0.1505  0.3207 -0.0260
 9102SOL    HW138765   4.617   1.107   0.908 -1.5710  0.8351  1.2448
 9102SOL    HW238766   4.604   1.190   0.788  0.2255  0.9471  1.2563
 9103SOL     OW38767   3.411   2.125   2.825 -0.0590  0.2981 -0.5421
 9103SOL    HW138768   3.461   2.205   2.845 -0.5509  0.4446  0.0923
 9103SOL    HW238769   3.334   2.145   2.879 -1.3256 -1.0615 -1.8512
 9104SOL     OW38770   2.450   0.742   4.051  0.7077 -0.1384  0.4231
 9104SOL    HW138771   2.534   0.771   4.086  0.4153 -0.1581  1.1477
 9104SOL    HW238772   2.453   0.780   3.963  0.7450  0.4789  0.6906
 9105SOL     OW38773   0.386   0.657  17.429  0.0710  0.2978 -0.7741
 9105SOL    HW138774   0.375   0.562  17.434 -2.8137  0.4880 -3.1005
 9105SOL    HW238775   0.303   0.679  17.472  1.0638 -0.9959  1.7531
 9106SOL     OW38776   2.327   2.247   0.785 -0.5814 -0.1984  0.0434
 9106SOL    HW138777   2.350   2.333   0.822  2.2787  0.0139 -2.2087
 9106SOL    HW238778   2.324   2.195   0.865 -1.3618 -1.7587 -1.0155
 9107SOL     OW38779   4.450   0.286   9.975 -0.3686 -0.1017  0.3812
 9107SOL    HW138780   4.463   0.291  10.069  0.2255  1.5290  0.2002
 9107SOL    HW238781   4.398   0.205   9.977 -0.3738 -0.0253  3.4081
 9108SOL     OW38782   0.099   1.211   3.189  0.1377  0.0692  0.0971
 9108SOL    HW138783   0.186   1.219   3.228 -0.1945 -2.1718  1.3009
 9108SOL    HW238784   0.048   1.170   3.259  0.2807  0.6604  0.5573
 9109SOL     OW38785   2.951   1.848   3.511 -0.6477  0.0140  0.3070
 9109SOL    HW138786   2.928   1.767   3.465  0.6102 -0.0745 -0.1477
 9109SOL    HW238787   2.952   1.810   3.599 -2.2525  0.7114  0.6313
 9110SOL     OW38788   2.120   2.646   3.254  0.3753 -0.3054 -0.2981
 9110SOL    HW138789   2.078   2.698   3.185 -1.8626 -0.1167  1.1834
 9110SOL    HW238790   2.076   2.565   3.230 -1.6912  1.2982 -2.0257
 9111SOL     OW38791   1.726   4.335   6.532 -0.0041 -0.5218 -0.1438
 9111SOL    HW138792   1.646   4.382   6.556  0.4189 -0.3645  0.9683
 9111SOL    HW238793   1.687   4.250   6.513  0.5750 -1.0605  1.0636
 9112SOL     OW38794   2.772   3.675   1.134  0.2632 -0.1909 -0.0970
 9112SOL    HW138795   2.754   3.670   1.040  0.8343 -0.1989 -0.2106
 9112SOL    HW238796   2.741   3.588   1.157 -0.1042 -0.6248 -2.2098
 9113SOL     OW38797   3.620   4.457   7.712 -0.3435 -0.4014  0.4145
 9113SOL    HW138798   3.619   4.376   7.661  1.2630 -0.2955  0.2003
 9113SOL    HW238799   3.686   4.442   7.780  1.1669 -0.6789 -1.1101
 9114SOL     OW38800   4.279   0.977   1.421  0.6321  0.2033 -0.0036
 9114SOL    HW138801   4.205   0.946   1.369 -0.5172  1.7365  0.7139
 9114SOL    HW238802   4.323   1.035   1.359 -1.2864  0.9472 -0.6888
 9115SOL     OW38803   3.877   4.209   3.225  0.2137 -0.5217 -0.1856
 9115SOL    HW138804   3.916   4.133   3.267 -0.2554  0.0994  1.3712
 9115SOL    HW238805   3.794   4.175   3.191 -0.4019  1.3661 -0.5760
 9116SOL     OW38806   4.194   2.844  12.323  0.0697  0.3031  1.0340
 9116SOL    HW138807   4.111   2.891  12.311 -0.5368 -0.7933  0.8792
 9116SOL    HW238808   4.212   2.872  12.413 -2.5740  0.4690  1.5103
 9117SOL     OW38809   2.856   2.544   0.859  0.0190  0.2184 -0.1606
 9117SOL    HW138810   2.818   2.476   0.803 -1.0558  0.7966 -0.1471
 9117SOL    HW238811   2.817   2.626   0.829 -0.4966  0.7494  1.9556
 9118SOL     OW38812   1.130   2.441   0.316  0.0911 -0.1359 -0.1686
 9118SOL    HW138813   1.219   2.406   0.311  0.8878  1.9513 -0.2679
 9118SOL    HW238814   1.124   2.445   0.411 -1.5293 -1.2232 -0.2219
 9119SOL     OW38815   2.879   1.622   7.001 -0.5550  0.0195  0.1068
 9119SOL    HW138816   2.908   1.713   7.000 -0.2467 -0.0702  2.5077
 9119SOL    HW238817   2.835   1.621   6.916  0.8440  0.8719 -0.6282
 9120SOL     OW38818   2.135   1.718   4.436 -0.1128  0.3667 -0.0812
 9120SOL    HW138819   2.123   1.706   4.530  1.2976 -0.5160 -0.0022
 9120SOL    HW238820   2.141   1.813   4.426  0.7020  0.4192  0.8064
 9121SOL     OW38821   2.643   0.635   6.912  0.1078  0.1235  0.1318
 9121SOL    HW138822   2.724   0.684   6.924  0.2654 -0.6268  2.0968
 9121SOL    HW238823   2.635   0.648   6.818  0.2792  1.5031  0.2998
 9122SOL     OW38824   4.124   1.888   2.854 -0.3838  0.4493 -0.3268
 9122SOL    HW138825   4.157   1.910   2.767  1.1361  2.1710  0.7024
 9122SOL    HW238826   4.158   1.799   2.869  1.6249  1.2435 -0.2370
 9123SOL     OW38827   0.734   2.944   7.734  0.4320  0.4029  0.0930
 9123SOL    HW138828   0.655   2.959   7.786  0.6025 -1.2055  0.8066
 9123SOL    HW238829   0.793   3.001   7.783 -0.7665  0.3252  1.6125
 9124SOL     OW38830   1.314   4.370  13.353  0.2111  0.2293 -0.0482
 9124SOL    HW138831   1.355   4.455  13.335  0.3019  0.3320  0.6409
 9124SOL    HW238832   1.379   4.312  13.314  0.1769 -0.1389  0.4438
 9125SOL     OW38833   1.239   3.322   5.124  0.4691 -0.2726 -0.4279
 9125SOL    HW138834   1.275   3.409   5.108 -2.7895  1.3060  0.8529
 9125SOL    HW238835   1.281   3.266   5.059 -0.7090 -1.0437 -0.5367
 9126SOL     OW38836   2.872   1.331   4.678  0.4989 -0.0134  0.6252
 9126SOL    HW138837   2.852   1.301   4.767  1.0623  0.7323  0.9997
 9126SOL    HW238838   2.921   1.254   4.647  0.1786 -0.0973  0.3273
 9127SOL     OW38839   0.855   0.124   8.883  0.6529  0.0947  0.4633
 9127SOL    HW138840   0.786   0.077   8.835  1.1281 -0.6885  0.5470
 9127SOL    HW238841   0.867   0.198   8.823  2.8407 -1.7457 -1.3833
 9128SOL     OW38842   3.941   1.755  14.448  0.3643 -0.5655 -0.3577
 9128SOL    HW138843   4.011   1.812  14.480 -1.0453 -0.2928  2.1755
 9128SOL    HW238844   3.876   1.819  14.421  0.9926 -0.2897 -1.2319
 9129SOL     OW38845   1.132   4.201   8.242 -0.2460 -0.4895 -0.2912
 9129SOL    HW138846   1.119   4.255   8.320  1.3170 -0.5395 -0.0121
 9129SOL    HW238847   1.211   4.241   8.206  0.7045 -2.0332  0.1019
 9130SOL     OW38848   0.523   3.909   8.544 -0.1580  0.0329 -0.4170
 9130SOL    HW138849   0.435   3.877   8.564  0.8687 -1.1460  2.3138
 9130SOL    HW238850   0.572   3.858   8.608 -2.4047 -0.2962  1.0577
 9131SOL     OW38851   3.507   3.277   7.921  0.1419  0.3089 -0.4717
 9131SOL    HW138852   3.519   3.199   7.868  1.1111 -0.4672  0.8755
 9131SOL    HW238853   3.597   3.301   7.943  0.2557  0.6945 -1.3711
 9132SOL     OW38854   1.303   1.046   3.780  0.0175 -0.4540 -0.4516
 9132SOL    HW138855   1.370   0.996   3.735  1.6687  0.2548  1.2209
 9132SOL    HW238856   1.346   1.061   3.864  0.0553  2.8645 -1.0656
 9133SOL     OW38857   2.936   3.004   2.071  0.7104 -0.1562  0.1736
 9133SOL    HW138858   2.878   3.047   2.008 -0.1196 -1.7814 -0.1772
 9133SOL    HW238859   2.910   2.912   2.064  1.0557 -0.1878 -0.7620
 9134SOL     OW38860   2.822   3.570   4.368 -0.4880 -1.0774 -0.2697
 9134SOL    HW138861   2.797   3.571   4.460  1.8873  0.1402  0.3632
 9134SOL    HW238862   2.912   3.539   4.372 -0.5257 -1.0200  0.8863
 9135SOL     OW38863   2.373   2.045   6.898  0.0528  0.3836  0.0876
 9135SOL    HW138864   2.320   2.112   6.940  0.8603  0.2359  1.3415
 9135SOL    HW238865   2.437   2.024   6.966 -1.8217 -1.3385  1.2766
 9136SOL     OW38866   0.342   3.732   5.622  0.1943 -0.6813  0.1014
 9136SOL    HW138867   0.373   3.680   5.548  1.2528  0.5363 -0.3062
 9136SOL    HW238868   0.288   3.798   5.579  0.7094 -0.0212  0.4686
 9137SOL     OW38869   2.871   0.723   4.749  0.0682 -0.2486 -0.1288
 9137SOL    HW138870   2.814   0.665   4.801  0.3062  0.0299  0.4483
 9137SOL    HW238871   2.849   0.690   4.662 -1.2256  2.6457 -0.9013
 9138SOL     OW38872   2.296   1.278   9.154  0.1839 -1.0549 -0.2565
 9138SOL    HW138873   2.201   1.286   9.152  0.2492 -0.6217 -1.2293
 9138SOL    HW238874   2.315   1.196   9.200  0.5886 -0.8462 -0.0525
 9139SOL     OW38875   0.169   1.979   4.321  0.0407  0.0780 -0.1817
 9139SOL    HW138876   0.177   1.980   4.416 -3.8668 -2.0017  0.1951
 9139SOL    HW238877   0.228   2.051   4.300 -0.7838  0.7134 -0.3444
 9140SOL     OW38878   4.051   4.272   9.006  0.4478  0.3717  0.5029
 9140SOL    HW138879   4.091   4.293   9.090 -1.3124  0.3151  1.3632
 9140SOL    HW238880   3.960   4.264   9.033  0.5427  2.0221  1.3452
 9141SOL     OW38881   1.043   2.519   3.936  0.0409 -0.0212  0.0673
 9141SOL    HW138882   0.977   2.584   3.914 -1.2597 -1.4660 -0.3113
 9141SOL    HW238883   0.991   2.446   3.902 -1.0046 -0.2551  2.1556
 9142SOL     OW38884   2.154   3.728   0.380  0.3183  0.2520  0.4652
 9142SOL    HW138885   2.248   3.729   0.398  0.2867  0.3734  0.6217
 9142SOL    HW238886   2.134   3.634   0.378  1.5536 -0.0206  0.5097
 9143SOL     OW38887   2.089   3.436   1.496 -0.1110  0.0680  0.2758
 9143SOL    HW138888   2.028   3.509   1.506 -0.6972 -0.4942  0.7996
 9143SOL    HW238889   2.060   3.399   1.413  1.2631  0.7852 -0.5206
 9144SOL     OW38890   4.249   4.328   3.850 -0.0343 -0.3401 -0.0519
 9144SOL    HW138891   4.218   4.388   3.917  0.8245  0.5070 -0.4169
 9144SOL    HW238892   4.223   4.372   3.769 -1.5988 -2.5261 -0.7426
 9145SOL     OW38893   1.549   1.681  13.000  0.4228  0.1076  0.0435
 9145SOL    HW138894   1.532   1.771  13.028 -0.8396 -0.1958  0.2354
 9145SOL    HW238895   1.509   1.692  12.914  0.7152 -4.1168 -0.6356
 9146SOL     OW38896   1.265   3.277  16.328 -0.2286  0.1077 -0.4177
 9146SOL    HW138897   1.361   3.271  16.334 -0.0542  2.0010 -1.3832
 9146SOL    HW238898   1.256   3.226  16.248  0.8116  2.0068 -1.7271
 9147SOL     OW38899   3.691   3.154   4.661  0.1625 -0.7622 -0.3640
 9147SOL    HW138900   3.694   3.122   4.571  0.0303 -2.3559  0.1952
 9147SOL    HW238901   3.774   3.134   4.704  0.5600 -3.5389 -2.3684
 9148SOL     OW38902   3.367   3.726   9.096 -0.3045 -0.0078  0.2511
 9148SOL    HW138903   3.367   3.819   9.116 -0.4558  0.2340 -0.8507
 9148SOL    HW238904   3.455   3.721   9.058 -0.8628  0.9789 -1.1585
 9149SOL     OW38905   0.227   4.395   0.162  0.1747  0.1164 -0.3809
 9149SOL    HW138906   0.232   4.332   0.090  0.6025  0.9769 -1.1092
 9149SOL    HW238907   0.322   4.399   0.176  0.0295 -2.4406  1.1833
 9150SOL     OW38908   0.754   4.325   2.172  0.3690 -0.3147  0.4369
 9150SOL    HW138909   0.777   4.399   2.115  0.6351 -0.2743  0.5952
 9150SOL    HW238910   0.677   4.291   2.126  0.8338 -0.9515  0.1221
 9151SOL     OW38911   3.431   1.894   4.184  1.0056  0.3657 -0.4222
 9151SOL    HW138912   3.504   1.955   4.173  0.4996  1.0108 -0.1987
 9151SOL    HW238913   3.449   1.825   4.120 -1.1075 -1.2922  0.7683
 9152SOL     OW38914   0.903   2.717   3.589  0.2673  0.3646  0.0002
 9152SOL    HW138915   0.911   2.808   3.617 -3.3291  0.6167  0.2773
 9152SOL    HW238916   0.971   2.733   3.524  0.6191 -0.8441  0.0654
 9153SOL     OW38917   0.321   0.081   7.470 -0.1105  0.2006 -0.3926
 9153SOL    HW138918   0.370   0.005   7.439  2.0131 -0.2324  3.9463
 9153SOL    HW238919   0.312   0.136   7.392 -0.4573  1.3650  0.4599
 9154SOL     OW38920   3.638   4.579   5.991  0.4834  0.1229  0.0172
 9154SOL    HW138921   3.648   4.508   5.928 -0.3495 -0.5706  0.6598
 9154SOL    HW238922   3.543   4.577   5.990  0.4800 -1.5073  1.9904
 9155SOL     OW38923   0.799   2.854  17.381 -0.2083 -0.1897  0.2181
 9155SOL    HW138924   0.864   2.903  17.431 -1.1216  0.1471  1.0628
 9155SOL    HW238925   0.833   2.765  17.394  0.6365  0.1459  0.3399
 9156SOL     OW38926   2.191   2.761  11.480 -0.2224 -0.0972  0.1416
 9156SOL    HW138927   2.180   2.831  11.415  0.3277  0.4748  0.6710
 9156SOL    HW238928   2.280   2.774  11.512  0.1130  1.0890 -1.2779
 9157SOL     OW38929   3.575   4.305  11.255  0.0223  0.0488 -0.2447
 9157SOL    HW138930   3.670   4.313  11.247 -0.0858 -0.7099 -2.2205
 9157SOL    HW238931   3.574   4.273  11.345 -0.4574  0.6252 -0.0389
 9158SOL     OW38932   1.663   1.586   3.925  0.4186  0.0745 -0.2998
 9158SOL    HW138933   1.753   1.618   3.931  0.1420  0.4291  1.8647
 9158SOL    HW238934   1.611   1.649   3.974  0.5987 -1.3510  1.7281
 9159SOL     OW38935   4.248   0.559   2.781 -0.2844 -0.2241  0.0001
 9159SOL    HW138936   4.263   0.473   2.741  1.5883 -0.6606  1.6459
 9159SOL    HW238937   4.255   0.612   2.701 -0.1144 -0.4291 -0.1221
 9160SOL     OW38938   4.067   2.491   5.120 -0.3395 -0.1572 -0.8568
 9160SOL    HW138939   4.131   2.497   5.191 -1.4621 -0.8712  0.2211
 9160SOL    HW238940   4.131   2.503   5.050 -0.2058  0.4564 -0.6333
 9161SOL     OW38941   1.102   0.260   1.500  0.1139 -0.5055 -0.3336
 9161SOL    HW138942   1.071   0.170   1.506  0.6357 -0.6808 -0.3073
 9161SOL    HW238943   1.140   0.276   1.414  0.2168 -1.8825 -0.5415
 9162SOL     OW38944   1.760   4.474  15.968  0.0763 -0.0427  0.5133
 9162SOL    HW138945   1.795   4.563  15.977 -0.6954  0.3893 -0.7127
 9162SOL    HW238946   1.742   4.471  15.874 -1.5210  1.7353  0.7565
 9163SOL     OW38947   0.261   1.715  15.349 -0.3327  0.3219 -0.0752
 9163SOL    HW138948   0.350   1.743  15.327  0.4309 -0.8118  1.5440
 9163SOL    HW238949   0.242   1.670  15.267 -0.1228  0.8205 -0.3985
 9164SOL     OW38950   3.832   4.079   6.810  0.7268 -0.4185  0.0219
 9164SOL    HW138951   3.889   4.152   6.833 -0.3478  0.2503  0.5745
 9164SOL    HW238952   3.866   4.010   6.867  0.9722 -0.1514  0.1999
 9165SOL     OW38953   0.332   0.788   8.107  0.3307 -0.0026 -0.9592
 9165SOL    HW138954   0.299   0.799   8.018 -1.2728 -2.5172 -0.6723
 9165SOL    HW238955   0.247   0.769   8.147 -0.0826  0.2381 -1.7281
 9166SOL     OW38956   4.169   3.435   8.211  0.1048 -0.1939 -0.0583
 9166SOL    HW138957   4.090   3.402   8.168 -0.2036 -0.0038  0.3708
 9166SOL    HW238958   4.217   3.354   8.232  0.4820  0.1796  0.5230
 9167SOL     OW38959   3.493   0.288   9.409  0.7618 -0.2950 -0.4473
 9167SOL    HW138960   3.506   0.319   9.498  0.1987  0.3353 -0.5754
 9167SOL    HW238961   3.572   0.322   9.367  0.9845 -0.6210 -0.2857
 9168SOL     OW38962   4.364   1.104   3.384 -0.0794 -0.3129 -0.2928
 9168SOL    HW138963   4.354   1.146   3.298  0.7751  1.7556  0.6234
 9168SOL    HW238964   4.277   1.066   3.401 -1.2209  2.0933 -0.6679
 9169SOL     OW38965   0.629   3.022   6.157 -0.2107  0.0785 -0.6487
 9169SOL    HW138966   0.583   2.940   6.145 -1.3027  0.3047  2.0465
 9169SOL    HW238967   0.719   2.988   6.158 -0.1432  0.2512 -0.7537
 9170SOL     OW38968   2.409   4.195   3.341 -0.0948  0.0880 -0.4554
 9170SOL    HW138969   2.349   4.183   3.267 -2.1666  0.3411  1.1757
 9170SOL    HW238970   2.353   4.179   3.417 -1.0091  2.0911 -0.7165
 9171SOL     OW38971   2.510   3.087  16.556 -0.0635  0.4229  0.2100
 9171SOL    HW138972   2.419   3.116  16.548 -0.0738 -0.0135 -1.1296
 9171SOL    HW238973   2.552   3.167  16.524  2.4304 -0.9425  0.0750
 9172SOL     OW38974   1.182   0.375   3.247 -0.4631 -1.1245 -0.8784
 9172SOL    HW138975   1.153   0.317   3.177  0.2087  0.5061 -2.5197
 9172SOL    HW238976   1.256   0.329   3.287 -0.4614 -0.8973 -0.6235
 9173SOL     OW38977   4.350   2.991  10.833 -0.3485 -0.2016 -0.0084
 9173SOL    HW138978   4.438   2.956  10.819 -0.3237  0.4749 -1.5356
 9173SOL    HW238979   4.323   3.000  10.742 -0.9726 -1.1514  0.0840
 9174SOL     OW38980   3.968   0.254   2.022  0.4672 -0.5783 -0.0755
 9174SOL    HW138981   3.954   0.213   2.107  2.5194  0.3558  0.7170
 9174SOL    HW238982   3.998   0.177   1.973 -0.1115 -0.1597 -1.0714
 9175SOL     OW38983   0.229   4.123  11.305  0.4575 -0.4454  0.2906
 9175SOL    HW138984   0.238   4.120  11.210  1.2103  0.2306  0.3446
 9175SOL    HW238985   0.310   4.172  11.321  0.2909 -0.1253  0.1402
 9176SOL     OW38986   2.716   1.151  13.484 -0.2775 -0.4172 -0.3141
 9176SOL    HW138987   2.687   1.207  13.412  0.5678  1.7193  1.0149
 9176SOL    HW238988   2.695   1.212  13.555 -2.0607 -0.0322 -1.1773
 9177SOL     OW38989   4.151   0.208   9.283  0.4804 -0.4598 -0.0152
 9177SOL    HW138990   4.159   0.180   9.374 -2.1469  0.8369  0.6189
 9177SOL    HW238991   4.235   0.251   9.268 -0.3872  1.2436 -0.0218
 9178SOL     OW38992   1.073   4.434   9.212  0.4149 -0.0487  0.0796
 9178SOL    HW138993   1.058   4.528   9.226 -3.3138 -1.1266  3.3071
 9178SOL    HW238994   1.151   4.425   9.266  1.1387  2.3132 -0.5245
 9179SOL     OW38995   4.202   0.679   6.199  0.0143 -0.8865 -0.5070
 9179SOL    HW138996   4.244   0.724   6.126 -1.0936  1.4821  0.3100
 9179SOL    HW238997   4.115   0.717   6.184  1.1641  0.9446 -2.4172
 9180SOL     OW38998   3.557   3.459  10.704  0.5331 -0.2637  1.0237
 9180SOL    HW138999   3.508   3.395  10.755  1.7145 -1.5652  0.5106
 9180SOL    HW239000   3.491   3.503  10.650  2.2052 -0.9439 -1.5541
 9181SOL     OW39001   4.054   2.398   2.970  0.1787 -0.1116  0.4062
 9181SOL    HW139002   4.091   2.313   2.993 -1.4750 -1.2480 -1.0898
 9181SOL    HW239003   3.962   2.373   2.959  0.1448 -0.1438  0.7862
 9182SOL     OW39004   0.255   1.659   2.440  0.3599 -0.2827  0.2897
 9182SOL    HW139005   0.234   1.612   2.360  0.9502 -0.8845  0.4874
 9182SOL    HW239006   0.167   1.691   2.458  1.6567  2.9499  0.9377
 9183SOL     OW39007   1.779   0.195   7.886 -0.1178  0.1413  0.8054
 9183SOL    HW139008   1.833   0.133   7.837 -1.0143  1.7097 -2.1712
 9183SOL    HW239009   1.849   0.258   7.907  0.3576 -0.1198 -0.0000
 9184SOL     OW39010   4.581   0.599   7.835  0.0178 -0.2225  0.9863
 9184SOL    HW139011   4.535   0.682   7.823 -0.3578 -0.7533 -1.3689
 9184SOL    HW239012   4.646   0.626   7.899 -0.1958 -0.7116  1.4089
 9185SOL     OW39013   1.761   4.072  13.401 -0.6169 -0.6213  0.3598
 9185SOL    HW139014   1.840   4.022  13.384  0.6995  1.0831  1.4396
 9185SOL    HW239015   1.777   4.076  13.496 -0.4369 -0.6883  0.3313
 9186SOL     OW39016   3.291   3.869  16.063 -0.3634 -0.0262  0.8183
 9186SOL    HW139017   3.245   3.881  15.979  0.9339  0.1782  0.1364
 9186SOL    HW239018   3.301   3.954  16.104 -0.5074 -0.6080  2.0417
 9187SOL     OW39019   3.015   0.704  10.601 -0.3768 -0.0035 -0.0487
 9187SOL    HW139020   2.972   0.714  10.685 -1.7536 -2.2335 -0.4908
 9187SOL    HW239021   3.050   0.789  10.574 -1.7629  0.9675  1.2573
 9188SOL     OW39022   1.864   0.740   2.393 -0.0450 -0.0650 -0.0536
 9188SOL    HW139023   1.934   0.686   2.356 -0.6269 -1.0403  0.2583
 9188SOL    HW239024   1.786   0.706   2.349 -0.6363  0.5143  0.5473
 9189SOL     OW39025   4.489   2.071   2.506  0.3658 -0.2427 -0.0827
 9189SOL    HW139026   4.434   2.149   2.496 -0.3562 -0.8025 -0.5170
 9189SOL    HW239027   4.429   2.000   2.484  1.1135 -0.6056 -0.9234
 9190SOL     OW39028   4.390   4.194  11.006 -0.5724  0.5997 -0.1623
 9190SOL    HW139029   4.362   4.283  10.986 -0.5917  0.4771 -0.6742
 9190SOL    HW239030   4.421   4.199  11.097 -0.2938 -0.6511 -0.1874
 9191SOL     OW39031   2.566   2.096  14.069 -0.2480 -0.0422  0.1379
 9191SOL    HW139032   2.560   2.179  14.116 -2.4690  0.2814 -0.7220
 9191SOL    HW239033   2.507   2.113  13.996  2.9751  1.1420 -2.2044
 9192SOL     OW39034   4.213   2.602   6.308  0.3451 -0.4799 -0.2677
 9192SOL    HW139035   4.295   2.562   6.336  0.9163  2.7529  2.7439
 9192SOL    HW239036   4.250   2.657   6.239  4.3005 -1.7637  0.8633
 9193SOL     OW39037   4.668   4.650   5.171 -0.4075 -0.7018 -0.2843
 9193SOL    HW139038   4.622   4.569   5.194  2.2136 -2.3818 -0.9834
 9193SOL    HW239039   4.669   4.690   5.258  0.3380 -0.0034 -0.6157
 9194SOL     OW39040   1.464   2.956  15.631  0.0861 -0.0046 -0.2629
 9194SOL    HW139041   1.541   2.993  15.587  0.6525  1.5353  1.9904
 9194SOL    HW239042   1.426   3.025  15.685  1.0295 -0.4425  0.9864
 9195SOL     OW39043   0.166   2.298   4.029 -0.1920 -0.3642 -0.1232
 9195SOL    HW139044   0.130   2.249   3.955  0.0150  0.0859 -0.5220
 9195SOL    HW239045   0.126   2.261   4.108  0.2531  1.2796  0.8732
 9196SOL     OW39046   4.410   2.437   8.144  0.2689  0.6531 -0.2461
 9196SOL    HW139047   4.465   2.417   8.220  1.8461  0.4430 -1.4426
 9196SOL    HW239048   4.426   2.367   8.080 -3.3446 -1.4958  1.2052
 9197SOL     OW39049   2.571   1.269   9.197  0.0494  0.3326 -0.1649
 9197SOL    HW139050   2.647   1.325   9.185 -0.4079  0.4892 -2.4240
 9197SOL    HW239051   2.491   1.322   9.196 -1.8209 -2.4698 -1.2233
 9198SOL     OW39052   3.168   4.492   6.732 -0.1580 -0.0319 -0.1334
 9198SOL    HW139053   3.097   4.547   6.699 -1.0237 -0.0127  1.7653
 9198SOL    HW239054   3.206   4.461   6.650  0.3022  0.6561 -0.1831
 9199SOL     OW39055   4.691   4.153  13.040 -0.3415  0.3712 -0.6744
 9199SOL    HW139056   4.598   4.154  13.062 -0.3798  0.9664 -0.8460
 9199SOL    HW239057   4.704   4.059  13.029  0.7642  0.1594  2.5286
 9200SOL     OW39058   4.374   3.790   3.360 -0.4552 -0.1067 -0.3730
 9200SOL    HW139059   4.357   3.840   3.280  0.6628  0.8005 -0.0399
 9200SOL    HW239060   4.403   3.704   3.328 -0.8478 -0.4139  0.0941
 9201SOL     OW39061   1.593   2.504   9.109  0.0847 -0.2213 -0.0062
 9201SOL    HW139062   1.604   2.587   9.063  1.4293  0.7058  2.0423
 9201SOL    HW239063   1.619   2.526   9.198  0.0567 -0.8319  0.1562
 9202SOL     OW39064   0.844   2.224   1.775 -0.0821  0.0810 -0.2071
 9202SOL    HW139065   0.920   2.166   1.768  0.7567  1.0097  1.3130
 9202SOL    HW239066   0.876   2.300   1.725  2.4214 -0.8042  0.0182
 9203SOL     OW39067   1.433   4.706  10.347 -0.1417 -0.0689 -0.4090
 9203SOL    HW139068   1.481   0.061  10.371  0.1618 -0.5201  0.4926
 9203SOL    HW239069   1.495   4.679  10.279  0.9974  2.9307 -0.5623
 9204SOL     OW39070   4.153   3.091  14.966 -0.0390  0.5800 -0.0699
 9204SOL    HW139071   4.225   3.154  14.963  0.4084  0.0083 -1.4564
 9204SOL    HW239072   4.192   3.007  14.941 -1.0830  0.0486  0.0533
 9205SOL     OW39073   2.164   3.133   2.279  0.4488 -0.1370  0.6626
 9205SOL    HW139074   2.167   3.065   2.346 -0.9193  0.7066  1.5749
 9205SOL    HW239075   2.234   3.191   2.308  0.6347  0.2687 -0.6120
 9206SOL     OW39076   2.225   1.597   5.393  0.2919  0.0061 -0.2695
 9206SOL    HW139077   2.130   1.602   5.405 -0.0369 -1.9601 -1.8920
 9206SOL    HW239078   2.254   1.680   5.429  0.7721 -0.3706  0.2063
 9207SOL     OW39079   4.585   4.253   7.516 -0.1484 -0.2810 -0.2705
 9207SOL    HW139080   4.506   4.264   7.569 -0.9868  0.0101 -1.5811
 9207SOL    HW239081   4.549   4.222   7.433 -3.0295 -1.1813  1.3001
 9208SOL     OW39082   0.244   2.045  17.139  0.0139 -0.0940 -0.3815
 9208SOL    HW139083   0.323   2.003  17.104  0.5143  0.5327 -0.0208
 9208SOL    HW239084   0.200   2.088  17.066 -0.7300  0.6858  0.5328
 9209SOL     OW39085   0.669   1.197  16.387  0.0621  0.5626 -0.1624
 9209SOL    HW139086   0.578   1.223  16.371 -0.9868 -0.9569  3.3860
 9209SOL    HW239087   0.669   1.210  16.482  1.0130 -0.7544  0.0185
 9210SOL     OW39088   2.542   0.861   4.672 -0.8336 -0.3426 -0.2366
 9210SOL    HW139089   2.550   0.782   4.725  0.9582 -0.2346 -0.3545
 9210SOL    HW239090   2.493   0.827   4.596 -1.5855 -2.2479  1.0863
 9211SOL     OW39091   1.212   1.479   2.741  0.4440  0.3230  0.2806
 9211SOL    HW139092   1.246   1.560   2.779  0.2272  1.0666 -1.1219
 9211SOL    HW239093   1.294   1.435   2.721 -0.6889 -1.8699  0.4202
 9212SOL     OW39094   1.070   0.785   1.631  0.0830 -0.1599  0.5202
 9212SOL    HW139095   1.106   0.704   1.594 -1.6998 -0.0174 -1.4940
 9212SOL    HW239096   0.993   0.802   1.576 -0.9110 -3.4476  0.8767
 9213SOL     OW39097   2.916   0.734   6.975 -0.4137  0.3011  0.0197
 9213SOL    HW139098   2.913   0.773   7.062  0.3286  1.3338 -0.4098
 9213SOL    HW239099   3.007   0.751   6.948 -0.7307  2.5398  0.3486
 9214SOL     OW39100   3.841   3.009  13.498  0.0708 -0.4442 -0.2457
 9214SOL    HW139101   3.785   3.086  13.497  1.6878  0.6730 -3.0542
 9214SOL    HW239102   3.927   3.048  13.516 -0.0227 -0.3491 -0.0090
 9215SOL     OW39103   4.286   0.838  12.983 -0.9810 -0.6162  0.2291
 9215SOL    HW139104   4.273   0.932  12.970 -2.1848 -0.8809 -0.5925
 9215SOL    HW239105   4.229   0.815  13.057 -1.5830 -0.8349 -0.2980
 9216SOL     OW39106   2.698   2.733   9.722  0.2083 -0.5066  0.3771
 9216SOL    HW139107   2.695   2.808   9.663  1.3395 -0.0907  0.8654
 9216SOL    HW239108   2.756   2.672   9.676 -0.5732 -0.0397 -1.2528
 9217SOL     OW39109   1.656   1.135   4.639 -0.1145  0.1355 -0.2499
 9217SOL    HW139110   1.584   1.196   4.654  0.2645  0.6318 -0.4509
 9217SOL    HW239111   1.727   1.196   4.659  1.0937 -2.2086  2.5095
 9218SOL     OW39112   2.865   3.639   4.627 -0.3221 -0.3081 -0.4414
 9218SOL    HW139113   2.906   3.716   4.587 -0.9876  0.9852  1.3884
 9218SOL    HW239114   2.896   3.652   4.716  1.4999 -2.0548 -0.8287
 9219SOL     OW39115   2.674   2.535   5.833  0.6252 -0.3141  0.5081
 9219SOL    HW139116   2.735   2.588   5.782 -0.0880  0.7103  0.7367
 9219SOL    HW239117   2.731   2.526   5.910  1.4022 -0.2347 -0.0558
 9220SOL     OW39118   4.216   0.390  10.348 -0.0497 -0.6176 -0.1438
 9220SOL    HW139119   4.306   0.401  10.316 -0.0048 -0.5993 -0.0107
 9220SOL    HW239120   4.188   0.481  10.354  0.4563 -0.3780 -1.3863
 9221SOL     OW39121   0.178   1.273   4.265 -0.2958  0.9949  0.1319
 9221SOL    HW139122   0.180   1.326   4.344 -1.8006  0.9232  0.2255
 9221SOL    HW239123   0.267   1.290   4.236  0.7428 -1.5363  1.8239
 9222SOL     OW39124   1.146   3.048   5.582  0.4562  0.1944  0.3751
 9222SOL    HW139125   1.146   3.129   5.633  3.5484  0.2114  0.3679
 9222SOL    HW239126   1.202   3.079   5.511 -0.8881 -0.9076 -1.1629
 9223SOL     OW39127   0.337   0.424  11.453  0.0502  0.4179 -0.9142
 9223SOL    HW139128   0.384   0.450  11.533  0.8949  0.5381 -1.4564
 9223SOL    HW239129   0.246   0.424  11.484 -0.0504  1.8052 -1.2497
 9224SOL     OW39130   1.639   0.017   8.040 -0.1464 -0.5823  0.0654
 9224SOL    HW139131   1.551   0.053   8.044 -0.1669 -0.6921  0.5924
 9224SOL    HW239132   1.692   0.088   8.004 -0.4685  0.2667  1.2889
 9225SOL     OW39133   2.243   3.265   5.279 -0.3769 -0.0971 -0.0026
 9225SOL    HW139134   2.169   3.307   5.235 -0.8727 -1.2691 -0.2938
 9225SOL    HW239135   2.267   3.196   5.218 -1.0143 -0.2308 -0.1052
 9226SOL     OW39136   1.140   4.632   4.822  0.1340 -0.1025 -0.1614
 9226SOL    HW139137   1.229   4.666   4.836 -0.0016  0.1087  0.1727
 9226SOL    HW239138   1.116   4.584   4.901  0.1808 -1.3688 -0.9066
 9227SOL     OW39139   0.550   3.989  15.359  0.1184 -0.4329 -0.3277
 9227SOL    HW139140   0.467   4.034  15.377  0.8865  0.6107  0.6434
 9227SOL    HW239141   0.578   4.035  15.279  1.9295 -0.3796  0.3284
 9228SOL     OW39142   4.500   4.010  17.079 -0.0853 -0.0663  0.1849
 9228SOL    HW139143   4.418   4.046  17.043  0.3463 -0.1333 -0.8527
 9228SOL    HW239144   4.471   3.933  17.128  3.2382 -1.5149 -0.1341
 9229SOL     OW39145   1.821   1.894   9.660  0.0575 -0.7847  0.2908
 9229SOL    HW139146   1.833   1.884   9.754  1.4207 -2.4242 -0.0643
 9229SOL    HW239147   1.895   1.841   9.631 -0.3650  1.0440 -4.2118
 9230SOL     OW39148   2.217   1.000   4.879  0.2240  0.1493 -0.1812
 9230SOL    HW139149   2.284   1.023   4.943 -0.7763 -0.3998  1.0606
 9230SOL    HW239150   2.236   0.907   4.868 -1.8429 -0.1609 -1.1675
 9231SOL     OW39151   3.959   4.623   2.263  0.7462  1.0052 -0.0229
 9231SOL    HW139152   4.041   4.581   2.236  0.7589  1.1498 -0.2072
 9231SOL    HW239153   3.897   4.568   2.214 -0.7333  1.0192  1.8534
 9232SOL     OW39154   4.165   2.258   4.717  0.1809 -0.3869  0.3059
 9232SOL    HW139155   4.164   2.163   4.711  0.7457 -0.4512  1.2592
 9232SOL    HW239156   4.172   2.284   4.625  3.1250 -0.2927  0.5519
 9233SOL     OW39157   0.121   3.821   9.266  0.1413  0.1746 -0.3405
 9233SOL    HW139158   0.052   3.786   9.210 -3.0416  3.4563  1.5400
 9233SOL    HW239159   0.184   3.749   9.265 -0.9773 -0.8150  1.7629
 9234SOL     OW39160   0.679   3.560  10.791  0.1598 -0.3725 -0.2480
 9234SOL    HW139161   0.645   3.529  10.707  0.5838 -1.1605 -0.1260
 9234SOL    HW239162   0.595   3.563  10.837  1.2346 -0.3631  1.7127
 9235SOL     OW39163   4.152   3.277   3.979  0.1171 -0.3620  0.2516
 9235SOL    HW139164   4.135   3.291   3.886 -2.2894 -2.1614  0.4160
 9235SOL    HW239165   4.067   3.243   4.009  0.6906 -0.3670  1.8792
 9236SOL     OW39166   4.166   0.254   5.624 -0.0536  0.2928 -0.2162
 9236SOL    HW139167   4.167   0.311   5.547  0.0959  0.5117 -0.0501
 9236SOL    HW239168   4.132   0.174   5.584  0.3552 -0.9648  1.9366
 9237SOL     OW39169   2.208   1.535   2.762  0.3467  0.8750 -0.0700
 9237SOL    HW139170   2.153   1.564   2.834 -2.8216  1.0970 -2.6010
 9237SOL    HW239171   2.213   1.440   2.774 -0.4789  0.9177  0.5470
 9238SOL     OW39172   3.212   0.999   3.769 -0.0718 -0.0433 -0.1344
 9238SOL    HW139173   3.200   0.924   3.828 -1.7201  0.2992 -0.0475
 9238SOL    HW239174   3.304   0.993   3.745  0.0850  0.4061  0.3538
 9239SOL     OW39175   3.143   3.568  11.066 -0.4617 -0.5201 -0.1777
 9239SOL    HW139176   3.121   3.615  10.986 -1.8362  0.6324  0.8698
 9239SOL    HW239177   3.236   3.589  11.075 -0.4534 -0.7393  0.3060
 9240SOL     OW39178   3.724   0.736   8.858  0.2543  0.4151  0.0697
 9240SOL    HW139179   3.652   0.679   8.830  1.7351 -1.1678 -0.4441
 9240SOL    HW239180   3.674   0.812   8.888  0.3825  0.7046 -0.4505
 9241SOL     OW39181   2.371   4.426   7.509  0.3416  0.0721  0.5362
 9241SOL    HW139182   2.457   4.424   7.550  0.4332  1.0124  0.3788
 9241SOL    HW239183   2.337   4.503   7.554  0.5251  0.7678 -0.5115
 9242SOL     OW39184   0.015   2.635  12.409  0.2948  0.0133  0.1161
 9242SOL    HW139185   4.709   2.605  12.495 -1.6719 -1.2131 -1.0420
 9242SOL    HW239186   4.676   2.701  12.383 -1.7525 -1.8696  0.4811
 9243SOL     OW39187   2.658   2.787   2.859 -1.0724 -0.2331  0.0512
 9243SOL    HW139188   2.596   2.743   2.801 -0.7510 -2.1233  1.1398
 9243SOL    HW239189   2.701   2.721   2.913 -1.6188  0.0802  0.8654
 9244SOL     OW39190   0.072   1.604   4.803 -0.0686 -0.0753 -0.2027
 9244SOL    HW139191   0.019   1.618   4.725  0.2044  1.6140 -0.0820
 9244SOL    HW239192   0.014   1.593   4.878 -1.2108 -1.7251 -1.3316
 9245SOL     OW39193   2.615   1.513  13.540  0.2896  0.4175  0.3822
 9245SOL    HW139194   2.709   1.512  13.559  0.2645  1.5087  0.5424
 9245SOL    HW239195   2.590   1.591  13.590 -0.2808 -0.1554  0.9953
 9246SOL     OW39196   4.366   3.357  10.525 -0.2306 -0.4236 -0.5974
 9246SOL    HW139197   4.274   3.332  10.537 -0.2067  0.7594  2.1919
 9246SOL    HW239198   4.362   3.451  10.510  1.0238 -0.0649  1.3300
 9247SOL     OW39199   0.882   2.818  10.374  0.0749 -0.5035 -0.1069
 9247SOL    HW139200   0.796   2.817  10.415 -0.1814  0.8784 -0.6168
 9247SOL    HW239201   0.905   2.725  10.370 -0.6681 -0.7556  1.7887
 9248SOL     OW39202   1.542   3.258   3.560  0.6075 -0.1179 -0.4901
 9248SOL    HW139203   1.613   3.218   3.510 -1.2885 -1.2280 -2.3279
 9248SOL    HW239204   1.489   3.180   3.576  0.0588  0.6541  1.3553
 9249SOL     OW39205   1.651   0.144   7.218 -0.0609  0.1415 -0.2634
 9249SOL    HW139206   1.639   0.167   7.310 -1.7004  0.2686 -0.5094
 9249SOL    HW239207   1.716   0.074   7.223 -0.7837 -0.6003 -1.1835
 9250SOL     OW39208   0.261   4.372   6.871  0.2423 -0.5917 -0.0082
 9250SOL    HW139209   0.173   4.383   6.836 -0.1951 -0.4567  1.1159
 9250SOL    HW239210   0.308   4.442   6.827 -3.1302  2.1248  0.6533
 9251SOL     OW39211   0.581   2.142   7.210  0.1738  0.0312  0.3595
 9251SOL    HW139212   0.522   2.139   7.135  1.7790 -2.6808 -0.8129
 9251SOL    HW239213   0.570   2.232   7.242 -0.5864  0.5986 -1.4862
 9252SOL     OW39214   0.783   4.431  10.520  0.1716  0.9716 -0.1230
 9252SOL    HW139215   0.816   4.346  10.550  0.1870  0.0691 -2.6675
 9252SOL    HW239216   0.780   4.421  10.425  1.1246 -1.8520  0.1282
 9253SOL     OW39217   2.411   3.345  11.636 -0.1667 -0.0823  0.1474
 9253SOL    HW139218   2.421   3.289  11.713  2.1386 -1.0703 -0.8908
 9253SOL    HW239219   2.489   3.399  11.644 -1.6396  1.8862  1.1447
 9254SOL     OW39220   1.771   4.630   1.610 -0.3481 -0.5266  0.4136
 9254SOL    HW139221   1.860   4.650   1.583 -0.5691 -0.5288 -0.3241
 9254SOL    HW239222   1.724   4.629   1.527 -1.1246 -3.2900  0.8791
 9255SOL     OW39223   0.964   3.274   3.750 -0.2375 -0.0671  0.1838
 9255SOL    HW139224   0.882   3.320   3.772  0.8047  1.3694  1.0686
 9255SOL    HW239225   1.014   3.352   3.724 -0.8645  0.5306  0.7597
 9256SOL     OW39226   4.723   0.914   4.229  0.2101 -0.2054 -0.6968
 9256SOL    HW139227   4.693   0.867   4.151 -1.0070  0.1504 -0.4512
 9256SOL    HW239228   0.058   0.855   4.274  1.7811  0.4451 -1.9195
 9257SOL     OW39229   3.108   2.151  14.326 -0.1287  0.0254 -0.1786
 9257SOL    HW139230   3.108   2.236  14.282 -1.0368  1.9550  3.5799
 9257SOL    HW239231   3.117   2.105  14.242  0.2921  0.3629 -0.3189
 9258SOL     OW39232   1.112   4.018   0.573 -0.1661 -0.4021 -0.3817
 9258SOL    HW139233   1.021   4.024   0.601  0.4616  1.1099  1.3780
 9258SOL    HW239234   1.100   3.962   0.497  1.1280  0.4256 -1.1876
 9259SOL     OW39235   2.583   2.327   3.424  0.5983 -0.0325 -0.3350
 9259SOL    HW139236   2.534   2.309   3.344 -3.0750  2.2429  1.4188
 9259SOL    HW239237   2.627   2.242   3.423  0.0082 -0.3491  0.5142
 9260SOL     OW39238   1.927   4.725  16.003  0.5506  0.1648 -1.0137
 9260SOL    HW139239   1.901   0.091  15.989  1.9203  0.4162 -1.9733
 9260SOL    HW239240   1.981   0.005  16.082  0.6212  0.8934 -1.1140
 9261SOL     OW39241   0.160   0.110   6.535  0.4123  0.2106 -0.2665
 9261SOL    HW139242   0.140   0.104   6.442  1.7460  3.1499 -0.7388
 9261SOL    HW239243   0.256   0.102   6.534  0.4319  0.5301 -0.7301
 9262SOL     OW39244   2.592   4.025   4.133  0.2333  0.4760 -0.3003
 9262SOL    HW139245   2.655   4.088   4.169  0.8059 -1.1590  1.5550
 9262SOL    HW239246   2.585   3.959   4.202  0.6576  0.0663 -0.6547
 9263SOL     OW39247   1.694   0.781  10.412  0.3983  0.0469 -0.0555
 9263SOL    HW139248   1.752   0.767  10.337 -2.8944  2.0191 -2.9292
 9263SOL    HW239249   1.660   0.866  10.386 -0.0283 -0.4197 -1.0303
 9264SOL     OW39250   3.062   3.789   7.743 -0.5291 -0.2434 -0.3858
 9264SOL    HW139251   3.054   3.696   7.764 -0.4656 -0.2553 -0.4149
 9264SOL    HW239252   3.027   3.836   7.819  0.3641  2.3041 -1.5383
 9265SOL     OW39253   3.895   3.972   6.517  0.5066  0.0192 -0.2085
 9265SOL    HW139254   3.811   3.976   6.563 -0.3876  1.7144 -1.9656
 9265SOL    HW239255   3.952   4.041   6.552 -0.1385  1.1366 -1.3661
 9266SOL     OW39256   4.155   3.609  15.464  0.7539  0.5859  0.3041
 9266SOL    HW139257   4.153   3.517  15.437  0.7362 -0.0930  2.6800
 9266SOL    HW239258   4.110   3.603  15.548  0.2186  0.1354 -0.0144
 9267SOL     OW39259   2.707   2.241  10.520  0.1335 -0.2048 -0.0269
 9267SOL    HW139260   2.624   2.199  10.497  0.1001  0.8470 -1.8298
 9267SOL    HW239261   2.727   2.272  10.431 -2.8303  0.3589 -0.5019
 9268SOL     OW39262   3.404   4.258   0.109 -0.1773 -0.1262  0.4291
 9268SOL    HW139263   3.424   4.351   0.107  4.6523 -1.1752 -2.2059
 9268SOL    HW239264   3.355   4.250   0.027  1.0920  1.0466 -0.4560
 9269SOL     OW39265   2.884   2.138  15.554 -0.1480  0.3071  0.1596
 9269SOL    HW139266   2.912   2.160  15.465  0.9679 -2.4330 -0.1575
 9269SOL    HW239267   2.807   2.194  15.561  0.4965  1.1413  0.7278
 9270SOL     OW39268   3.142   1.222   2.352  0.2218  0.2254  0.3471
 9270SOL    HW139269   3.064   1.242   2.301  0.3082 -1.1565 -0.3332
 9270SOL    HW239270   3.112   1.146   2.402 -1.1294  1.6769  1.7512
 9271SOL     OW39271   2.336   2.606   7.272 -0.2288  0.3662  0.1873
 9271SOL    HW139272   2.365   2.553   7.346 -1.0644  1.2511  1.1527
 9271SOL    HW239273   2.393   2.680   7.294 -1.0183  0.6184  1.3848
 9272SOL     OW39274   0.938   3.229  15.233 -0.1486  0.4502 -0.1836
 9272SOL    HW139275   1.016   3.174  15.247 -2.1180 -1.9984  1.0827
 9272SOL    HW239276   0.974   3.298  15.177  1.9476 -0.3921  0.1071
 9273SOL     OW39277   4.329   4.368  13.366  0.3175 -0.6755 -0.5795
 9273SOL    HW139278   4.282   4.440  13.324  0.3688 -0.3140 -0.0078
 9273SOL    HW239279   4.277   4.365  13.446  2.0971  2.1829  0.6981
 9274SOL     OW39280   4.723   1.352   8.625  0.2188 -0.0661 -0.3734
 9274SOL    HW139281   0.042   1.415   8.567  0.1180  1.0834  0.7953
 9274SOL    HW239282   0.004   1.276   8.567 -1.1146 -1.6220  1.5200
 9275SOL     OW39283   3.235   3.738   3.344 -0.3976 -0.4587  0.0898
 9275SOL    HW139284   3.268   3.752   3.255  1.8551  0.2499  1.0341
 9275SOL    HW239285   3.141   3.747   3.332 -0.6196 -1.9390  0.6309
 9276SOL     OW39286   4.174   2.900   4.811  0.1465 -0.2400  0.2208
 9276SOL    HW139287   4.261   2.914   4.848 -0.4003  2.6454  0.4640
 9276SOL    HW239288   4.121   2.943   4.878 -0.1875  1.1969 -0.9596
 9277SOL     OW39289   2.732   4.011   6.827  0.6610 -0.8158  0.2685
 9277SOL    HW139290   2.812   3.961   6.809  0.8602 -1.2380  2.3313
 9277SOL    HW239291   2.699   3.946   6.889 -1.4853  0.9781  1.0149
 9278SOL     OW39292   3.788   3.694   3.268 -0.0504 -0.2789 -0.2824
 9278SOL    HW139293   3.849   3.667   3.199 -1.2461 -1.1385 -0.9904
 9278SOL    HW239294   3.718   3.733   3.215 -0.5469 -0.9521 -0.1100
 9279SOL     OW39295   4.533   2.976  15.420  0.0557  0.0409 -0.5610
 9279SOL    HW139296   4.505   2.884  15.426 -3.2022  1.2123  1.8371
 9279SOL    HW239297   4.551   2.989  15.513  0.6391  0.3910 -0.7243
 9280SOL     OW39298   0.818   3.520  12.676  0.0254 -0.2259 -0.9617
 9280SOL    HW139299   0.883   3.589  12.683  0.0216 -0.5553  2.0518
 9280SOL    HW239300   0.796   3.505  12.768 -0.7244  2.4669 -0.7169
 9281SOL     OW39301   2.514   0.494   9.119  0.4861  0.7007 -0.6683
 9281SOL    HW139302   2.603   0.466   9.142 -0.2044 -1.3804 -0.4957
 9281SOL    HW239303   2.509   0.494   9.023 -0.1991  0.1011 -0.6388
 9282SOL     OW39304   3.462   4.010  13.630  0.9217  0.7064 -0.2088
 9282SOL    HW139305   3.429   3.968  13.551 -0.8803 -1.2966  1.6319
 9282SOL    HW239306   3.551   3.975  13.637 -0.2394 -2.2508 -0.2206
 9283SOL     OW39307   0.287   0.755   3.251  0.1003 -0.3802 -0.5473
 9283SOL    HW139308   0.249   0.691   3.310 -0.3713  1.8288  1.5408
 9283SOL    HW239309   0.355   0.700   3.212 -1.3299 -2.2693 -0.3500
 9284SOL     OW39310   0.781   1.530   2.203 -0.0337 -0.3142  0.2121
 9284SOL    HW139311   0.771   1.502   2.294 -2.8161 -1.4880 -0.4424
 9284SOL    HW239312   0.747   1.620   2.203 -1.0018 -0.6816  0.7471
 9285SOL     OW39313   1.193   3.461   3.247 -0.4555 -0.2055 -0.4094
 9285SOL    HW139314   1.202   3.378   3.200 -2.6076 -0.0863 -1.0512
 9285SOL    HW239315   1.257   3.460   3.318  1.1597  0.7796 -1.8579
 9286SOL     OW39316   1.852   1.262   3.260 -0.3441  0.6183 -0.1030
 9286SOL    HW139317   1.829   1.202   3.189 -2.6472  1.3668  0.0397
 9286SOL    HW239318   1.883   1.336   3.208  0.6143  1.8432  2.2385
 9287SOL     OW39319   4.582   1.401   4.120  0.5551 -0.0412 -0.4919
 9287SOL    HW139320   4.494   1.401   4.083  0.4695 -0.1378 -0.2836
 9287SOL    HW239321   4.589   1.315   4.161 -0.9505  0.2936  0.4312
 9288SOL     OW39322   3.327   0.985   7.976 -0.2931 -0.8337 -0.0619
 9288SOL    HW139323   3.342   1.076   8.003  1.6900 -0.8042 -1.2678
 9288SOL    HW239324   3.415   0.950   7.990  0.5261  0.8357 -1.0011
 9289SOL     OW39325   2.749   3.274   7.805 -0.1715 -0.2110 -0.1458
 9289SOL    HW139326   2.696   3.291   7.883  0.2552  0.4675 -0.0069
 9289SOL    HW239327   2.753   3.361   7.765  2.1473 -0.3730 -0.2472
 9290SOL     OW39328   1.826   3.924   1.289  0.3319 -0.1033 -0.3829
 9290SOL    HW139329   1.798   3.911   1.198  1.7627 -0.7059 -0.7356
 9290SOL    HW239330   1.770   3.999   1.308  0.0179 -0.8610  1.6746
 9291SOL     OW39331   2.649   4.452   5.716 -0.0667 -0.2358 -0.2977
 9291SOL    HW139332   2.646   4.512   5.641 -0.8448  2.0581  1.5686
 9291SOL    HW239333   2.658   4.367   5.673 -1.9906 -0.5540 -0.0662
 9292SOL     OW39334   0.236   0.582   9.470 -0.2018 -0.5253 -0.6761
 9292SOL    HW139335   0.327   0.552   9.478 -0.4729 -0.5850  2.0715
 9292SOL    HW239336   0.234   0.630   9.387 -2.6385 -0.0214 -0.3325
 9293SOL     OW39337   0.562   1.507   3.446  0.1186  0.0941  0.3037
 9293SOL    HW139338   0.615   1.489   3.524  0.2062 -0.8455  0.0276
 9293SOL    HW239339   0.472   1.509   3.479  0.4822  1.4364  1.2249
 9294SOL     OW39340   2.305   3.040  13.483  0.4480  0.4614  0.2043
 9294SOL    HW139341   2.376   3.088  13.439  1.9924 -1.3388  0.7156
 9294SOL    HW239342   2.342   3.037  13.572 -0.1058 -2.0630  0.3302
 9295SOL     OW39343   2.598   2.520   2.181 -0.8250 -0.7461  0.0447
 9295SOL    HW139344   2.583   2.615   2.179  2.6214 -0.2088  0.2705
 9295SOL    HW239345   2.582   2.501   2.273 -2.7181 -1.9900 -0.5237
 9296SOL     OW39346   0.118   0.961   1.962 -0.0159  0.0421  0.4317
 9296SOL    HW139347   0.190   0.970   1.899 -0.0306  1.1458  0.5743
 9296SOL    HW239348   0.165   0.995   2.038  0.8220 -2.1017  0.8671
 9297SOL     OW39349   3.939   2.038   6.137 -0.3144 -0.3658 -0.2148
 9297SOL    HW139350   3.939   2.028   6.041 -1.1175 -1.4772 -0.0982
 9297SOL    HW239351   3.845   2.044   6.154 -0.4956  0.8523 -1.6042
 9298SOL     OW39352   0.347   4.687   4.788  0.0244  0.5948  0.1184
 9298SOL    HW139353   0.414   4.621   4.771 -1.2646 -0.6828  0.0026
 9298SOL    HW239354   0.303   4.644   4.862  0.8102 -2.3506 -1.1301
 9299SOL     OW39355   0.821   0.784   6.161  0.4914 -0.0774  0.0510
 9299SOL    HW139356   0.805   0.716   6.096 -0.3129  2.2172 -2.1481
 9299SOL    HW239357   0.735   0.782   6.202 -0.0158  3.8194 -0.8121
 9300SOL     OW39358   2.207   4.590   8.832  0.2078  0.7668  0.1579
 9300SOL    HW139359   2.133   4.548   8.876  0.4983 -2.1026 -2.0847
 9300SOL    HW239360   2.170   4.659   8.777 -2.2843 -0.5390  0.1974
 9301SOL     OW39361   1.486   4.484  12.126  0.4178 -0.6627  0.3840
 9301SOL    HW139362   1.410   4.427  12.118 -0.3621  0.3490  0.5343
 9301SOL    HW239363   1.548   4.429  12.173  2.8255  0.6777 -1.2277
 9302SOL     OW39364   0.104   4.231   8.335  0.5275  0.1960 -0.1759
 9302SOL    HW139365   0.053   4.153   8.359  1.9631 -0.8759 -0.6078
 9302SOL    HW239366   0.194   4.206   8.355  0.7287  0.6958 -0.4499
 9303SOL     OW39367   2.188   3.332   6.154  0.5222 -0.1080 -0.4336
 9303SOL    HW139368   2.148   3.351   6.069  0.3621 -1.2202 -0.6038
 9303SOL    HW239369   2.167   3.240   6.167  0.9407  0.2182  2.5048
 9304SOL     OW39370   2.695   1.153  12.986 -0.3272 -0.4029  0.2979
 9304SOL    HW139371   2.635   1.105  13.043  1.1130  1.2836  3.2582
 9304SOL    HW239372   2.765   1.090  13.004 -0.8116 -0.9036  0.4061
 9305SOL     OW39373   4.070   3.341  10.560 -0.3007 -0.3595  0.0285
 9305SOL    HW139374   4.088   3.274  10.625  2.4921 -0.2722 -0.6421
 9305SOL    HW239375   3.976   3.348  10.579 -0.4524 -2.3009 -0.0744
 9306SOL     OW39376   1.140   1.305   9.580 -0.2836  0.1321  0.6161
 9306SOL    HW139377   1.116   1.328   9.491 -0.9919 -1.3780  0.4180
 9306SOL    HW239378   1.096   1.375   9.628 -0.8757  0.5864 -0.6091
 9307SOL     OW39379   3.879   4.531   5.107 -0.6033  0.3603 -0.7164
 9307SOL    HW139380   3.808   4.466   5.111 -1.5927  1.4140 -1.0667
 9307SOL    HW239381   3.842   4.590   5.041 -0.0531  0.4546 -0.9443
 9308SOL     OW39382   4.238   4.422   3.584  0.8018  0.2440  0.4759
 9308SOL    HW139383   4.154   4.386   3.558  0.6524  0.6061  0.4639
 9308SOL    HW239384   4.288   4.404   3.505  1.0608 -0.8179  0.8790
 9309SOL     OW39385   4.202   4.683   7.811  0.0899  0.2828 -0.0599
 9309SOL    HW139386   4.174   4.592   7.802  0.9603  0.2915 -2.7258
 9309SOL    HW239387   4.189   4.712   7.721 -0.9576  1.4860  0.4719
 9310SOL     OW39388   1.033   3.706   1.436  0.8465  0.5098  0.1006
 9310SOL    HW139389   1.030   3.667   1.523 -0.0584  0.2182 -0.0541
 9310SOL    HW239390   0.990   3.645   1.376  2.4268 -0.5284  0.0236
 9311SOL     OW39391   4.055   4.182   2.936 -0.1739  0.8624 -0.3219
 9311SOL    HW139392   3.999   4.189   2.859  0.0709  3.0824 -0.3007
 9311SOL    HW239393   3.995   4.140   2.997 -1.9445 -0.7510 -3.1508
 9312SOL     OW39394   2.587   0.629   7.849  0.4561  0.0150  0.1842
 9312SOL    HW139395   2.607   0.700   7.910 -1.4087  1.3294 -0.7204
 9312SOL    HW239396   2.553   0.675   7.772 -1.9563 -0.6319  0.8521
 9313SOL     OW39397   3.586   3.375   4.382 -0.2548  0.4950 -0.0742
 9313SOL    HW139398   3.528   3.450   4.368 -2.6873 -0.9600  2.0659
 9313SOL    HW239399   3.521   3.307   4.400  0.8193 -0.6349 -0.5107
 9314SOL     OW39400   1.437   2.508   7.723 -0.1844  0.1811  0.2570
 9314SOL    HW139401   1.364   2.540   7.669 -1.2019 -0.1308  1.4437
 9314SOL    HW239402   1.403   2.547   7.803  0.9722  0.4953  0.5856
 9315SOL     OW39403   0.653   3.555   1.704 -0.0101  0.3464  0.1890
 9315SOL    HW139404   0.626   3.590   1.788  4.5102  0.8826  1.4533
 9315SOL    HW239405   0.616   3.620   1.644  0.3326  0.0308 -0.3655
 9316SOL     OW39406   0.224   1.537   2.191 -0.0600 -0.1471 -0.2417
 9316SOL    HW139407   0.301   1.484   2.213 -0.1941 -0.4291 -0.4566
 9316SOL    HW239408   0.248   1.569   2.104  1.1584  0.3214  0.2692
 9317SOL     OW39409   0.569   3.611   0.953 -0.0028 -0.2880 -0.1575
 9317SOL    HW139410   0.582   3.705   0.960  0.5507 -0.3526 -0.3620
 9317SOL    HW239411   0.587   3.585   1.044 -1.8420  0.7392  0.5024
 9318SOL     OW39412   0.831   4.707   2.956  0.0159  0.6723 -0.0656
 9318SOL    HW139413   0.914   4.672   2.988  0.2730  2.0427  0.8259
 9318SOL    HW239414   0.848   0.076   2.944 -0.8350  0.8476  0.0886
 9319SOL     OW39415   0.834   4.546  10.034  0.2189 -0.1279  0.1996
 9319SOL    HW139416   0.767   4.578  10.094 -1.9490  0.4828 -2.5186
 9319SOL    HW239417   0.864   4.626   9.991 -1.5357  1.0336  1.1742
 9320SOL     OW39418   3.769   1.760  10.178  0.6510 -0.1619  0.1147
 9320SOL    HW139419   3.824   1.716  10.112 -0.2841 -3.9424  1.8350
 9320SOL    HW239420   3.700   1.694  10.180 -1.0039  1.5809 -0.0293
 9321SOL     OW39421   2.336   4.072   9.148 -0.2540  0.6718  0.1733
 9321SOL    HW139422   2.293   4.066   9.233  0.2953  1.2263  0.4861
 9321SOL    HW239423   2.426   4.061   9.178 -0.3629  1.4283  0.7525
 9322SOL     OW39424   2.940   2.226   6.878  0.4943 -0.3606 -0.2414
 9322SOL    HW139425   2.891   2.280   6.817  1.3975  0.2241 -0.4435
 9322SOL    HW239426   3.029   2.246   6.851  0.0800  0.9926 -0.6146
 9323SOL     OW39427   4.288   2.725   5.567  0.0590  0.0929  0.3250
 9323SOL    HW139428   4.222   2.709   5.500  0.9046  1.1428 -0.7392
 9323SOL    HW239429   4.251   2.676   5.641 -0.3799  2.0822  1.4219
 9324SOL     OW39430   1.606   4.405  13.127  0.1290  0.2022 -1.3983
 9324SOL    HW139431   1.542   4.474  13.143  1.6806  1.8516 -2.3260
 9324SOL    HW239432   1.579   4.337  13.189 -3.2517  1.8596 -1.0203
 9325SOL     OW39433   3.379   3.572   4.354 -0.1317 -0.0212  0.0857
 9325SOL    HW139434   3.311   3.629   4.318 -1.7310 -1.8900  0.0926
 9325SOL    HW239435   3.344   3.559   4.442  0.3284 -0.0988  0.2584
 9326SOL     OW39436   4.678   0.385   0.540  0.3069 -0.1146  0.8000
 9326SOL    HW139437   4.676   0.334   0.621 -3.4666 -1.2958 -0.0452
 9326SOL    HW239438   4.650   0.466   0.582 -1.9633 -0.4321 -0.0856
 9327SOL     OW39439   3.157   0.580   3.302 -0.3871 -0.4346  0.2399
 9327SOL    HW139440   3.239   0.612   3.340 -0.1275 -1.5378  0.6009
 9327SOL    HW239441   3.111   0.545   3.378 -1.4017 -0.5195 -0.4190
 9328SOL     OW39442   0.548   1.230   1.767 -0.3609 -1.0095 -0.1072
 9328SOL    HW139443   0.619   1.168   1.786  0.5814 -0.4595 -1.8114
 9328SOL    HW239444   0.503   1.174   1.703 -1.6545 -2.1605  1.8354
 9329SOL     OW39445   1.938   0.821   5.737  0.1085  0.1839 -0.4550
 9329SOL    HW139446   1.907   0.807   5.648  2.9178 -0.9513 -1.2591
 9329SOL    HW239447   1.857   0.835   5.786  0.4310 -0.4257  0.2596
 9330SOL     OW39448   1.410   4.537   6.045  0.6440  0.6399 -0.0633
 9330SOL    HW139449   1.475   4.466   6.036  1.2343  0.9471  1.9405
 9330SOL    HW239450   1.411   4.562   5.952  0.1876  1.2177  0.0934
 9331SOL     OW39451   3.435   0.199   7.314  0.0989  0.7297  0.6448
 9331SOL    HW139452   3.502   0.164   7.372 -0.5678  1.0257  1.6039
 9331SOL    HW239453   3.357   0.157   7.350 -0.8426  3.1101  1.3783
 9332SOL     OW39454   0.327   2.405   9.502 -0.0001  0.5422  0.0742
 9332SOL    HW139455   0.405   2.455   9.476 -1.5751  2.0808 -1.6751
 9332SOL    HW239456   0.353   2.362   9.584  1.0372 -1.2836 -1.2159
 9333SOL     OW39457   1.705   2.137   0.767  0.2950  0.4221 -0.2635
 9333SOL    HW139458   1.700   2.126   0.861  1.1818 -1.3790 -0.4286
 9333SOL    HW239459   1.799   2.136   0.750  0.1784  0.9516 -0.9559
 9334SOL     OW39460   0.552   0.810  11.537  0.0426 -0.2892 -0.3241
 9334SOL    HW139461   0.625   0.754  11.564  0.7857  0.9980  0.3787
 9334SOL    HW239462   0.580   0.843  11.452  0.8280 -2.6679 -0.9798
 9335SOL     OW39463   3.056   3.558   9.113  0.1792  0.0025  0.4582
 9335SOL    HW139464   3.132   3.528   9.064  1.1429  0.3791  1.7296
 9335SOL    HW239465   3.087   3.562   9.204  0.3069  0.3228  0.4035
 9336SOL     OW39466   1.890   3.651   8.066 -0.6303  0.3173  0.4354
 9336SOL    HW139467   1.960   3.707   8.032 -0.5918  0.1238  0.1925
 9336SOL    HW239468   1.823   3.687   8.008  1.0273 -1.4200 -2.6084
 9337SOL     OW39469   2.491   3.757   2.715  0.8244 -0.1604  0.1199
 9337SOL    HW139470   2.399   3.781   2.702  0.5291 -1.8142 -0.8999
 9337SOL    HW239471   2.540   3.782   2.636  0.2836  0.6949  0.0611
 9338SOL     OW39472   1.344   2.410   1.562 -0.1707 -0.2186  0.1971
 9338SOL    HW139473   1.255   2.400   1.596 -0.8658  0.9733 -1.3176
 9338SOL    HW239474   1.377   2.479   1.620 -0.5748 -0.9799  1.3463
 9339SOL     OW39475   0.608   4.557   1.242  0.3600 -0.1628  0.2430
 9339SOL    HW139476   0.554   4.493   1.195 -0.9190 -0.6235  2.3556
 9339SOL    HW239477   0.692   4.517   1.264  0.1155 -0.0278  1.4344
 9340SOL     OW39478   0.973   4.563   6.564  0.2898  0.0419 -0.0849
 9340SOL    HW139479   0.923   4.592   6.640  1.6563 -1.1026  1.2671
 9340SOL    HW239480   1.047   4.623   6.554 -1.1863  1.6909 -0.9691
 9341SOL     OW39481   0.384   4.144   2.768 -0.4117 -0.0592  0.5224
 9341SOL    HW139482   0.343   4.209   2.710 -0.0191  0.5499  0.9355
 9341SOL    HW239483   0.331   4.167   2.845  0.9768  1.4462  1.0168
 9342SOL     OW39484   2.600   3.785   4.304  0.0196 -0.1929 -0.1326
 9342SOL    HW139485   2.519   3.769   4.255  0.9144 -2.9708 -0.6930
 9342SOL    HW239486   2.619   3.694   4.328  1.8018 -0.5772 -2.9728
 9343SOL     OW39487   3.273   1.913   1.996 -0.1646 -0.0814  0.2872
 9343SOL    HW139488   3.217   1.872   2.063 -0.5174  0.5167  0.3632
 9343SOL    HW239489   3.252   1.867   1.915 -0.7919  0.0624  0.3636
 9344SOL     OW39490   3.323   1.974   6.710  0.2745  0.1160 -0.2808
 9344SOL    HW139491   3.378   1.948   6.636  1.1168 -0.6152  0.6136
 9344SOL    HW239492   3.277   2.055   6.688 -1.1408 -0.5167  0.3449
 9345SOL     OW39493   3.540   3.619  15.801 -0.1094 -0.5139  0.6352
 9345SOL    HW139494   3.526   3.689  15.738  0.3086 -2.3793 -1.5531
 9345SOL    HW239495   3.493   3.549  15.755 -1.7537  0.2318  1.1663
 9346SOL     OW39496   4.327   0.290  15.758  0.2363  0.5729 -0.4872
 9346SOL    HW139497   4.389   0.324  15.822  0.6100  1.5563 -1.3707
 9346SOL    HW239498   4.352   0.340  15.680  1.8628 -1.2955 -1.1765
 9347SOL     OW39499   2.464   2.874   7.321 -0.0641 -0.1937 -0.5917
 9347SOL    HW139500   2.402   2.944   7.341  1.7395  1.6316 -1.3696
 9347SOL    HW239501   2.500   2.896   7.235  0.3746 -0.6443 -0.5280
 9348SOL     OW39502   0.159   3.449   4.497  0.5745 -0.2744  0.5504
 9348SOL    HW139503   0.113   3.435   4.414  1.7484  3.6681 -0.7505
 9348SOL    HW239504   0.110   3.384   4.548 -0.7014 -0.2252 -0.5944
 9349SOL     OW39505   4.645   0.229   3.046 -0.0334 -0.5525 -0.9571
 9349SOL    HW139506   4.673   0.183   2.966  1.7612 -0.2670 -0.4977
 9349SOL    HW239507   4.594   0.299   3.004 -1.6239 -0.4460  1.1630
 9350SOL     OW39508   3.559   3.361   0.240 -0.3690 -0.0945 -0.2554
 9350SOL    HW139509   3.603   3.303   0.302  2.6458  1.9168 -0.5010
 9350SOL    HW239510   3.603   3.444   0.260  0.8264 -0.7954 -0.0005
 9351SOL     OW39511   1.327   2.539   8.004  0.5328  0.4946 -0.8947
 9351SOL    HW139512   1.252   2.487   7.975  0.0029  2.3278 -2.8178
 9351SOL    HW239513   1.297   2.619   7.962  1.3834  1.9579  1.2883
 9352SOL     OW39514   1.278   4.080   6.099  0.4849 -0.3767 -0.4131
 9352SOL    HW139515   1.204   4.096   6.041 -0.6841  0.1980  1.2244
 9352SOL    HW239516   1.249   4.124   6.180 -0.1371 -2.2806  0.3911
 9353SOL     OW39517   1.573   1.694   2.051 -0.0773  0.8340  0.0861
 9353SOL    HW139518   1.564   1.624   2.116 -0.5537  2.1780  1.4690
 9353SOL    HW239519   1.589   1.645   1.971 -0.1456  0.0770  0.5322
 9354SOL     OW39520   2.926   3.441   7.247  0.0374 -0.0191  0.8073
 9354SOL    HW139521   2.859   3.503   7.273 -0.9586  0.4550 -2.9331
 9354SOL    HW239522   2.882   3.385   7.183 -0.2957 -0.6193  1.5732
 9355SOL     OW39523   3.078   0.814   8.193 -0.7767  0.3259 -0.3766
 9355SOL    HW139524   3.131   0.848   8.264  1.1057 -0.3966 -1.4318
 9355SOL    HW239525   3.057   0.882   8.129 -1.8071 -0.8800 -1.3318
 9356SOL     OW39526   1.803   3.375   5.326  0.2183 -0.2033  0.2528
 9356SOL    HW139527   1.732   3.312   5.336  0.7337 -0.7267  0.6377
 9356SOL    HW239528   1.869   3.328   5.377  0.9508  1.8584  1.2041
 9357SOL     OW39529   3.911   3.504   8.948  0.5240  0.1603 -0.0607
 9357SOL    HW139530   3.890   3.413   8.969 -0.8976  0.7233  0.9536
 9357SOL    HW239531   3.946   3.522   9.035  2.1505  0.7471 -0.8333
 9358SOL     OW39532   2.874   2.709   5.014  0.3554 -0.2734  0.0101
 9358SOL    HW139533   2.942   2.718   5.081  1.3784 -0.4023 -1.0171
 9358SOL    HW239534   2.867   2.800   4.985  0.8776  0.5520  2.4378
 9359SOL     OW39535   3.936   1.502   5.784  0.3798 -0.0880  0.7777
 9359SOL    HW139536   3.915   1.475   5.695 -0.6858 -3.1011  1.9298
 9359SOL    HW239537   3.849   1.497   5.824 -0.9408  2.0309 -1.7995
 9360SOL     OW39538   0.640   3.256   6.224 -0.0659  0.1018  0.2132
 9360SOL    HW139539   0.707   3.233   6.288  2.3094  2.1259 -1.5074
 9360SOL    HW239540   0.617   3.164   6.214 -0.8234  0.2631  0.4537
 9361SOL     OW39541   0.785   1.670   6.510 -0.4446 -0.6611 -0.4109
 9361SOL    HW139542   0.706   1.662   6.564 -0.1859  0.1001  0.0811
 9361SOL    HW239543   0.828   1.586   6.526 -1.6163 -0.8693  1.6331
 9362SOL     OW39544   1.694   3.400   4.341  0.0901 -0.1707  0.0898
 9362SOL    HW139545   1.746   3.342   4.396 -1.8143  0.2681  2.3412
 9362SOL    HW239546   1.696   3.473   4.402  0.3738 -1.6665  1.8609
 9363SOL     OW39547   4.222   0.532   3.685  0.0194  0.5168  0.1207
 9363SOL    HW139548   4.280   0.472   3.733  1.0765 -1.0307 -3.1263
 9363SOL    HW239549   4.136   0.492   3.695  0.9791 -1.3183  1.0128
 9364SOL     OW39550   4.586   1.836   5.558 -0.2912  0.0066 -0.3653
 9364SOL    HW139551   4.567   1.907   5.497  1.6370 -0.8630 -1.9574
 9364SOL    HW239552   4.508   1.780   5.561  1.2078 -2.0764 -0.0441
 9365SOL     OW39553   2.885   0.807   6.667  0.1378 -0.0028 -0.5825
 9365SOL    HW139554   2.922   0.792   6.754 -1.1185  1.9370  0.3009
 9365SOL    HW239555   2.811   0.868   6.678 -0.5187 -1.2200  1.6304
 9366SOL     OW39556   4.035   0.420   9.153 -0.1053  0.1940 -0.0721
 9366SOL    HW139557   4.006   0.469   9.230  1.9181  0.1730  0.6937
 9366SOL    HW239558   4.078   0.347   9.196 -0.3710  0.7714  1.1831
 9367SOL     OW39559   3.452   0.662   6.786  0.4344 -0.1513  0.2143
 9367SOL    HW139560   3.420   0.604   6.856  0.1737 -0.2189  0.0359
 9367SOL    HW239561   3.474   0.599   6.718 -0.7069 -1.8768  1.4447
 9368SOL     OW39562   1.921   3.893   1.837 -0.9540 -0.6643  0.5804
 9368SOL    HW139563   1.939   3.842   1.758 -1.3687  0.0739  0.0173
 9368SOL    HW239564   1.990   3.857   1.892  2.0544 -0.1763 -2.8673
 9369SOL     OW39565   2.080   3.863   2.383 -0.4712  0.3941 -0.4601
 9369SOL    HW139566   1.998   3.867   2.431  0.5784  0.8889  1.2948
 9369SOL    HW239567   2.054   3.846   2.292  3.8230 -0.7177 -1.4735
 9370SOL     OW39568   1.788   4.302  10.082  0.5954  0.0862  0.2166
 9370SOL    HW139569   1.877   4.277  10.108  0.8652  2.1811  1.2675
 9370SOL    HW239570   1.802   4.362  10.010  0.4728  1.0142  0.9660
 9371SOL     OW39571   3.166   2.619   4.035  0.3084 -0.3606  0.1965
 9371SOL    HW139572   3.142   2.711   4.020  1.2150 -0.3623 -1.3210
 9371SOL    HW239573   3.260   2.614   4.015  0.0765  0.4174 -1.1473
 9372SOL     OW39574   2.902   0.555   3.056 -0.6718  0.5074  0.0611
 9372SOL    HW139575   2.865   0.554   2.967 -1.0752  1.8433  0.2215
 9372SOL    HW239576   2.840   0.496   3.097  0.0928  1.0497  1.9984
 9373SOL     OW39577   2.306   0.580  15.899 -0.4880  0.4812  0.3110
 9373SOL    HW139578   2.348   0.528  15.829  0.0650  1.9387 -0.4450
 9373SOL    HW239579   2.351   0.551  15.978 -0.9399 -0.0995  0.3508
 9374SOL     OW39580   3.558   1.123  13.874  0.1399  0.5059 -0.4691
 9374SOL    HW139581   3.591   1.103  13.786 -0.1298 -1.2023 -0.1769
 9374SOL    HW239582   3.495   1.188  13.843 -1.0925 -1.0987 -1.3264
 9375SOL     OW39583   2.968   0.412   6.476 -0.1570  0.2720  0.6804
 9375SOL    HW139584   2.875   0.433   6.486 -0.2261  1.0666 -1.6507
 9375SOL    HW239585   2.971   0.402   6.381 -1.5217  3.0009  0.3378
 9376SOL     OW39586   1.575   2.268  10.670  0.1480 -0.4907 -0.3904
 9376SOL    HW139587   1.480   2.271  10.676  0.1959  2.6917 -1.0618
 9376SOL    HW239588   1.589   2.339  10.607  0.1190  1.4196  1.7658
 9377SOL     OW39589   3.159   3.611   4.005 -0.1522  0.0419 -0.2996
 9377SOL    HW139590   3.152   3.650   3.917 -1.3388 -0.6140 -0.5023
 9377SOL    HW239591   3.248   3.578   4.010 -0.5616 -1.0978 -0.6174
 9378SOL     OW39592   0.482   0.502  11.213 -0.5453 -0.2047 -0.6245
 9378SOL    HW139593   0.417   0.460  11.270 -1.7734  1.3702 -0.8844
 9378SOL    HW239594   0.450   0.591  11.224 -0.1951 -0.4431  2.4449
 9379SOL     OW39595   1.072   0.794   9.303  0.0976 -0.2164 -0.4497
 9379SOL    HW139596   1.008   0.786   9.232  0.4754 -0.6882 -0.7375
 9379SOL    HW239597   1.107   0.883   9.298  0.6409 -0.4149 -0.0694
 9380SOL     OW39598   1.968   1.239   2.088 -0.4892  0.1671 -0.0686
 9380SOL    HW139599   1.975   1.145   2.070  2.6094  0.4673 -0.4664
 9380SOL    HW239600   1.992   1.270   2.001 -0.7959 -0.0116 -0.2161
 9381SOL     OW39601   4.479   4.406   3.400  0.0605 -0.1201 -0.5280
 9381SOL    HW139602   4.513   4.320   3.423 -0.7934  0.3355  2.4664
 9381SOL    HW239603   4.562   4.454   3.402  0.1497 -0.2872 -0.3158
 9382SOL     OW39604   0.744   1.918   2.976 -0.1557  0.0631  0.1956
 9382SOL    HW139605   0.701   1.938   2.893 -1.0866  0.4412  0.7708
 9382SOL    HW239606   0.744   1.824   2.995 -1.1327 -0.3356 -1.8084
 9383SOL     OW39607   4.629   1.958   3.881  1.1239  0.3457  0.6449
 9383SOL    HW139608   4.555   1.999   3.836  0.7905 -0.7843  0.1506
 9383SOL    HW239609   4.604   1.870   3.911 -1.0135 -0.0064 -2.1694
 9384SOL     OW39610   0.316   0.101   8.168  0.3150 -0.6273 -0.3402
 9384SOL    HW139611   0.281   0.019   8.203 -2.1616 -0.3990 -2.2514
 9384SOL    HW239612   0.274   0.117   8.083 -1.1525 -0.0176  0.4927
 9385SOL     OW39613   3.814   1.461   4.612 -0.0601 -0.2558 -0.3133
 9385SOL    HW139614   3.899   1.430   4.582  0.4469  1.4272 -0.5631
 9385SOL    HW239615   3.833   1.550   4.639 -0.9450  0.0336 -0.6281
 9386SOL     OW39616   0.710   1.028  12.416  0.2221 -0.7989 -0.0712
 9386SOL    HW139617   0.781   1.053  12.356  1.4559 -0.5670  1.4788
 9386SOL    HW239618   0.661   1.110  12.418 -0.7689 -1.4022  0.0700
 9387SOL     OW39619   1.784   0.276   3.660  0.1280  0.2202  0.1815
 9387SOL    HW139620   1.745   0.363   3.661  0.7743  0.4785  1.9254
 9387SOL    HW239621   1.728   0.237   3.593  0.3424 -0.5957  0.4722
 9388SOL     OW39622   3.779   0.572   4.719  0.5393 -0.3139  0.1711
 9388SOL    HW139623   3.815   0.648   4.674 -1.1523  2.0039  2.6979
 9388SOL    HW239624   3.843   0.554   4.788  0.2306  0.9169  0.7850
 9389SOL     OW39625   4.126   2.425   9.938  0.2748  0.2992  0.2039
 9389SOL    HW139626   4.130   2.479  10.017  0.0124 -1.2662  1.2785
 9389SOL    HW239627   4.094   2.484   9.870 -0.4841 -1.8774 -1.3028
 9390SOL     OW39628   1.971   2.842   1.603  0.0044  0.2519  0.2697
 9390SOL    HW139629   1.902   2.783   1.570  0.1960 -1.2984  2.6550
 9390SOL    HW239630   1.924   2.916   1.641  1.1645  1.2711 -0.3071
 9391SOL     OW39631   2.243   2.678   2.097 -0.4951  0.1089  0.6333
 9391SOL    HW139632   2.148   2.681   2.082 -1.0081 -0.4431  3.7412
 9391SOL    HW239633   2.279   2.665   2.009  1.4365  2.5481  1.0870
 9392SOL     OW39634   1.656   2.596   2.802 -0.4961 -0.3448 -0.2131
 9392SOL    HW139635   1.610   2.660   2.856 -1.2544 -0.8283 -0.2922
 9392SOL    HW239636   1.749   2.617   2.813 -0.2745 -0.7314 -1.3463
 9393SOL     OW39637   4.522   1.911   0.519 -0.3536  0.0002 -0.0255
 9393SOL    HW139638   4.607   1.872   0.542  0.0409  1.0126  0.2249
 9393SOL    HW239639   4.545   1.958   0.439 -1.2965  0.1821 -0.1882
 9394SOL     OW39640   2.618   3.367   1.484 -0.2576 -0.6359 -0.1635
 9394SOL    HW139641   2.523   3.380   1.482 -0.1994 -0.0629  0.8869
 9394SOL    HW239642   2.616   3.286   1.534  0.5765 -0.6346 -0.1330
 9395SOL     OW39643   3.675   0.086   4.102  0.1419 -0.0524  0.2994
 9395SOL    HW139644   3.680   4.715   4.101  1.4155  0.0217  0.2494
 9395SOL    HW239645   3.643   0.109   4.189  0.5619 -0.9524  0.6877
 9396SOL     OW39646   3.767   4.486   2.104 -0.0400  0.0792 -0.0236
 9396SOL    HW139647   3.714   4.490   2.024  1.0167  0.9251 -0.6764
 9396SOL    HW239648   3.790   4.393   2.113 -0.5881  0.1048  1.5665
 9397SOL     OW39649   0.809   2.427  15.570 -0.0940  0.5815 -0.4113
 9397SOL    HW139650   0.891   2.428  15.619 -0.8564  0.1814  0.8576
 9397SOL    HW239651   0.837   2.399  15.482 -0.3021 -0.4440 -0.1570
 9398SOL     OW39652   3.034   1.906   0.925  0.5102 -0.2561  0.4707
 9398SOL    HW139653   3.047   1.994   0.891  1.7885 -0.9142 -0.7581
 9398SOL    HW239654   3.066   1.858   0.848  0.5723 -0.1914  0.4559
 9399SOL     OW39655   1.292   3.545  12.100  0.2693  0.0047 -0.4570
 9399SOL    HW139656   1.224   3.600  12.139  0.2511 -0.4279  0.1186
 9399SOL    HW239657   1.317   3.593  12.021  0.2140 -0.2621 -0.6341
 9400SOL     OW39658   1.534   4.526   5.566  0.0706 -0.3910 -0.3906
 9400SOL    HW139659   1.586   4.447   5.576 -1.6634 -1.6327 -1.2116
 9400SOL    HW239660   1.590   4.586   5.517  0.2330 -0.6640 -0.5371
 9401SOL     OW39661   0.657   3.411   2.352  0.2222 -0.3157 -0.0683
 9401SOL    HW139662   0.590   3.345   2.368  0.4734 -0.4069  0.5996
 9401SOL    HW239663   0.720   3.378   2.288  0.4252 -1.0265  0.4986
 9402SOL     OW39664   3.956   3.732   6.428  0.0655 -0.4437  0.2824
 9402SOL    HW139665   3.872   3.693   6.452 -0.0977 -1.0491 -1.2812
 9402SOL    HW239666   3.952   3.812   6.480 -0.3893 -0.6177  0.5170
 9403SOL     OW39667   3.699   4.173   0.294  0.1132  0.6772 -0.2752
 9403SOL    HW139668   3.689   4.248   0.351 -2.1655  0.1035  0.0875
 9403SOL    HW239669   3.782   4.129   0.311 -0.6943 -1.5804 -2.0472
 9404SOL     OW39670   2.298   2.719   1.060  0.1341  0.7027  0.6432
 9404SOL    HW139671   2.338   2.777   0.996 -0.4753 -0.2480 -0.5991
 9404SOL    HW239672   2.207   2.748   1.070 -0.0050  0.3170  0.5078
 9405SOL     OW39673   4.275   3.901   2.905  0.0665 -0.1771  0.2287
 9405SOL    HW139674   4.342   3.966   2.884  0.0548 -0.5055 -0.8143
 9405SOL    HW239675   4.213   3.909   2.832 -0.1058 -1.8191  0.2021
 9406SOL     OW39676   3.761   1.716   8.358 -0.4796 -0.3157  0.5959
 9406SOL    HW139677   3.677   1.730   8.313  0.2416  0.8200 -0.3849
 9406SOL    HW239678   3.802   1.653   8.299 -1.2805 -0.2676 -0.0154
 9407SOL     OW39679   4.645   2.727  17.354 -0.0282  0.1016 -0.0340
 9407SOL    HW139680   4.690   2.809  17.373  0.6180 -0.2386 -0.0739
 9407SOL    HW239681   4.601   2.703  17.435 -1.0872  1.8615 -0.1025
 9408SOL     OW39682   1.443   2.068   8.969 -0.4256 -0.2021  0.3385
 9408SOL    HW139683   1.357   2.030   8.952 -0.8997  0.5595  1.0216
 9408SOL    HW239684   1.429   2.162   8.967  2.9341  0.3339  1.2490
 9409SOL     OW39685   4.239   0.020   4.753 -0.0598 -0.2506 -0.2847
 9409SOL    HW139686   4.155   4.707   4.779 -0.3924  2.4082  2.5305
 9409SOL    HW239687   4.301   4.673   4.742  0.4257 -0.1155  1.6989
 9410SOL     OW39688   0.495   1.440   2.240  0.1716 -0.9134  0.0614
 9410SOL    HW139689   0.492   1.363   2.182  0.5227  0.1604 -1.3863
 9410SOL    HW239690   0.583   1.472   2.221 -1.5834  2.1422 -2.8735
 9411SOL     OW39691   1.510   0.293  15.818  0.0017 -0.0796 -0.3960
 9411SOL    HW139692   1.536   0.381  15.844  0.8759 -0.7945  1.1362
 9411SOL    HW239693   1.515   0.243  15.899 -0.1963  0.7064  0.0955
 9412SOL     OW39694   3.976   1.904   3.917 -0.2903  0.8266 -0.2643
 9412SOL    HW139695   3.939   1.816   3.921  0.2253  0.7182  1.9928
 9412SOL    HW239696   4.062   1.897   3.959  0.0579 -1.3280 -1.3396
 9413SOL     OW39697   2.824   3.732  16.120  0.5942 -0.4171 -0.3979
 9413SOL    HW139698   2.766   3.786  16.173  0.3067 -0.6462 -0.4787
 9413SOL    HW239699   2.760   3.721  16.050 -0.1221  2.3018 -0.1540
 9414SOL     OW39700   1.254   2.224   4.556  0.2388  0.5419 -0.1283
 9414SOL    HW139701   1.212   2.154   4.506  0.3066 -0.1089  0.7212
 9414SOL    HW239702   1.183   2.238   4.620  0.1221 -2.0072  0.2972
 9415SOL     OW39703   0.477   0.512   7.052 -0.0092 -0.5017 -0.2547
 9415SOL    HW139704   0.481   0.428   7.099  0.6008  0.1017  0.7856
 9415SOL    HW239705   0.393   0.508   7.008  0.2442  0.2822 -0.8122
 9416SOL     OW39706   0.017   1.981   2.546  0.0539  0.1380  0.2206
 9416SOL    HW139707   4.650   2.010   2.547  0.8964  2.8345 -0.5332
 9416SOL    HW239708   0.008   1.908   2.485  1.4758  0.1212  0.0505
 9417SOL     OW39709   2.335   0.202   5.695 -0.2489 -0.5165 -0.7405
 9417SOL    HW139710   2.355   0.271   5.759 -2.6101  1.4664 -2.1254
 9417SOL    HW239711   2.423   0.200   5.657 -0.5405 -0.4905 -1.4117
 9418SOL     OW39712   0.536   3.316   6.836 -0.1017 -0.2187 -0.2104
 9418SOL    HW139713   0.573   3.396   6.873 -1.0070 -1.6748  3.7648
 9418SOL    HW239714   0.528   3.347   6.745 -0.9049 -0.0096 -0.0754
 9419SOL     OW39715   4.062   4.373   8.430 -0.3251  0.6566 -0.0350
 9419SOL    HW139716   4.141   4.427   8.439 -0.6949  1.0961  0.5267
 9419SOL    HW239717   4.017   4.396   8.349 -2.5804  0.0422  1.0571
 9420SOL     OW39718   0.705   2.422  10.701  0.4860 -0.1288 -0.1329
 9420SOL    HW139719   0.679   2.413  10.609  0.4566 -3.4660  0.1891
 9420SOL    HW239720   0.789   2.466  10.686  1.6910 -2.1695  0.6398
 9421SOL     OW39721   0.907   1.590  11.697  0.0718  0.2788  0.6168
 9421SOL    HW139722   0.896   1.684  11.712  1.1996  0.3126  1.2490
 9421SOL    HW239723   0.984   1.586  11.640  1.2121  0.6168  2.1414
 9422SOL     OW39724   4.303   3.567   6.971 -0.3031 -0.6972  0.4921
 9422SOL    HW139725   4.388   3.571   6.927 -0.5678 -2.7907 -0.2486
 9422SOL    HW239726   4.249   3.624   6.916  0.8220  1.9893  2.1639
 9423SOL     OW39727   0.705   0.147   8.272 -0.3900 -0.3659 -0.1613
 9423SOL    HW139728   0.798   0.148   8.249  0.5938 -1.3531  3.7615
 9423SOL    HW239729   0.680   0.092   8.198 -0.3581  3.0126 -2.7124
 9424SOL     OW39730   1.621   3.994   3.489 -0.2409 -0.4568 -0.2749
 9424SOL    HW139731   1.698   4.050   3.488 -0.8009  0.3108 -2.3280
 9424SOL    HW239732   1.657   3.913   3.453 -0.5724  0.1424 -1.9570
 9425SOL     OW39733   1.017   0.560   1.434  0.8104 -0.0753 -0.1837
 9425SOL    HW139734   0.966   0.512   1.369  2.8835  0.4951 -2.2064
 9425SOL    HW239735   1.099   0.537   1.392  0.0870 -1.8771 -0.6080
 9426SOL     OW39736   3.103   3.974   4.083 -0.6048  0.4466 -0.0886
 9426SOL    HW139737   3.109   3.968   3.987  0.1077  0.2730 -0.0336
 9426SOL    HW239738   3.079   4.066   4.085 -2.2251 -0.0542  2.3355
 9427SOL     OW39739   4.182   2.793   9.779 -0.0919 -0.2604  0.0558
 9427SOL    HW139740   4.189   2.876   9.827  1.1624 -1.1151  1.3400
 9427SOL    HW239741   4.249   2.741   9.823  1.7520  1.5997 -0.5575
 9428SOL     OW39742   2.503   1.012  11.370  0.0526 -0.0890  0.4589
 9428SOL    HW139743   2.484   1.100  11.336 -0.7663 -0.7423 -0.7652
 9428SOL    HW239744   2.415   0.981  11.392  0.6963  0.0123  3.0918
 9429SOL     OW39745   2.462   4.601   6.172 -0.3059 -0.3003  0.2142
 9429SOL    HW139746   2.428   4.661   6.105  0.5288 -0.5145 -0.3918
 9429SOL    HW239747   2.379   4.566   6.206 -0.1895  0.7537  1.6057
 9430SOL     OW39748   4.292   0.403  15.113  0.1925  0.0343 -0.0813
 9430SOL    HW139749   4.379   0.368  15.134 -0.2364 -1.6252 -1.0121
 9430SOL    HW239750   4.234   0.367  15.181 -2.1241  2.7370 -0.6571
 9431SOL     OW39751   1.494   0.585   7.575 -0.2768  0.1480  0.3786
 9431SOL    HW139752   1.412   0.623   7.543  0.9703  0.2721 -2.6543
 9431SOL    HW239753   1.524   0.540   7.496  0.4929  0.8262  0.2941
 9432SOL     OW39754   3.513   1.752   8.201 -0.1319  0.5443 -0.1477
 9432SOL    HW139755   3.439   1.792   8.248 -0.0358  1.1970 -0.5516
 9432SOL    HW239756   3.472   1.672   8.169 -3.5960  1.1106  2.8084
 9433SOL     OW39757   2.937   4.535   7.235  0.0944  0.5991 -0.4840
 9433SOL    HW139758   3.019   4.486   7.227  1.1133  1.8346  2.3082
 9433SOL    HW239759   2.909   4.515   7.324  0.9361  3.9610  0.5619
 9434SOL     OW39760   2.222   0.742   9.568  0.4407  0.1438 -0.0404
 9434SOL    HW139761   2.293   0.803   9.588  1.5427 -0.8826 -0.8211
 9434SOL    HW239762   2.152   0.793   9.611  0.1724 -0.8080  0.6381
 9435SOL     OW39763   4.624   0.430   8.507  0.2406  0.4660 -0.7299
 9435SOL    HW139764   4.627   0.345   8.463 -1.4339  0.3337 -0.5639
 9435SOL    HW239765   4.717   0.452   8.503  0.5256 -0.6008  0.0706
 9436SOL     OW39766   3.049   2.628  15.662  0.1397  0.0149  0.6776
 9436SOL    HW139767   3.050   2.723  15.669 -1.7597  0.2705 -2.6208
 9436SOL    HW239768   3.016   2.608  15.574 -0.9563  0.2194  1.0377
 9437SOL     OW39769   4.633   1.446   6.903  0.6761 -0.0659 -0.4531
 9437SOL    HW139770   4.547   1.467   6.940  0.6315 -1.0131 -0.0106
 9437SOL    HW239771   4.614   1.353   6.892  2.5095 -0.4317 -0.4169
 9438SOL     OW39772   0.608   3.793   1.569 -0.2566 -0.3910  0.3804
 9438SOL    HW139773   0.565   3.827   1.647 -2.6418  1.7554 -1.8568
 9438SOL    HW239774   0.680   3.856   1.561 -0.1768 -0.6578 -1.0438
 9439SOL     OW39775   0.628   2.285  13.738  0.3653  0.5114  0.3022
 9439SOL    HW139776   0.712   2.310  13.699  1.7069 -2.7452  1.0813
 9439SOL    HW239777   0.663   2.218  13.797  1.9433  0.2126 -0.9587
 9440SOL     OW39778   0.216   2.025   5.227  0.0701  0.3102 -0.5307
 9440SOL    HW139779   0.279   2.089   5.197  2.3297 -1.2149  0.9938
 9440SOL    HW239780   0.188   2.058   5.312 -1.1967  0.1231 -0.8721
 9441SOL     OW39781   2.128   0.560   8.210 -0.2703 -0.4676 -0.1475
 9441SOL    HW139782   2.157   0.595   8.294 -0.5153  0.9620 -0.6546
 9441SOL    HW239783   2.093   0.640   8.169  4.2628  1.2727 -0.6004
 9442SOL     OW39784   1.424   3.436  15.342 -0.2156  0.4281  0.2833
 9442SOL    HW139785   1.415   3.347  15.378  3.0514 -0.1861 -0.4163
 9442SOL    HW239786   1.455   3.416  15.253 -0.1722 -0.6076  0.5302
 9443SOL     OW39787   3.927   3.282  13.814  0.4243 -0.3531  0.0362
 9443SOL    HW139788   3.870   3.206  13.803 -0.7235  0.3746  0.9507
 9443SOL    HW239789   3.864   3.352  13.799  3.0749  1.3350 -2.9833
 9444SOL     OW39790   1.687   3.680   4.488  0.3547 -0.0955  0.3686
 9444SOL    HW139791   1.730   3.766   4.496  2.3850 -1.2308  1.8006
 9444SOL    HW239792   1.619   3.710   4.429 -1.5402 -1.1403  2.0222
 9445SOL     OW39793   0.143   0.661   6.500 -0.5070 -0.1067  0.7036
 9445SOL    HW139794   0.054   0.686   6.524 -0.6998 -0.6915  0.6253
 9445SOL    HW239795   0.131   0.566   6.499  0.3023 -0.2015 -0.9400
 9446SOL     OW39796   2.926   0.740  14.483 -0.4296  0.1380  0.6113
 9446SOL    HW139797   2.909   0.772  14.395  1.8283 -0.1890  0.0497
 9446SOL    HW239798   2.908   0.819  14.534 -0.6112  0.8039 -0.4966
 9447SOL     OW39799   2.774   1.929   9.874  0.4305  0.3269  0.3591
 9447SOL    HW139800   2.734   1.862   9.930  1.9669  0.0698  1.1548
 9447SOL    HW239801   2.848   1.960   9.926  0.6365  0.7558 -0.1973
 9448SOL     OW39802   2.925   1.211  14.916  0.1208 -0.0118  0.2186
 9448SOL    HW139803   2.968   1.293  14.892 -0.6064  0.0315 -0.9441
 9448SOL    HW239804   3.002   1.153  14.912  0.8875  1.1387 -1.5974
 9449SOL     OW39805   3.540   2.952   1.702  0.2299 -0.5445  0.1520
 9449SOL    HW139806   3.542   2.909   1.616  1.0533 -1.4081  0.6144
 9449SOL    HW239807   3.445   2.954   1.713  0.3280  1.3261  0.6386
 9450SOL     OW39808   2.412   3.304  16.242 -0.1996 -0.2957 -0.4274
 9450SOL    HW139809   2.485   3.249  16.214  1.1237  0.6062  1.2924
 9450SOL    HW239810   2.376   3.250  16.313 -1.2219  1.1130  0.1262
 9451SOL     OW39811   2.945   1.649   1.785 -0.4220 -0.2743 -0.4772
 9451SOL    HW139812   2.850   1.642   1.789 -0.3778 -0.5747  0.0619
 9451SOL    HW239813   2.959   1.658   1.691  2.0088 -1.7031 -0.2583
 9452SOL     OW39814   4.579   0.062   3.450 -0.0811  0.2055 -0.2342
 9452SOL    HW139815   4.638   0.135   3.428 -0.3966  0.5611  0.1135
 9452SOL    HW239816   4.506   0.113   3.483 -0.6016 -1.2714  0.8783
 9453SOL     OW39817   3.268   2.278   7.111  0.0719 -0.1400  0.1482
 9453SOL    HW139818   3.194   2.256   7.168  0.8906 -0.0412  1.2556
 9453SOL    HW239819   3.345   2.264   7.166 -0.2324 -0.4479  0.4982
 9454SOL     OW39820   3.304   2.150  10.225  0.2156 -0.2807 -0.1860
 9454SOL    HW139821   3.297   2.124  10.133  0.1856  1.9466 -0.8018
 9454SOL    HW239822   3.217   2.186  10.245 -1.4025 -3.5860 -1.1429
 9455SOL     OW39823   4.586   1.808   8.855  0.6901 -0.0037 -0.2502
 9455SOL    HW139824   4.651   1.863   8.899  0.5296 -0.1846  0.2122
 9455SOL    HW239825   4.647   1.739   8.833  0.6089 -0.3902  0.7428
 9456SOL     OW39826   3.389   0.502   6.171 -0.5912 -0.5160  0.7474
 9456SOL    HW139827   3.444   0.517   6.094 -0.6424  1.2449  1.0486
 9456SOL    HW239828   3.309   0.461   6.138  1.6116 -2.9213 -1.5867
 9457SOL     OW39829   0.978   3.619   9.612  0.8351  0.4587 -0.3071
 9457SOL    HW139830   1.056   3.598   9.663  1.5475 -0.1259 -1.6422
 9457SOL    HW239831   1.019   3.670   9.542 -0.9697  0.2227 -1.5248
 9458SOL     OW39832   4.484   1.601   2.619  0.3533  0.4938  0.1924
 9458SOL    HW139833   4.539   1.642   2.686  1.4950  0.4400 -0.7235
 9458SOL    HW239834   4.416   1.561   2.674  1.2462 -0.5538  0.5299
 9459SOL     OW39835   2.873   3.923   7.970  0.3184  0.6088 -0.2335
 9459SOL    HW139836   2.926   3.985   8.021  0.2106 -0.6956  1.5022
 9459SOL    HW239837   2.828   3.973   7.902  1.5816  0.7475 -0.9810
 9460SOL     OW39838   3.589   3.190  16.838 -0.0890 -0.3460  0.0654
 9460SOL    HW139839   3.637   3.226  16.763 -1.0347 -0.0030 -0.3828
 9460SOL    HW239840   3.610   3.257  16.903 -0.9529 -0.3533  0.3570
 9461SOL     OW39841   3.192   1.473   9.103  0.3364  0.4107 -0.2599
 9461SOL    HW139842   3.126   1.408   9.127 -0.3596  0.3469 -2.3299
 9461SOL    HW239843   3.126   1.542   9.090 -1.0581 -0.8643  0.0168
 9462SOL     OW39844   3.963   0.429   3.782 -0.3289  0.1821 -0.2333
 9462SOL    HW139845   3.892   0.445   3.720 -1.3880  1.8270  1.4040
 9462SOL    HW239846   3.936   0.342   3.812  1.2422 -0.3744 -0.4255
 9463SOL     OW39847   3.552   4.049  15.917  0.3325  0.0438  0.3187
 9463SOL    HW139848   3.515   4.023  16.001  0.9107 -2.0622 -0.0818
 9463SOL    HW239849   3.539   4.143  15.931 -1.5296  0.0204 -1.3344
 9464SOL     OW39850   4.510   3.783  13.885  0.5557 -0.1973 -0.2941
 9464SOL    HW139851   4.476   3.819  13.803 -0.0548  1.3789  0.6362
 9464SOL    HW239852   4.458   3.837  13.946  0.6214 -0.7216  0.2336
 9465SOL     OW39853   3.919   1.485   5.045 -0.6517 -0.2093 -0.4349
 9465SOL    HW139854   3.996   1.492   4.988 -1.1577 -3.6588 -1.5521
 9465SOL    HW239855   3.909   1.391   5.033  0.3618 -0.0884 -2.1657
 9466SOL     OW39856   4.289   0.906   4.539 -0.2689 -0.6322  0.2179
 9466SOL    HW139857   4.341   0.986   4.537  1.4362 -1.7588 -0.7569
 9466SOL    HW239858   4.228   0.933   4.607 -0.0975 -0.2284  0.2084
 9467SOL     OW39859   0.690   3.231  10.682  0.0699 -0.1192  0.2029
 9467SOL    HW139860   0.651   3.317  10.698  1.3296  0.9129 -2.3216
 9467SOL    HW239861   0.640   3.211  10.603 -2.5586 -1.3741  2.1598
 9468SOL     OW39862   1.380   4.149   6.765  0.1655 -0.7215  0.8174
 9468SOL    HW139863   1.316   4.077   6.768 -0.9495  0.1828 -1.5510
 9468SOL    HW239864   1.455   4.119   6.815 -0.0912 -0.1901  1.5204
 9469SOL     OW39865   0.320   2.695   2.711 -0.4579 -0.4538  0.2228
 9469SOL    HW139866   0.396   2.753   2.712  0.8353 -2.1140 -1.6554
 9469SOL    HW239867   0.365   2.613   2.690 -2.2454 -1.4562  0.2880
 9470SOL     OW39868   3.784   0.528  15.615 -0.2690  0.4244  0.1769
 9470SOL    HW139869   3.716   0.595  15.608 -0.5300  0.1344 -0.0384
 9470SOL    HW239870   3.851   0.594  15.633  0.2762 -0.2855  0.8011
 9471SOL     OW39871   2.478   0.427   2.663  0.2026 -0.0202  0.2402
 9471SOL    HW139872   2.413   0.367   2.625  2.7851 -3.5495  1.3576
 9471SOL    HW239873   2.546   0.371   2.700 -0.2970  0.2812  1.5892
 9472SOL     OW39874   2.166   2.419   4.045  0.2900 -0.0249 -0.0063
 9472SOL    HW139875   2.107   2.493   4.059 -0.2892 -0.7503  1.4275
 9472SOL    HW239876   2.121   2.373   4.116  0.3707  1.1610  0.8166
 9473SOL     OW39877   2.880   0.167  13.601  0.2068  0.3366 -0.4939
 9473SOL    HW139878   2.917   0.224  13.669 -1.5647  0.0194  0.7153
 9473SOL    HW239879   2.951   0.103  13.608 -0.8202 -0.5885  1.3602
 9474SOL     OW39880   4.550   2.633  17.607 -0.2823  0.1108 -0.1117
 9474SOL    HW139881   4.630   2.605  17.651 -0.2840 -0.1880 -0.3019
 9474SOL    HW239882   4.543   2.728  17.619 -1.2262  0.2037 -1.2795
 9475SOL     OW39883   2.487   0.456  16.085  0.1403 -0.1711  0.5791
 9475SOL    HW139884   2.520   0.380  16.036  0.2941 -0.0913  0.5592
 9475SOL    HW239885   2.445   0.422  16.164 -0.6564  0.5632  0.4641
 9476SOL     OW39886   4.197   2.217  12.299 -0.1251 -0.0990  0.1582
 9476SOL    HW139887   4.179   2.214  12.205 -1.6092  1.3031  0.4048
 9476SOL    HW239888   4.158   2.298  12.330  0.1782  0.4200 -0.8112
 9477SOL     OW39889   0.849   0.871   5.173  0.0803  0.3180 -0.3163
 9477SOL    HW139890   0.875   0.963   5.175 -2.4173  1.0089  0.1015
 9477SOL    HW239891   0.891   0.836   5.251  1.3562  1.0117 -0.6936
 9478SOL     OW39892   2.647   2.318   6.398  0.3280  0.4181  0.5045
 9478SOL    HW139893   2.678   2.346   6.312  0.6172  1.4800  0.9567
 9478SOL    HW239894   2.605   2.235   6.377 -1.8466  1.5854  0.2628
 9479SOL     OW39895   0.030   0.133  14.268  0.1689 -0.2598 -0.2306
 9479SOL    HW139896   4.713   0.218  14.283  1.3280  0.3399 -0.4032
 9479SOL    HW239897   4.681   0.076  14.290 -0.1261  0.5726  0.9698
 9480SOL     OW39898   1.347   0.142   3.709 -0.4646  0.3270  0.1868
 9480SOL    HW139899   1.375   0.077   3.644 -2.1041 -0.4369  0.2553
 9480SOL    HW239900   1.420   0.135   3.770  0.3858 -0.8076 -0.9364
 9481SOL     OW39901   4.139   0.054   7.578  0.6242 -0.3399 -0.1087
 9481SOL    HW139902   4.122   0.147   7.561  0.4568 -0.7660 -2.3667
 9481SOL    HW239903   4.061   0.009   7.546  0.1364 -1.1308  2.2469
 9482SOL     OW39904   1.622   0.047   6.711  0.1255  0.0163 -0.3070
 9482SOL    HW139905   1.611   0.042   6.805 -1.0107 -2.4501 -0.5854
 9482SOL    HW239906   1.532   0.076   6.693 -1.1208 -3.8594 -0.3051
 9483SOL     OW39907   2.779   2.529   8.349 -0.0290  0.0001  0.2003
 9483SOL    HW139908   2.725   2.486   8.283 -0.0130 -0.4872  0.5111
 9483SOL    HW239909   2.787   2.618   8.314 -1.0332 -0.1012 -0.3012
 9484SOL     OW39910   3.700   3.411   7.177  0.6156  0.4230  0.1629
 9484SOL    HW139911   3.652   3.417   7.259  1.6292  1.5549  0.6816
 9484SOL    HW239912   3.752   3.331   7.187 -0.4480 -0.5297 -1.9766
 9485SOL     OW39913   0.322   4.035   5.796 -0.0135 -0.1955  0.2516
 9485SOL    HW139914   0.385   3.990   5.852  0.3967  1.4990  1.1483
 9485SOL    HW239915   0.236   4.019   5.833  0.5294  0.1451  1.6420
 9486SOL     OW39916   1.826   2.844   7.080  0.4675  0.0499  0.3682
 9486SOL    HW139917   1.868   2.845   6.995 -1.1315  0.5448 -0.4203
 9486SOL    HW239918   1.863   2.920   7.124  2.4359  0.3664 -1.8443
 9487SOL     OW39919   1.792   2.978   2.709 -0.1512 -1.0619  0.2842
 9487SOL    HW139920   1.869   3.025   2.740 -1.9747  2.5032 -0.4939
 9487SOL    HW239921   1.802   2.897   2.759 -0.9696 -1.3001  0.0755
 9488SOL     OW39922   3.056   0.035   5.661  0.3882  1.2481 -0.3380
 9488SOL    HW139923   3.046   0.047   5.567  2.0646 -1.2369 -0.8437
 9488SOL    HW239924   2.977   0.064   5.707  0.3992 -0.8200  0.9738
 9489SOL     OW39925   3.939   2.197   2.285  0.4001 -0.1921  0.0812
 9489SOL    HW139926   3.938   2.142   2.207  0.6996  0.2325 -0.2224
 9489SOL    HW239927   4.019   2.245   2.266  1.7476 -2.0392  1.1472
 9490SOL     OW39928   2.269   4.355  13.283 -0.1796  0.0384 -0.1010
 9490SOL    HW139929   2.182   4.326  13.255  0.4944 -0.4693 -1.7105
 9490SOL    HW239930   2.291   4.278  13.337  1.7459 -0.2162 -1.2171
 9491SOL     OW39931   2.441   3.134   6.597  0.1378 -0.1364 -0.4512
 9491SOL    HW139932   2.390   3.053   6.599 -0.9872  0.5633 -1.0386
 9491SOL    HW239933   2.396   3.181   6.667 -1.2601 -0.9247 -0.8224
 9492SOL     OW39934   3.138   3.914  13.617 -0.0968  0.3820 -0.4145
 9492SOL    HW139935   3.218   3.914  13.566  1.0935 -0.2319  1.4590
 9492SOL    HW239936   3.073   3.878  13.557 -2.3227  0.0664  2.1588
 9493SOL     OW39937   3.703   3.930   7.790 -0.0878 -0.4310  0.0230
 9493SOL    HW139938   3.758   3.859   7.758 -0.7327 -0.7180 -0.4458
 9493SOL    HW239939   3.654   3.870   7.846 -1.0637  0.5806  0.2646
 9494SOL     OW39940   3.538   1.618   7.099  0.3623 -0.2556 -0.0820
 9494SOL    HW139941   3.500   1.684   7.041  1.8058  0.4649 -0.2301
 9494SOL    HW239942   3.472   1.596   7.164 -0.3002  1.3489 -0.2315
 9495SOL     OW39943   3.153   4.683   4.261 -0.3795 -0.3409  0.7308
 9495SOL    HW139944   3.114   0.023   4.319  0.7351  0.0044  1.0843
 9495SOL    HW239945   3.181   0.005   4.183  2.3034 -3.7232 -0.3386
 9496SOL     OW39946   4.060   2.708   7.542 -0.5250  0.0366  0.4851
 9496SOL    HW139947   3.990   2.643   7.554 -0.2180 -0.1312  1.3661
 9496SOL    HW239948   4.015   2.784   7.581 -0.3655 -0.1789  1.0868
 9497SOL     OW39949   1.826   2.076   6.748 -0.2211 -0.2891  0.3080
 9497SOL    HW139950   1.733   2.090   6.766  0.1136  2.7608 -0.2971
 9497SOL    HW239951   1.834   1.981   6.748 -1.3279 -0.3823 -0.0486
 9498SOL     OW39952   3.840   3.427   4.350 -0.6734  0.1739 -0.4087
 9498SOL    HW139953   3.893   3.361   4.395  0.4630  0.4097 -1.3908
 9498SOL    HW239954   3.752   3.412   4.383 -0.8254  2.0998  0.0847
 9499SOL     OW39955   2.479   1.094   0.554 -0.4660  0.1092  0.1903
 9499SOL    HW139956   2.458   1.005   0.580  2.7263  0.1459  2.9923
 9499SOL    HW239957   2.523   1.069   0.473 -1.1663  0.7387 -0.3834
 9500SOL     OW39958   2.006   2.174   1.881  0.5937 -0.5371  0.0812
 9500SOL    HW139959   1.960   2.209   1.958  1.8728 -0.9078  1.0273
 9500SOL    HW239960   1.951   2.213   1.814 -1.1209 -1.1340  1.1475
 9501SOL     OW39961   1.413   3.012   7.561 -0.5151  0.0368  0.1588
 9501SOL    HW139962   1.466   2.970   7.629 -1.2278  0.6491  1.0890
 9501SOL    HW239963   1.351   3.061   7.615 -2.8028 -2.6817  0.0096
 9502SOL     OW39964   3.868   0.404  10.896 -0.3389 -0.3585  0.2547
 9502SOL    HW139965   3.899   0.370  10.812  0.0402 -0.2245  0.3423
 9502SOL    HW239966   3.774   0.402  10.879  0.0620 -1.9180 -1.6737
 9503SOL     OW39967   4.114   0.816   4.380 -0.2331 -0.6040  0.0227
 9503SOL    HW139968   4.161   0.742   4.343 -0.3301 -1.2728  1.2312
 9503SOL    HW239969   4.180   0.851   4.439 -0.0077 -0.1999 -0.4790
 9504SOL     OW39970   1.038   4.122   5.986  0.2681  0.2656 -0.2675
 9504SOL    HW139971   0.958   4.174   5.992 -2.4281 -3.5959 -1.9262
 9504SOL    HW239972   1.006   4.048   6.037 -0.4730  0.1471 -0.9052
 9505SOL     OW39973   3.412   2.511   3.954  0.8677  0.0874 -0.7679
 9505SOL    HW139974   3.410   2.454   4.031 -0.8834  0.9401 -0.1645
 9505SOL    HW239975   3.496   2.504   3.910  0.2977 -1.6378 -1.5702
 9506SOL     OW39976   1.751   2.209   6.460 -0.7000  0.0774 -0.1197
 9506SOL    HW139977   1.756   2.139   6.525  0.6409  0.9629  0.7132
 9506SOL    HW239978   1.792   2.164   6.386  1.4045 -0.3684  1.3282
 9507SOL     OW39979   1.833   4.125   3.461  0.5545 -0.3551 -0.4377
 9507SOL    HW139980   1.869   4.163   3.380 -0.1095  0.1439 -0.5008
 9507SOL    HW239981   1.818   4.205   3.512  0.5549  0.5016 -1.7667
 9508SOL     OW39982   0.382   3.127   6.372 -0.0673  0.6308 -0.3824
 9508SOL    HW139983   0.417   3.104   6.458 -0.1921 -0.1196 -0.5327
 9508SOL    HW239984   0.409   3.218   6.358  1.1728  0.3159 -0.0235
 9509SOL     OW39985   1.072   0.246   7.024  0.5518 -0.0289  0.1860
 9509SOL    HW139986   1.165   0.236   7.043  0.5585 -0.5003 -0.1083
 9509SOL    HW239987   1.069   0.173   6.963 -1.5025  2.0139 -2.1533
 9510SOL     OW39988   4.635   1.058   8.137  0.4207 -0.1496  0.5319
 9510SOL    HW139989   4.575   1.130   8.117 -0.9277 -1.3459  0.2403
 9510SOL    HW239990   4.682   1.094   8.212  0.8174 -0.9259  0.6576
 9511SOL     OW39991   4.462   1.655   8.552 -0.3490  0.4405 -0.5632
 9511SOL    HW139992   4.457   1.592   8.480 -1.0225  0.4217 -0.5008
 9511SOL    HW239993   4.372   1.673   8.579 -0.4659 -1.1191  0.1058
 9512SOL     OW39994   2.646   3.012   0.741  0.4749 -0.5097 -0.2731
 9512SOL    HW139995   2.723   3.066   0.760 -0.8415  0.9326  0.9006
 9512SOL    HW239996   2.595   3.063   0.677  1.6865  1.4766  0.3344
 9513SOL     OW39997   1.507   2.561   3.298 -0.3278  0.0166  0.4078
 9513SOL    HW139998   1.520   2.645   3.342 -0.2867 -0.2773  0.9525
 9513SOL    HW239999   1.543   2.502   3.364  0.3131  0.2745  0.2888
 9514SOL     OW40000   0.918   1.295  12.353 -0.5616 -0.4578 -0.0334
 9514SOL    HW140001   0.898   1.224  12.290 -0.9631  0.5102 -1.0006
 9514SOL    HW240002   1.010   1.312  12.336 -0.4509  0.2630  1.3110
 9515SOL     OW40003   4.317   1.969  11.294 -0.7914  0.0820 -0.0327
 9515SOL    HW140004   4.348   1.908  11.227 -1.0576  0.3810 -0.4279
 9515SOL    HW240005   4.242   1.921  11.329 -0.0901 -2.2599 -1.7125
 9516SOL     OW40006   3.968   1.306   1.119  0.2193  0.5544 -0.4430
 9516SOL    HW140007   4.048   1.334   1.164 -0.2933  2.1753 -0.5411
 9516SOL    HW240008   3.995   1.216   1.105  3.7804  1.4165  0.8514
 9517SOL     OW40009   2.753   1.074   8.164 -0.5663 -0.1948 -0.2762
 9517SOL    HW140010   2.828   1.129   8.184  1.1686 -2.1168 -1.4205
 9517SOL    HW240011   2.781   1.009   8.099  1.8224  1.2616 -0.6942
 9518SOL     OW40012   4.265   2.305   4.471 -0.5672  0.0484 -0.5041
 9518SOL    HW140013   4.334   2.371   4.476  0.4445 -0.8876 -2.3238
 9518SOL    HW240014   4.249   2.289   4.378 -0.1882 -0.9053 -0.4011
 9519SOL     OW40015   4.404   0.320   7.844  0.6679  0.1623 -0.3454
 9519SOL    HW140016   4.461   0.383   7.799 -0.5486  0.8897 -0.8482
 9519SOL    HW240017   4.444   0.241   7.809 -1.9890 -0.8964 -0.9253
 9520SOL     OW40018   4.045   0.950   9.063  0.1552 -0.1822 -0.4008
 9520SOL    HW140019   4.080   1.038   9.075  0.4326 -0.3570  0.0919
 9520SOL    HW240020   3.992   0.967   8.985 -0.2097 -0.2884 -0.1743
 9521SOL     OW40021   3.810   4.019   2.630  0.2749  0.5061 -0.2078
 9521SOL    HW140022   3.783   4.051   2.544 -1.2015  0.6165  0.2984
 9521SOL    HW240023   3.902   3.996   2.616  0.5111 -1.7106  4.7904
 9522SOL     OW40024   2.996   0.279   5.925 -0.0463 -0.2259  0.6365
 9522SOL    HW140025   3.012   0.210   5.861  1.0134  1.0088 -0.4181
 9522SOL    HW240026   2.910   0.307   5.892 -1.3335 -0.9402  3.3824
 9523SOL     OW40027   4.506   1.348  14.075 -0.2309 -0.5635 -0.0900
 9523SOL    HW140028   4.516   1.371  14.168  2.5706 -0.9399 -0.3018
 9523SOL    HW240029   4.453   1.421  14.043 -1.8118 -2.2268 -1.2505
 9524SOL     OW40030   3.123   3.479   9.372 -0.3006  0.2209  0.6404
 9524SOL    HW140031   3.141   3.393   9.334 -2.0899  0.2583 -0.2773
 9524SOL    HW240032   3.199   3.515   9.417  1.1289 -1.3139 -0.5580
 9525SOL     OW40033   0.240   0.802   7.859 -0.3174 -0.2003 -0.1390
 9525SOL    HW140034   0.304   0.749   7.813 -0.0952  0.2143 -0.3122
 9525SOL    HW240035   0.187   0.825   7.783 -1.6711 -1.4030  0.4458
 9526SOL     OW40036   3.061   1.714   2.672 -0.5876 -0.7815 -0.5572
 9526SOL    HW140037   2.994   1.750   2.730  0.4541  0.4670 -0.1007
 9526SOL    HW240038   3.025   1.720   2.584 -2.9474 -1.1432  0.3755
 9527SOL     OW40039   3.443   3.321  10.924 -0.2192  0.2238 -0.0257
 9527SOL    HW140040   3.505   3.249  10.933 -1.6013 -0.7349  1.6870
 9527SOL    HW240041   3.429   3.345  11.016 -0.5026  0.6359 -0.1745
 9528SOL     OW40042   1.128   4.418  11.019 -0.0567 -0.1271 -0.0752
 9528SOL    HW140043   1.117   4.393  11.111 -2.3970  1.7294  0.1277
 9528SOL    HW240044   1.041   4.418  10.979  0.1097 -0.0365 -0.4357
 9529SOL     OW40045   0.929   1.098   6.750  0.1183 -0.1212  0.3399
 9529SOL    HW140046   0.873   1.047   6.691 -0.0101 -0.2063  0.5344
 9529SOL    HW240047   1.014   1.053   6.740 -0.0149 -0.1493 -0.5989
 9530SOL     OW40048   0.933   3.597  11.938  0.3129  0.1542  0.7205
 9530SOL    HW140049   0.991   3.634  12.005  0.0755 -0.2196  1.1269
 9530SOL    HW240050   0.981   3.623  11.860 -0.9564  1.8253  0.4851
 9531SOL     OW40051   0.220   1.268   5.581 -0.0895 -0.3157 -0.5581
 9531SOL    HW140052   0.223   1.179   5.616  2.3652 -0.1473 -0.2887
 9531SOL    HW240053   0.213   1.253   5.486 -2.2732 -2.5410 -0.0331
 9532SOL     OW40054   3.650   3.427   3.907  0.0076 -0.4268  0.6935
 9532SOL    HW140055   3.734   3.385   3.890 -0.2764 -1.1323  0.9799
 9532SOL    HW240056   3.625   3.358   3.969  0.0355  0.6243  1.8825
 9533SOL     OW40057   1.229   4.502   6.356 -0.4137 -0.0189 -0.1780
 9533SOL    HW140058   1.247   4.427   6.412 -0.0163  0.0207 -0.2568
 9533SOL    HW240059   1.179   4.463   6.284 -1.7783 -0.1842  0.8457
 9534SOL     OW40060   0.336   4.173   1.787  0.0054 -0.1633  0.0342
 9534SOL    HW140061   0.248   4.207   1.808 -0.5388 -0.5902 -1.5644
 9534SOL    HW240062   0.351   4.232   1.712 -0.6368 -0.8218 -0.6141
 9535SOL     OW40063   0.890   4.367   9.414  0.2200  0.3967  0.3026
 9535SOL    HW140064   0.920   4.433   9.476  0.6664  0.7892 -0.3237
 9535SOL    HW240065   0.950   4.368   9.339 -1.5386 -0.8355 -1.1054
 9536SOL     OW40066   1.099   2.154   5.799 -0.0479  0.7409 -0.3007
 9536SOL    HW140067   1.167   2.166   5.865 -0.8705 -1.7712  1.0070
 9536SOL    HW240068   1.116   2.062   5.777  0.6559  0.2615  2.3196
 9537SOL     OW40069   4.691   3.058  12.862 -0.5641  0.1820 -0.1102
 9537SOL    HW140070   4.613   3.010  12.834 -0.7066 -0.5443  1.5200
 9537SOL    HW240071   0.030   2.992  12.888 -0.4427 -0.2999 -1.6096
 9538SOL     OW40072   4.220   0.057   5.267 -0.2473  0.3270  0.4288
 9538SOL    HW140073   4.188   0.019   5.349  2.3102 -3.7034 -0.4738
 9538SOL    HW240074   4.240   4.703   5.217 -1.3280  0.3748 -0.0710
 9539SOL     OW40075   3.282   2.950   5.338 -0.0943 -0.2391  0.0673
 9539SOL    HW140076   3.246   2.912   5.258  1.2988  0.7635 -1.0474
 9539SOL    HW240077   3.366   2.985   5.308 -1.1882  1.1824 -1.3657
 9540SOL     OW40078   3.905   1.474   0.248 -0.0263 -0.3503  0.4229
 9540SOL    HW140079   3.892   1.403   0.311 -0.7042  1.0728  1.8821
 9540SOL    HW240080   3.945   1.542   0.302 -0.7981 -0.6583  1.3797
 9541SOL     OW40081   3.430   1.538   9.796 -0.0481 -0.1817 -0.3381
 9541SOL    HW140082   3.381   1.615   9.825 -0.4586 -0.7506  0.4969
 9541SOL    HW240083   3.373   1.463   9.812  0.5845 -0.3342  1.2815
 9542SOL     OW40084   1.724   2.749   6.081  0.4992 -0.2881 -0.2548
 9542SOL    HW140085   1.637   2.777   6.054  0.2163 -1.0625 -0.1530
 9542SOL    HW240086   1.774   2.817   6.035 -0.1983  1.3248  1.3658
 9543SOL     OW40087   4.433   4.532  10.676  0.1127 -0.2107  0.0798
 9543SOL    HW140088   4.362   4.594  10.690  1.4963  1.5363 -0.7163
 9543SOL    HW240089   4.505   4.594  10.666  0.5443 -0.7550 -0.2051
 9544SOL     OW40090   3.751   1.035   9.790  0.3495  0.5949  0.2576
 9544SOL    HW140091   3.816   1.066   9.853  0.9107  0.5738 -0.3073
 9544SOL    HW240092   3.673   1.080   9.824  1.1152  1.4843  0.8196
 9545SOL     OW40093   1.552   2.640   8.175 -0.0982 -0.7732  0.2659
 9545SOL    HW140094   1.490   2.589   8.227 -0.6459 -0.9857 -0.5807
 9545SOL    HW240095   1.500   2.641   8.094 -1.2639 -2.5147  0.9882
 9546SOL     OW40096   4.638   1.730   2.815  0.0625  0.5197  0.0306
 9546SOL    HW140097   4.643   1.820   2.785 -0.6484  0.4549 -0.2933
 9546SOL    HW240098   4.604   1.736   2.904 -2.6393  2.0764 -1.0819
 9547SOL     OW40099   0.809   3.923  13.601  0.2683 -0.5535 -0.0143
 9547SOL    HW140100   0.811   3.929  13.697 -1.5866  1.5734 -0.1007
 9547SOL    HW240101   0.720   3.957  13.586  0.3040 -0.5236 -0.1586
 9548SOL     OW40102   2.308   0.655   5.626  0.4306  0.0354  0.0755
 9548SOL    HW140103   2.386   0.638   5.574 -0.5089  2.6961 -2.1951
 9548SOL    HW240104   2.336   0.621   5.712  0.5014 -0.2851 -0.0742
 9549SOL     OW40105   1.177   0.487  14.845 -0.1242  0.1390 -0.3654
 9549SOL    HW140106   1.127   0.422  14.894  2.9704 -1.8645  0.1659
 9549SOL    HW240107   1.128   0.568  14.857 -0.0717  0.0172  0.6555
 9550SOL     OW40108   0.552   0.059   8.039 -0.2481  0.5871 -0.0439
 9550SOL    HW140109   0.464   0.075   8.073 -1.2892  1.2150 -3.0717
 9550SOL    HW240110   0.556   0.140   7.989 -0.6496  0.6915  0.1003
 9551SOL     OW40111   2.125   3.342   7.173 -0.4071 -0.6136 -0.3500
 9551SOL    HW140112   2.206   3.390   7.155 -0.8629 -0.4158 -1.9057
 9551SOL    HW240113   2.162   3.264   7.214 -1.7190 -0.4472  1.1320
 9552SOL     OW40114   1.825   4.351   3.624 -0.3417  0.1918 -0.2034
 9552SOL    HW140115   1.769   4.405   3.680 -1.9855 -0.5551 -1.1057
 9552SOL    HW240116   1.905   4.347   3.676 -1.0438  1.2054  0.9575
 9553SOL     OW40117   2.192   0.228   2.955 -0.5761 -0.9329  0.4858
 9553SOL    HW140118   2.191   0.321   2.979  1.1156 -1.2578  1.7244
 9553SOL    HW240119   2.178   0.235   2.860 -3.7127  1.4035  1.1361
 9554SOL     OW40120   3.966   4.549   3.553 -0.3841  0.3772  0.2545
 9554SOL    HW140121   3.960   4.458   3.582 -0.4659  0.0731 -0.7297
 9554SOL    HW240122   3.939   4.600   3.630  2.0211  0.4247  1.0563
 9555SOL     OW40123   2.290   4.586   4.727  0.0362 -0.7106  0.0888
 9555SOL    HW140124   2.210   4.553   4.687 -0.1147 -1.1202  0.7389
 9555SOL    HW240125   2.272   4.604   4.819 -0.2636  0.6392 -0.2271
 9556SOL     OW40126   2.160   4.157  16.479  0.2507 -0.1556 -0.1297
 9556SOL    HW140127   2.213   4.085  16.444 -3.0739 -1.9306 -1.5347
 9556SOL    HW240128   2.126   4.124  16.562  2.0518  1.2718  1.1742
 9557SOL     OW40129   4.062   3.605   1.411  0.1463 -0.3873  0.2562
 9557SOL    HW140130   3.980   3.585   1.366  0.1048  0.5590 -0.0780
 9557SOL    HW240131   4.023   3.663   1.478  1.4319  0.8442 -0.0594
 9558SOL     OW40132   3.760   1.805   7.705  0.4342  0.3915  0.6521
 9558SOL    HW140133   3.746   1.714   7.729  2.2672  0.2508  1.1684
 9558SOL    HW240134   3.774   1.794   7.611  1.1516  1.2847  0.6461
 9559SOL     OW40135   1.797   3.874  10.056 -0.7819  0.3315  0.4843
 9559SOL    HW140136   1.792   3.788  10.097 -0.9958 -0.2264 -0.7185
 9559SOL    HW240137   1.738   3.939  10.093  0.8521  0.6659  2.4989
 9560SOL     OW40138   3.770   0.075   8.770 -0.2902  0.5995  0.4411
 9560SOL    HW140139   3.852   0.031   8.750  0.8328  1.8918  2.2417
 9560SOL    HW240140   3.798   0.136   8.838  0.8529  0.2371  0.2908
 9561SOL     OW40141   1.230   3.501   1.690  0.2084 -0.3676  0.3748
 9561SOL    HW140142   1.242   3.503   1.595 -1.0453  1.1373  0.2518
 9561SOL    HW240143   1.279   3.582   1.706  0.8185 -0.1126 -2.7439
 9562SOL     OW40144   3.363   3.503   7.848  0.0987  0.0159  0.1966
 9562SOL    HW140145   3.403   3.420   7.875 -0.8854  0.4106  2.8541
 9562SOL    HW240146   3.431   3.543   7.794 -0.9840  1.3035 -0.2014
 9563SOL     OW40147   0.470   0.718  11.952 -0.3554 -0.0151  0.5429
 9563SOL    HW140148   0.379   0.743  11.965  0.0140  1.7253 -0.2585
 9563SOL    HW240149   0.510   0.804  11.963 -1.4829  0.5126  0.5267
 9564SOL     OW40150   2.460   0.502   4.181 -0.0926  0.5077 -0.3431
 9564SOL    HW140151   2.373   0.462   4.184  0.5735 -0.7566  2.4272
 9564SOL    HW240152   2.451   0.584   4.133  1.2663  1.3840  0.9080
 9565SOL     OW40153   4.689   1.500   2.282 -0.0249  0.2100  0.0526
 9565SOL    HW140154   0.047   1.491   2.235 -2.1024 -0.2463 -3.5271
 9565SOL    HW240155   4.698   1.414   2.325 -1.0756  0.4102  0.6541
   4.72514   4.72514  17.70193
