Membrane in water
40155
    1TCq1    O1    1   3.611   1.128  11.013 -0.0008 -0.0374  0.2985
    1TCq1    C1    2   3.729   1.106  10.947 -0.0692 -0.3044  0.1097
    1TCq1    O2    3   3.773   1.169  10.851  0.2599 -0.6136  0.1761
    1TCq1    C2    4   3.807   1.015  11.022  0.1196  0.4955  0.1799
    1TCq1    C3    5   3.936   0.998  10.970  0.6109  0.2927 -0.5092
    1TCq1    C4    6   4.027   0.922  11.042 -0.9584  0.7818 -0.2851
    1TCq1    C5    7   3.981   0.841  11.145 -0.0926  0.1897 -0.6038
    1TCq1    C6    8   3.843   0.845  11.170  0.2917  0.5235 -0.5738
    1TCq1    C7    9   3.753   0.937  11.115 -0.4956 -0.0583  0.0641
    1TCq1    C8   10   3.797   0.744  11.269  0.1608  0.1538  0.1838
    1TCq1    O4   11   3.882   0.706  11.350  0.3604 -0.4556  0.3588
    1TCq1    C9   12   4.167   0.919  11.014  0.2186  0.4976  0.0679
    1TCq1    O5   13   4.212   1.000  10.933 -0.0240  0.2144 -0.4057
    1TCq1    O6   14   4.242   0.832  11.069 -0.5055 -0.0320  0.2714
    1TCq1    H1   15   3.608   1.086  11.101  0.2604 -0.5644  0.0549
    1TCq1    H2   16   3.970   1.058  10.886 -1.5142 -0.4354 -1.8881
    1TCq1    H3   17   4.054   0.773  11.187  0.6488  0.1072 -2.0207
    1TCq1    H4   18   3.654   0.941  11.159  0.2718 -2.1449  1.9426
    2MPD2     C   19   3.476   0.391  11.454  0.0539 -0.2460  0.0808
    2MPD2    C1   20   3.578   0.464  11.515  0.1464 -0.0599 -0.1515
    2MPD2    C2   21   3.641   0.562  11.449 -0.8855  0.5280  0.0996
    2MPD2    C3   22   3.607   0.594  11.314 -0.4473 -0.1224  0.2111
    2MPD2    C4   23   3.500   0.526  11.251  0.4092 -0.0284  0.2487
    2MPD2    C5   24   3.434   0.430  11.327 -0.0587 -0.4940  0.2496
    2MPD2     H   25   3.727   0.610  11.494 -1.7023  2.8550 -0.7745
    2MPD2    H1   26   3.468   0.540  11.149 -0.7179  0.1676  0.6257
    2MPD2    H2   27   3.425   0.306  11.496 -1.0342  0.2649 -0.2193
    2MPD2    H3   28   3.361   0.368  11.275 -0.9601 -0.6830  1.7597
    2MPD2     N   29   3.666   0.702  11.244  0.2998  0.3836 -0.6128
    2MPD2    H5   30   3.609   0.737  11.167  1.4810  1.4735 -0.9936
    2MPD2    N1   31   3.630   0.434  11.643  0.3597 -0.1166  0.4776
    2MPD2    H7   32   3.710   0.490  11.670 -0.7331  1.7168 -0.1031
    3TCq1    O1   33   2.552   1.714  10.470  0.2160  0.3147 -0.0888
    3TCq1    C1   34   2.674   1.718  10.408  0.0265 -0.2721 -0.4015
    3TCq1    O2   35   2.758   1.627  10.409  0.1175  0.2547 -0.0337
    3TCq1    C2   36   2.716   1.861  10.396 -0.3231  0.2306 -0.0612
    3TCq1    C3   37   2.847   1.887  10.431  0.0934  0.2962  0.1544
    3TCq1    C4   38   2.887   2.007  10.467  0.0500 -0.3762 -0.4426
    3TCq1    C5   39   2.791   2.108  10.476  0.0557 -0.2874 -0.0181
    3TCq1    C6   40   2.662   2.083  10.436  1.2460  0.0362 -0.4579
    3TCq1    C7   41   2.621   1.958  10.391 -0.5200 -0.6730 -0.0394
    3TCq1    C8   42   2.559   2.169  10.484  0.3601 -0.2610  0.6504
    3TCq1    O4   43   2.450   2.155  10.435  0.3904  0.0876  0.2286
    3TCq1    C9   44   3.018   2.043  10.515  0.6653 -0.8826 -0.0408
    3TCq1    O5   45   3.109   1.958  10.509 -0.4885 -0.1033  0.1946
    3TCq1    O6   46   3.022   2.150  10.582  0.3337 -0.2820  0.2175
    3TCq1    H1   47   2.514   1.802  10.492 -0.0991 -0.0164  0.6930
    3TCq1    H2   48   2.920   1.807  10.435 -0.1795 -0.1651 -3.7275
    3TCq1    H3   49   2.818   2.210  10.501 -1.3282 -0.3528  1.6781
    3TCq1    H4   50   2.519   1.947  10.358 -1.3629 -0.0490  2.3399
    4MPD2     C   51   2.365   2.573  10.730 -0.1504 -0.0587 -0.2965
    4MPD2    C1   52   2.485   2.540  10.791 -0.2479 -0.3423  0.3909
    4MPD2    C2   53   2.565   2.431  10.744 -0.0636 -0.0259  1.1538
    4MPD2    C3   54   2.521   2.362  10.631 -0.1861  0.8679 -0.4764
    4MPD2    C4   55   2.406   2.407  10.566 -0.2988 -0.6927  0.4811
    4MPD2    C5   56   2.328   2.513  10.613  0.6395 -0.0062 -0.3548
    4MPD2     H   57   2.642   2.394  10.811 -1.1426 -0.3359  2.2065
    4MPD2    H1   58   2.380   2.359  10.473 -1.3204  0.7807 -0.0083
    4MPD2    H2   59   2.309   2.654  10.775 -1.4169 -1.0321 -0.0990
    4MPD2    H3   60   2.240   2.549  10.560 -0.7047 -2.2629  0.3520
    4MPD2     N   61   2.594   2.251  10.589 -0.3504 -0.0626  0.2881
    4MPD2    H5   62   2.685   2.238  10.633 -0.2255  0.5046  0.1913
    4MPD2    N1   63   2.522   2.599  10.913  0.0223 -0.5486 -0.1668
    4MPD2    H7   64   2.599   2.555  10.961  0.8280  0.2289 -0.7304
    5TCq1    O1   65   3.552   4.481  10.797  0.3122 -0.7249  0.0628
    5TCq1    C1   66   3.638   4.381  10.800  0.5437  0.4232  0.2025
    5TCq1    O2   67   3.753   4.380  10.765  0.2850 -0.9955  0.0491
    5TCq1    C2   68   3.574   4.252  10.824 -0.0320  0.5471 -0.1570
    5TCq1    C3   69   3.496   4.230  10.934 -0.8325 -0.4190  0.3820
    5TCq1    C4   70   3.468   4.102  10.969  0.4851 -0.4184 -0.9769
    5TCq1    C5   71   3.494   3.996  10.884 -0.4982  0.4331 -0.0128
    5TCq1    C6   72   3.575   4.022  10.779 -0.3466  0.2689  0.3026
    5TCq1    C7   73   3.620   4.151  10.750 -0.7017  0.1328  0.5171
    5TCq1    C8   74   3.634   3.911  10.708 -0.5802 -0.0065  0.2241
    5TCq1    O4   75   3.600   3.806  10.763  0.5541  0.2120 -0.5756
    5TCq1    C9   76   3.381   4.083  11.083  0.1749 -0.5799 -0.4261
    5TCq1    O5   77   3.319   3.972  11.083 -0.5111  0.2349  0.3746
    5TCq1    O6   78   3.421   4.153  11.180 -0.5937 -0.6203  0.2516
    5TCq1    H1   79   3.465   4.447  10.826 -1.5600  2.2298 -2.0369
    5TCq1    H2   80   3.467   4.307  11.004 -0.0119 -1.7692  2.1979
    5TCq1    H3   81   3.455   3.898  10.909  0.9717 -0.0562  0.3785
    5TCq1    H4   82   3.691   4.169  10.670 -1.4566 -0.6925 -0.3238
    6MPD2     C   83   3.846   3.864  10.406 -0.1794 -0.5483  0.2572
    6MPD2    C1   84   3.780   3.830  10.524 -0.1138 -0.1963 -1.0583
    6MPD2    C2   85   3.792   3.702  10.575 -0.6436 -0.2711  0.1873
    6MPD2    C3   86   3.866   3.609  10.501  0.9765 -0.1738 -0.2969
    6MPD2    C4   87   3.938   3.647  10.384 -0.8843 -1.2607 -0.0416
    6MPD2    C5   88   3.924   3.777  10.340 -0.3227 -0.6438  0.0147
    6MPD2     H   89   3.747   3.669  10.668  1.1328 -0.4437  0.9881
    6MPD2    H1   90   3.992   3.582  10.316 -1.3514 -0.8665 -0.7924
    6MPD2    H2   91   3.841   3.965  10.367  1.0300 -1.2626 -1.7559
    6MPD2    H3   92   3.972   3.811  10.248  1.9007 -0.7051  1.1376
    6MPD2     N   93   3.855   3.475  10.546 -0.3289 -0.4261  0.4811
    6MPD2    H5   94   3.785   3.450  10.615 -1.9852 -1.0267 -1.3913
    6MPD2    N1   95   3.704   3.938  10.589  0.4535 -0.6201 -0.6188
    6MPD2    H7   96   3.704   4.035  10.559 -0.7040 -0.4070  0.0724
    7TCq1    O1   97   0.927   3.801  13.009  0.2443 -0.7142  0.1473
    7TCq1    C1   98   0.930   3.767  12.881  0.4038  0.3192  0.7883
    7TCq1    O2   99   0.896   3.835  12.784 -0.1252 -0.0534 -0.1272
    7TCq1    C2  100   0.974   3.629  12.873 -1.1363 -0.3306  0.2539
    7TCq1    C3  101   0.952   3.570  12.752  0.5821  0.5331  0.0235
    7TCq1    C4  102   1.009   3.448  12.721 -0.0551 -0.1055  0.5620
    7TCq1    C5  103   1.091   3.393  12.814  0.2971  0.4020  0.7201
    7TCq1    C6  104   1.118   3.453  12.938 -0.0923 -0.7073  0.3415
    7TCq1    C7  105   1.072   3.578  12.961  0.5616  0.9383  0.8663
    7TCq1    C8  106   1.218   3.399  13.022  0.0878  0.7656  0.0348
    7TCq1    O4  107   1.282   3.307  12.976  0.2058 -0.0057  0.2044
    7TCq1    C9  108   0.987   3.384  12.592 -0.4766 -0.1270  0.1848
    7TCq1    O5  109   1.034   3.266  12.576  0.4359  0.1918  0.2861
    7TCq1    O6  110   0.921   3.447  12.506  0.2913 -0.0658  0.5724
    7TCq1    H1  111   0.930   3.721  13.066 -1.8582 -1.0534 -0.2195
    7TCq1    H2  112   0.879   3.612  12.683 -0.2348  2.1743  1.8844
    7TCq1    H3  113   1.147   3.306  12.783  1.1551  1.3535 -0.4149
    7TCq1    H4  114   1.094   3.631  13.053  1.3041 -0.8858  1.7493
    8MPD2     C  115   1.449   3.363  13.469 -0.2373 -0.0909 -0.1191
    8MPD2    C1  116   1.432   3.268  13.374  0.0597  0.0483 -0.1454
    8MPD2    C2  117   1.371   3.309  13.252  0.0784  0.5023 -0.8070
    8MPD2    C3  118   1.347   3.441  13.225  0.0814 -0.2393  0.3260
    8MPD2    C4  119   1.380   3.534  13.324 -0.0422  0.3403  0.0840
    8MPD2    C5  120   1.420   3.497  13.448 -0.2952  0.1476 -0.5594
    8MPD2     H  121   1.340   3.227  13.187 -0.4745  0.6417 -0.7174
    8MPD2    H1  122   1.351   3.635  13.297  1.4806  0.6053 -0.5433
    8MPD2    H2  123   1.485   3.328  13.565  1.0821  0.8388 -0.2707
    8MPD2    H3  124   1.437   3.571  13.526  0.0751  0.5930 -1.0619
    8MPD2     N  125   1.267   3.483  13.120  0.0930 -0.4406 -0.2597
    8MPD2    H5  126   1.225   3.576  13.121  0.3778 -0.2977 -1.3203
    8MPD2    N1  127   1.446   3.133  13.412  0.0799  0.6110 -0.6893
    8MPD2    H7  128   1.483   3.115  13.505  0.5162 -0.8678 -1.1386
    9TCq1    O1  129   3.092   1.043  10.493  0.3175  0.0828 -0.0848
    9TCq1    C1  130   3.110   1.166  10.546  0.2096 -0.0788 -0.2343
    9TCq1    O2  131   3.016   1.230  10.599  0.0389  1.1482  0.8696
    9TCq1    C2  132   3.244   1.199  10.573  0.2427 -0.1906 -0.2250
    9TCq1    C3  133   3.345   1.154  10.492  0.4413  0.6252  0.1197
    9TCq1    C4  134   3.472   1.150  10.551 -0.7527 -0.0242 -0.2333
    9TCq1    C5  135   3.486   1.198  10.680  0.0683 -0.0605  0.5528
    9TCq1    C6  136   3.387   1.264  10.747  0.9430  0.5790 -0.1502
    9TCq1    C7  137   3.269   1.268  10.691 -0.4956  0.6337  0.3870
    9TCq1    C8  138   3.413   1.391  10.812  0.4125  0.8852 -0.2527
    9TCq1    O4  139   3.344   1.481  10.767  0.0339  0.2481  0.3593
    9TCq1    C9  140   3.575   1.078  10.481 -0.5807  0.5239 -0.4199
    9TCq1    O5  141   3.566   1.056  10.358  0.5440  0.0487  0.5690
    9TCq1    O6  142   3.685   1.100  10.536 -0.0774  0.0916  0.3396
    9TCq1    H1  143   3.175   0.995  10.469 -1.5603 -3.0055 -0.4748
    9TCq1    H2  144   3.332   1.113  10.393  2.4193 -1.5653  0.7749
    9TCq1    H3  145   3.581   1.211  10.730 -0.3554 -5.2839  2.6959
    9TCq1    H4  146   3.186   1.311  10.744 -0.8262  1.5838 -0.8964
   10MPD2     C  147   3.447   1.606  10.997 -0.1634 -0.1587 -0.0566
   10MPD2    C1  148   3.477   1.475  11.032  0.4921  0.5486  0.6390
   10MPD2    C2  149   3.505   1.438  11.165 -0.1828  0.1280 -0.3373
   10MPD2    C3  150   3.504   1.536  11.261 -0.8362  0.3423  0.6248
   10MPD2    C4  151   3.487   1.665  11.229  0.3231 -0.1912 -0.3609
   10MPD2    C5  152   3.448   1.695  11.099 -0.4942 -0.0443  0.1468
   10MPD2     H  153   3.532   1.337  11.191  0.4924 -0.2378 -2.4713
   10MPD2    H1  154   3.487   1.745  11.303 -0.3468  1.2134 -1.8822
   10MPD2    H2  155   3.417   1.637  10.897  1.0854  0.9535 -0.0898
   10MPD2    H3  156   3.421   1.797  11.074  1.3335 -0.4481 -3.4066
   10MPD2     N  157   3.534   1.517  11.395 -0.4766  0.7078 -0.6160
   10MPD2    H5  158   3.531   1.596  11.460  0.4671 -0.5603  0.9638
   10MPD2    N1  159   3.476   1.376  10.932  0.4356  0.0229 -0.3802
   10MPD2    H7  160   3.505   1.281  10.953  3.2032  0.8416 -0.4196
   11TCq1    O1  161   4.561   2.571  13.727 -0.2844  0.5648 -0.2529
   11TCq1    C1  162   4.665   2.577  13.815  0.0864  0.1637  0.2802
   11TCq1    O2  163   0.024   2.667  13.815 -0.3849 -0.4698 -0.3210
   11TCq1    C2  164   4.681   2.442  13.879 -0.1786  0.3133 -0.0885
   11TCq1    C3  165   0.072   2.390  13.844  0.1392  0.3244  0.0992
   11TCq1    C4  166   0.086   2.253  13.846  0.5653  0.3654  0.4576
   11TCq1    C5  167   4.710   2.178  13.902  0.7505  0.2175  0.3662
   11TCq1    C6  168   4.589   2.246  13.931 -0.6812 -0.1400 -0.0017
   11TCq1    C7  169   4.573   2.375  13.914  0.6522  0.1703  0.2226
   11TCq1    C8  170   4.470   2.166  13.953 -0.3308 -0.0711  0.4575
   11TCq1    O4  171   4.367   2.223  13.978  0.1433  0.0884 -0.4427
   11TCq1    C9  172   0.199   2.182  13.783  0.1384  0.3926 -0.0801
   11TCq1    O5  173   0.293   2.260  13.752  0.0395 -0.0748  0.0410
   11TCq1    O6  174   0.185   2.059  13.768 -0.6877 -0.0225 -0.3570
   11TCq1    H1  175   4.506   2.490  13.734  0.7739 -0.1325  0.0834
   11TCq1    H2  176   0.145   2.460  13.806  0.7159 -1.0427 -1.2585
   11TCq1    H3  177   0.003   2.072  13.896  1.6869  0.4869 -1.2585
   11TCq1    H4  178   4.485   2.433  13.941  0.3310  0.4509 -1.4465
   12MPD2     C  179   4.260   1.949  13.995  0.1497  0.0923  0.4986
   12MPD2    C1  180   4.384   1.930  13.939 -1.0402  0.4298  0.2271
   12MPD2    C2  181   4.425   1.802  13.906 -0.4718 -0.4668  0.4243
   12MPD2    C3  182   4.353   1.689  13.944 -0.3503  0.0459  0.3276
   12MPD2    C4  183   4.241   1.713  14.019  0.2484 -0.3343  0.1394
   12MPD2    C5  184   4.193   1.845  14.040 -0.2882  0.1695 -0.0215
   12MPD2     H  185   4.523   1.779  13.866 -0.3963  0.5380  0.0344
   12MPD2    H1  186   4.182   1.638  14.071 -0.1464 -0.1285 -0.0148
   12MPD2    H2  187   4.221   2.049  14.015  0.2246  0.2678 -0.2188
   12MPD2    H3  188   4.099   1.859  14.092  0.6904 -0.7464  1.9881
   12MPD2     N  189   4.379   1.554  13.911 -0.0437 -0.1479  0.2678
   12MPD2    H5  190   4.314   1.483  13.945  0.4489  0.7794  3.1291
   12MPD2    N1  191   4.485   2.032  13.925 -0.3005 -0.0408 -0.7295
   12MPD2    H7  192   4.568   2.003  13.876 -0.6180 -0.9873 -0.7001
   13TCq1    O1  193   4.098   0.589  10.765  0.3049  0.0141 -0.4857
   13TCq1    C1  194   3.990   0.599  10.846  0.3207 -0.2542  0.1463
   13TCq1    O2  195   3.987   0.589  10.970 -0.7378 -0.2891  0.1396
   13TCq1    C2  196   3.870   0.641  10.769 -0.0793  0.6894  0.6340
   13TCq1    C3  197   3.878   0.689  10.641 -0.2016 -0.7999 -0.3198
   13TCq1    C4  198   3.761   0.720  10.575  0.9113  0.0524  0.4263
   13TCq1    C5  199   3.643   0.710  10.640 -0.0380 -0.1932  0.2578
   13TCq1    C6  200   3.639   0.669  10.777  0.3297  0.4735 -0.8914
   13TCq1    C7  201   3.757   0.639  10.843 -0.0209 -0.4520  0.7322
   13TCq1    C8  202   3.536   0.733  10.864 -0.7078 -0.7136  0.0405
   13TCq1    O4  203   3.552   0.755  10.983 -0.0794  0.0427 -0.2502
   13TCq1    C9  204   3.780   0.778  10.440 -0.3798 -0.1719 -0.7813
   13TCq1    O5  205   3.881   0.853  10.426  0.1457  0.2053  0.2272
   13TCq1    O6  206   3.684   0.770  10.362  0.1455  0.3312  0.0022
   13TCq1    H1  207   4.078   0.578  10.670  2.8676 -0.5043 -0.9623
   13TCq1    H2  208   3.974   0.707  10.595  0.4457 -0.6962  1.0846
   13TCq1    H3  209   3.554   0.739  10.585  1.3452  2.8893 -0.4010
   13TCq1    H4  210   3.745   0.625  10.950  0.1158 -0.5158  0.7398
   14MPD2     C  211   3.232   0.881  10.747 -0.1213  0.2825  0.0543
   14MPD2    C1  212   3.332   0.876  10.836 -0.2146 -0.2481 -0.1746
   14MPD2    C2  213   3.332   0.952  10.946 -0.0517  0.3352  0.1023
   14MPD2    C3  214   3.228   1.036  10.972  0.1082 -0.1203  0.4218
   14MPD2    C4  215   3.120   1.032  10.884 -0.1530  0.6683 -0.1861
   14MPD2    C5  216   3.116   0.942  10.780  0.6798 -0.7303  0.1402
   14MPD2     H  217   3.421   0.957  11.008  0.6165  2.1984 -1.0023
   14MPD2    H1  218   3.025   1.083  10.894 -0.6900 -0.6284  1.3239
   14MPD2    H2  219   3.233   0.817  10.659 -0.5635 -0.9369  0.9252
   14MPD2    H3  220   3.019   0.920  10.738  1.4161 -2.0875 -0.8149
   14MPD2     N  221   3.244   1.124  11.075 -0.5629  0.4816 -0.1565
   14MPD2    H5  222   3.323   1.116  11.138 -1.5087  3.0391  1.3675
   14MPD2    N1  223   3.437   0.787  10.791  0.1513 -0.1826 -0.2648
   14MPD2    H7  224   3.417   0.739  10.704 -0.4059  3.3595 -2.0954
   15TCq1    O1  225   4.393   0.147   2.177  0.4876  0.2959 -0.1419
   15TCq1    C1  226   4.409   0.137   2.047 -0.2068  0.2022 -0.0159
   15TCq1    O2  227   4.336   0.184   1.962 -0.2585 -0.3022 -0.3158
   15TCq1    C2  228   4.542   0.095   2.025  0.8535  0.0320 -0.7153
   15TCq1    C3  229   4.641   0.113   2.114  0.2485 -0.1044 -0.3490
   15TCq1    C4  230   0.051   0.107   2.077 -0.0691  0.0485  0.1276
   15TCq1    C5  231   0.079   0.080   1.946 -0.3126  0.8324 -0.5661
   15TCq1    C6  232   4.701   0.059   1.859  0.1056  0.3585 -0.8053
   15TCq1    C7  233   4.572   0.058   1.898  0.2094 -0.0733 -0.4407
   15TCq1    C8  234   4.725   4.715   1.737 -0.7259 -0.5566 -0.2758
   15TCq1    O4  235   0.105   4.660   1.731 -0.3866  0.7519 -0.1471
   15TCq1    C9  236   0.155   0.134   2.171  0.6145 -0.1624  0.0886
   15TCq1    O5  237   0.268   0.092   2.141  0.1611 -0.3042 -0.5262
   15TCq1    O6  238   0.124   0.178   2.285 -0.0910  0.8595 -0.4078
   15TCq1    H1  239   4.441   0.079   2.230 -0.4900  0.1855  0.6113
   15TCq1    H2  240   4.621   0.154   2.212  1.3138  1.2965 -0.7052
   15TCq1    H3  241   0.178   0.070   1.902 -0.5339  1.6877 -1.2634
   15TCq1    H4  242   4.491   0.039   1.828  0.5345 -2.8240 -0.0753
   16MPD2     C  243   4.549   4.716   1.419  0.7572  0.5891  0.0284
   16MPD2    C1  244   4.655   4.678   1.501 -0.1229 -0.8685  0.1272
   16MPD2    C2  245   0.041   4.615   1.452  0.2071  0.0534  0.5860
   16MPD2    C3  246   0.042   4.574   1.325 -0.3670  0.6457  0.0390
   16MPD2    C4  247   4.658   4.602   1.248  0.0752  0.4911 -0.4890
   16MPD2    C5  248   4.552   4.660   1.295 -0.2494  0.0282  0.3270
   16MPD2     H  249   0.124   4.593   1.519  0.4848 -2.1177 -0.4875
   16MPD2    H1  250   4.645   4.559   1.149 -0.2578  1.8833 -1.0443
   16MPD2    H2  251   4.477   0.060   1.459 -0.4183  0.9863 -2.7477
   16MPD2    H3  252   4.475   4.697   1.228 -1.1789 -1.1949  0.7387
   16MPD2     N  253   0.153   4.496   1.277  0.1812 -0.9410 -0.2638
   16MPD2    H5  254   0.224   4.483   1.348 -2.1504  1.3826  2.5426
   16MPD2    N1  255   4.634   0.002   1.635  0.0354  0.1202  0.0354
   16MPD2    H7  256   4.557   0.067   1.643 -0.2383 -0.0505 -1.1801
   17TCq1    O1  257   4.182   3.904  11.456  0.1686 -0.1352  0.5617
   17TCq1    C1  258   4.135   3.828  11.363  0.1459 -0.0757 -0.3558
   17TCq1    O2  259   4.145   3.708  11.368 -0.2752  0.0516  0.0243
   17TCq1    C2  260   4.161   3.885  11.230 -0.8939 -0.3742 -0.2164
   17TCq1    C3  261   4.241   3.816  11.135 -0.3191  0.0974  0.3017
   17TCq1    C4  262   4.281   3.881  11.026  0.2357  0.2864 -0.1979
   17TCq1    C5  263   4.244   4.014  11.006  0.4671 -0.6638 -0.2471
   17TCq1    C6  264   4.174   4.079  11.103 -0.5646 -0.5670  0.3940
   17TCq1    C7  265   4.135   4.018  11.216 -0.3364  0.5353 -0.0186
   17TCq1    C8  266   4.159   4.220  11.094 -0.3269 -0.1158 -0.4072
   17TCq1    O4  267   4.120   4.272  11.196  0.2791 -0.3930  0.1118
   17TCq1    C9  268   4.342   3.805  10.916 -0.9050 -0.0200 -0.3445
   17TCq1    O5  269   4.317   3.841  10.796  0.3538 -0.5291 -0.6051
   17TCq1    O6  270   4.437   3.725  10.947  0.8084  0.2168  0.4567
   17TCq1    H1  271   4.184   3.996  11.424  0.2231 -0.2417  0.2566
   17TCq1    H2  272   4.250   3.708  11.135 -0.7977  0.0559 -1.2564
   17TCq1    H3  273   4.262   4.059  10.909  1.9552 -1.0758 -0.1650
   17TCq1    H4  274   4.073   4.062  11.294 -1.5551  1.0982 -1.2977
   18MPD2     C  275   4.133   4.516  11.031  0.5058  1.1077 -0.2220
   18MPD2    C1  276   4.188   4.422  10.945  0.0581  0.6805 -0.4727
   18MPD2    C2  277   4.261   4.461  10.829  0.2037 -0.2954  0.0266
   18MPD2    C3  278   4.262   4.595  10.796 -0.5734 -0.3624  0.5329
   18MPD2    C4  279   4.223   4.689  10.885  0.0810  0.1642 -0.1141
   18MPD2    C5  280   4.165   4.646  10.997 -0.3865 -0.3033  0.1152
   18MPD2     H  281   4.310   4.387  10.767  0.5644  0.3990 -0.5273
   18MPD2    H1  282   4.230   0.070  10.877  1.1737  0.1411  0.4126
   18MPD2    H2  283   4.070   4.490  11.115  1.6286  0.8902  0.5478
   18MPD2    H3  284   4.121   4.725  11.057  0.6053 -1.5376  2.4425
   18MPD2     N  285   4.321   4.640  10.677  0.7581  0.2660  0.3978
   18MPD2    H5  286   4.319   0.015  10.671 -0.2939  0.1770 -0.5816
   18MPD2    N1  287   4.180   4.284  10.970 -0.2755 -0.3347  0.8939
   18MPD2    H7  288   4.216   4.223  10.897  0.3888 -0.0937  1.0256
   19TMC2    C1  289   0.405   1.444  14.435  0.6488  0.7533  0.5347
   19TMC2    C2  290   0.298   1.528  14.414  0.2778 -0.3917  0.2635
   19TMC2    C3  291   0.172   1.479  14.394  1.0275 -0.7304 -0.6535
   19TMC2    C4  292   0.389   1.312  14.406  0.0334  0.2106  0.0688
   19TMC2    C5  293   0.255   1.266  14.417 -0.1718 -0.1700 -1.0444
   19TMC2    C6  294   0.144   1.347  14.404  0.0142  0.2239  0.9391
   19TMC2     C  295   0.534   1.498  14.410  0.1123  0.6207 -0.2775
   19TMC2     O  296   0.536   1.614  14.374  0.1618 -0.7172  0.1446
   19TMC2     H  297   0.318   1.634  14.422 -0.6778 -0.2533  0.8546
   19TMC2    H1  298   0.474   1.244  14.410 -0.0829 -0.1430 -3.4293
   19TMC2    H2  299   0.040   1.317  14.407 -0.3890  1.6525  1.5936
   19TMC2    C7  300   0.230   1.127  14.375  0.1701 -0.1605  0.4379
   19TMC2    C8  301   0.069   1.578  14.378 -0.3034  0.3177 -0.4463
   19TMC2    O1  302   0.334   1.071  14.350  0.2506  0.3346  0.6968
   19TMC2    O2  303   4.684   1.546  14.409 -0.2668  0.0425  0.0855
   19TMC2    O5  304   0.099   1.646  14.265 -0.4999  0.1741 -0.6211
   19TMC2    H5  305   0.193   1.635  14.236 -0.0404 -1.7031  1.5696
   20MPD2     C  306   0.816   1.559  14.398 -0.0416 -0.0132 -0.0986
   20MPD2    C1  307   0.765   1.450  14.466  0.3752 -0.2687  0.6175
   20MPD2    C2  308   0.856   1.360  14.525 -0.9595 -0.7880  0.0888
   20MPD2    C3  309   0.990   1.389  14.528  0.0320  0.0669 -0.4141
   20MPD2    C4  310   1.041   1.492  14.453  0.3031 -0.9254 -0.3364
   20MPD2    C5  311   0.951   1.579  14.392  0.1256 -0.0229  0.5082
   20MPD2     H  312   0.817   1.266  14.563  1.2520 -1.8374 -0.2431
   20MPD2    H1  313   1.145   1.520  14.443  0.1709 -0.4297 -0.2858
   20MPD2    H2  314   0.759   1.631  14.341  1.7487  1.7516  0.3542
   20MPD2    H3  315   0.994   1.656  14.330  1.2264 -0.8648  0.2229
   20MPD2     N  316   1.079   1.300  14.590 -0.6090  0.2859  0.2744
   20MPD2    H5  317   1.162   1.345  14.626  0.8086 -1.3664 -0.9023
   20MPD2    N1  318   0.629   1.417  14.465  0.6006  0.3123 -0.8324
   20MPD2    H7  319   0.594   1.338  14.519  0.2173  1.9271  1.2699
   21MPD2     C  320   2.797   1.864  14.200  0.3255 -0.3058 -0.2748
   21MPD2    C1  321   2.826   1.750  14.270  0.0828  0.6072 -0.7423
   21MPD2    C2  322   2.777   1.737  14.406  0.6942  0.6001 -0.4361
   21MPD2    C3  323   2.697   1.831  14.462 -0.4079  1.0097  0.6885
   21MPD2    C4  324   2.663   1.933  14.385 -0.7109  0.1384 -0.2093
   21MPD2    C5  325   2.710   1.952  14.257  0.2327  0.0057  0.0803
   21MPD2     H  326   2.812   1.659  14.472  0.5294  1.1103  0.2547
   21MPD2    H1  327   2.601   2.014  14.424  0.3437  0.7752  0.1446
   21MPD2    H2  328   2.833   1.876  14.098  0.5563  0.6886 -0.0819
   21MPD2    H3  329   2.681   2.043  14.205 -2.6762 -0.8444  0.2267
   21MPD2     N  330   2.658   1.825  14.596 -0.4683  0.3593  0.1881
   21MPD2    H5  331   2.608   1.901  14.640 -1.4842  0.3303 -0.9136
   21MPD2    N1  332   2.918   1.660  14.205  0.0035  0.4778  0.4110
   21MPD2    H7  333   2.966   1.700  14.125  1.5812 -0.3743  0.9437
   22TCq2    C1  334   2.679   1.726  14.686 -0.3093  0.4198 -0.3630
   22TCq2    O2  335   2.725   1.617  14.671 -0.3720 -0.3005 -0.1637
   22TCq2    C2  336   2.642   1.755  14.819  0.3209  0.2881  0.1076
   22TCq2    C3  337   2.728   1.718  14.919 -0.2568 -0.1248  0.3950
   22TCq2    C4  338   2.680   1.742  15.040  0.7407 -0.0133 -0.3071
   22TCq2    C5  339   2.563   1.812  15.060  0.0501  0.5288  0.1703
   22TCq2    C6  340   2.485   1.851  14.962  0.3486 -0.4829  0.5700
   22TCq2    C7  341   2.531   1.829  14.836 -0.2841 -0.1416  0.9200
   22TCq2    C8  342   2.364   1.937  14.990 -0.5142 -0.3456 -1.1343
   22TCq2    O4  343   2.328   1.949  15.106 -0.0997 -0.2308 -0.5734
   22TCq2    C9  344   2.761   1.697  15.150 -0.0093 -1.3076  0.6150
   22TCq2    O5  345   2.869   1.636  15.124 -0.1333  0.4083  0.3990
   22TCq2    O6  346   2.706   1.711  15.265 -1.0524 -0.3674  0.5551
   22TCq2    H2  347   2.821   1.666  14.899  0.5592  0.3514  2.9830
   22TCq2    H3  348   2.532   1.846  15.158  0.0570  1.7639 -0.2568
   22TCq2    H4  349   2.458   1.833  14.756 -0.5795 -0.3366  1.1781
   23MPD2     C  350   4.343   2.397  14.734 -0.3039 -0.7076 -0.4237
   23MPD2    C1  351   4.226   2.325  14.763  0.5610  0.1669 -0.3374
   23MPD2    C2  352   4.116   2.331  14.681  0.3520  0.5517 -0.1284
   23MPD2    C3  353   4.120   2.416  14.566  0.6392  0.5381 -0.2233
   23MPD2    C4  354   4.221   2.502  14.550 -0.3559  0.2506 -0.1757
   23MPD2    C5  355   4.330   2.502  14.641 -0.3750  0.0942 -0.0676
   23MPD2     H  356   4.024   2.278  14.700 -0.2806  2.4659  2.1921
   23MPD2    H1  357   4.218   2.566  14.463  1.3814  0.6128  0.0324
   23MPD2    H2  358   4.420   2.391  14.809  1.2003 -1.0023 -1.9994
   23MPD2    H3  359   4.403   2.581  14.639  0.9588 -1.1298  0.5357
   23MPD2     N  360   4.012   2.421  14.479 -0.0551  0.2449 -0.5494
   23MPD2    H5  361   4.013   2.501  14.418 -0.5720  0.1589 -0.6725
   23MPD2    N1  362   4.211   2.242  14.874  1.0568  0.8145  0.2129
   23MPD2    H7  363   4.117   2.214  14.900  1.3985  1.2233  1.8911
   24TCq2    C1  364   3.914   2.321  14.462  0.9123 -0.8597  0.7513
   24TCq2    O2  365   3.912   2.210  14.512 -0.4918 -0.1004  0.2544
   24TCq2    C2  366   3.812   2.364  14.368  0.4853  0.1220 -0.1801
   24TCq2    C3  367   3.816   2.488  14.313 -0.8231 -0.2490  0.9699
   24TCq2    C4  368   3.709   2.538  14.240  0.5272 -0.4218 -0.1328
   24TCq2    C5  369   3.593   2.458  14.226  0.3743  0.1850 -0.2413
   24TCq2    C6  370   3.587   2.338  14.292 -1.1570 -0.3198 -0.1215
   24TCq2    C7  371   3.690   2.289  14.364  0.1942 -0.7407  0.4255
   24TCq2    C8  372   3.456   2.298  14.336  0.3008 -0.4472  0.5482
   24TCq2    O4  373   3.452   2.195  14.399 -0.0770 -0.3019 -0.0747
   24TCq2    C9  374   3.719   2.659  14.162 -0.3022 -0.7022  0.4556
   24TCq2    O5  375   3.629   2.702  14.085  0.0995  0.6295  0.0829
   24TCq2    O6  376   3.829   2.717  14.160 -0.0187  0.4240 -0.1039
   24TCq2    H2  377   3.908   2.545  14.306 -0.4914 -0.8761  0.1816
   24TCq2    H3  378   3.511   2.501  14.169 -0.2122 -0.0051  0.4701
   24TCq2    H4  379   3.683   2.207  14.434  1.4674  1.3620  3.0021
   25TMC2    C1  380   2.854   4.612  11.780  0.1228  0.6471 -0.0065
   25TMC2    C2  381   2.866   0.015  11.738 -0.1086  0.2265  0.2630
   25TMC2    C3  382   2.845   0.114  11.829 -0.4882  0.0223 -0.0239
   25TMC2    C4  383   2.821   4.578  11.907 -0.3339  0.0535  0.1737
   25TMC2    C5  384   2.809   4.677  11.993  0.6855  0.5481  0.3962
   25TMC2    C6  385   2.813   0.083  11.953  0.1877 -0.7176  0.5195
   25TMC2     C  386   2.839   4.516  11.670  1.0428  0.2669  0.4267
   25TMC2     O  387   2.899   4.542  11.565  0.1107  0.8446  0.3953
   25TMC2     H  388   2.863   0.035  11.632 -2.1856  0.3304  0.3462
   25TMC2    H1  389   2.834   4.476  11.943  3.1148  0.2183 -0.5411
   25TMC2    H2  390   2.814   0.162  12.028 -2.2701 -0.1706 -0.0215
   25TMC2    C7  391   2.811   4.657  12.137 -0.0311  0.4531  0.4786
   25TMC2    C8  392   2.811   0.252  11.794 -0.4578  0.0217 -0.6198
   25TMC2    O1  393   2.860   0.020  12.206  0.0734 -0.3575  0.3085
   25TMC2    O2  394   2.739   0.324  11.868 -0.0997 -0.3172 -0.2256
   25TMC2    O5  395   2.913   0.299  11.724 -0.2782  0.2005 -0.4602
   25TMC2    H5  396   2.977   0.230  11.695 -1.4078 -0.6868 -0.8713
   26MPD2     C  397   2.663   4.083  11.463  0.3562  0.1389 -0.2110
   26MPD2    C1  398   2.590   4.113  11.574  0.8931  0.4324 -0.2835
   26MPD2    C2  399   2.625   4.218  11.654 -0.2353 -1.1596 -0.1882
   26MPD2    C3  400   2.724   4.302  11.613 -0.1609  0.2315 -0.3928
   26MPD2    C4  401   2.789   4.283  11.492 -0.3992  0.2085  0.2039
   26MPD2    C5  402   2.757   4.173  11.423  0.1140 -0.2216 -0.6080
   26MPD2     H  403   2.571   4.235  11.746 -0.3089  1.1959 -0.6622
   26MPD2    H1  404   2.870   4.349  11.463 -0.7711  1.2819  1.5708
   26MPD2    H2  405   2.634   4.003  11.395  1.5144  0.3252 -0.9323
   26MPD2    H3  406   2.806   4.151  11.329 -1.2702  0.2587 -1.4528
   26MPD2     N  407   2.754   4.412  11.702 -0.0120  0.4351 -0.4662
   26MPD2    H5  408   2.703   4.415  11.790 -2.0573  2.7479 -1.7142
   26MPD2    N1  409   2.482   4.026  11.599 -0.6187 -0.2751  0.7987
   26MPD2    H7  410   2.475   3.951  11.531  1.8737 -0.6668  0.9788
   27TMC2    C1  411   2.288   2.138  11.892  0.0607  0.4991 -0.5178
   27TMC2    C2  412   2.220   2.207  11.797 -0.8269  0.4206  0.2411
   27TMC2    C3  413   2.249   2.337  11.776  0.9370 -0.6168  0.3466
   27TMC2    C4  414   2.356   2.214  11.978 -0.2649 -0.8457  0.4062
   27TMC2    C5  415   2.371   2.349  11.972  0.3389  0.2168  0.3177
   27TMC2    C6  416   2.322   2.412  11.864 -0.5977 -1.1932  0.2225
   27TMC2     C  417   2.223   2.034  11.959 -0.5758  0.5860  0.0253
   27TMC2     O  418   2.287   1.931  11.974  0.1240 -0.4476 -0.4788
   27TMC2     H  419   2.141   2.166  11.735 -1.3050  0.2631  0.9546
   27TMC2    H1  420   2.413   2.158  12.051  0.5622 -0.2409  0.2257
   27TMC2    H2  421   2.293   2.516  11.858  2.5919 -0.3722 -0.9837
   27TMC2    C7  422   2.344   2.401  12.106 -0.6841  0.1373  0.2085
   27TMC2    C8  423   2.186   2.406  11.672  0.0852 -0.2416  0.1399
   27TMC2    O1  424   2.342   2.324  12.202  0.7322  0.3101  0.4633
   27TMC2    O2  425   2.080   2.374  11.616  0.0940 -0.0316  0.3312
   27TMC2    O5  426   2.274   2.494  11.614 -0.3668 -0.5635  0.0619
   27TMC2    H5  427   2.362   2.484  11.657 -0.4768  1.4734  0.7812
   28MPD2     C  428   1.898   1.866  12.324 -0.5701  0.5969  0.0604
   28MPD2    C1  429   1.876   1.997  12.312  0.4536 -0.0255 -0.1205
   28MPD2    C2  430   1.946   2.060  12.206  0.8108  0.0272 -0.4003
   28MPD2    C3  431   2.046   1.999  12.128  0.4218 -0.2478 -0.1831
   28MPD2    C4  432   2.075   1.867  12.163 -0.0468  0.3276 -0.0470
   28MPD2    C5  433   1.995   1.805  12.250 -0.0805 -1.0079  0.4844
   28MPD2     H  434   1.936   2.167  12.191 -0.1446 -0.0643 -0.4371
   28MPD2    H1  435   2.153   1.802  12.126  0.7284  1.0967  0.2368
   28MPD2    H2  436   1.836   1.805  12.389 -1.8580 -1.1671 -2.8095
   28MPD2    H3  437   2.023   1.703  12.275 -1.7379 -1.7046 -0.5366
   28MPD2     N  438   2.119   2.082  12.030 -0.2147 -0.4478 -0.1366
   28MPD2    H5  439   2.091   2.178  12.011  1.1848  0.3863  2.1079
   28MPD2    N1  440   1.764   2.055  12.379 -0.2019 -0.7262  0.2062
   28MPD2    H7  441   1.710   1.994  12.440 -0.5716 -0.8635 -0.2628
   29MPD2     C  442   1.478   0.066  14.338  0.2203  0.8228 -0.1489
   29MPD2    C1  443   1.598   0.023  14.390 -0.2824 -0.0126 -0.0582
   29MPD2    C2  444   1.663   0.101  14.487 -0.1916 -0.1725 -0.1905
   29MPD2    C3  445   1.604   0.226  14.527 -1.0917 -0.0746 -0.8309
   29MPD2    C4  446   1.485   0.264  14.463  0.3830 -0.0320  0.1083
   29MPD2    C5  447   1.420   0.188  14.365  0.7983 -1.2583 -0.2641
   29MPD2     H  448   1.747   0.062  14.544 -0.2612 -1.4557 -0.9862
   29MPD2    H1  449   1.439   0.361  14.477  1.5020  0.6666 -1.0574
   29MPD2    H2  450   1.422   4.722  14.278 -1.2320  2.1274 -0.3324
   29MPD2    H3  451   1.334   0.230  14.313  1.3287 -0.9371 -0.8873
   29MPD2     N  452   1.654   0.315  14.627 -0.1451 -0.5185 -0.1958
   29MPD2    H5  453   1.603   0.400  14.651  1.7033 -0.0385  2.0972
   29MPD2    N1  454   1.663   4.628  14.356  0.2256 -0.7074 -0.1777
   29MPD2    H7  455   1.754   4.607  14.395 -0.4992 -1.6823  0.9941
   30TCq2    C1  456   1.760   0.281  14.715 -0.8323  0.4863 -0.0287
   30TCq2    O2  457   1.816   0.174  14.727 -0.1370  0.1782 -0.3756
   30TCq2    C2  458   1.779   0.389  14.813  0.5467  0.0283 -0.5422
   30TCq2    C3  459   1.909   0.399  14.851 -0.9067 -0.0174  0.6005
   30TCq2    C4  460   1.966   0.520  14.856 -0.8052  0.3530  0.0248
   30TCq2    C5  461   1.892   0.635  14.841 -0.6047 -0.1138 -0.0580
   30TCq2    C6  462   1.762   0.623  14.798 -0.3889  0.7455  0.2883
   30TCq2    C7  463   1.702   0.500  14.780  0.4801 -0.4396 -0.3698
   30TCq2    C8  464   1.685   0.733  14.744 -0.7352  0.4939  0.4722
   30TCq2    O4  465   1.567   0.712  14.711 -0.2440  0.6544  0.9717
   30TCq2    C9  466   2.110   0.533  14.868 -0.0607  0.6466  0.2943
   30TCq2    O5  467   2.172   0.428  14.906  0.1277 -0.3545 -0.0281
   30TCq2    O6  468   2.158   0.644  14.842  0.3425  0.8172 -0.2628
   30TCq2    H2  469   1.968   0.310  14.866  1.1081  1.1906 -0.0883
   30TCq2    H3  470   1.950   0.724  14.855  0.5763 -0.7677 -0.8031
   30TCq2    H4  471   1.595   0.497  14.763  0.4258  0.0089 -0.1183
   31MPD2     C  472   4.698   3.483  14.747  0.6106 -0.8486 -0.2709
   31MPD2    C1  473   4.577   3.475  14.691 -0.0320  0.1069  0.4992
   31MPD2    C2  474   4.475   3.388  14.751  0.1595  0.4967 -0.3686
   31MPD2    C3  475   4.512   3.302  14.853  0.5206  0.4110 -0.2758
   31MPD2    C4  476   4.640   3.320  14.909  0.2258  0.9098 -0.0223
   31MPD2    C5  477   0.006   3.410  14.853 -0.0068  0.0464 -0.7764
   31MPD2     H  478   4.371   3.386  14.722  0.5325  0.9482 -1.7339
   31MPD2    H1  479   4.682   3.255  14.985 -1.3584  1.5111  1.3702
   31MPD2    H2  480   0.045   3.553  14.708  0.4087 -1.8826 -2.4483
   31MPD2    H3  481   0.103   3.431  14.898 -0.0565 -1.6366  0.1474
   31MPD2     N  482   4.428   3.205  14.913 -0.0357  0.4953 -0.5141
   31MPD2    H5  483   4.463   3.166  15.000  2.0832  0.6726 -1.3007
   31MPD2    N1  484   4.548   3.569  14.587  0.2602 -0.0781  0.5292
   31MPD2    H7  485   4.622   3.631  14.555  0.8915 -1.1094 -0.0068
   32TCq2    C1  486   4.315   3.148  14.855 -0.1262 -0.4190 -0.2930
   32TCq2    O2  487   4.277   3.159  14.740 -0.2192 -0.9790  0.3401
   32TCq2    C2  488   4.238   3.051  14.933 -0.1762 -0.1820 -0.4239
   32TCq2    C3  489   4.136   2.984  14.866 -0.1185  0.4460 -0.3563
   32TCq2    C4  490   4.025   2.933  14.933  0.4601  0.4801 -0.3214
   32TCq2    C5  491   4.015   2.950  15.071 -0.5394  0.0373 -0.1611
   32TCq2    C6  492   4.105   3.024  15.128  0.2279 -0.0531 -0.5854
   32TCq2    C7  493   4.220   3.067  15.069  0.6461  0.5784 -0.0168
   32TCq2    C8  494   4.110   3.026  15.269 -0.4786  0.3870 -0.9032
   32TCq2    O4  495   4.226   3.020  15.315  0.1313  0.4230  0.0393
   32TCq2    C9  496   3.914   2.877  14.853 -0.2593  0.3368  0.0945
   32TCq2    O5  497   3.948   2.838  14.735  0.0144  0.0978  0.0986
   32TCq2    O6  498   3.797   2.888  14.903 -0.6901  0.2366 -0.3027
   32TCq2    H2  499   4.139   2.973  14.758  0.8665  0.1038 -0.2909
   32TCq2    H3  500   3.928   2.896  15.108 -1.0567  0.8909 -0.1272
   32TCq2    H4  501   4.291   3.123  15.129 -0.2519  0.8236  0.8154
   33MPD2     C  502   3.941   0.227  10.322 -0.0606 -0.2103  0.1032
   33MPD2    C1  503   4.063   0.266  10.274  0.4101  0.4378  0.4228
   33MPD2    C2  504   4.079   0.389  10.211 -0.5299 -0.1042 -0.3329
   33MPD2    C3  505   3.979   0.485  10.220  0.6672  0.2925  0.0876
   33MPD2    C4  506   3.855   0.447  10.273  0.3653 -0.0093  0.1228
   33MPD2    C5  507   3.841   0.326  10.323 -0.0234 -0.2644  0.0458
   33MPD2     H  508   4.178   0.408  10.172 -1.2940  0.5943 -1.9522
   33MPD2    H1  509   3.781   0.525  10.282  0.8011  0.4119  0.0174
   33MPD2    H2  510   3.923   0.130  10.368  0.2102 -0.6874 -0.7970
   33MPD2    H3  511   3.741   0.306  10.358  0.2267 -0.8813  0.4113
   33MPD2     N  512   3.986   0.619  10.173  0.3129  1.3429 -0.4516
   33MPD2    H5  513   3.912   0.681  10.207 -0.4810 -0.5182  1.2254
   33MPD2    N1  514   4.170   0.176  10.295  0.5383  0.2122 -0.2194
   33MPD2    H7  515   4.150   0.079  10.317 -1.8069  0.7096 -0.1537
   34TCq2    C1  516   4.092   0.674  10.103  0.1001 -0.0261  0.4965
   34TCq2    O2  517   4.193   0.620  10.063 -0.5094  0.1631  0.5356
   34TCq2    C2  518   4.062   0.811  10.048  0.0955  0.3355  0.1021
   34TCq2    C3  519   3.943   0.872  10.081 -0.1951 -0.5732 -0.0703
   34TCq2    C4  520   3.912   0.986  10.017  0.4002 -0.4901  0.0924
   34TCq2    C5  521   4.009   1.057   9.935 -0.6988 -0.2840 -1.0139
   34TCq2    C6  522   4.129   0.994   9.915  0.8695  0.1688  0.7765
   34TCq2    C7  523   4.160   0.874   9.970  1.0747 -0.4118 -0.0133
   34TCq2    C8  524   4.230   1.063   9.831 -0.2862  0.2916  0.0159
   34TCq2    O4  525   4.348   1.049   9.861 -0.6242  0.1867 -0.3689
   34TCq2    C9  526   3.782   1.053  10.037  0.2362 -0.3315  0.0766
   34TCq2    O5  527   3.726   1.029  10.148  0.2710  0.4518 -0.5046
   34TCq2    O6  528   3.755   1.157   9.966 -0.0161 -0.4212 -0.3446
   34TCq2    H2  529   3.866   0.831  10.144  2.0261  0.1247  3.0742
   34TCq2    H3  530   3.983   1.153   9.893  1.6211  1.9621  2.7434
   34TCq2    H4  531   4.243   0.815   9.934  1.1994 -1.8157  2.5998
   35MPD2     C  532   1.169   2.671  11.727  0.2659 -0.2511 -0.3720
   35MPD2    C1  533   1.137   2.601  11.839 -0.2503 -0.3353  0.1811
   35MPD2    C2  534   1.054   2.493  11.822 -0.0313 -0.0665 -0.5701
   35MPD2    C3  535   0.991   2.459  11.699 -0.1034  0.2490 -0.0178
   35MPD2    C4  536   1.039   2.527  11.586  0.0404 -0.0955 -0.2683
   35MPD2    C5  537   1.132   2.630  11.602 -0.5138  0.3034 -0.4597
   35MPD2     H  538   1.029   2.430  11.906 -0.2334  0.7934  0.0120
   35MPD2    H1  539   1.006   2.498  11.487 -0.1861 -1.6352  0.2656
   35MPD2    H2  540   1.237   2.755  11.726  0.7354 -0.6681 -3.9613
   35MPD2    H3  541   1.177   2.678  11.516  3.1252 -0.3528  1.0750
   35MPD2     N  542   0.896   2.358  11.702  0.7166 -0.2089 -0.0861
   35MPD2    H5  543   0.886   2.309  11.790 -1.7620  1.0861  0.3526
   35MPD2    N1  544   1.197   2.638  11.969  0.4845  0.1518  0.7999
   35MPD2    H7  545   1.226   2.735  11.978  3.4003 -0.6650  0.2363
   36TCq2    C1  546   0.814   2.321  11.600 -0.1207  0.4178  1.3347
   36TCq2    O2  547   0.809   2.383  11.494  0.0731 -0.8549  0.4963
   36TCq2    C2  548   0.719   2.216  11.634 -0.1619  0.1225  0.1586
   36TCq2    C3  549   0.602   2.233  11.566  0.1428  0.3830  0.9196
   36TCq2    C4  550   0.494   2.185  11.624 -0.3742  0.1217 -0.2381
   36TCq2    C5  551   0.496   2.113  11.743 -0.1706  0.4161  0.3168
   36TCq2    C6  552   0.615   2.097  11.809 -0.3945  0.8546 -0.9073
   36TCq2    C7  553   0.726   2.153  11.756 -0.4321  0.2029 -0.3752
   36TCq2    C8  554   0.626   1.980  11.902 -0.5438 -0.1756 -0.4026
   36TCq2    O4  555   0.733   1.922  11.923 -0.3046 -0.5137  0.8479
   36TCq2    C9  556   0.366   2.200  11.561  0.4558  0.2883  0.1024
   36TCq2    O5  557   0.361   2.268  11.454 -0.8112 -0.6391 -0.1340
   36TCq2    O6  558   0.267   2.136  11.610 -0.2135 -0.0683  0.1754
   36TCq2    H2  559   0.599   2.280  11.469 -2.7956  0.1522  0.8909
   36TCq2    H3  560   0.402   2.072  11.777 -1.0644  2.0627 -0.1763
   36TCq2    H4  561   0.814   2.131  11.815  0.7301  1.7511 -1.5551
   37TMC2    C1  562   3.142   3.190  11.296 -0.8495  0.0636  0.0944
   37TMC2    C2  563   3.186   3.236  11.173 -0.3853  0.6956 -0.1244
   37TMC2    C3  564   3.319   3.248  11.154 -0.3224 -0.3160  0.3556
   37TMC2    C4  565   3.230   3.160  11.392 -0.4500  0.7328 -0.9308
   37TMC2    C5  566   3.369   3.168  11.371 -0.5711 -0.2739  1.1167
   37TMC2    C6  567   3.417   3.215  11.249 -0.4433 -0.5943  0.3380
   37TMC2     C  568   3.010   3.137  11.317  0.1612 -0.8110 -0.0572
   37TMC2     O  569   2.913   3.185  11.258  0.1955  1.0420 -0.4258
   37TMC2     H  570   3.121   3.259  11.090  1.4804  0.1926 -1.7243
   37TMC2    H1  571   3.198   3.134  11.492  0.8235 -0.9157 -0.9343
   37TMC2    H2  572   3.524   3.220  11.230 -0.3876 -2.4810  0.1022
   37TMC2    C7  573   3.455   3.092  11.459 -0.3762 -0.1066 -0.5259
   37TMC2    C8  574   3.355   3.298  11.019 -0.2412 -0.4479  0.0576
   37TMC2    O1  575   3.410   3.052  11.567 -0.1592  0.6764  0.7885
   37TMC2    O2  576   3.289   3.372  10.945  0.0298  0.3585  0.3930
   37TMC2    O5  577   3.435   3.202  10.972  0.8487  0.1878 -0.1609
   37TMC2    H5  578   3.439   3.120  11.026 -2.1647  0.0547 -0.1683
   38MPD2     C  579   2.698   2.894  11.657  0.0577  0.0939 -0.4788
   38MPD2    C1  580   2.826   2.841  11.660 -0.3126  0.0816 -0.0176
   38MPD2    C2  581   2.926   2.886  11.578  0.0280  0.5821  0.6237
   38MPD2    C3  582   2.897   2.982  11.483 -0.5352  0.1380  0.0937
   38MPD2    C4  583   2.765   3.027  11.473 -0.0435  0.3569 -0.6221
   38MPD2    C5  584   2.666   2.978  11.555 -0.2070  0.0853 -0.2984
   38MPD2     H  585   3.031   2.860  11.585  0.8632  3.6707 -0.4204
   38MPD2    H1  586   2.732   3.095  11.396  0.0144  0.1591 -0.8225
   38MPD2    H2  587   2.624   2.887  11.736  3.3946  1.7497  2.8291
   38MPD2    H3  588   2.563   3.008  11.541 -0.6240 -0.8934  0.6252
   38MPD2     N  589   3.008   3.037  11.414 -0.2128 -0.5309  0.4332
   38MPD2    H5  590   3.096   2.988  11.425  0.0614 -0.7724 -3.0101
   38MPD2    N1  591   2.875   2.762  11.770 -1.2019  0.2141  0.4633
   38MPD2    H7  592   2.976   2.753  11.778 -0.9695  1.4428 -1.1192
   39MPD2     C  593   0.602   4.001   1.501  0.4827 -0.1230 -1.0392
   39MPD2    C1  594   0.538   4.115   1.544  0.0373  0.5557  0.5476
   39MPD2    C2  595   0.407   4.137   1.527  0.1017  0.2876 -0.0511
   39MPD2    C3  596   0.332   4.044   1.467 -0.3040  0.2270 -0.1257
   39MPD2    C4  597   0.391   3.927   1.420  0.1557 -0.1186  0.3375
   39MPD2    C5  598   0.528   3.909   1.430  0.1440  0.2630 -0.0206
   39MPD2     H  599   0.354   4.219   1.574 -2.0808  0.2815 -2.5197
   39MPD2    H1  600   0.345   3.858   1.352  0.5752  1.0935 -1.1775
   39MPD2    H2  601   0.707   3.982   1.514 -0.2146 -2.5067  1.1799
   39MPD2    H3  602   0.570   3.816   1.393 -0.5439  1.4300 -3.7546
   39MPD2     N  603   0.199   4.055   1.441  0.0865  0.6164  0.4651
   39MPD2    H5  604   0.150   3.972   1.408 -0.2265  1.2553 -0.6514
   39MPD2    N1  605   0.614   4.210   1.615  0.0470 -0.6922 -0.0115
   39MPD2    H7  606   0.710   4.182   1.631  0.4929  0.2465 -1.0369
   40TCq2    C1  607   0.574   4.325   1.682  0.1200  0.1203 -0.2781
   40TCq2    O2  608   0.461   4.379   1.680 -0.5275  0.0770  0.0173
   40TCq2    C2  609   0.687   4.407   1.725 -0.5430 -0.1146  0.3785
   40TCq2    C3  610   0.658   4.537   1.758  0.3587 -0.0015 -0.7024
   40TCq2    C4  611   0.760   4.625   1.777  1.4666  0.7398 -0.5161
   40TCq2    C5  612   0.888   4.593   1.774 -0.3296  0.9141 -0.1627
   40TCq2    C6  613   0.911   4.466   1.740  1.3325 -0.9645  0.1199
   40TCq2    C7  614   0.814   4.369   1.709  0.5361 -0.4184  1.0757
   40TCq2    C8  615   1.046   4.430   1.708  0.0191  0.9728  0.7118
   40TCq2    O4  616   1.079   4.315   1.709  0.1637  0.2524  0.8026
   40TCq2    C9  617   0.721   0.024   1.823  0.0212  0.6086 -0.5945
   40TCq2    O5  618   0.809   0.116   1.819 -0.5599  0.5553  0.0573
   40TCq2    O6  619   0.603   0.043   1.851  0.0203  0.0086 -0.0438
   40TCq2    H2  620   0.559   4.575   1.778  1.1319  1.2288  0.8455
   40TCq2    H3  621   0.966   4.663   1.804 -2.1824  3.3507 -1.0474
   40TCq2    H4  622   0.844   4.270   1.676  1.1315  0.4619 -1.0366
   41TMC2    C1  623   0.367   2.680  13.904  0.1791  0.1605 -0.3686
   41TMC2    C2  624   0.327   2.808  13.931 -0.2932 -0.0332  0.0032
   41TMC2    C3  625   0.297   2.879  13.821  0.2073  0.0565  0.5803
   41TMC2    C4  626   0.373   2.629  13.778 -0.5508 -0.2815 -0.8146
   41TMC2    C5  627   0.334   2.707  13.672 -0.4438 -0.1889 -0.3246
   41TMC2    C6  628   0.304   2.836  13.691  0.0269  0.7302  0.1225
   41TMC2     C  629   0.371   2.578  14.009  0.5864  0.4747  0.6284
   41TMC2     O  630   0.393   2.463  13.978 -0.2633  0.3355 -0.7004
   41TMC2     H  631   0.285   2.838  14.026  1.3003  0.7255  0.4739
   41TMC2    H1  632   0.412   2.532  13.750  0.6399  0.2489 -0.9705
   41TMC2    H2  633   0.273   2.905  13.614  1.0291 -1.2727 -2.0699
   41TMC2    C7  634   0.314   2.643  13.544  0.1071  0.3371 -0.3306
   41TMC2    C8  635   0.254   3.008  13.848  0.1405 -0.2767  0.4566
   41TMC2    O1  636   0.370   2.537  13.531 -0.0451  0.3088 -0.2595
   41TMC2    O2  637   0.174   3.066  13.775  0.0393  0.4599 -0.0772
   41TMC2    O5  638   0.322   3.057  13.952  0.4387  0.1581  0.4066
   41TMC2    H5  639   0.411   3.016  13.951 -0.0897 -0.9990 -0.9671
   42MPD2     C  640   0.208   2.457  14.227 -0.2945 -0.2867  0.0472
   42MPD2    C1  641   0.282   2.571  14.249 -0.2881  0.2072 -0.7012
   42MPD2    C2  642   0.291   2.629  14.373  0.4995 -0.0488 -0.3755
   42MPD2    C3  643   0.225   2.568  14.479 -0.2137 -0.1089  0.0410
   42MPD2    C4  644   0.174   2.445  14.460  0.1900  0.0287  0.1596
   42MPD2    C5  645   0.155   2.390  14.340  1.0272 -0.2597 -0.0001
   42MPD2     H  646   0.344   2.724  14.380  1.9917 -0.9435  0.5789
   42MPD2    H1  647   0.132   2.391  14.544 -1.4144  0.9318 -0.0643
   42MPD2    H2  648   0.176   2.425  14.128  0.5735  2.4280 -1.1212
   42MPD2    H3  649   0.105   2.296  14.321  1.0920 -0.1631 -0.6448
   42MPD2     N  650   0.231   2.598  14.618  0.2588  0.0782 -0.5936
   42MPD2    H5  651   0.166   2.548  14.679 -0.2777  1.2192 -0.2374
   42MPD2    N1  652   0.349   2.635  14.133 -0.1362 -0.6229  0.3068
   42MPD2    H7  653   0.390   2.725  14.154 -3.4243  0.3826  2.4192
   43MPD2     C  654   1.071   0.841   0.302  0.0908 -0.2400  0.3330
   43MPD2    C1  655   1.099   0.775   0.420 -0.4200 -0.3021 -0.3485
   43MPD2    C2  656   1.054   0.832   0.536 -0.7505  0.6063  0.2133
   43MPD2    C3  657   0.959   0.931   0.542  0.2351  0.0583  0.8885
   43MPD2    C4  658   0.922   0.978   0.426 -0.1167 -0.5577  0.2973
   43MPD2    C5  659   0.967   0.929   0.310 -0.2393  0.6332 -0.1591
   43MPD2     H  660   1.083   0.780   0.627  0.8759  0.9565 -0.0951
   43MPD2    H1  661   0.852   1.061   0.423  0.1628 -0.2811  1.4011
   43MPD2    H2  662   1.111   0.820   0.203 -0.1706  1.6877 -0.1863
   43MPD2    H3  663   0.927   0.977   0.222 -3.3984  2.0999  2.0949
   43MPD2     N  664   0.906   0.990   0.658  0.3106 -0.0615 -0.2204
   43MPD2    H5  665   0.845   1.067   0.634 -1.1222 -0.8914  0.7263
   43MPD2    N1  666   1.192   0.663   0.412 -0.0248 -0.5284  0.3697
   43MPD2    H7  667   1.231   0.653   0.319 -0.7074 -1.5971  0.1987
   44TCq2    C1  668   0.874   1.162   1.231  0.8415 -0.1016 -0.9846
   44TCq2    O2  669   0.934   1.058   1.266 -0.5374  0.4079 -0.9034
   44TCq2    C2  670   0.828   1.146   1.089  0.3682 -1.1753  0.7492
   44TCq2    C3  671   0.736   1.237   1.037 -0.1657 -0.2943  0.1936
   44TCq2    C4  672   0.705   1.222   0.907  0.1237  0.3114  0.4682
   44TCq2    C5  673   0.750   1.120   0.826  0.1034  0.3118  0.3452
   44TCq2    C6  674   0.841   1.030   0.877 -0.1249  0.7848 -0.1148
   44TCq2    C7  675   0.880   1.041   1.011  0.2493  0.1437  0.3884
   44TCq2    C8  676   0.936   0.963   0.791 -0.0510  0.0366  0.6081
   44TCq2    O4  677   1.026   0.895   0.842  0.6485 -0.0430 -0.3113
   44TCq2    C9  678   0.637   1.322   0.842  0.0108  1.0201 -0.6890
   44TCq2    O5  679   0.618   1.310   0.719  0.1264 -0.3497  1.2891
   44TCq2    O6  680   0.612   1.426   0.908 -1.0886 -0.0084  0.2494
   44TCq2    H2  681   0.696   1.319   1.096 -0.6922 -0.6173  0.2800
   44TCq2    H3  682   0.699   1.110   0.731  0.8045  2.7098 -0.2920
   44TCq2    H4  683   0.950   0.969   1.052 -0.1311 -0.7992 -0.6221
   45TMC2    C1  684   1.916   3.198   9.702  0.3582  0.5561 -0.0409
   45TMC2    C2  685   1.813   3.243   9.619  0.1866  0.1561  0.0323
   45TMC2    C3  686   1.805   3.379   9.600  0.4108  0.3765  0.7898
   45TMC2    C4  687   1.999   3.284   9.777 -0.1372  0.0485  0.2266
   45TMC2    C5  688   1.973   3.419   9.768 -0.5191  0.2364  0.0022
   45TMC2    C6  689   1.880   3.468   9.678  0.0768 -0.9284  0.3715
   45TMC2     C  690   1.939   3.055   9.721 -0.4135 -1.0502 -0.1777
   45TMC2     O  691   2.010   3.011   9.811  0.3834  0.4373  0.5877
   45TMC2     H  692   1.742   3.183   9.563  0.4034 -0.9838  0.9950
   45TMC2    H1  693   2.094   3.247   9.814 -0.1403 -0.5478 -0.3614
   45TMC2    H2  694   1.858   3.572   9.656 -1.3758 -1.0514  1.2318
   45TMC2    C7  695   2.052   3.519   9.839  0.1991 -0.0270 -0.5825
   45TMC2    C8  696   1.708   3.439   9.510 -0.6076 -0.4020 -0.5741
   45TMC2    O1  697   2.042   3.626   9.776 -0.4500  0.4234 -0.5596
   45TMC2    O2  698   1.683   3.557   9.510  0.3510  0.4995 -0.4974
   45TMC2    O5  699   1.732   3.361   9.400  0.8484  0.2471 -0.0265
   45TMC2    H5  700   1.788   3.280   9.404  1.1994  0.4327 -1.2223
   46MPD2     C  701   1.949   2.757   9.677  0.6987  0.3590 -0.7281
   46MPD2    C1  702   1.860   2.838   9.616 -0.2501  0.3750  0.9431
   46MPD2    C2  703   1.762   2.787   9.530  0.6776  0.2668 -0.5320
   46MPD2    C3  704   1.742   2.655   9.520  0.3587  0.0841  0.8921
   46MPD2    C4  705   1.837   2.570   9.570 -0.0786 -0.0992  0.0876
   46MPD2    C5  706   1.939   2.621   9.638  0.0802  0.2867 -0.5913
   46MPD2     H  707   1.695   2.861   9.488  0.2337 -0.4380 -1.0707
   46MPD2    H1  708   1.824   2.463   9.563 -0.3002 -0.0487 -0.3017
   46MPD2    H2  709   2.032   2.788   9.739  0.1326  2.8466 -1.2160
   46MPD2    H3  710   1.988   2.545   9.698  1.5913  2.0954  0.4634
   46MPD2     N  711   1.617   2.619   9.475 -0.5104 -0.4221 -0.4049
   46MPD2    H5  712   1.552   2.696   9.463  2.0229  1.8515  0.3232
   46MPD2    N1  713   1.863   2.980   9.628  0.2315  0.7396 -0.1937
   46MPD2    H7  714   1.806   3.033   9.562 -0.7818  1.8462  1.5767
   47TMC2    C1  715   4.109   3.417   9.634 -0.6981  0.4939 -0.1241
   47TMC2    C2  716   4.122   3.365   9.505  0.0110 -0.9471 -0.4251
   47TMC2    C3  717   4.010   3.380   9.425 -0.2807  0.1305  0.2701
   47TMC2    C4  718   3.993   3.482   9.673 -0.1431  0.2919  0.2404
   47TMC2    C5  719   3.891   3.498   9.578 -0.2694  0.2456  0.3723
   47TMC2    C6  720   3.896   3.440   9.453  1.1609  1.1741  0.0130
   47TMC2     C  721   4.215   3.405   9.724  0.1180  0.8995 -0.1491
   47TMC2     O  722   4.214   3.486   9.819  0.2972  0.2183  0.0844
   47TMC2     H  723   4.213   3.320   9.467  0.9087  0.3179  0.2162
   47TMC2    H1  724   3.985   3.522   9.774 -2.3760 -0.8772  0.5326
   47TMC2    H2  725   3.817   3.463   9.382 -0.6233  3.7827  2.8720
   47TMC2    C7  726   3.761   3.553   9.621 -0.0428  0.6754 -0.7264
   47TMC2    C8  727   4.010   3.303   9.301  0.6126 -0.1184 -0.2690
   47TMC2    O1  728   3.688   3.597   9.537 -0.1375  0.5611  0.4622
   47TMC2    O2  729   4.113   3.264   9.245  0.4205 -0.0746 -0.1510
   47TMC2    O5  730   3.900   3.226   9.314 -0.4118 -0.1534 -0.5151
   47TMC2    H5  731   3.832   3.259   9.377 -0.4293 -0.5001 -0.3572
   48MPD2     C  732   4.483   3.381   9.863 -0.3239 -0.3029 -0.3641
   48MPD2    C1  733   4.431   3.293   9.775  0.5159  0.4332 -1.6246
   48MPD2    C2  734   4.499   3.170   9.764  0.6093 -0.6443 -0.6597
   48MPD2    C3  735   4.622   3.145   9.828 -0.6668  0.0764  0.1681
   48MPD2    C4  736   4.666   3.234   9.923 -0.2861 -0.4592  0.3727
   48MPD2    C5  737   4.596   3.346   9.933 -0.6360  0.0036  0.1071
   48MPD2     H  738   4.453   3.090   9.706 -1.1649  0.3103 -0.5724
   48MPD2    H1  739   0.031   3.213   9.978  0.9907  1.9379 -0.8705
   48MPD2    H2  740   4.441   3.479   9.884 -1.0067 -0.5374 -0.6554
   48MPD2    H3  741   4.632   3.412  10.011  0.2572  0.1118 -0.3951
   48MPD2     N  742   4.692   3.023   9.804  0.0162 -0.1781  0.3014
   48MPD2    H5  743   4.657   2.961   9.731 -0.1449 -1.4870  1.4922
   48MPD2    N1  744   4.311   3.315   9.691 -0.2067 -0.0683  0.2676
   48MPD2    H7  745   4.281   3.242   9.626  1.6552 -0.1930 -0.4299
   49MPD2     C  746   2.376   0.212  10.021  0.0391  0.0063  0.3261
   49MPD2    C1  747   2.390   0.148  10.136 -0.7055  0.0493 -0.3695
   49MPD2    C2  748   2.482   0.201  10.225  0.2702 -0.3589  0.2189
   49MPD2    C3  749   2.554   0.319  10.196 -0.4931 -0.0240  0.2015
   49MPD2    C4  750   2.542   0.376  10.077  0.5006  0.3352 -0.3495
   49MPD2    C5  751   2.456   0.319   9.985  0.2604  0.1745 -0.6561
   49MPD2     H  752   2.501   0.142  10.314  2.1788 -1.2210 -0.7748
   49MPD2    H1  753   2.592   0.468  10.050  1.2282 -0.1719 -0.7455
   49MPD2    H2  754   2.313   0.174   9.942  0.4938  0.9077 -0.4633
   49MPD2    H3  755   2.440   0.377   9.895 -3.3668 -0.0133 -0.1277
   49MPD2     N  756   2.655   0.373  10.278 -0.0821  0.6094 -0.0016
   49MPD2    H5  757   2.715   0.439  10.231  0.2238  2.1126  2.4785
   49MPD2    N1  758   2.301   0.039  10.173 -0.2241 -0.0157  0.2418
   49MPD2    H7  759   2.314   0.000  10.266 -1.4730  0.1908  0.5014
   50TCq2    C1  760   2.195   4.717  10.095  0.5331  0.3533 -0.3942
   50TCq2    O2  761   2.161   0.033   9.984  0.4653  0.3929 -0.0105
   50TCq2    C2  762   2.096   4.635  10.161 -0.1369 -0.8542  0.6511
   50TCq2    C3  763   1.965   4.650  10.120 -0.3337  0.0693  0.3467
   50TCq2    C4  764   1.866   4.585  10.190 -0.1880 -0.2892 -1.1010
   50TCq2    C5  765   1.902   4.497  10.289 -0.3163  0.6900 -0.5036
   50TCq2    C6  766   2.036   4.487  10.330  0.2019 -0.7476 -0.0211
   50TCq2    C7  767   2.134   4.548  10.267  0.1258  0.0497  0.7533
   50TCq2    C8  768   2.066   4.386  10.429  1.1781  0.3087  0.0969
   50TCq2    O4  769   1.993   4.287  10.439  0.3419 -0.3960 -0.0816
   50TCq2    C9  770   1.728   4.600  10.142 -0.8190  0.5485 -0.3623
   50TCq2    O5  771   1.663   4.492  10.128 -0.0925 -0.1032 -0.1897
   50TCq2    O6  772   1.697   4.713  10.093  0.4325  0.7905 -0.0077
   50TCq2    H2  773   1.936   4.722  10.044 -2.5689  1.0245  2.1157
   50TCq2    H3  774   1.824   4.434  10.332 -0.5197  0.9253 -0.5284
   50TCq2    H4  775   2.238   4.536  10.294  0.9536 -0.0505 -2.3773
   51MPD2     C  776   3.652   3.487   1.256 -0.0242 -0.7313 -0.3015
   51MPD2    C1  777   3.526   3.530   1.287 -0.0415  0.4857 -0.3473
   51MPD2    C2  778   3.507   3.589   1.409 -0.5362 -0.4230  0.2452
   51MPD2    C3  779   3.613   3.604   1.501  0.0200  0.1621 -0.1629
   51MPD2    C4  780   3.736   3.567   1.461 -0.0311 -0.2607  0.6694
   51MPD2    C5  781   3.756   3.514   1.339 -0.1197  0.2574  0.1552
   51MPD2     H  782   3.408   3.619   1.441 -0.0741 -0.2083  1.4607
   51MPD2    H1  783   3.813   3.595   1.532  1.2647 -0.5249 -0.6233
   51MPD2    H2  784   3.678   3.465   1.153  1.3079  0.5385 -0.2362
   51MPD2    H3  785   3.858   3.501   1.305 -0.6570 -4.3572  0.4259
   51MPD2     N  786   3.591   3.659   1.635  0.1093 -0.3768  0.1825
   51MPD2    H5  787   3.675   3.650   1.691 -0.5456 -0.9623  1.0610
   51MPD2    N1  788   3.420   3.535   1.199 -0.1951  0.7452 -0.4986
   51MPD2    H7  789   3.344   3.591   1.236  0.1529  0.2817  0.9146
   52TCq2    C1  790   3.471   3.711   1.692 -0.2883  0.7081 -0.1654
   52TCq2    O2  791   3.373   3.733   1.629 -0.0074  0.0259  0.0563
   52TCq2    C2  792   3.501   3.765   1.823  0.4665 -0.0849  0.2665
   52TCq2    C3  793   3.588   3.696   1.905  0.2559  0.3776  0.2016
   52TCq2    C4  794   3.610   3.764   2.028 -0.4397 -0.2804 -0.1176
   52TCq2    C5  795   3.559   3.889   2.052 -0.7991 -0.3502  0.2888
   52TCq2    C6  796   3.460   3.950   1.974 -0.0991  0.5709  0.8074
   52TCq2    C7  797   3.420   3.871   1.864 -0.3062 -0.0502 -0.5938
   52TCq2    C8  798   3.366   4.048   2.026  0.6328  0.6548  0.5135
   52TCq2    O4  799   3.402   4.112   2.122 -0.5286  0.8445 -0.2006
   52TCq2    C9  800   3.710   3.720   2.119  0.3931 -0.8098  0.3121
   52TCq2    O5  801   3.768   3.614   2.092 -0.2247  0.3714 -0.1597
   52TCq2    O6  802   3.723   3.783   2.226 -0.5699 -0.2597 -0.4845
   52TCq2    H2  803   3.643   3.609   1.871  0.3006 -0.0989  1.4661
   52TCq2    H3  804   3.587   3.946   2.140  2.3735  0.4886 -1.2680
   52TCq2    H4  805   3.350   3.917   1.796 -0.0866  0.5918 -0.3900
   53TMC2    C1  806   3.814   2.650  11.949  0.4034 -0.2686  0.2539
   53TMC2    C2  807   3.900   2.559  12.015 -0.1271  0.6076  0.7949
   53TMC2    C3  808   3.875   2.537  12.148  0.3859 -0.0976  0.3030
   53TMC2    C4  809   3.708   2.716  12.015 -0.5305 -1.0313 -0.1327
   53TMC2    C5  810   3.693   2.695  12.151 -0.3868  0.7009 -0.0192
   53TMC2    C6  811   3.769   2.599  12.212  0.3208  0.5587  0.4136
   53TMC2     C  812   3.836   2.663  11.806 -0.5111  0.3649  0.0246
   53TMC2     O  813   3.904   2.576  11.751 -0.0438  0.4063 -0.3854
   53TMC2     H  814   3.991   2.532  11.963 -0.8299  1.6039 -0.9692
   53TMC2    H1  815   3.648   2.793  11.968 -0.2254 -0.5340  0.2889
   53TMC2    H2  816   3.757   2.569  12.315  1.4577  0.9726  0.6659
   53TMC2    C7  817   3.568   2.748  12.202  0.0804  0.1655  0.2987
   53TMC2    C8  818   3.979   2.473  12.218  0.3887 -0.2636  0.0595
   53TMC2    O1  819   3.494   2.790  12.115  0.9620 -0.4091  0.5317
   53TMC2    O2  820   4.033   2.530  12.308  0.3431 -0.4013  0.4146
   53TMC2    O5  821   4.036   2.384  12.135 -0.1491  0.0437 -0.0873
   53TMC2    H5  822   3.973   2.354  12.066 -0.1500 -1.6498  0.6446
   54MPD2     C  823   3.849   2.773  11.530  0.0838 -0.0419 -0.1434
   54MPD2    C1  824   3.751   2.811  11.613  0.3601 -0.0402 -0.2298
   54MPD2    C2  825   3.654   2.899  11.571 -1.0148 -0.0341  0.5292
   54MPD2    C3  826   3.650   2.937  11.440 -0.5711 -0.1838 -0.3608
   54MPD2    C4  827   3.748   2.894  11.348 -0.4097 -0.6291 -0.3659
   54MPD2    C5  828   3.844   2.807  11.399  0.0565  0.5844 -0.4512
   54MPD2     H  829   3.583   2.925  11.649  1.0292 -0.0043  2.3613
   54MPD2    H1  830   3.749   2.927  11.245  0.0569  0.7542  0.0810
   54MPD2    H2  831   3.937   2.717  11.562  0.5695  0.2275 -0.9884
   54MPD2    H3  832   3.923   2.763  11.339 -1.0468  1.4177 -2.5054
   54MPD2     N  833   3.555   3.028  11.389  0.4195  0.3742  0.9132
   54MPD2    H5  834   3.560   3.048  11.290 -2.0058 -2.0057  0.3111
   54MPD2    N1  835   3.748   2.757  11.751 -0.6986  0.4080 -0.3006
   54MPD2    H7  836   3.677   2.785  11.818 -0.6142  0.8200 -0.3785
   55MPD2     C  837   4.394   0.345   0.214  0.4926 -0.0542  0.4538
   55MPD2    C1  838   4.343   0.348   0.339 -0.0286  0.0655  0.0013
   55MPD2    C2  839   4.289   0.466   0.380 -0.8055  0.4834 -0.1304
   55MPD2    C3  840   4.298   0.579   0.303  0.0256 -1.0113  0.3982
   55MPD2    C4  841   4.361   0.575   0.175 -0.3794 -0.1550  0.0906
   55MPD2    C5  842   4.389   0.451   0.129 -0.5332 -0.5198  0.1901
   55MPD2     H  843   4.234   0.471   0.474  2.4764 -0.9211  1.8644
   55MPD2    H1  844   4.354   0.658   0.106 -0.4397 -0.6527 -0.5051
   55MPD2    H2  845   4.423   0.251   0.168 -1.0590 -0.6493  0.7119
   55MPD2    H3  846   4.415   0.427   0.027 -1.9390  1.4972 -0.6376
   55MPD2     N  847   4.243   0.692   0.358 -0.2794 -0.8353 -0.1579
   55MPD2    H5  848   4.216   0.684   0.456 -0.1632  1.0121  0.0230
   55MPD2    N1  849   4.334   0.231   0.409 -0.4008  0.1890 -0.3667
   55MPD2    H7  850   4.361   0.144   0.366  1.7267  0.1604  1.0000
   56TCq2    C1  851   4.302   0.220   0.547 -0.1217  0.0319 -0.3590
   56TCq2    O2  852   4.289   0.311   0.631 -0.4189 -0.1219 -0.0871
   56TCq2    C2  853   4.289   0.085   0.595 -0.0341 -0.3266 -0.6414
   56TCq2    C3  854   4.401   0.003   0.597 -0.3875 -0.5004 -0.4890
   56TCq2    C4  855   4.409   4.617   0.678 -0.0090 -0.3503 -0.1650
   56TCq2    C5  856   4.332   4.612   0.783 -0.2456  0.2267  0.4060
   56TCq2    C6  857   4.234   4.706   0.799  0.4721  0.1422 -0.4280
   56TCq2    C7  858   4.210   0.070   0.703  0.5675  0.5213  0.4663
   56TCq2    C8  859   4.136   4.673   0.898  0.1105 -0.0819  0.1369
   56TCq2    O4  860   4.159   4.579   0.972 -0.5408  0.1596 -0.1572
   56TCq2    C9  861   4.517   4.527   0.662 -0.0447  0.0152  0.0339
   56TCq2    O5  862   4.529   4.425   0.734  0.7695 -0.1370 -0.1700
   56TCq2    O6  863   4.611   4.586   0.605 -0.0451 -0.0882  0.2229
   56TCq2    H2  864   4.484   0.015   0.528  0.7927  0.6523  1.1510
   56TCq2    H3  865   4.356   4.535   0.854  3.8119 -0.2142 -1.4709
   56TCq2    H4  866   4.119   0.128   0.706  0.4890  0.3596  1.3055
   57TMC2    C1  867   3.741   1.629  13.701 -0.3865 -0.1369  0.6282
   57TMC2    C2  868   3.785   1.558  13.812  0.0632 -0.4614  0.0073
   57TMC2    C3  869   3.916   1.523  13.811 -0.0709 -0.3907 -0.5584
   57TMC2    C4  870   3.827   1.684  13.610  0.1277 -0.0197 -0.4753
   57TMC2    C5  871   3.963   1.659  13.625  0.5855  0.7156 -0.4771
   57TMC2    C6  872   4.006   1.565  13.720 -0.3185  0.2097  0.1310
   57TMC2     C  873   3.606   1.658  13.688 -0.5415  0.2134 -0.2271
   57TMC2     O  874   3.583   1.765  13.629  0.0152  0.3689 -0.5273
   57TMC2     H  875   3.713   1.541  13.890 -2.0491  0.9500 -1.6372
   57TMC2    H1  876   3.792   1.750  13.531 -0.1223 -1.2369 -1.3756
   57TMC2    H2  877   4.111   1.543  13.738 -0.2295 -0.2788 -0.9967
   57TMC2    C7  878   4.040   1.686  13.505  0.7724 -0.0660 -0.1634
   57TMC2    C8  879   3.958   1.439  13.919 -0.4049  0.5835 -0.5270
   57TMC2    O1  880   4.033   1.792  13.441  0.6009  0.6064  0.1989
   57TMC2    O2  881   4.075   1.436  13.959 -0.2762 -0.2219  0.0852
   57TMC2    O5  882   3.883   1.329  13.899 -0.8797  0.8056 -0.3933
   57TMC2    H5  883   3.802   1.345  13.846 -0.9712 -0.0435 -0.5191
   58MPD2     C  884   3.135   1.574  13.852  0.6918  0.7270 -0.1895
   58MPD2    C1  885   3.192   1.679  13.785  0.3128 -0.1786 -0.3213
   58MPD2    C2  886   3.314   1.670  13.732  0.1910  0.1762  0.0294
   58MPD2    C3  887   3.395   1.566  13.759  0.9177 -0.3554 -0.9772
   58MPD2    C4  888   3.339   1.454  13.812 -0.0543 -0.3033 -0.5802
   58MPD2    C5  889   3.205   1.462  13.853 -0.4446 -0.3969 -0.3295
   58MPD2     H  890   3.355   1.760  13.687  1.9121 -1.5725 -1.8531
   58MPD2    H1  891   3.392   1.360  13.818 -0.6101 -0.7075 -2.1788
   58MPD2    H2  892   3.036   1.573  13.897 -0.5368 -0.9113 -2.9254
   58MPD2    H3  893   3.157   1.373  13.891 -1.6981  0.2412 -0.4135
   58MPD2     N  894   3.534   1.555  13.731 -0.0217  0.2458 -0.5682
   58MPD2    H5  895   3.579   1.469  13.758  0.5485  0.6904 -0.1030
   58MPD2    N1  896   3.124   1.797  13.775 -0.3891  0.2700 -0.2064
   58MPD2    H7  897   3.166   1.866  13.713  0.2065  1.3146  1.3654
   59MPD2     C  898   0.892   1.611  13.355  0.7324 -0.5836 -0.4251
   59MPD2    C1  899   0.978   1.649  13.250  0.4713  0.6841  0.2176
   59MPD2    C2  900   1.106   1.687  13.281  0.0941 -0.4783  1.1081
   59MPD2    C3  901   1.145   1.714  13.409 -0.3833 -0.1098 -0.3421
   59MPD2    C4  902   1.061   1.684  13.512 -0.8155  0.4111  0.8009
   59MPD2    C5  903   0.940   1.632  13.485  0.1410  0.3255  0.3751
   59MPD2     H  904   1.180   1.710  13.206 -1.3474  0.0639 -0.1632
   59MPD2    H1  905   1.073   1.708  13.618  0.1399 -0.1527  0.8179
   59MPD2    H2  906   0.790   1.577  13.341 -0.1140  2.2100 -1.0561
   59MPD2    H3  907   0.875   1.609  13.568  0.0337 -0.9123 -0.0443
   59MPD2     N  908   1.271   1.765  13.444  0.2614 -0.2529 -0.0466
   59MPD2    H5  909   1.285   1.790  13.541  0.0279 -0.8543  0.1413
   59MPD2    N1  910   0.941   1.644  13.112  0.6220 -0.8942  0.3595
   59MPD2    H7  911   1.021   1.649  13.050 -0.4615  0.0690 -0.9661
   60TCq2    C1  912   0.812   1.639  13.060  0.3876 -0.8020 -0.2067
   60TCq2    O2  913   0.710   1.639  13.127 -0.1155  0.1289 -0.4213
   60TCq2    C2  914   0.801   1.647  12.909 -0.3119  0.5228 -0.0593
   60TCq2    C3  915   0.677   1.682  12.864 -0.0270  0.2999  0.3337
   60TCq2    C4  916   0.664   1.739  12.743 -0.6956 -0.0594 -0.4094
   60TCq2    C5  917   0.772   1.746  12.660  0.8403 -0.9611  0.3647
   60TCq2    C6  918   0.895   1.691  12.700  0.0677 -1.2086 -0.7419
   60TCq2    C7  919   0.909   1.658  12.832  0.5513  0.3356  0.4887
   60TCq2    C8  920   1.011   1.742  12.636 -0.1229 -0.3944 -0.3170
   60TCq2    O4  921   1.115   1.684  12.664 -0.5085 -0.0777 -0.0944
   60TCq2    C9  922   0.541   1.795  12.696 -0.5393  0.0741 -0.1362
   60TCq2    O5  923   0.445   1.789  12.773 -0.2474  0.2901 -0.2675
   60TCq2    O6  924   0.535   1.826  12.575  0.0786 -0.2825  0.3961
   60TCq2    H2  925   0.594   1.689  12.933 -2.0753 -0.1347 -2.0873
   60TCq2    H3  926   0.773   1.794  12.563 -2.4618 -1.1198  0.2625
   60TCq2    H4  927   1.002   1.614  12.864 -0.5595 -2.2866  0.1125
   61MPD2     C  928   0.588   3.050  14.681  0.2179 -0.2277  0.5230
   61MPD2    C1  929   0.676   3.135  14.737  0.2192 -0.3831 -0.4179
   61MPD2    C2  930   0.748   3.222  14.652  0.7272  0.5110 -0.1959
   61MPD2    C3  931   0.727   3.222  14.516 -0.4141  0.7370  0.7588
   61MPD2    C4  932   0.644   3.125  14.464  0.6343 -0.5817 -0.2684
   61MPD2    C5  933   0.571   3.041  14.547 -0.5399  0.6328  0.1578
   61MPD2     H  934   0.831   3.275  14.696 -1.2586  2.8886  0.6818
   61MPD2    H1  935   0.623   3.120  14.357  1.3467  2.5162 -0.5272
   61MPD2    H2  936   0.539   2.976  14.743 -1.3033  2.7161  2.8297
   61MPD2    H3  937   0.508   2.964  14.504 -0.9310  0.9993  0.0727
   61MPD2     N  938   0.783   3.316  14.419 -0.5559  0.6066  0.4558
   61MPD2    H5  939   0.757   3.290  14.324  0.4970  0.2799  0.2543
   61MPD2    N1  940   0.681   3.159  14.878 -0.2653 -0.3898 -0.6243
   61MPD2    H7  941   0.741   3.235  14.910 -0.5738  0.2089 -1.4918
   62TCq2    C1  942   0.628   3.076  14.981 -0.0859 -0.5348  0.0651
   62TCq2    O2  943   0.582   2.961  14.976  1.0092  0.3164 -0.2182
   62TCq2    C2  944   0.684   3.110  15.120 -0.0607  0.7655 -0.6766
   62TCq2    C3  945   0.708   3.002  15.201 -0.2782 -0.3694  0.3160
   62TCq2    C4  946   0.756   3.028  15.322 -0.1347 -0.4245 -0.3784
   62TCq2    C5  947   0.745   3.152  15.377  0.2835 -0.4514 -0.2604
   62TCq2    C6  948   0.698   3.259  15.296  0.1070 -0.4721 -0.5796
   62TCq2    C7  949   0.678   3.243  15.158 -0.0254 -1.1711 -0.7660
   62TCq2    C8  950   0.696   3.393  15.349 -0.8565  0.8992  0.9056
   62TCq2    O4  951   0.714   3.486  15.273  0.3743  0.8135 -0.1807
   62TCq2    C9  952   0.799   2.922  15.406  0.3281 -0.5093 -0.3258
   62TCq2    O5  953   0.808   2.807  15.355  0.2069  0.1556  0.1679
   62TCq2    O6  954   0.837   2.954  15.520  0.1451  0.2873  0.2449
   62TCq2    H2  955   0.714   2.900  15.166  0.3272 -0.4238  0.5712
   62TCq2    H3  956   0.762   3.173  15.482  1.4972  0.1595 -0.5756
   62TCq2    H4  957   0.632   3.322  15.101  2.1879  1.6903  1.4521
   63TMC2    C1  958   0.262   2.842  10.998  0.2915 -0.4753 -0.6360
   63TMC2    C2  959   0.381   2.898  11.033 -0.5036 -0.8360  0.1445
   63TMC2    C3  960   0.435   2.992  10.953  0.3497  0.0002  0.4053
   63TMC2    C4  961   0.191   2.897  10.897 -0.2912 -0.4306 -0.5190
   63TMC2    C5  962   0.240   3.003  10.824 -0.5407  0.0223 -0.0954
   63TMC2    C6  963   0.369   3.045  10.844 -0.0083 -0.9375  0.0171
   63TMC2     C  964   0.210   2.729  11.078 -0.3223  0.0029 -0.3546
   63TMC2     O  965   0.255   2.724  11.188 -0.3183  0.0581 -0.2064
   63TMC2     H  966   0.425   2.852  11.120  0.9611  1.0727  0.4144
   63TMC2    H1  967   0.086   2.878  10.881 -0.5252  1.3181 -1.0989
   63TMC2    H2  968   0.414   3.127  10.789 -1.4458  1.1016  1.8169
   63TMC2    C7  969   0.181   3.018  10.689  0.0665  0.2443 -0.3442
   63TMC2    C8  970   0.561   3.050  10.993  0.1949 -0.0117  0.5714
   63TMC2    O1  971   0.067   2.975  10.667  0.0505 -0.1157 -0.2363
   63TMC2    O2  972   0.574   3.167  11.024  0.2308  0.0420 -0.3104
   63TMC2    O5  973   0.634   2.995  10.899 -0.2402  0.1695 -0.0069
   63TMC2    H5  974   0.604   2.902  10.890 -0.4408  0.0998  1.4385
   64MPD2     C  975   4.557   2.419  11.176  0.6930  0.0086  0.8779
   64MPD2    C1  976   4.565   2.428  11.038 -0.6023 -0.6796  0.4846
   64MPD2    C2  977   4.666   2.499  10.988 -0.2065 -0.1215 -0.5133
   64MPD2    C3  978   0.024   2.579  11.065  0.4116 -0.1849  0.5008
   64MPD2    C4  979   0.019   2.571  11.204  0.1437  0.4420  0.1673
   64MPD2    C5  980   4.642   2.495  11.252 -0.3801  0.3178  0.2251
   64MPD2     H  981   4.689   2.494  10.882  0.7310 -1.3745 -0.2449
   64MPD2    H1  982   0.089   2.611  11.277  0.3717  0.4071 -0.0305
   64MPD2    H2  983   4.479   2.360  11.220 -0.4521 -0.5670 -1.9355
   64MPD2    H3  984   4.635   2.488  11.360  1.1147 -0.4810  0.2642
   64MPD2     N  985   0.123   2.659  11.007  0.1480 -0.2045  0.0169
   64MPD2    H5  986   0.111   2.670  10.907 -0.9475 -2.3314 -0.0795
   64MPD2    N1  987   4.504   2.331  10.953  0.4048 -0.1839 -0.1021
   64MPD2    H7  988   4.522   2.339  10.854 -1.5542  0.8393 -0.3886
   65MPD2     C  989   1.175   2.688  16.061  0.5072  0.0362  0.4559
   65MPD2    C1  990   1.226   2.684  15.932  0.4059  0.1652 -0.5088
   65MPD2    C2  991   1.215   2.569  15.858  0.1093 -0.7027 -0.0305
   65MPD2    C3  992   1.141   2.468  15.905 -0.5608 -0.7083 -0.0634
   65MPD2    C4  993   1.090   2.472  16.033 -0.5456  0.2347  0.0188
   65MPD2    C5  994   1.111   2.583  16.107  0.6256  0.9907 -0.1451
   65MPD2     H  995   1.285   2.567  15.775 -0.6030 -1.5225 -0.6153
   65MPD2    H1  996   1.041   2.390  16.083 -0.8523 -0.0332 -0.7296
   65MPD2    H2  997   1.186   2.773  16.127 -0.5015  1.0602 -0.6954
   65MPD2    H3  998   1.066   2.600  16.204 -0.3522  1.2639 -0.6433
   65MPD2     N  999   1.114   2.352  15.839 -0.1968  0.6545  0.2145
   65MPD2    H5 1000   1.072   2.275  15.890  0.2314  0.1358 -0.2145
   65MPD2    N1 1001   1.305   2.792  15.878  0.2892  0.3855 -0.3337
   65MPD2    H7 1002   1.363   2.762  15.801 -1.0941  1.0493 -1.6367
   66TCq2    C1 1003   1.299   2.924  15.921 -1.0445  0.6470 -0.6528
   66TCq2    O2 1004   1.228   2.974  16.014  0.0802  0.0019 -0.2110
   66TCq2    C2 1005   1.353   3.016  15.819 -0.3984 -0.3152 -0.1653
   66TCq2    C3 1006   1.388   2.975  15.695  0.5152  0.0706 -0.3058
   66TCq2    C4 1007   1.438   3.063  15.602 -0.2880 -0.6552 -0.1836
   66TCq2    C5 1008   1.446   3.197  15.628  0.3155 -0.7721 -0.4323
   66TCq2    C6 1009   1.414   3.235  15.754  0.2212 -0.0840 -1.0483
   66TCq2    C7 1010   1.372   3.147  15.851  0.7526 -0.4432 -0.3626
   66TCq2    C8 1011   1.437   3.376  15.790  0.2162  0.1787  0.1535
   66TCq2    O4 1012   1.497   3.447  15.713 -0.5928  0.2963 -0.6152
   66TCq2    C9 1013   1.474   3.016  15.469 -0.9395  0.4149 -0.2810
   66TCq2    O5 1014   1.414   2.913  15.431  0.7120 -0.3561  0.3291
   66TCq2    O6 1015   1.571   3.068  15.407 -0.0658 -0.4405  0.8504
   66TCq2    H2 1016   1.369   2.875  15.658  1.1446 -0.7895  1.6838
   66TCq2    H3 1017   1.483   3.251  15.542  1.5441 -0.4988  0.2750
   66TCq2    H4 1018   1.344   3.182  15.950  2.4895  0.2454 -0.1031
   67MPD2     C 1019   1.296   2.258  14.127  0.4908 -0.2180  0.0605
   67MPD2    C1 1020   1.243   2.360  14.201  0.3960 -0.2284 -0.5413
   67MPD2    C2 1021   1.124   2.417  14.147  0.0250 -0.3002  0.3736
   67MPD2    C3 1022   1.073   2.386  14.024  0.5601  0.0267 -0.4254
   67MPD2    C4 1023   1.127   2.279  13.959  0.0717 -0.4863  0.5443
   67MPD2    C5 1024   1.235   2.212  14.011  0.1969  0.4510 -0.4641
   67MPD2     H 1025   1.077   2.493  14.209 -2.3771  1.2884 -3.3937
   67MPD2    H1 1026   1.084   2.259  13.861 -0.9744 -0.6835  1.0414
   67MPD2    H2 1027   1.378   2.197  14.160  0.4926 -0.7693 -0.9687
   67MPD2    H3 1028   1.279   2.124  13.965 -1.2999  0.5385 -2.0792
   67MPD2     N 1029   0.968   2.464  13.962  0.4365 -0.5657 -0.2097
   67MPD2    H5 1030   0.951   2.452  13.862  1.3758  0.4693 -0.4956
   67MPD2    N1 1031   1.304   2.416  14.324 -0.1440  0.1925  0.4438
   67MPD2    H7 1032   1.249   2.490  14.365 -0.2438  1.0343 -1.2124
   68TCq2    C1 1033   1.425   2.393  14.370  0.4469 -0.2722  0.0869
   68TCq2    O2 1034   1.506   2.307  14.344 -0.9695  0.2103 -0.6166
   68TCq2    C2 1035   1.455   2.474  14.491  0.0002 -0.1795  0.3749
   68TCq2    C3 1036   1.397   2.600  14.509 -0.6399  0.2195 -0.0969
   68TCq2    C4 1037   1.414   2.672  14.621  0.1111  0.3055 -0.1544
   68TCq2    C5 1038   1.473   2.608  14.733 -0.4108  0.1280 -0.0640
   68TCq2    C6 1039   1.522   2.485  14.715  0.2788  0.2065 -0.1789
   68TCq2    C7 1040   1.512   2.415  14.598 -0.1536 -0.4175 -0.8359
   68TCq2    C8 1041   1.625   2.447  14.812 -0.0906  0.0109 -0.4452
   68TCq2    O4 1042   1.710   2.375  14.764 -1.0053  0.9459  0.5836
   68TCq2    C9 1043   1.365   2.809  14.640 -0.3889  0.6545 -1.2102
   68TCq2    O5 1044   1.392   2.866  14.747  0.3725 -0.3046  0.0092
   68TCq2    O6 1045   1.286   2.862  14.551 -0.3233 -0.0454 -0.3897
   68TCq2    H2 1046   1.362   2.648  14.418 -1.3270 -2.3874 -1.2033
   68TCq2    H3 1047   1.472   2.667  14.824  1.0030 -0.0607  0.0774
   68TCq2    H4 1048   1.545   2.312  14.586  0.2179 -0.5733  1.5949
   69TMC2    C1 1049   2.760   3.540  12.045  0.2809 -0.1127 -0.2350
   69TMC2    C2 1050   2.651   3.569  11.971 -0.6540 -0.7322  0.2033
   69TMC2    C3 1051   2.677   3.625  11.854  0.7981  0.3786  0.6370
   69TMC2    C4 1052   2.889   3.578  12.006  0.0206 -0.0453  0.4209
   69TMC2    C5 1053   2.903   3.631  11.875 -0.1701 -0.6274  0.3211
   69TMC2    C6 1054   2.796   3.658  11.800  0.0949 -0.3235 -0.1400
   69TMC2     C 1055   2.753   3.451  12.159  0.3117 -0.4085  0.0226
   69TMC2     O 1056   2.646   3.407  12.186  0.0277 -0.4810 -0.1085
   69TMC2     H 1057   2.552   3.550  12.010 -0.8757  0.5448  0.2408
   69TMC2    H1 1058   2.978   3.568  12.066 -0.3943  0.0498  1.0519
   69TMC2    H2 1059   2.806   3.709  11.705 -1.1129 -0.5529 -0.3980
   69TMC2    C7 1060   3.036   3.633  11.821 -0.1671 -0.6947  0.3444
   69TMC2    C8 1061   2.568   3.664  11.773 -0.3522  0.0212 -0.0424
   69TMC2    O1 1062   3.121   3.591  11.898 -0.5991 -0.5407  0.0332
   69TMC2    O2 1063   2.590   3.665  11.653  0.2606 -0.4415 -0.0669
   69TMC2    O5 1064   2.507   3.766  11.834 -0.2773  0.2625 -0.0022
   69TMC2    H5 1065   2.514   3.760  11.932 -0.7204 -0.3425 -0.0022
   70MPD2     C 1066   3.050   3.273  12.283 -0.7147  0.0766 -0.0791
   70MPD2    C1 1067   2.916   3.308  12.288  0.3305  0.3531  0.2958
   70MPD2    C2 1068   2.826   3.246  12.370  0.1881 -0.5487 -0.6248
   70MPD2    C3 1069   2.874   3.143  12.451 -0.1947 -0.3344  0.6017
   70MPD2    C4 1070   3.002   3.110  12.448  0.0227 -0.0734 -0.1017
   70MPD2    C5 1071   3.093   3.176  12.366 -0.1443 -0.3119 -0.0069
   70MPD2     H 1072   2.722   3.262  12.344 -0.3458 -0.0780  1.7506
   70MPD2    H1 1073   3.039   3.040  12.523 -0.0683 -2.4033 -2.2453
   70MPD2    H2 1074   3.122   3.337  12.234 -0.4103  1.4632  2.2072
   70MPD2    H3 1075   3.198   3.148  12.373  0.2335  0.2746 -3.4256
   70MPD2     N 1076   2.788   3.066  12.539  0.3098 -0.0254 -0.1851
   70MPD2    H5 1077   2.833   2.988  12.586 -0.8100 -0.9770 -0.6929
   70MPD2    N1 1078   2.876   3.396  12.182 -0.4139  0.0771  0.1886
   70MPD2    H7 1079   2.950   3.440  12.129 -0.9507 -0.1294 -0.7242
   71TMC2    C1 1080   4.379   3.736   2.006 -0.3647  0.1385  0.4033
   71TMC2    C2 1081   4.448   3.692   2.117 -0.5895 -0.4605  0.0707
   71TMC2    C3 1082   4.412   3.750   2.241 -1.1358 -0.6772  0.8644
   71TMC2    C4 1083   4.274   3.821   2.018  0.5033  0.0048  0.0104
   71TMC2    C5 1084   4.228   3.863   2.141 -0.0634 -0.3247  0.7273
   71TMC2    C6 1085   4.300   3.839   2.254  0.7574 -0.0158  0.3017
   71TMC2     C 1086   4.408   3.685   1.872 -0.4833 -0.5622 -0.4207
   71TMC2     O 1087   4.509   3.617   1.863 -0.4906  0.0374 -0.3738
   71TMC2     H 1088   4.515   3.608   2.109 -0.7714 -0.6120  0.1328
   71TMC2    H1 1089   4.236   3.879   1.934  2.0874 -0.9943 -1.3970
   71TMC2    H2 1090   4.251   3.874   2.343 -0.8116 -0.4591 -0.3905
   71TMC2    C7 1091   4.134   3.979   2.135 -0.8444 -0.0671  0.3149
   71TMC2    C8 1092   4.459   3.689   2.363 -0.2225  0.0298 -0.3829
   71TMC2    O1 1093   4.148   4.059   2.225 -0.1608  0.3284  0.0351
   71TMC2    O2 1094   4.397   3.680   2.469  0.0953 -0.3871  0.1640
   71TMC2    O5 1095   4.594   3.679   2.355 -0.6128  0.2988  0.0471
   71TMC2    H5 1096   4.624   3.711   2.268 -2.4184 -1.6620 -1.2932
   72MPD2     C 1097   4.207   3.453   1.456  0.5095 -0.3758  0.1261
   72MPD2    C1 1098   4.338   3.460   1.503 -0.3763  0.6552  1.0264
   72MPD2    C2 1099   4.370   3.531   1.619  0.1778  0.1653  0.0323
   72MPD2    C3 1100   4.266   3.598   1.688 -0.1887 -0.4921  0.9331
   72MPD2    C4 1101   4.132   3.584   1.648 -0.5167 -0.0404  0.6920
   72MPD2    C5 1102   4.109   3.503   1.537  0.3162 -0.4792  0.5070
   72MPD2     H 1103   4.477   3.530   1.639  0.0353 -2.9756  0.5188
   72MPD2    H1 1104   4.046   3.620   1.704  0.1174  2.3390  0.1276
   72MPD2    H2 1105   4.177   3.399   1.368 -0.5805  0.4616 -0.0191
   72MPD2    H3 1106   4.006   3.482   1.511  0.2315 -0.6578  0.9867
   72MPD2     N 1107   4.291   3.686   1.794 -0.0866  0.3672  0.1217
   72MPD2    H5 1108   4.211   3.734   1.835 -0.5565  0.8128 -1.3279
   72MPD2    N1 1109   4.438   3.394   1.426  0.1093  0.3417 -0.1509
   72MPD2    H7 1110   4.524   3.377   1.478 -0.5905 -1.3877  0.4405
   73TMC2    C1 1111   0.660   0.851  14.334 -1.2534  0.0398  0.1914
   73TMC2    C2 1112   0.607   0.923  14.436  0.1516  0.1365 -0.6328
   73TMC2    C3 1113   0.661   0.900  14.561  0.1318 -0.2665 -0.3505
   73TMC2    C4 1114   0.751   0.755  14.363  0.0328  0.5967 -0.6047
   73TMC2    C5 1115   0.808   0.747  14.485 -0.1693 -0.2805  1.0291
   73TMC2    C6 1116   0.766   0.815  14.591 -0.7135 -0.4056 -0.9516
   73TMC2     C 1117   0.702   0.931  14.227  0.0028  0.5537  0.3681
   73TMC2     O 1118   0.815   0.922  14.187  0.7626  0.2653 -0.8535
   73TMC2     H 1119   0.538   1.004  14.419  0.0931  0.1993 -0.1065
   73TMC2    H1 1120   0.797   0.702  14.280  0.7424  1.4860 -0.7828
   73TMC2    H2 1121   0.827   0.822  14.681  0.2246 -0.0769 -1.6220
   73TMC2    C7 1122   0.954   0.739  14.478 -0.7792  0.9180 -0.4610
   73TMC2    C8 1123   0.642   1.021  14.646  0.4461 -0.5102  0.4761
   73TMC2    O1 1124   1.014   0.711  14.579 -0.4460 -0.1132 -0.8177
   73TMC2    O2 1125   0.593   1.129  14.608  0.8152  0.0944 -0.4927
   73TMC2    O5 1126   0.639   0.968  14.765  0.0629 -0.2654  0.5987
   73TMC2    H5 1127   0.656   0.872  14.778 -0.0395 -0.2462  0.8754
   74MPD2     C 1128   0.674   1.414  14.066  0.6920  0.3014  0.2887
   74MPD2    C1 1129   0.786   1.333  14.099 -0.1473 -0.5420  0.1653
   74MPD2    C2 1130   0.760   1.204  14.145  0.4785 -0.1911 -0.2201
   74MPD2    C3 1131   0.632   1.154  14.153  0.2031  0.3779  0.3717
   74MPD2    C4 1132   0.530   1.234  14.117  0.2601 -0.6908  0.4045
   74MPD2    C5 1133   0.549   1.364  14.073  0.0805 -0.0382 -0.2971
   74MPD2     H 1134   0.842   1.141  14.180  0.2713 -0.9199 -1.0328
   74MPD2    H1 1135   0.435   1.184  14.105  0.0096 -0.7614  2.6950
   74MPD2    H2 1136   0.695   1.507  14.013 -1.7499 -1.3360 -3.5587
   74MPD2    H3 1137   0.470   1.424  14.028 -0.3579  0.5135  1.2018
   74MPD2     N 1138   0.605   1.030  14.205  0.5402 -0.1281  0.1615
   74MPD2    H5 1139   0.514   1.007  14.245  0.0817  1.8118  0.2453
   74MPD2    N1 1140   0.914   1.378  14.068  0.1518 -0.0599 -0.2531
   74MPD2    H7 1141   0.919   1.479  14.059  1.9702  0.0081  1.6977
   75TCq2    C1 1142   0.884   2.551  14.030 -0.1213  0.2314 -0.2696
   75TCq2    O2 1143   0.873   2.562  14.151 -0.3235 -0.0621 -0.5928
   75TCq2    C2 1144   0.818   2.646  13.939 -0.1040  0.4301 -0.0600
   75TCq2    C3 1145   0.773   2.760  13.986  0.3922  0.5917 -0.1622
   75TCq2    C4 1146   0.713   2.848  13.899  0.7976 -0.4618 -0.0726
   75TCq2    C5 1147   0.668   2.814  13.772 -0.4723  0.3906  0.1540
   75TCq2    C6 1148   0.712   2.691  13.732 -0.0779  0.3331 -0.0672
   75TCq2    C7 1149   0.791   2.610  13.808 -0.5640 -0.0340  0.2268
   75TCq2    C8 1150   0.706   2.659  13.593 -0.3072 -0.3523 -0.6892
   75TCq2    O4 1151   0.689   2.542  13.565  0.0329 -0.5852  0.5461
   75TCq2    C9 1152   0.676   2.977  13.954  1.0263  0.3578  0.3428
   75TCq2    O5 1153   0.718   3.011  14.066  0.1727  0.2176 -0.3263
   75TCq2    O6 1154   0.570   3.022  13.907 -0.4319  0.3244  0.3328
   75TCq2    H2 1155   0.778   2.782  14.092 -1.7427 -1.7205  0.4214
   75TCq2    H3 1156   0.604   2.891  13.730 -2.4139 -2.8241 -2.8327
   75TCq2    H4 1157   0.794   2.504  13.785  1.1150 -0.5513  2.7882
   76MPD2     C 1158   3.910   2.999  12.082 -0.0262  0.2827 -0.0668
   76MPD2    C1 1159   3.983   3.015  11.966 -0.5353  0.2602 -0.3790
   76MPD2    C2 1160   4.102   2.949  11.956 -0.4486  0.2094  0.4404
   76MPD2    C3 1161   4.152   2.871  12.060 -0.7636 -0.2435 -0.4841
   76MPD2    C4 1162   4.087   2.865  12.176  0.4261  0.9459  0.8213
   76MPD2    C5 1163   3.962   2.929  12.189 -0.1611 -0.0660 -0.5822
   76MPD2     H 1164   4.157   2.956  11.862 -1.8514 -1.5195 -0.5000
   76MPD2    H1 1165   4.122   2.815  12.266  0.0914 -2.6650 -1.0403
   76MPD2    H2 1166   3.807   3.034  12.090  0.1265  0.6560  0.2771
   76MPD2    H3 1167   3.912   2.942  12.284  0.5402  0.7897 -0.3317
   76MPD2     N 1168   4.276   2.797  12.046 -0.5410 -0.0869 -0.0274
   76MPD2    H5 1169   4.314   2.757  12.131 -0.0359  0.5852  0.0619
   76MPD2    N1 1170   3.927   3.086  11.855  0.4426  0.0568 -0.4349
   76MPD2    H7 1171   3.985   3.098  11.773  1.2619  1.0201  0.2824
   77TCq2    C1 1172   4.331   2.748  11.925  0.1079 -0.2567  0.1450
   77TCq2    O2 1173   4.301   2.769  11.803  0.0685 -0.1012 -0.2188
   77TCq2    C2 1174   4.463   2.689  11.938 -0.1880 -0.4678 -0.4645
   77TCq2    C3 1175   4.501   2.602  11.843  0.1394  0.0703 -0.3167
   77TCq2    C4 1176   4.633   2.562  11.853  0.4893 -0.0319 -0.0347
   77TCq2    C5 1177   4.716   2.621  11.944 -0.7501  0.3058  0.0984
   77TCq2    C6 1178   4.670   2.708  12.038  0.8612  0.1302 -0.7151
   77TCq2    C7 1179   4.539   2.746  12.037  0.4747  0.3447 -0.6748
   77TCq2    C8 1180   0.055   2.756  12.132 -0.2658 -0.0075  0.8212
   77TCq2    O4 1181   0.149   2.680  12.150 -0.1129  0.4119 -0.2639
   77TCq2    C9 1182   4.686   2.476  11.755 -0.0661 -0.4221  0.6302
   77TCq2    O5 1183   4.605   2.393  11.698 -0.5130  0.1177  0.2388
   77TCq2    O6 1184   0.087   2.477  11.735 -0.4100  0.2611 -0.0518
   77TCq2    H2 1185   4.439   2.565  11.763 -1.3131  0.0054  0.8505
   77TCq2    H3 1186   0.092   2.586  11.948 -0.3471  1.3266 -1.2980
   77TCq2    H4 1187   4.504   2.829  12.098  3.4682  0.4541  0.9274
   78MPD1     C 1188   0.439   4.378   2.094  0.1581 -0.2651  0.2548
   78MPD1    C1 1189   0.534   4.473   2.120 -0.3737 -0.6214 -0.3569
   78MPD1    C2 1190   0.670   4.443   2.101 -0.2161 -0.6115 -0.8315
   78MPD1    C3 1191   0.713   4.313   2.074  0.3046 -0.1771  0.4269
   78MPD1    C4 1192   0.616   4.215   2.056  0.0467  0.2874 -0.2979
   78MPD1    C5 1193   0.479   4.245   2.069  0.2589  0.5419  0.7862
   78MPD1     H 1194   0.748   4.517   2.111  0.0717 -0.7629 -1.9704
   78MPD1    H1 1195   0.648   4.113   2.034  1.9401  0.4033  2.0082
   78MPD1    H2 1196   0.331   4.389   2.100  0.0781 -0.1845 -1.4738
   78MPD1    H3 1197   0.405   4.167   2.062 -0.1312  0.9444  0.4324
   78MPD1     N 1198   0.845   4.274   2.060  0.2717 -0.2023  0.4957
   78MPD1    H5 1199   0.867   4.180   2.031 -2.0937 -1.4683  2.7972
   78MPD1    N1 1200   0.508   4.608   2.152 -0.1198  0.6333  0.3293
   78MPD1    H6 1201   0.591   4.661   2.177 -0.3815  0.2448  2.0827
   78MPD1    H7 1202   0.455   4.612   2.239  0.6419 -1.4818  0.8952
   79TCq2    C1 1203   0.959   4.356   2.075 -0.1685  0.1342 -0.4575
   79TCq2    O2 1204   0.966   4.474   2.106  0.1285  0.5444 -0.4817
   79TCq2    C2 1205   1.086   4.287   2.057 -0.0524  0.1710 -0.3638
   79TCq2    C3 1206   1.180   4.313   2.159 -0.6401 -0.1671  0.0131
   79TCq2    C4 1207   1.278   4.217   2.175  0.0155 -0.0920  0.3598
   79TCq2    C5 1208   1.300   4.118   2.085 -0.4639  0.0781  0.0674
   79TCq2    C6 1209   1.207   4.104   1.982  0.4739  0.1187  0.5956
   79TCq2    C7 1210   1.092   4.179   1.972  0.1239 -0.1810 -0.2666
   79TCq2    C8 1211   1.247   4.019   1.866  0.1034  0.9671  0.5883
   79TCq2    O4 1212   1.326   3.929   1.890  0.2792 -0.0362  0.7179
   79TCq2    C9 1213   1.367   4.237   2.281  0.6844 -0.6129  0.4900
   79TCq2    O5 1214   1.375   4.350   2.333  0.6768  0.1222  0.3798
   79TCq2    O6 1215   1.435   4.139   2.318 -0.2660 -0.1798 -0.8679
   79TCq2    H2 1216   1.178   4.406   2.214  3.3707  0.1922 -0.4683
   79TCq2    H3 1217   1.397   4.070   2.090  0.6883  2.4496  0.6853
   79TCq2    H4 1218   1.024   4.168   1.889  1.5098  0.7345 -1.5376
   80MPD2     C 1219   3.666   2.281  12.131 -0.2077  0.3177 -0.4896
   80MPD2    C1 1220   3.607   2.296  12.014  0.1183  0.1167 -0.8452
   80MPD2    C2 1221   3.478   2.336  12.009 -0.2821 -0.2036  1.0690
   80MPD2    C3 1222   3.407   2.373  12.124 -0.3314 -0.0204 -0.4025
   80MPD2    C4 1223   3.473   2.371  12.237 -0.4033 -0.1890  0.3327
   80MPD2    C5 1224   3.598   2.331  12.241  0.1270 -0.3785  0.6508
   80MPD2     H 1225   3.424   2.339  11.915  1.2018  1.3184  0.2592
   80MPD2    H1 1226   3.422   2.404  12.327 -0.4605  1.2824 -0.2307
   80MPD2    H2 1227   3.761   2.233  12.149 -0.7484 -1.1223 -1.4512
   80MPD2    H3 1228   3.651   2.330  12.336  0.0409 -0.5489  0.6976
   80MPD2     N 1229   3.273   2.425  12.129  0.2424 -0.2595 -0.1133
   80MPD2    H5 1230   3.231   2.437  12.221  1.0610  0.8304  0.1116
   80MPD2    N1 1231   3.666   2.259  11.887  0.3697  0.3599  0.2549
   80MPD2    H7 1232   3.606   2.270  11.806 -0.0062 -0.3486  0.4339
   81TCq2    C1 1233   3.804   2.237  11.867 -0.4657 -0.1238 -0.1116
   81TCq2    O2 1234   3.893   2.278  11.939  0.6752  0.4096  0.2588
   81TCq2    C2 1235   3.831   2.175  11.735  0.5804  0.6012  0.5177
   81TCq2    C3 1236   3.941   2.205  11.657  0.1611  0.1657  0.4230
   81TCq2    C4 1237   3.948   2.134  11.542  0.3003  0.2657  0.1932
   81TCq2    C5 1238   3.856   2.042  11.505  0.3951  0.4898  0.2873
   81TCq2    C6 1239   3.756   2.013  11.593 -0.5871 -1.0350  0.5292
   81TCq2    C7 1240   3.736   2.085  11.704  0.4409 -0.5802  0.0829
   81TCq2    C8 1241   3.661   1.910  11.558  0.0176  0.1945  0.1439
   81TCq2    O4 1242   3.627   1.888  11.440 -0.1572 -0.4573 -0.4091
   81TCq2    C9 1243   4.066   2.151  11.457  0.3031  0.0814 -0.0750
   81TCq2    O5 1244   4.093   2.077  11.357  0.0741 -0.5537 -0.9386
   81TCq2    O6 1245   4.143   2.242  11.492  0.1144  0.1747 -0.2038
   81TCq2    H2 1246   4.031   2.257  11.690  2.2897 -2.9162 -0.5755
   81TCq2    H3 1247   3.861   1.974  11.420  3.4273 -1.8993  2.3807
   81TCq2    H4 1248   3.646   2.074  11.764  0.2993  0.3481  0.0513
   82MPD2     C 1249   1.679   2.097  10.532  0.3449 -0.4214  0.0086
   82MPD2    C1 1250   1.670   1.962  10.512  0.0572  0.7284 -0.2519
   82MPD2    C2 1251   1.730   1.880  10.603 -0.1673 -0.4525 -0.0447
   82MPD2    C3 1252   1.823   1.927  10.696  0.0345  0.7939 -0.3422
   82MPD2    C4 1253   1.850   2.066  10.701  0.3279  0.0370  0.5509
   82MPD2    C5 1254   1.773   2.148  10.615  0.1464  0.1892  0.1873
   82MPD2     H 1255   1.719   1.772  10.593 -0.9641 -0.2339 -1.5598
   82MPD2    H1 1256   1.922   2.114  10.765  1.5511 -0.1531 -0.6748
   82MPD2    H2 1257   1.626   2.173  10.475  1.0397 -1.3288 -1.8751
   82MPD2    H3 1258   1.790   2.255  10.624 -0.6780  0.5282 -2.1221
   82MPD2     N 1259   1.895   1.848  10.780  0.2654 -0.2752  0.1849
   82MPD2    H5 1260   1.974   1.889  10.829 -1.1114  2.9449 -0.3599
   82MPD2    N1 1261   1.589   1.911  10.403  0.4464 -0.3895 -0.5559
   82MPD2    H7 1262   1.551   1.983  10.342  0.1964  1.3232  1.6065
   83TCq2    C1 1263   1.858   1.720  10.816 -0.6125  0.0063  0.0079
   83TCq2    O2 1264   1.752   1.659  10.789 -0.2592  0.2798  0.3845
   83TCq2    C2 1265   1.959   1.650  10.896  0.1322 -0.3718  0.0473
   83TCq2    C3 1266   2.078   1.708  10.925 -0.1509 -0.1312 -0.1679
   83TCq2    C4 1267   2.175   1.630  10.985 -0.1069  0.3557 -0.8845
   83TCq2    C5 1268   2.147   1.502  11.024 -0.2255 -1.0419  0.3538
   83TCq2    C6 1269   2.027   1.453  10.996  0.2354  0.2800  0.2867
   83TCq2    C7 1270   1.937   1.519  10.920  0.1452 -0.5897 -0.5277
   83TCq2    C8 1271   1.976   1.337  11.057 -0.5326 -0.0579 -0.8367
   83TCq2    O4 1272   2.011   1.311  11.175 -0.5768 -0.1282 -0.2922
   83TCq2    C9 1273   2.309   1.684  11.006  0.9426 -0.1474 -0.1933
   83TCq2    O5 1274   2.354   1.775  10.929 -0.0055  0.1694 -0.0105
   83TCq2    O6 1275   2.373   1.625  11.096  0.3491 -0.3496 -0.8948
   83TCq2    H2 1276   2.092   1.813  10.903 -0.1368  0.1402  1.1581
   83TCq2    H3 1277   2.225   1.445  11.073  1.8884  0.6480 -1.0593
   83TCq2    H4 1278   1.837   1.479  10.903  0.1053 -1.6987  2.3064
   84TCq2    C1 1279   2.675   0.339  10.413  0.3063  1.0153  0.3538
   84TCq2    O2 1280   2.619   0.258  10.485 -0.1579 -0.0587 -0.2848
   84TCq2    C2 1281   2.798   0.395  10.464  0.5060  0.2033 -0.3428
   84TCq2    C3 1282   2.893   0.452  10.384  0.5424 -0.3381  0.0343
   84TCq2    C4 1283   2.990   0.535  10.439  0.1905 -0.6493  0.1839
   84TCq2    C5 1284   2.995   0.556  10.571  0.1446  0.7239 -0.8502
   84TCq2    C6 1285   2.900   0.496  10.654 -0.3576  0.2301 -0.3218
   84TCq2    C7 1286   2.807   0.413  10.602  0.7188 -0.1038 -0.5916
   84TCq2    C8 1287   2.881   0.530  10.793  0.1500 -0.0043 -0.3452
   84TCq2    O4 1288   2.767   0.512  10.837  0.2444  0.2799  0.5010
   84TCq2    C9 1289   3.091   0.596  10.355  0.3726 -0.4735 -0.0643
   84TCq2    O5 1290   3.195   0.640  10.413  0.4200 -0.3650  0.4612
   84TCq2    O6 1291   3.070   0.575  10.233 -0.1588  0.2915  0.0991
   84TCq2    H2 1292   2.893   0.436  10.276  0.2891 -0.2227  0.0176
   84TCq2    H3 1293   3.076   0.617  10.611  0.9877 -1.2113  0.3450
   84TCq2    H4 1294   2.731   0.369  10.666  0.2200  0.5946 -0.7121
   85MPD2     C 1295   3.381   3.569  16.236 -0.2771 -0.5293  0.3770
   85MPD2    C1 1296   3.314   3.538  16.122  0.3447 -0.0213  0.0198
   85MPD2    C2 1297   3.371   3.581  16.003 -0.7638 -0.2861  0.7338
   85MPD2    C3 1298   3.483   3.664  16.006 -0.2297 -0.1323  0.6315
   85MPD2    C4 1299   3.548   3.688  16.122  0.1077 -0.7517  0.0190
   85MPD2    C5 1300   3.506   3.627  16.237 -0.1192 -0.1430  0.2570
   85MPD2     H 1301   3.340   3.539  15.908 -0.5004  0.4964  0.3058
   85MPD2    H1 1302   3.648   3.729  16.129  0.0846 -0.7924  0.6598
   85MPD2    H2 1303   3.348   3.538  16.335  0.6103  0.4262  0.9783
   85MPD2    H3 1304   3.550   3.640  16.335 -2.7339  0.3785  1.3806
   85MPD2     N 1305   3.538   3.703  15.877 -0.8471 -0.1114 -0.2818
   85MPD2    H5 1306   3.504   3.648  15.799 -0.6186 -1.1841  0.3704
   85MPD2    N1 1307   3.212   3.438  16.118 -0.5411  0.0214 -0.2313
   85MPD2    H7 1308   3.191   3.403  16.025  1.6439 -1.7104 -0.0855
   86TCq2    C1 1309   3.630   3.801  15.865  0.2387  0.0016 -0.1817
   86TCq2    O2 1310   3.675   3.881  15.947  0.2845  0.7570  0.2258
   86TCq2    C2 1311   3.661   3.828  15.728 -0.8431  0.1915 -0.3329
   86TCq2    C3 1312   3.744   3.930  15.684 -0.5111 -0.0501 -0.1685
   86TCq2    C4 1313   3.797   3.921  15.554 -0.5730  0.6116 -0.2532
   86TCq2    C5 1314   3.737   3.838  15.459 -0.1421  0.8419  0.3745
   86TCq2    C6 1315   3.638   3.760  15.495  0.5158  0.0918 -0.2999
   86TCq2    C7 1316   3.595   3.754  15.627  0.5374 -0.2829  0.2399
   86TCq2    C8 1317   3.538   3.713  15.396  0.4773 -0.2623 -0.1632
   86TCq2    O4 1318   3.429   3.686  15.439 -0.2867  0.2061  0.0079
   86TCq2    C9 1319   3.907   4.007  15.521 -0.7145  0.2924 -0.0419
   86TCq2    O5 1320   3.987   4.033  15.617  0.6759 -0.4271  0.0459
   86TCq2    O6 1321   3.931   4.019  15.400 -0.1793  0.3406 -0.4183
   86TCq2    H2 1322   3.793   3.998  15.753 -0.5716 -0.2479  0.0711
   86TCq2    H3 1323   3.757   3.848  15.353  2.4968  1.1134  0.8785
   86TCq2    H4 1324   3.505   3.696  15.645  1.0470 -1.6249 -1.4690
   87MPD2     C 1325   0.569   2.627   1.155 -0.0865  0.2603 -0.4862
   87MPD2    C1 1326   0.494   2.543   1.076 -0.1822 -0.5549  0.3822
   87MPD2    C2 1327   0.390   2.586   0.998  0.5698 -0.0943 -0.2657
   87MPD2    C3 1328   0.350   2.717   1.001  0.1276  0.3802 -0.6986
   87MPD2    C4 1329   0.434   2.799   1.074 -0.0041  0.4814 -0.0724
   87MPD2    C5 1330   0.537   2.756   1.150 -0.8996 -1.1990  0.3174
   87MPD2     H 1331   0.342   2.518   0.927  2.3235 -1.2477 -0.3518
   87MPD2    H1 1332   0.428   2.908   1.075  0.2218  0.4873  0.9685
   87MPD2    H2 1333   0.654   2.591   1.213 -0.2824  0.7179  0.0832
   87MPD2    H3 1334   0.598   2.829   1.203 -0.3983 -1.1674 -0.2990
   87MPD2     N 1335   0.246   2.766   0.913 -0.0825 -0.1938  0.1355
   87MPD2    H5 1336   0.228   2.866   0.914 -0.0420 -0.1846 -2.7852
   87MPD2    N1 1337   0.530   2.408   1.089  0.0273  0.5537 -0.1601
   87MPD2    H7 1338   0.611   2.373   1.139 -1.4759 -0.0852  1.8296
   88TCq2    C1 1339   0.455   2.301   1.049  0.6206 -0.2781 -0.2816
   88TCq2    O2 1340   0.335   2.298   1.039  0.4737  0.4040 -0.3684
   88TCq2    C2 1341   0.531   2.181   1.021 -0.0273  0.1081 -0.1721
   88TCq2    C3 1342   0.476   2.063   1.055  0.4924  0.8341 -0.1937
   88TCq2    C4 1343   0.556   1.955   1.064  0.8364 -0.8248 -0.8345
   88TCq2    C5 1344   0.681   1.954   1.024 -0.2151  0.0779  0.1889
   88TCq2    C6 1345   0.732   2.074   0.970  0.5002 -0.2905 -0.8577
   88TCq2    C7 1346   0.661   2.187   0.984  0.6473 -0.3422  0.7549
   88TCq2    C8 1347   0.870   2.082   0.915  0.2445 -0.5443  0.5952
   88TCq2    O4 1348   0.892   2.171   0.833 -0.1675 -0.3153 -0.2173
   88TCq2    C9 1349   0.489   1.828   1.094 -0.7784 -0.0009  0.8429
   88TCq2    O5 1350   0.539   1.721   1.049 -0.2814 -0.0420 -0.3347
   88TCq2    O6 1351   0.384   1.840   1.159  0.5317  0.0855  0.0132
   88TCq2    H2 1352   0.369   2.063   1.071  0.7791 -1.6284  1.5191
   88TCq2    H3 1353   0.739   1.862   1.020 -1.2387 -0.5498 -0.2928
   88TCq2    H4 1354   0.711   2.282   0.967  1.4495 -0.3310  3.2465
   89MPD2     C 1355   1.340   4.436   1.641 -0.3705  0.0773 -0.1639
   89MPD2    C1 1356   1.253   4.541   1.640  0.4801 -0.1936  0.5065
   89MPD2    C2 1357   1.287   4.656   1.569  0.0868 -0.3663  0.3415
   89MPD2    C3 1358   1.412   4.673   1.519  0.5817  0.2310 -0.3910
   89MPD2    C4 1359   1.505   4.583   1.551  0.3135 -0.4862 -0.1596
   89MPD2    C5 1360   1.469   4.465   1.612 -0.0718 -0.2101 -0.9421
   89MPD2     H 1361   1.218   0.014   1.570  1.2737  0.6039  0.9140
   89MPD2    H1 1362   1.610   4.601   1.534  0.1759 -0.9043 -1.4500
   89MPD2    H2 1363   1.313   4.345   1.693  0.0550  0.2797  0.4176
   89MPD2    H3 1364   1.550   4.400   1.643  0.6511  1.9767  1.7430
   89MPD2     N 1365   1.436   0.062   1.448  0.5208  0.0782 -0.4300
   89MPD2    H5 1366   1.357   0.125   1.438 -0.1511 -0.1266  3.4509
   89MPD2    N1 1367   1.124   4.544   1.686  0.1706 -0.5402 -0.6817
   89MPD2    H7 1368   1.068   4.627   1.666 -0.0974 -0.1685  1.6047
   90TCq2    C1 1369   1.542   0.089   1.365  0.0048 -0.1645  0.7694
   90TCq2    O2 1370   1.635   0.016   1.348  0.3813 -0.1581  0.5942
   90TCq2    C2 1371   1.522   0.212   1.291  0.4997  0.1291 -0.0521
   90TCq2    C3 1372   1.447   0.309   1.342  0.1037 -0.7606  0.0936
   90TCq2    C4 1373   1.459   0.437   1.291  0.4470 -0.0331  0.7197
   90TCq2    C5 1374   1.547   0.459   1.187 -0.6662  0.2149  0.5037
   90TCq2    C6 1375   1.618   0.355   1.133 -0.2817  0.1035  1.1188
   90TCq2    C7 1376   1.618   0.231   1.196 -0.3943 -0.7734  0.4039
   90TCq2    C8 1377   1.688   0.374   1.011 -0.0926 -0.0507 -0.6333
   90TCq2    O4 1378   1.780   0.297   0.991 -0.0391 -0.1230  0.0638
   90TCq2    C9 1379   1.373   0.542   1.338  0.9090  0.1323  0.4890
   90TCq2    O5 1380   1.270   0.517   1.402  0.1813  0.4886 -0.2745
   90TCq2    O6 1381   1.409   0.662   1.314  0.3578 -0.4667 -0.0025
   90TCq2    H2 1382   1.379   0.299   1.426  1.3962 -0.2764  1.1995
   90TCq2    H3 1383   1.554   0.559   1.146 -1.0608 -0.7241 -1.7936
   90TCq2    H4 1384   1.661   0.150   1.137  3.9405  1.4338  0.5278
   91TMC2    C1 1385   3.768   0.231  17.060 -0.2935 -0.1570 -0.9163
   91TMC2    C2 1386   3.817   0.296  17.166 -0.2969  0.4167 -0.2007
   91TMC2    C3 1387   3.737   0.377  17.239  0.1090  0.2602 -0.1696
   91TMC2    C4 1388   3.638   0.232  17.024 -0.5665  0.1432  0.5498
   91TMC2    C5 1389   3.557   0.313  17.100  0.5187 -0.6707 -0.4223
   91TMC2    C6 1390   3.605   0.394  17.202 -0.4045  0.4648  0.0723
   91TMC2     C 1391   3.842   0.136  16.984  0.0147  0.3859  0.0120
   91TMC2     O 1392   3.819   0.119  16.866 -0.4746 -0.3575 -0.2485
   91TMC2     H 1393   3.923   0.282  17.188 -0.1121  2.4566  0.1935
   91TMC2    H1 1394   3.600   0.170  16.944  0.2272 -0.6730  0.8075
   91TMC2    H2 1395   3.552   0.469  17.259 -1.7860  0.1078 -0.7418
   91TMC2    C7 1396   3.421   0.328  17.063  0.1473  0.4345  0.4674
   91TMC2    C8 1397   3.788   0.459  17.358  0.3368 -0.6817 -0.1483
   91TMC2    O1 1398   3.342   0.366  17.148  0.3272 -0.3775  0.5173
   91TMC2    O2 1399   3.762   0.573  17.397 -0.3085 -0.3866  0.1409
   91TMC2    O5 1400   3.902   0.397  17.395  0.1568  0.0564 -0.3466
   91TMC2    H5 1401   3.912   0.307  17.358  1.0235 -0.9024  2.1883
   92MPD2     C 1402   4.026   4.579  17.133  0.1832 -0.2965  0.2403
   92MPD2    C1 1403   3.976   4.657  17.029  0.2076 -0.0374  0.3572
   92MPD2    C2 1404   3.996   4.617  16.900 -0.1360  0.3906 -0.5305
   92MPD2    C3 1405   4.076   4.514  16.866  0.5164 -0.3546  0.6223
   92MPD2    C4 1406   4.137   4.439  16.971 -0.2447  0.4590  0.1131
   92MPD2    C5 1407   4.102   4.471  17.103  0.0297  0.1911 -0.1385
   92MPD2     H 1408   3.946   4.660  16.814 -0.1512 -1.4353 -1.4321
   92MPD2    H1 1409   4.203   4.354  16.956 -0.0189  0.1702  2.8616
   92MPD2    H2 1410   4.002   4.613  17.233  0.9843 -2.6548  1.2448
   92MPD2    H3 1411   4.139   4.406  17.181 -1.6573 -0.6331 -0.0288
   92MPD2     N 1412   4.096   4.497  16.726 -0.3566 -0.1708 -1.1938
   92MPD2    H5 1413   4.060   4.572  16.668  1.5278 -0.3986 -2.6203
   92MPD2    N1 1414   3.900   0.044  17.067  0.5390  0.0482 -0.4550
   92MPD2    H7 1415   3.898   0.064  17.166  2.0548 -0.5755 -0.2982
   93MPD2     C 1416   0.599   4.390  13.783 -0.3844 -0.4944  0.1073
   93MPD2    C1 1417   0.547   4.484  13.871  0.2561  0.3709  0.1953
   93MPD2    C2 1418   0.417   4.528  13.844  0.0959 -0.3936 -0.3856
   93MPD2    C3 1419   0.345   4.488  13.736 -0.0368  0.0499 -0.3418
   93MPD2    C4 1420   0.407   4.403  13.645 -0.0361  0.3418 -0.2925
   93MPD2    C5 1421   0.533   4.352  13.676 -0.7538 -0.4601  0.3975
   93MPD2     H 1422   0.363   4.593  13.912 -1.7767 -1.6275 -0.6790
   93MPD2    H1 1423   0.364   4.373  13.550 -2.1538  1.4960  0.2837
   93MPD2    H2 1424   0.690   4.337  13.809 -0.8626 -0.6008  1.5747
   93MPD2    H3 1425   0.585   4.272  13.624 -0.4073  0.5594 -0.8182
   93MPD2     N 1426   0.211   4.536  13.702 -0.4534  0.8302  0.0043
   93MPD2    H5 1427   0.176   4.520  13.608  0.7123 -0.5277 -0.2113
   93MPD2    N1 1428   0.612   4.536  13.984  0.5084  0.3800 -0.2983
   93MPD2    H7 1429   0.561   4.613  14.027  0.8746  0.1187  0.6112
   94TCq2    C1 1430   0.745   4.516  14.008  0.3529 -0.2845 -0.0110
   94TCq2    O2 1431   0.837   4.450  13.956  0.1186  0.3912 -0.1398
   94TCq2    C2 1432   0.788   4.609  14.105 -0.1218  0.0303 -0.2409
   94TCq2    C3 1433   0.696   4.674  14.183 -1.0808  0.6391  1.2708
   94TCq2    C4 1434   0.736   0.064  14.242  0.3923  0.7272 -1.1202
   94TCq2    C5 1435   0.867   0.107  14.243  0.3456  0.5635 -0.5307
   94TCq2    C6 1436   0.952   0.030  14.177  0.2914 -0.0342 -0.1942
   94TCq2    C7 1437   0.924   4.641  14.109  0.9531 -0.7795  0.0004
   94TCq2    C8 1438   1.080   0.090  14.138  0.5159  0.3146 -0.3795
   94TCq2    O4 1439   1.180   0.019  14.126 -0.1509 -0.1821  0.0802
   94TCq2    C9 1440   0.634   0.146  14.295 -0.0776 -0.2620  0.0659
   94TCq2    O5 1441   0.515   0.107  14.295 -0.3451 -0.1372 -0.3105
   94TCq2    O6 1442   0.660   0.262  14.336  0.2952  0.0771 -0.5864
   94TCq2    H2 1443   0.592   4.647  14.200 -1.0347  0.1507  0.7669
   94TCq2    H3 1444   0.894   0.190  14.306  2.5185  1.4691 -2.6245
   94TCq2    H4 1445   1.005   4.593  14.056 -0.1323 -0.9628 -1.4742
   95TMC2    C1 1446   0.307   1.745  16.071  0.1439 -0.0693 -0.7498
   95TMC2    C2 1447   0.220   1.641  16.059  0.0103 -0.5744 -0.4268
   95TMC2    C3 1448   0.129   1.620  16.163 -0.0140 -0.2366 -0.4085
   95TMC2    C4 1449   0.321   1.819  16.187 -0.1246 -0.1210 -0.2065
   95TMC2    C5 1450   0.234   1.783  16.289 -0.1911  0.3030 -0.4857
   95TMC2    C6 1451   0.134   1.691  16.278  0.8115  0.1083 -0.1315
   95TMC2     C 1452   0.420   1.760  15.984  0.4637 -0.6733 -0.1129
   95TMC2     O 1453   0.477   1.867  15.983 -0.0482  0.2230  0.4426
   95TMC2     H 1454   0.200   1.604  15.959 -3.5733  0.5810 -0.1518
   95TMC2    H1 1455   0.406   1.885  16.203 -0.6183  0.6780 -0.8894
   95TMC2    H2 1456   0.054   1.675  16.349  2.0768 -1.7407  0.8565
   95TMC2    C7 1457   0.277   1.819  16.417  0.0431  0.5561 -0.1473
   95TMC2    C8 1458   0.029   1.512  16.148 -0.0887 -0.3518  0.0276
   95TMC2    O1 1459   0.367   1.904  16.426 -0.0887  0.6706  0.1428
   95TMC2    O2 1460   4.638   1.532  16.161  0.1690  0.6351  0.4655
   95TMC2    O5 1461   0.074   1.442  16.042 -0.0524  0.2088  0.8969
   95TMC2    H5 1462   0.171   1.446  16.031 -0.0410  0.2675  1.0229
   96MPD2     C 1463   0.806   1.574  15.700  0.3263 -0.6061  0.0152
   96MPD2    C1 1464   0.774   1.697  15.741 -0.6302 -0.4184 -0.1048
   96MPD2    C2 1465   0.662   1.726  15.816 -0.2348  0.1847 -0.0729
   96MPD2    C3 1466   0.583   1.623  15.854  0.4936 -0.1171 -0.3410
   96MPD2    C4 1467   0.618   1.502  15.814 -0.3288  0.3651  0.1954
   96MPD2    C5 1468   0.724   1.478  15.735 -0.4184  0.0553  0.0224
   96MPD2     H 1469   0.646   1.828  15.849 -0.0406 -0.2240  1.2962
   96MPD2    H1 1470   0.556   1.418  15.841 -0.0956 -0.1534 -0.9032
   96MPD2    H2 1471   0.888   1.571  15.630 -0.0850 -0.6147 -0.4639
   96MPD2    H3 1472   0.751   1.380  15.698  0.7533  0.3741  0.0172
   96MPD2     N 1473   0.466   1.646  15.931  0.3594 -0.5418  0.7218
   96MPD2    H5 1474   0.405   1.567  15.946 -1.4349  0.2938 -2.2109
   96MPD2    N1 1475   0.857   1.797  15.682  0.5877 -0.2067 -0.0335
   96MPD2    H7 1476   0.919   1.789  15.603 -0.1171 -1.8832 -0.4053
   97MPD2     C 1477   2.711   3.793   1.362 -0.7033  0.4093 -0.0512
   97MPD2    C1 1478   2.596   3.858   1.321  0.1632 -0.1722 -0.6467
   97MPD2    C2 1479   2.605   3.980   1.256 -0.2427  0.0721  0.2345
   97MPD2    C3 1480   2.727   4.045   1.233 -1.0320 -0.1245 -0.5790
   97MPD2    C4 1481   2.841   3.983   1.285  0.1613  0.0878 -0.1922
   97MPD2    C5 1482   2.835   3.859   1.348  0.4726  1.3370 -0.5890
   97MPD2     H 1483   2.509   4.018   1.221  0.2306  0.1530 -0.9769
   97MPD2    H1 1484   2.934   4.038   1.271  1.0936 -1.4416  0.0140
   97MPD2    H2 1485   2.706   3.702   1.421 -0.7054  0.4327 -0.0145
   97MPD2    H3 1486   2.922   3.818   1.397 -1.7329 -0.8869  1.5136
   97MPD2     N 1487   2.742   4.166   1.163  0.3748  0.3935 -0.6821
   97MPD2    H5 1488   2.839   4.194   1.153  0.7230 -1.0149 -1.2106
   97MPD2    N1 1489   2.473   3.794   1.355 -0.0195 -0.0487 -0.1871
   97MPD2    H7 1490   2.477   3.703   1.400 -0.0562 -0.5147 -1.1319
   98TCq2    C1 1491   2.640   4.250   1.127  0.3405 -0.3142  0.9665
   98TCq2    O2 1492   2.522   4.230   1.148 -0.8002  0.3146 -0.4837
   98TCq2    C2 1493   2.682   4.371   1.062 -0.3216  0.7666  0.4817
   98TCq2    C3 1494   2.578   4.452   1.032 -0.1932 -0.3648  0.6250
   98TCq2    C4 1495   2.592   4.553   0.946 -0.2045 -0.0050 -0.1756
   98TCq2    C5 1496   2.708   4.554   0.871 -0.0012 -0.8630  0.0229
   98TCq2    C6 1497   2.815   4.477   0.904  0.6806  0.4433 -0.4279
   98TCq2    C7 1498   2.809   4.384   1.008 -0.9909 -0.0032  0.6310
   98TCq2    C8 1499   2.943   4.504   0.851 -0.6213  0.0777  0.1680
   98TCq2    O4 1500   2.961   4.604   0.776  0.9390  0.5290 -0.1832
   98TCq2    C9 1501   2.481   4.643   0.922 -0.7597 -1.1037  0.0794
   98TCq2    O5 1502   2.512   0.006   0.837 -0.3732  0.4815 -0.3133
   98TCq2    O6 1503   2.368   4.605   0.954 -0.2434  0.1607 -0.0430
   98TCq2    H2 1504   2.477   4.439   1.071  0.6504  0.7664  3.2298
   98TCq2    H3 1505   2.725   4.628   0.794  0.0977  1.7100  2.5076
   98TCq2    H4 1506   2.894   4.333   1.052  0.0954  1.6744  0.4814
   99MPD2     C 1507   0.972   1.364   1.681 -0.9939 -0.0129 -0.6438
   99MPD2    C1 1508   0.918   1.460   1.609 -0.1526  0.4347  0.2786
   99MPD2    C2 1509   0.881   1.432   1.484 -0.2860  0.2595  0.2818
   99MPD2    C3 1510   0.893   1.307   1.429 -0.0503 -0.0048  0.9182
   99MPD2    C4 1511   0.967   1.214   1.502  0.3966  0.3869  0.2159
   99MPD2    C5 1512   0.999   1.243   1.634 -0.4430 -0.1266 -0.3532
   99MPD2     H 1513   0.842   1.514   1.425  0.5084 -0.7238 -1.6197
   99MPD2    H1 1514   0.989   1.109   1.483 -1.6663  0.2426 -1.3854
   99MPD2    H2 1515   0.994   1.385   1.785 -1.7960  2.9957 -1.0839
   99MPD2    H3 1516   1.038   1.163   1.696  2.8486  1.2205 -0.6685
   99MPD2     N 1517   0.850   1.282   1.298  1.3678 -0.2201  0.1977
   99MPD2    H5 1518   0.801   1.362   1.259  2.9798  0.5138 -0.2959
   99MPD2    N1 1519   0.890   1.588   1.669 -0.0968  0.2402  0.3933
   99MPD2    H7 1520   0.834   1.650   1.612  0.1830 -1.9349 -2.1996
  100TCq2    C1 1521   0.955   1.639   1.783 -0.2651  0.3420 -0.2798
  100TCq2    O2 1522   1.056   1.605   1.843 -0.2902 -0.1328  0.7448
  100TCq2    C2 1523   0.924   1.776   1.807 -0.1119 -0.5764 -0.1993
  100TCq2    C3 1524   1.017   1.832   1.884  0.4312 -0.0198  0.4146
  100TCq2    C4 1525   0.982   1.943   1.959  0.6912 -0.1446 -0.4577
  100TCq2    C5 1526   0.851   1.981   1.972  0.2662  0.7083  0.6120
  100TCq2    C6 1527   0.759   1.908   1.913  0.2837 -0.2568 -0.3384
  100TCq2    C7 1528   0.789   1.811   1.819  0.4576  0.1610  0.2251
  100TCq2    C8 1529   0.629   1.977   1.902  0.5097  0.7340 -0.2584
  100TCq2    O4 1530   0.635   2.097   1.927 -0.0960 -0.3166  0.3369
  100TCq2    C9 1531   1.082   2.023   2.031 -0.1613 -0.3444 -0.3200
  100TCq2    O5 1532   1.040   2.137   2.067 -0.3089 -0.2111  0.0259
  100TCq2    O6 1533   1.202   1.989   1.996 -0.1831 -0.8435 -1.1116
  100TCq2    H2 1534   1.124   1.814   1.886  0.6536  1.4212  1.4134
  100TCq2    H3 1535   0.817   2.067   2.029 -2.0733  1.2073 -1.4974
  100TCq2    H4 1536   0.715   1.769   1.751  2.1383 -0.5500 -1.1645
  101MPD2     C 1537   2.181   2.243  13.089 -0.4206  0.6870 -0.1658
  101MPD2    C1 1538   2.088   2.344  13.113  0.5525 -0.0066  0.2208
  101MPD2    C2 1539   1.975   2.302  13.190 -0.0993 -0.3415  0.4172
  101MPD2    C3 1540   1.960   2.178  13.237 -0.4295 -0.4100  0.3244
  101MPD2    C4 1541   2.055   2.082  13.212 -0.4419  0.5870 -0.3442
  101MPD2    C5 1542   2.168   2.118  13.142  0.3487 -0.8912  0.0374
  101MPD2     H 1543   1.895   2.375  13.197 -0.7806 -1.0991  0.3998
  101MPD2    H1 1544   2.056   1.978  13.240  0.4079  0.1781 -1.8701
  101MPD2    H2 1545   2.272   2.275  13.039  0.7481  2.4021  3.0966
  101MPD2    H3 1546   2.249   2.049  13.124 -1.2504 -2.7393 -0.0171
  101MPD2     N 1547   1.838   2.150  13.304  0.1033  0.6604  0.1776
  101MPD2    H5 1548   1.771   2.227  13.311  0.8917  1.4276 -0.6774
  101MPD2    N1 1549   2.096   2.473  13.065 -0.3236 -0.0832 -0.2153
  101MPD2    H7 1550   2.156   2.484  12.984 -2.0174 -0.4418 -1.5093
  102TCq2    C1 1551   2.091   2.820  12.709  0.4373 -0.5080 -0.8161
  102TCq2    O2 1552   2.209   2.796  12.718 -0.7238  0.1816 -0.1961
  102TCq2    C2 1553   2.000   2.751  12.796  0.9220 -0.3674  1.1347
  102TCq2    C3 1554   1.874   2.800  12.805  0.3679  1.0056  0.6013
  102TCq2    C4 1555   1.808   2.777  12.916  0.4482  0.3201 -0.6625
  102TCq2    C5 1556   1.856   2.708  13.019 -0.0813  0.0141  0.5251
  102TCq2    C6 1557   1.987   2.677  13.016 -0.8783  0.0041 -0.4832
  102TCq2    C7 1558   2.057   2.680  12.900  1.0277 -0.5305  0.3072
  102TCq2    C8 1559   2.023   2.577  13.118 -0.1299 -0.3485  0.8986
  102TCq2    O4 1560   1.963   2.586  13.226 -0.2237 -0.1182 -0.0494
  102TCq2    C9 1561   1.666   2.821  12.923  0.8462  0.6041 -0.0019
  102TCq2    O5 1562   1.596   2.779  13.020 -0.5107  0.2106 -0.2563
  102TCq2    O6 1563   1.629   2.911  12.853 -0.5750  0.0013 -0.3634
  102TCq2    H2 1564   1.818   2.848  12.726 -0.4934 -1.3423 -0.2004
  102TCq2    H3 1565   1.802   2.704  13.113 -0.5113 -0.1274  0.2661
  102TCq2    H4 1566   2.163   2.659  12.893  0.9292 -0.9794  0.1670
  103TMC2    C1 1567   4.575   3.084  12.802 -0.0746  0.1045  0.5356
  103TMC2    C2 1568   4.447   3.138  12.811  0.2501 -0.0358 -0.5502
  103TMC2    C3 1569   4.381   3.117  12.925 -0.1990  0.0182 -0.2257
  103TMC2    C4 1570   4.636   3.005  12.895  0.4379 -0.7545  0.0000
  103TMC2    C5 1571   4.553   2.977  13.005  0.0444 -0.0381 -0.1557
  103TMC2    C6 1572   4.429   3.032  13.023  0.0857 -0.1269 -0.1549
  103TMC2     C 1573   4.631   3.092  12.672 -0.4034  0.3241 -0.3055
  103TMC2     O 1574   4.554   3.109  12.577  0.2716  0.2993 -0.1749
  103TMC2     H 1575   4.395   3.190  12.732 -0.8880 -2.1144 -1.1603
  103TMC2    H1 1576   0.013   2.970  12.893  0.6611 -0.0897  0.1027
  103TMC2    H2 1577   4.376   2.998  13.111  0.8944 -1.7684 -0.3029
  103TMC2    C7 1578   4.599   2.874  13.099 -0.1107  0.7811  0.4624
  103TMC2    C8 1579   4.259   3.190  12.952 -0.2388 -0.3949  0.1200
  103TMC2    O1 1580   4.533   2.871  13.205 -0.0546 -0.7456  0.6163
  103TMC2    O2 1581   4.228   3.283  12.877  0.4355  0.4651 -0.2908
  103TMC2    O5 1582   4.232   3.182  13.081  0.3118  0.1599  0.6827
  103TMC2    H5 1583   4.234   3.085  13.090 -1.2149 -0.0571 -1.4029
  104MPD2     C 1584   0.242   2.998  12.537 -0.0079 -0.0236  0.3957
  104MPD2    C1 1585   0.107   3.015  12.543  0.1872  0.4449 -0.5022
  104MPD2    C2 1586   0.036   2.974  12.426  0.2526 -0.6121 -0.2861
  104MPD2    C3 1587   0.097   2.908  12.325  0.0275  0.7367  0.0782
  104MPD2    C4 1588   0.233   2.902  12.315 -0.3032 -0.2451  0.2058
  104MPD2    C5 1589   0.303   2.959  12.421  0.3244  0.4885 -0.7421
  104MPD2     H 1590   4.657   2.998  12.421  0.5847  0.5527 -1.6388
  104MPD2    H1 1591   0.283   2.855  12.231 -0.2646 -0.2297  0.2205
  104MPD2    H2 1592   0.301   3.028  12.623  0.9460 -0.9946  0.0809
  104MPD2    H3 1593   0.410   2.949  12.417  0.0821 -1.8965 -1.2099
  104MPD2     N 1594   0.017   2.862  12.217 -0.1241 -0.0418 -0.1548
  104MPD2    H5 1595   4.647   2.893  12.222 -0.6489 -1.7770  0.3485
  104MPD2    N1 1596   0.043   3.063  12.663 -0.0486 -0.3823  0.4053
  104MPD2    H7 1597   0.100   3.077  12.746  0.0939  1.9465 -0.0952
  105MPD2     C 1598   1.988   2.139  17.529  0.1452 -0.2067  0.3450
  105MPD2    C1 1599   1.852   2.115  17.534  0.1187 -0.2009 -0.4661
  105MPD2    C2 1600   1.786   2.140  17.652  0.5932 -0.2130  0.6438
  105MPD2    C3 1601   1.833   2.217   0.052 -0.1678  0.0026  0.3705
  105MPD2    C4 1602   1.956   2.276   0.023 -0.5104  0.3646  0.1954
  105MPD2    C5 1603   2.037   2.230  17.624 -0.1857 -0.0610  0.0400
  105MPD2     H 1604   1.683   2.107  17.653  0.9045 -1.2652 -1.3758
  105MPD2    H1 1605   1.999   2.348   0.092 -0.8981  0.0458  0.7728
  105MPD2    H2 1606   2.053   2.119  17.445  0.9542  0.3831  0.8197
  105MPD2    H3 1607   2.142   2.254  17.625 -0.2553  0.1968  1.0192
  105MPD2     N 1608   1.766   2.246   0.168  0.4987 -0.2528 -0.2793
  105MPD2    H5 1609   1.797   2.324   0.225  1.3305 -1.9201  1.5544
  105MPD2    N1 1610   1.786   2.059  17.431 -0.5469  0.4497 -0.2484
  105MPD2    H7 1611   1.690   2.037  17.452 -0.9654  0.0949 -2.5332
  106TCq2    C1 1612   1.668   2.164   0.221  0.0591 -0.2276  0.1083
  106TCq2    O2 1613   1.616   2.069   0.171 -0.3282  0.2077 -0.2048
  106TCq2    C2 1614   1.611   2.215   0.345 -0.3112  0.0943  0.2577
  106TCq2    C3 1615   1.633   2.344   0.385 -0.3224 -0.0712 -0.3561
  106TCq2    C4 1616   1.603   2.384   0.511 -0.4976  0.1958  0.2980
  106TCq2    C5 1617   1.540   2.298   0.597  0.0336  0.6168 -0.2032
  106TCq2    C6 1618   1.523   2.165   0.554  0.2011 -0.7793  0.2519
  106TCq2    C7 1619   1.563   2.123   0.430 -0.8608 -0.0433 -0.3881
  106TCq2    C8 1620   1.482   2.066   0.653 -0.6133 -0.1470 -0.4400
  106TCq2    O4 1621   1.555   1.967   0.654 -0.7405  0.1786 -0.4684
  106TCq2    C9 1622   1.634   2.516   0.556 -0.3376 -0.5061  0.0991
  106TCq2    O5 1623   1.689   2.593   0.472  0.0314 -0.0600  0.1209
  106TCq2    O6 1624   1.594   2.542   0.675 -0.5624  0.6117  0.0890
  106TCq2    H2 1625   1.659   2.413   0.306 -1.7398  0.6675 -0.1669
  106TCq2    H3 1626   1.521   2.327   0.700  0.1384  0.8759 -0.2571
  106TCq2    H4 1627   1.562   2.017   0.407 -1.4097  0.1289 -1.1719
  107TMC2    C1 1628   2.703   0.654  11.757  0.6261  0.2799  0.1644
  107TMC2    C2 1629   2.612   0.555  11.720 -0.1298 -0.3342  0.5015
  107TMC2    C3 1630   2.615   0.499  11.593  0.7470  0.3025  0.1541
  107TMC2    C4 1631   2.815   0.681  11.674 -0.1950 -0.4161  0.0453
  107TMC2    C5 1632   2.818   0.608  11.557 -0.4378  0.2437 -0.3135
  107TMC2    C6 1633   2.721   0.524  11.511  0.9352  0.4499 -0.0239
  107TMC2     C 1634   2.687   0.726  11.883  1.2372  0.4142 -0.0502
  107TMC2     O 1635   2.582   0.726  11.941 -0.2244 -0.3011 -0.2808
  107TMC2     H 1636   2.544   0.511  11.792  0.4398 -1.3417  0.4227
  107TMC2    H1 1637   2.892   0.754  11.698 -2.3412  1.2642  1.8224
  107TMC2    H2 1638   2.736   0.461  11.424 -2.6327  1.2958 -1.2276
  107TMC2    C7 1639   2.919   0.650  11.466 -0.2793  0.3870  0.0965
  107TMC2    C8 1640   2.528   0.380  11.573  0.2401 -0.6266 -0.0122
  107TMC2    O1 1641   3.020   0.688  11.524 -0.2346  0.4303  0.4926
  107TMC2    O2 1642   2.463   0.328  11.662  0.1095 -0.1877 -0.2027
  107TMC2    O5 1643   2.507   0.372  11.443  0.3367  0.1427  0.4610
  107TMC2    H5 1644   2.567   0.431  11.391  1.4733 -1.6670 -0.2998
  108MPD2     C 1645   2.954   0.903  12.066 -0.2286  0.2435 -0.0129
  108MPD2    C1 1646   2.824   0.866  12.033  0.2558  0.0249  0.4333
  108MPD2    C2 1647   2.718   0.923  12.099  0.0406  0.2671  0.0227
  108MPD2    C3 1648   2.734   1.003  12.210 -0.1139 -0.1416 -0.7324
  108MPD2    C4 1649   2.863   1.044  12.238 -0.0051 -0.0785  0.5910
  108MPD2    C5 1650   2.969   0.990  12.168 -0.2026  0.1382  0.4789
  108MPD2     H 1651   2.618   0.891  12.073  0.6333 -1.1015 -0.5810
  108MPD2    H1 1652   2.881   1.119  12.314  1.0278  0.8201 -0.5347
  108MPD2    H2 1653   3.042   0.877  12.008  0.3256  1.8791  0.0954
  108MPD2    H3 1654   3.068   1.032  12.184  0.1276  0.5911 -2.6906
  108MPD2     N 1655   2.627   1.061  12.282  0.1932  0.4867 -0.0834
  108MPD2    H5 1656   2.646   1.088  12.378  0.6435 -0.6320  0.1378
  108MPD2    N1 1657   2.808   0.776  11.922  0.1855  0.0963  0.5463
  108MPD2    H7 1658   2.889   0.728  11.886 -0.5789 -1.2783  0.6518
  109MPD2     C 1659   1.567   3.085   1.913  0.5924  0.1719 -1.0017
  109MPD2    C1 1660   1.675   3.110   1.829  0.2201  0.2378  0.3020
  109MPD2    C2 1661   1.795   3.040   1.847  0.3057 -0.0203  1.2027
  109MPD2    C3 1662   1.813   2.954   1.955  0.3619  0.2945  0.1933
  109MPD2    C4 1663   1.702   2.926   2.031  0.0635 -0.2806  0.2066
  109MPD2    C5 1664   1.583   2.986   2.007  0.4922 -0.7440 -0.4249
  109MPD2     H 1665   1.886   3.076   1.801 -1.2377  1.2640 -0.8379
  109MPD2    H1 1666   1.705   2.864   2.120 -0.8837 -1.0032 -0.2690
  109MPD2    H2 1667   1.472   3.137   1.903 -0.4384 -1.2115  1.6355
  109MPD2    H3 1668   1.503   2.965   2.077  0.4214 -2.5814 -1.0674
  109MPD2     N 1669   1.939   2.907   1.989  0.5968 -0.2876  0.1213
  109MPD2    H5 1670   2.012   2.944   1.929  0.5814  1.2814  1.0526
  109MPD2    N1 1671   1.654   3.212   1.733 -0.1643 -0.4377 -0.5800
  109MPD2    H7 1672   1.562   3.254   1.734  0.2443  0.4068  2.1252
  110TCq2    C1 1673   1.979   2.828   2.097 -0.1930 -0.1106  0.6688
  110TCq2    O2 1674   1.911   2.763   2.175  0.0850 -0.5712 -0.6743
  110TCq2    C2 1675   2.121   2.828   2.126  0.2381  0.0423  0.5489
  110TCq2    C3 1676   2.176   2.726   2.198 -0.3475 -0.3635  0.5840
  110TCq2    C4 1677   2.296   2.747   2.266  0.7672  0.0270  0.2353
  110TCq2    C5 1678   2.370   2.868   2.252  0.2127 -0.4151 -0.2592
  110TCq2    C6 1679   2.312   2.972   2.175 -0.4901  0.2850  0.2911
  110TCq2    C7 1680   2.185   2.953   2.113 -0.8666 -0.5161  0.3716
  110TCq2    C8 1681   2.394   3.095   2.153 -0.1627  0.0991 -0.2609
  110TCq2    O4 1682   2.488   3.114   2.230  0.1800 -0.3258 -0.3294
  110TCq2    C9 1683   2.353   2.631   2.346 -0.4750 -0.3181  0.3650
  110TCq2    O5 1684   2.453   2.673   2.414 -0.3805  0.1006 -0.9020
  110TCq2    O6 1685   2.285   2.529   2.357 -0.0721  0.0011 -0.1167
  110TCq2    H2 1686   2.123   2.634   2.220  1.1380 -1.7486 -1.6679
  110TCq2    H3 1687   2.467   2.876   2.299 -0.2841  1.7131  0.3694
  110TCq2    H4 1688   2.131   3.035   2.067  1.3420  0.7310 -0.0521
  111TMC2    C1 1689   2.455   3.278  11.293 -0.3377 -0.0496 -0.6070
  111TMC2    C2 1690   2.527   3.302  11.182 -0.8178  0.5485  0.0376
  111TMC2    C3 1691   2.649   3.357  11.202 -0.0870 -0.2943 -0.1560
  111TMC2    C4 1692   2.494   3.308  11.421 -0.2532 -0.2802 -0.3781
  111TMC2    C5 1693   2.621   3.362  11.431  0.4024 -0.0904 -0.3518
  111TMC2    C6 1694   2.703   3.382  11.322 -1.0501  0.0577 -0.2016
  111TMC2     C 1695   2.316   3.237  11.273 -0.5831 -0.9335  0.4784
  111TMC2     O 1696   2.296   3.186  11.162 -0.9867  0.0498 -0.4462
  111TMC2     H 1697   2.491   3.295  11.080 -0.3770  2.1723 -0.2435
  111TMC2    H1 1698   2.438   3.302  11.514 -0.6501 -2.9785 -0.7745
  111TMC2    H2 1699   2.800   3.430  11.328 -1.3115  0.2763  2.0840
  111TMC2    C7 1700   2.677   3.348  11.562  1.0610 -0.0440  0.0324
  111TMC2    C8 1701   2.719   3.413  11.090  0.0691 -0.1978 -0.1886
  111TMC2    O1 1702   2.608   3.342  11.661  0.1854  0.0031 -0.2140
  111TMC2    O2 1703   2.663   3.487  11.007  0.1905 -0.0191 -0.5154
  111TMC2    O5 1704   2.850   3.391  11.098  0.7136 -0.3657  0.7272
  111TMC2    H5 1705   2.872   3.312  11.151 -0.7533 -1.8738 -0.9233
  112MPD2     C 1706   1.825   3.199  11.371  0.2359 -0.3583 -0.4258
  112MPD2    C1 1707   1.903   3.133  11.278 -0.4932  0.4552 -0.6272
  112MPD2    C2 1708   2.038   3.155  11.287  0.1935  0.2669 -0.1225
  112MPD2    C3 1709   2.099   3.236  11.381 -0.3672 -0.6015 -0.4602
  112MPD2    C4 1710   2.025   3.291  11.477 -0.1569 -0.7329 -0.7640
  112MPD2    C5 1711   1.885   3.273  11.463 -0.6384  0.3492 -0.1375
  112MPD2     H 1712   2.102   3.102  11.217  0.5730 -0.3860  0.7022
  112MPD2    H1 1713   2.072   3.352  11.554  1.9321 -1.6178 -1.3455
  112MPD2    H2 1714   1.716   3.203  11.375  0.3268  0.1907  1.7728
  112MPD2    H3 1715   1.826   3.317  11.543 -0.9510 -0.0499 -0.1452
  112MPD2     N 1716   2.237   3.256  11.388  0.0995  0.1239 -0.7020
  112MPD2    H5 1717   2.279   3.318  11.457  0.6333 -2.4591  1.3094
  112MPD2    N1 1718   1.850   3.066  11.168 -0.7411 -0.4712  0.1177
  112MPD2    H7 1719   1.923   3.029  11.108 -0.3830  1.0348 -0.3875
  113MPD2     C 1720   0.579   1.508   1.538  0.1455 -0.7934 -0.3414
  113MPD2    C1 1721   0.509   1.576   1.444  0.0244 -0.2404  0.1206
  113MPD2    C2 1722   0.394   1.522   1.388 -0.0764 -0.5120  0.2096
  113MPD2    C3 1723   0.346   1.396   1.428 -0.1326 -0.5900 -0.1155
  113MPD2    C4 1724   0.410   1.333   1.523 -0.4638  0.6751 -0.3770
  113MPD2    C5 1725   0.531   1.383   1.569  0.4055 -0.3137 -0.3543
  113MPD2     H 1726   0.340   1.588   1.320 -0.7168 -1.0279  0.2292
  113MPD2    H1 1727   0.379   1.233   1.552  0.1578  0.8844  0.9669
  113MPD2    H2 1728   0.663   1.553   1.592  0.3226 -1.2298 -0.2547
  113MPD2    H3 1729   0.577   1.331   1.653  1.3332 -2.7816 -2.3973
  113MPD2     N 1730   0.231   1.332   1.369 -0.4376 -0.2461 -0.0562
  113MPD2    H5 1731   0.195   1.243   1.404  1.4019 -2.0624 -2.7842
  113MPD2    N1 1732   0.520   1.717   1.425  0.4236 -1.2787 -0.0846
  113MPD2    H7 1733   0.458   1.772   1.366 -1.0025 -0.1474  2.4786
  114TCq2    C1 1734   0.165   1.373   1.260 -1.0169  0.0405 -0.6782
  114TCq2    O2 1735   0.171   1.488   1.205 -0.2495 -0.8042  0.2759
  114TCq2    C2 1736   0.066   1.268   1.219 -0.1361 -0.2857 -0.1540
  114TCq2    C3 1737   4.708   1.291   1.118 -0.2951  0.4381  0.2234
  114TCq2    C4 1738   4.608   1.200   1.095 -0.4862  0.0695  0.3730
  114TCq2    C5 1739   4.592   1.079   1.162  0.3329 -0.3336  0.3667
  114TCq2    C6 1740   4.685   1.064   1.261  0.5518 -1.0394  0.1364
  114TCq2    C7 1741   0.062   1.149   1.287 -0.0977  0.0392 -0.5920
  114TCq2    C8 1742   4.706   0.924   1.296 -1.1864  0.1040  0.2351
  114TCq2    O4 1743   0.095   0.884   1.299  0.5171  0.9047 -0.2361
  114TCq2    C9 1744   4.519   1.223   0.984 -0.3673  0.6320 -0.3915
  114TCq2    O5 1745   4.412   1.160   0.978  0.0663 -0.0005 -0.0987
  114TCq2    O6 1746   4.542   1.327   0.917  0.1518  0.3066 -0.0553
  114TCq2    H2 1747   4.713   1.381   1.058 -0.6155  0.0499 -0.3815
  114TCq2    H3 1748   4.522   1.008   1.119 -0.3075 -0.3681  1.4620
  114TCq2    H4 1749   0.125   1.126   1.373  0.6435 -0.3430 -1.2402
  115TMC2    C1 1750   0.314   4.253  17.638 -0.4325  0.6606  0.2983
  115TMC2    C2 1751   0.216   4.273   0.031 -0.0815 -0.9705 -0.9327
  115TMC2    C3 1752   0.207   4.400   0.080  0.3911 -0.1317 -0.0061
  115TMC2    C4 1753   0.411   4.351  17.607  0.6441 -0.4275  0.2630
  115TMC2    C5 1754   0.395   4.473  17.665  0.1461  1.0760  0.3027
  115TMC2    C6 1755   0.293   4.502   0.044  0.4352 -0.1345 -0.0958
  115TMC2     C 1756   0.342   4.126  17.583  0.5228  0.7245  0.0565
  115TMC2     O 1757   0.406   4.119  17.479 -0.9052  0.0673 -0.2236
  115TMC2     H 1758   0.146   4.199   0.069 -0.1076  0.0613  0.9742
  115TMC2    H1 1759   0.489   4.337  17.533 -0.2405  1.0546 -0.9537
  115TMC2    H2 1760   0.294   4.596   0.096 -0.2640 -0.6972  0.9293
  115TMC2    C7 1761   0.518   4.535   0.013  0.1417  0.1542  0.2189
  115TMC2    C8 1762   0.129   4.416   0.203  0.1545  0.1978  0.5173
  115TMC2    O1 1763   0.523   4.560   0.136  0.2757  0.2900 -0.1910
  115TMC2    O2 1764   0.094   4.320   0.274 -0.0912  0.6877 -0.0541
  115TMC2    O5 1765   0.081   4.542   0.211 -0.1054  0.0325 -0.2482
  115TMC2    H5 1766   0.092   4.597   0.131  0.1470  0.4296  0.0648
  116MPD2     C 1767   0.271   3.614  17.596  0.3532 -0.2604 -0.1989
  116MPD2    C1 1768   0.326   3.690  17.494 -0.2518 -0.1851  0.1953
  116MPD2    C2 1769   0.330   3.823  17.511 -0.0637 -0.5347  0.1973
  116MPD2    C3 1770   0.273   3.885  17.622  0.0348  0.2336  0.1434
  116MPD2    C4 1771   0.224   3.807   0.013  0.5175  0.2688  0.2741
  116MPD2    C5 1772   0.222   3.673  17.703  0.2208 -1.1255  0.5544
  116MPD2     H 1773   0.369   3.879  17.426 -0.5948 -0.1498  0.2079
  116MPD2    H1 1774   0.168   3.848   0.096  0.1289 -0.9722  0.6171
  116MPD2    H2 1775   0.268   3.506  17.600  0.4426 -0.2824 -0.6869
  116MPD2    H3 1776   0.167   3.623   0.075 -1.6944  3.6233  2.2588
  116MPD2     N 1777   0.267   4.026  17.640  0.1369 -0.3658 -0.0069
  116MPD2    H5 1778   0.225   4.050   0.024 -1.1236 -2.3890 -0.0651
  116MPD2    N1 1779   0.381   3.635  17.372 -0.0265  0.4290  0.0846
  116MPD2    H7 1780   0.431   3.699  17.311 -1.2077  1.8287  0.5837
  117TMC2    C1 1781   0.422   0.547  13.953  0.9165  1.0738 -0.4782
  117TMC2    C2 1782   0.556   0.534  13.960 -0.0291 -0.2811  0.6739
  117TMC2    C3 1783   0.603   0.512  14.083  0.6910  0.4108 -0.9466
  117TMC2    C4 1784   0.339   0.539  14.066  0.9956 -0.0103 -0.6422
  117TMC2    C5 1785   0.396   0.524  14.189 -0.1990 -0.0732 -0.1639
  117TMC2    C6 1786   0.532   0.508  14.193 -0.1982 -0.1509  0.0308
  117TMC2     C 1787   0.362   0.576  13.820 -0.7463 -0.3655  0.3005
  117TMC2     O 1788   0.407   0.512  13.726  0.2448  0.0594  0.1783
  117TMC2     H 1789   0.615   0.514  13.871  1.0136  1.4489  0.9737
  117TMC2    H1 1790   0.231   0.535  14.054  0.8193  1.6001  0.3863
  117TMC2    H2 1791   0.583   0.503  14.289  1.6306  0.3033 -0.9330
  117TMC2    C7 1792   0.347   0.610  14.288  0.3130 -0.4895 -0.1278
  117TMC2    C8 1793   0.749   0.508  14.087  0.6852  0.2311 -0.3791
  117TMC2    O1 1794   0.425   0.691  14.344 -0.5178  0.0859 -0.0234
  117TMC2    O2 1795   0.818   0.556  13.998 -0.4760 -0.1531  0.0174
  117TMC2    O5 1796   0.800   0.410  14.159  0.3952 -0.5111 -0.4335
  117TMC2    H5 1797   0.747   0.376  14.235  1.2098  2.5750  1.5096
  118MPD2     C 1798   4.719   0.678  14.348 -0.2353  0.6123  0.3547
  118MPD2    C1 1799   0.118   0.711  14.325 -0.2557 -0.9591 -0.0776
  118MPD2    C2 1800   0.162   0.840  14.342  0.0118 -0.1559 -0.1072
  118MPD2    C3 1801   0.078   0.941  14.386  0.3442 -0.1187 -0.1520
  118MPD2    C4 1802   4.681   0.897  14.422  0.5892  0.3199 -0.3920
  118MPD2    C5 1803   4.632   0.771  14.402  0.2017  0.0526 -0.7323
  118MPD2     H 1804   0.265   0.862  14.313 -0.2763 -1.0814 -1.8482
  118MPD2    H1 1805   4.601   0.956  14.467  0.5696 -0.5434  0.6918
  118MPD2    H2 1806   4.680   0.578  14.333  2.2611 -0.2854 -0.0660
  118MPD2    H3 1807   4.531   0.739  14.426 -0.0970  1.1083 -0.5983
  118MPD2     N 1808   0.110   1.077  14.397 -0.0910 -0.3809  0.0472
  118MPD2    H5 1809   0.031   1.139  14.415 -0.7801 -0.4108 -2.8644
  118MPD2    N1 1810   0.204   0.609  14.284  0.6756 -0.2148 -0.1617
  118MPD2    H7 1811   0.160   0.523  14.255  0.6883  0.1016 -1.1271
  119MPD2     C 1812   3.302   2.259  13.459 -0.1169 -0.2817  0.0707
  119MPD2    C1 1813   3.172   2.270  13.497 -0.3572  1.0382 -0.3506
  119MPD2    C2 1814   3.068   2.259  13.397 -0.3650  0.5921 -0.7061
  119MPD2    C3 1815   3.108   2.246  13.265  0.3163 -0.2552  0.7118
  119MPD2    C4 1816   3.242   2.239  13.224 -0.7009 -0.3699 -0.6295
  119MPD2    C5 1817   3.338   2.250  13.322  0.4468 -0.7293  0.0077
  119MPD2     H 1818   2.968   2.289  13.427  0.0682  0.0726  1.2565
  119MPD2    H1 1819   3.268   2.216  13.121 -1.4586  0.8441 -1.0980
  119MPD2    H2 1820   3.392   2.266  13.518  0.9496  0.9964 -1.6755
  119MPD2    H3 1821   3.444   2.239  13.301  0.4926 -0.5106  0.1173
  119MPD2     N 1822   3.011   2.238  13.159 -0.3066  0.3255 -0.0290
  119MPD2    H5 1823   3.049   2.205  13.070  0.3170  3.3707 -0.8934
  119MPD2    N1 1824   3.140   2.271  13.640  0.3061 -0.6037  0.2737
  119MPD2    H7 1825   3.215   2.247  13.705  1.1876  0.4176 -0.3654
  120TCq2    C1 1826   2.876   2.247  13.181  0.7313  1.0732  0.5564
  120TCq2    O2 1827   2.813   2.274  13.283 -0.0531 -0.2881  0.9595
  120TCq2    C2 1828   2.787   2.198  13.072  0.5004  0.4375 -0.2540
  120TCq2    C3 1829   2.843   2.137  12.966 -0.6096  0.1127 -0.2126
  120TCq2    C4 1830   2.789   2.031  12.909 -0.7812  0.4878  0.2885
  120TCq2    C5 1831   2.670   1.978  12.953 -0.0780 -0.2377 -0.5796
  120TCq2    C6 1832   2.607   2.044  13.053  0.1529 -0.5591 -0.0287
  120TCq2    C7 1833   2.662   2.156  13.117  0.0676  0.5089 -0.0461
  120TCq2    C8 1834   2.494   1.977  13.106  0.1511  0.5124 -0.3253
  120TCq2    O4 1835   2.423   1.922  13.023 -0.0368 -0.5809 -0.1278
  120TCq2    C9 1836   2.856   1.967  12.796 -0.2188 -0.1602 -0.2684
  120TCq2    O5 1837   2.973   2.005  12.770  0.1425  0.0214 -0.4759
  120TCq2    O6 1838   2.802   1.858  12.763 -0.4198 -0.0952  0.3178
  120TCq2    H2 1839   2.942   2.162  12.929 -0.9567 -2.6041 -2.9806
  120TCq2    H3 1840   2.631   1.889  12.906  1.3419 -0.7768 -0.7465
  120TCq2    H4 1841   2.611   2.199  13.202 -0.0189  0.3368 -0.0121
  121TMC2    C1 1842   4.508   3.247  14.331 -0.5422 -0.4864  0.1060
  121TMC2    C2 1843   4.522   3.176  14.448 -0.7113  0.3250 -0.1017
  121TMC2    C3 1844   4.450   3.061  14.469 -0.2819  0.3897  0.0423
  121TMC2    C4 1845   4.412   3.208  14.240  0.3922  0.2739  0.3358
  121TMC2    C5 1846   4.350   3.086  14.262  0.3025  0.4893 -0.0405
  121TMC2    C6 1847   4.365   3.008  14.377 -1.3436 -0.0647 -0.4325
  121TMC2     C 1848   4.607   3.340  14.299  0.5045  0.6549 -0.1449
  121TMC2     O 1849   4.703   3.338  14.373  0.1136  0.5497  0.4248
  121TMC2     H 1850   4.602   3.191  14.520  0.5049  1.3316 -1.6747
  121TMC2    H1 1851   4.401   3.253  14.141  0.4452  0.9793  0.6500
  121TMC2    H2 1852   4.328   2.908  14.393  2.9425 -1.3134  1.5653
  121TMC2    C7 1853   4.250   3.040  14.168 -0.6602  0.5727  0.0721
  121TMC2    C8 1854   4.530   2.964  14.545  0.6333  0.2643 -1.1474
  121TMC2    O1 1855   4.219   2.923  14.180  0.0189 -0.0983  0.0081
  121TMC2    O2 1856   4.651   2.976  14.564  0.1394  1.0018  0.1833
  121TMC2    O5 1857   4.441   2.873  14.597 -0.3363 -0.0576  0.3729
  121TMC2    H5 1858   4.351   2.908  14.581 -0.2237  0.2164  0.3423
  122MPD2     C 1859   0.037   3.584  14.231  0.2135 -0.1600  0.1280
  122MPD2    C1 1860   4.658   3.543  14.156  0.2435 -0.5464  0.1603
  122MPD2    C2 1861   4.622   3.615  14.045 -0.0053 -0.3637 -0.1565
  122MPD2    C3 1862   4.706   3.713  13.989  0.5787  0.8647  0.0646
  122MPD2    C4 1863   0.091   3.746  14.062 -0.3936 -0.1237 -0.0521
  122MPD2    C5 1864   0.118   3.687  14.187  0.1286 -0.5888 -0.5087
  122MPD2     H 1865   4.526   3.603  13.997  0.3688 -0.1510 -0.9486
  122MPD2    H1 1866   0.150   3.834  14.039 -0.2697 -0.1021  0.3519
  122MPD2    H2 1867   0.059   3.557  14.334  1.7392 -1.6018 -0.5682
  122MPD2    H3 1868   0.194   3.724  14.254 -0.2865 -0.6139 -0.0268
  122MPD2     N 1869   4.673   3.781  13.868  0.3886 -0.1804 -0.0803
  122MPD2    H5 1870   0.004   3.857  13.833 -1.6376  1.8570  0.9946
  122MPD2    N1 1871   4.570   3.436  14.206  0.3447  0.0880  0.1981
  122MPD2    H7 1872   4.480   3.427  14.161  1.4986 -1.2231 -1.8723
  123MPD2     C 1873   1.691   1.537   9.680  0.4084 -0.8129  0.0300
  123MPD2    C1 1874   1.730   1.661   9.625 -0.5406  0.5847  0.4002
  123MPD2    C2 1875   1.863   1.693   9.626  1.0119  0.2986  0.2810
  123MPD2    C3 1876   1.955   1.602   9.676  0.2776  0.1576  0.3812
  123MPD2    C4 1877   1.922   1.480   9.734  0.0811  0.3844  0.7745
  123MPD2    C5 1878   1.786   1.456   9.735 -0.5161  0.1839 -0.1190
  123MPD2     H 1879   1.897   1.786   9.582  1.1753 -0.2639 -0.7903
  123MPD2    H1 1880   1.994   1.409   9.774 -2.0261 -0.0808  3.7174
  123MPD2    H2 1881   1.591   1.495   9.672 -0.4556  0.8165  2.5275
  123MPD2    H3 1882   1.739   1.368   9.778  1.2967  0.1348  1.8025
  123MPD2     N 1883   2.092   1.643   9.665  0.4633 -0.0749 -0.1654
  123MPD2    H5 1884   2.113   1.740   9.641  1.4444 -0.5106 -1.0550
  123MPD2    N1 1885   1.630   1.737   9.566 -0.5307  0.6044 -0.5325
  123MPD2    H7 1886   1.538   1.697   9.550  0.4317 -1.3257 -1.3317
  124TCq2    C1 1887   2.206   1.560   9.686  0.9232  0.2440  0.3000
  124TCq2    O2 1888   2.202   1.443   9.722 -0.1420  0.0710 -0.0348
  124TCq2    C2 1889   2.330   1.633   9.686 -0.2730  0.2952 -0.3759
  124TCq2    C3 1890   2.325   1.767   9.709  0.0915 -0.1764 -0.1728
  124TCq2    C4 1891   2.450   1.823   9.696 -0.7144 -0.5026 -0.3204
  124TCq2    C5 1892   2.571   1.752   9.683 -0.2683  0.1905  0.3459
  124TCq2    C6 1893   2.568   1.615   9.678  0.6025  0.4319 -0.9204
  124TCq2    C7 1894   2.444   1.553   9.674 -0.4069  1.0855 -0.4655
  124TCq2    C8 1895   2.682   1.525   9.695 -0.1480  0.0026 -0.0218
  124TCq2    O4 1896   2.664   1.406   9.696  0.0570 -0.3616  0.7052
  124TCq2    C9 1897   2.453   1.963   9.713  0.2436 -1.1234 -0.0429
  124TCq2    O5 1898   2.344   2.024   9.685  0.8755 -0.3004  0.5365
  124TCq2    O6 1899   2.558   2.019   9.691 -0.0531  0.2805 -0.0892
  124TCq2    H2 1900   2.243   1.828   9.745 -1.3897 -1.6259 -1.0836
  124TCq2    H3 1901   2.668   1.801   9.686 -1.0967  1.9039 -1.2819
  124TCq2    H4 1902   2.439   1.448   9.646 -2.8095  0.6109  1.7668
  125TMC2    C1 1903   3.169   4.232   9.932  0.2824  1.0567  0.3002
  125TMC2    C2 1904   3.238   4.301   9.834 -0.4821  0.0963 -0.2690
  125TMC2    C3 1905   3.283   4.240   9.719  0.9112  0.2702 -0.1663
  125TMC2    C4 1906   3.167   4.099   9.929  1.4005 -0.1911  0.0692
  125TMC2    C5 1907   3.243   4.038   9.831  0.5437 -0.0033 -0.0451
  125TMC2    C6 1908   3.294   4.107   9.722 -0.6682  0.1897  0.3464
  125TMC2     C 1909   3.141   4.309  10.051 -0.6954  0.5828 -0.2682
  125TMC2     O 1910   3.190   4.418  10.049 -0.7361  0.1046 -0.4986
  125TMC2     H 1911   3.249   4.409   9.842  2.8456 -0.2520 -0.1677
  125TMC2    H1 1912   3.129   4.044  10.015  0.5363 -0.3151 -0.3923
  125TMC2    H2 1913   3.345   4.053   9.643 -0.0169  0.5580  0.5097
  125TMC2    C7 1914   3.260   3.895   9.856 -0.0198 -0.5420 -0.1045
  125TMC2    C8 1915   3.365   4.319   9.626  0.0217  0.0873 -0.8680
  125TMC2    O1 1916   3.184   3.853   9.938 -0.2696  0.1499  0.0560
  125TMC2    O2 1917   3.456   4.268   9.566 -0.6794  0.3919  0.0186
  125TMC2    O5 1918   3.309   4.435   9.588 -0.3726 -0.2846  0.0610
  125TMC2    H5 1919   3.221   4.455   9.625  0.5184  0.3238  1.8680
  126MPD1     C 1920   2.976   4.422  10.526 -0.3925  0.3980  0.6139
  126MPD1    C1 1921   2.954   4.290  10.503  0.7577  0.5915  0.2442
  126MPD1    C2 1922   2.987   4.234  10.382 -0.2370 -0.3944 -0.0653
  126MPD1    C3 1923   3.058   4.304  10.287 -0.2838 -0.2035 -0.3171
  126MPD1    C4 1924   3.094   4.434  10.313  0.3886 -0.3618  0.3046
  126MPD1    C5 1925   3.048   4.489  10.433  0.4078 -1.1108 -0.4630
  126MPD1     H 1926   2.964   4.130  10.361  0.5799 -0.6835  0.4365
  126MPD1    H1 1927   3.151   4.509  10.259  1.0673  0.4955  2.2345
  126MPD1    H2 1928   2.943   4.467  10.619  1.2758  1.2467  0.7764
  126MPD1    H3 1929   3.060   4.593  10.459 -0.0060 -0.8176 -1.4586
  126MPD1     N 1930   3.090   4.243  10.167  0.0242  0.4985 -0.4866
  126MPD1    H5 1931   3.057   4.147  10.157  0.7665  0.3349 -1.3973
  126MPD1    N1 1932   2.871   4.218  10.593 -0.1063 -1.0908  0.6743
  126MPD1    H6 1933   2.887   4.251  10.688  1.7820  2.1084 -0.7077
  126MPD1    H7 1934   2.897   4.120  10.599  1.2315 -0.6284  2.4157
  127MPD2     C 1935   0.016   2.121   9.330  0.1524 -0.4183 -0.1042
  127MPD2    C1 1936   0.058   2.087   9.454 -0.0509  0.3954  0.1109
  127MPD2    C2 1937   0.068   2.193   9.544 -0.3445 -0.1419  0.1163
  127MPD2    C3 1938   0.052   2.324   9.518 -0.6259  0.1057 -0.2836
  127MPD2    C4 1939   0.019   2.353   9.388 -0.1423  0.0495 -0.2482
  127MPD2    C5 1940   4.721   2.258   9.302  0.0579  0.3607 -0.4080
  127MPD2     H 1941   0.096   2.164   9.645  2.0840  1.9052  0.0122
  127MPD2    H1 1942   4.706   2.452   9.363 -0.2194  0.4297  1.3996
  127MPD2    H2 1943   4.712   2.052   9.253  1.6603 -0.5209 -0.6006
  127MPD2    H3 1944   4.676   2.292   9.210 -1.7144  0.9544  0.6841
  127MPD2     N 1945   0.068   2.420   9.625 -0.2192 -0.2349 -0.0492
  127MPD2    H5 1946   0.100   2.383   9.714  2.4917 -1.5450 -1.5634
  127MPD2    N1 1947   0.058   1.948   9.484 -0.1842 -0.8367 -0.2038
  127MPD2    H7 1948   0.030   1.881   9.413 -2.5897 -1.3516  1.2333
  128TCq2    C1 1949   0.091   1.889   9.600  0.7545 -0.2101  0.3377
  128TCq2    O2 1950   0.146   1.934   9.699  0.6192 -0.0389 -0.3539
  128TCq2    C2 1951   0.073   1.747   9.601  0.3548 -0.2924 -0.2237
  128TCq2    C3 1952   0.149   1.675   9.696  0.2804  0.5548  0.4598
  128TCq2    C4 1953   0.131   1.543   9.710 -0.7030  0.7759 -0.7029
  128TCq2    C5 1954   0.050   1.473   9.619  0.2689 -0.0771  0.0067
  128TCq2    C6 1955   4.705   1.546   9.520 -1.0687  0.7398  1.2846
  128TCq2    C7 1956   4.712   1.686   9.513 -0.3932 -0.1190  0.3161
  128TCq2    C8 1957   4.585   1.490   9.465 -0.2738 -0.3473  0.7186
  128TCq2    O4 1958   4.517   1.562   9.394  0.2991  0.0446 -0.0486
  128TCq2    C9 1959   0.195   1.479   9.818  0.1951 -0.1665 -0.5030
  128TCq2    O5 1960   0.157   1.360   9.839  0.2926 -0.3225 -0.4325
  128TCq2    O6 1961   0.274   1.541   9.892  0.0208 -0.0146 -0.0672
  128TCq2    H2 1962   0.208   1.733   9.766 -0.5121  1.7394  0.1568
  128TCq2    H3 1963   0.050   1.365   9.614 -0.5327 -0.1336  1.0103
  128TCq2    H4 1964   4.639   1.738   9.453  0.4388  0.9954  0.2777
  129MPD2     C 1965   2.460   3.445   1.273 -0.5591 -0.2477 -0.2772
  129MPD2    C1 1966   2.580   3.417   1.334 -0.0269 -0.3854 -0.7787
  129MPD2    C2 1967   2.699   3.457   1.276 -0.3331 -0.6537  0.0895
  129MPD2    C3 1968   2.701   3.501   1.147 -0.0210  0.1932 -0.1869
  129MPD2    C4 1969   2.583   3.524   1.083 -0.2579  0.5925 -0.5167
  129MPD2    C5 1970   2.464   3.502   1.147  0.1388 -0.3682 -0.3594
  129MPD2     H 1971   2.790   3.451   1.336  0.6815 -0.1008 -1.3970
  129MPD2    H1 1972   2.586   3.555   0.979  1.1754  0.5833 -0.4759
  129MPD2    H2 1973   2.366   3.430   1.324  0.3925  0.8150  1.7754
  129MPD2    H3 1974   2.370   3.532   1.101  0.1181 -0.1686 -0.1854
  129MPD2     N 1975   2.821   3.514   1.070 -0.5947 -0.5304 -0.0500
  129MPD2    H5 1976   2.808   3.553   0.978  1.1114 -0.9831 -0.4888
  129MPD2    N1 1977   2.584   3.365   1.465  0.0938 -0.7118 -0.2253
  129MPD2    H7 1978   2.675   3.362   1.509  0.8141  0.1213 -1.6710
  130TCq2    C1 1979   2.483   3.308   1.535 -0.5957 -0.1524  0.3341
  130TCq2    O2 1980   2.382   3.264   1.480  0.8550  0.0370  0.4773
  130TCq2    C2 1981   2.536   3.260   1.659  0.2705 -0.1370  0.2504
  130TCq2    C3 1982   2.642   3.328   1.714 -0.1835  0.0277  1.1028
  130TCq2    C4 1983   2.724   3.261   1.800  0.0803  0.1026  0.0467
  130TCq2    C5 1984   2.709   3.137   1.843 -0.7543  0.2068 -0.6561
  130TCq2    C6 1985   2.597   3.075   1.786 -0.1797  0.0545  0.6414
  130TCq2    C7 1986   2.527   3.128   1.686 -0.4106 -0.1371 -0.4206
  130TCq2    C8 1987   2.553   2.949   1.832  0.5890  0.3308  0.3576
  130TCq2    O4 1988   2.469   2.891   1.759  0.3314  0.1828  0.6461
  130TCq2    C9 1989   2.830   3.341   1.854 -0.4125 -0.0379  0.3506
  130TCq2    O5 1990   2.896   3.282   1.945 -0.4921 -0.0605  0.0953
  130TCq2    O6 1991   2.875   3.438   1.788 -0.0057 -0.6111  0.3595
  130TCq2    H2 1992   2.661   3.429   1.681  0.3531 -0.3859  0.1317
  130TCq2    H3 1993   2.771   3.103   1.924 -2.0744  0.1327  0.3135
  130TCq2    H4 1994   2.437   3.087   1.642 -1.4941  1.1802  0.5584
  131MPD2     C 1995   1.736   2.610   9.043  0.8998 -1.0380 -0.1519
  131MPD2    C1 1996   1.809   2.548   9.140 -0.0769  0.1741  0.1460
  131MPD2    C2 1997   1.755   2.433   9.197  0.5512  0.0860 -0.1788
  131MPD2    C3 1998   1.640   2.373   9.144  0.5167 -0.4716  0.1864
  131MPD2    C4 1999   1.570   2.434   9.040 -0.2042  0.3676 -0.0586
  131MPD2    C5 2000   1.627   2.548   8.991 -0.0845 -0.3159 -0.0402
  131MPD2     H 2001   1.792   2.385   9.287  1.7504  1.9487  0.3380
  131MPD2    H1 2002   1.480   2.402   8.990 -0.8954 -1.4225  2.3205
  131MPD2    H2 2003   1.766   2.697   8.985 -2.0803  0.3893  0.4059
  131MPD2    H3 2004   1.583   2.612   8.915  1.3369  1.0545  0.2860
  131MPD2     N 2005   1.590   2.261   9.213 -0.0023  0.3519 -0.0325
  131MPD2    H5 2006   1.637   2.237   9.300 -3.5348  1.2213  2.1444
  131MPD2    N1 2007   1.928   2.607   9.185 -0.1353 -0.1430  0.0917
  131MPD2    H7 2008   1.954   2.700   9.152 -1.2555 -0.8033 -2.6076
  132TCq2    C1 2009   2.187   2.965   9.450 -0.7364 -1.2484  0.1764
  132TCq2    O2 2010   2.094   3.024   9.403 -0.0507 -0.5206 -0.0398
  132TCq2    C2 2011   2.202   2.817   9.426  0.8285  0.2414 -0.3244
  132TCq2    C3 2012   2.317   2.751   9.471 -1.1354  0.3728  0.7845
  132TCq2    C4 2013   2.329   2.615   9.445 -0.0201 -0.8033 -0.2389
  132TCq2    C5 2014   2.231   2.556   9.371  0.2328  0.4460 -0.8149
  132TCq2    C6 2015   2.125   2.626   9.327 -0.1591  0.2118  0.4369
  132TCq2    C7 2016   2.106   2.761   9.349 -0.6572  0.6225  0.1544
  132TCq2    C8 2017   2.023   2.544   9.271 -0.2556  0.8137  0.9580
  132TCq2    O4 2018   2.029   2.427   9.299  0.0559 -0.1095 -0.4265
  132TCq2    C9 2019   2.441   2.540   9.497  0.2819 -0.0579  0.3733
  132TCq2    O5 2020   2.440   2.414   9.486  0.1111 -0.0723 -0.0830
  132TCq2    O6 2021   2.534   2.598   9.559  0.1951 -0.7911  0.3245
  132TCq2    H2 2022   2.384   2.795   9.543  2.8015 -1.5066 -1.7108
  132TCq2    H3 2023   2.252   2.456   9.335  2.2361  0.7080 -0.4332
  132TCq2    H4 2024   2.024   2.823   9.315 -0.7612  0.9419  0.9902
  133MPD2     C 2025   1.018   3.245   9.382  0.1508 -0.2185 -0.2599
  133MPD2    C1 2026   1.143   3.213   9.428 -0.3461 -0.2577  1.3733
  133MPD2    C2 2027   1.193   3.083   9.410  0.0890  0.3308  0.1836
  133MPD2    C3 2028   1.120   2.985   9.345 -0.0677  0.3828 -0.5056
  133MPD2    C4 2029   1.000   3.018   9.287  0.3611 -0.0314  0.3216
  133MPD2    C5 2030   0.957   3.147   9.313 -0.3771 -0.0498 -0.2796
  133MPD2     H 2031   1.291   3.054   9.447  0.6631 -2.5838 -3.6264
  133MPD2    H1 2032   0.934   2.945   9.243 -0.4348  1.4482 -0.9397
  133MPD2    H2 2033   0.978   3.345   9.396  0.4279  0.0633 -1.5193
  133MPD2    H3 2034   0.861   3.176   9.273 -1.7912 -2.9713  1.0217
  133MPD2     N 2035   1.155   2.850   9.324 -0.2912 -0.0675 -0.6489
  133MPD2    H5 2036   1.096   2.790   9.268  1.6728 -1.0721 -1.6432
  133MPD2    N1 2037   1.207   3.313   9.501  0.2522 -0.3363 -0.3198
  133MPD2    H7 2038   1.163   3.396   9.540  0.6728 -0.1318 -0.2813
  134TCq2    C1 2039   1.333   3.301   9.545 -0.5698 -0.5290 -0.0781
  134TCq2    O2 2040   1.420   3.229   9.502 -0.4801  0.3344  0.5641
  134TCq2    C2 2041   1.362   3.406   9.643 -0.2890  0.0964  0.1842
  134TCq2    C3 2042   1.353   3.536   9.611 -0.0282 -0.3438  0.4767
  134TCq2    C4 2043   1.429   3.625   9.674 -0.3646 -0.0901  0.4556
  134TCq2    C5 2044   1.524   3.594   9.768  0.0378 -0.1319  0.0480
  134TCq2    C6 2045   1.528   3.460   9.811 -0.2628  0.3816 -0.5642
  134TCq2    C7 2046   1.458   3.368   9.735 -0.4968 -0.3701  0.1650
  134TCq2    C8 2047   1.617   3.410   9.916  0.2059  0.3155 -0.4531
  134TCq2    O4 2048   1.616   3.290   9.949  0.3957 -1.1470 -0.2235
  134TCq2    C9 2049   1.425   3.763   9.620 -0.3908 -0.4000 -0.3197
  134TCq2    O5 2050   1.365   3.784   9.513  0.5174  0.2814 -0.1937
  134TCq2    O6 2051   1.498   3.852   9.678 -0.0073 -0.4704  0.0231
  134TCq2    H2 2052   1.298   3.571   9.524 -1.0252 -4.2145 -0.4149
  134TCq2    H3 2053   1.582   3.673   9.813 -0.5535 -0.2759  1.0533
  134TCq2    H4 2054   1.462   3.264   9.762 -0.1289 -0.6985 -1.1417
  135MPD2     C 2055   3.464   4.139  10.113 -0.3087  0.0350  0.3396
  135MPD2    C1 2056   3.521   4.014  10.092 -0.4880  0.8023 -0.1086
  135MPD2    C2 2057   3.593   3.991   9.982 -0.1968 -0.3329 -0.0507
  135MPD2    C3 2058   3.623   4.086   9.889  0.0464 -0.7593  0.1641
  135MPD2    C4 2059   3.567   4.208   9.916 -0.1329 -0.3324  0.2048
  135MPD2    C5 2060   3.493   4.241  10.024 -0.0129 -0.6231 -0.5838
  135MPD2     H 2061   3.645   3.898   9.961 -1.1992 -1.5206  2.6860
  135MPD2    H1 2062   3.605   4.294   9.862  1.5010  0.2717  2.3222
  135MPD2    H2 2063   3.403   4.173  10.196 -2.2526 -0.5431 -0.8485
  135MPD2    H3 2064   3.458   4.342  10.041  1.9798  0.1619 -1.2232
  135MPD2     N 2065   3.681   4.057   9.763 -0.5315  0.0082 -0.1506
  135MPD2    H5 2066   3.704   4.141   9.711  0.2146  0.4465  0.9063
  135MPD2    N1 2067   3.518   3.912  10.186 -0.5211  0.3188 -0.0475
  135MPD2    H7 2068   3.548   3.823  10.147 -1.4140 -0.2235  0.5098
  136TCq2    C1 2069   3.449   3.904  10.305 -0.2582 -0.4901  0.5192
  136TCq2    O2 2070   3.412   3.996  10.372  0.3174  0.0760 -0.5837
  136TCq2    C2 2071   3.458   3.767  10.363  0.0357  0.8081  0.1681
  136TCq2    C3 2072   3.390   3.742  10.481  0.2119  0.2718 -0.1175
  136TCq2    C4 2073   3.397   3.619  10.532  0.2092 -0.1511 -0.2658
  136TCq2    C5 2074   3.466   3.517  10.470 -0.4217 -0.0686 -0.2120
  136TCq2    C6 2075   3.528   3.550  10.357 -0.1769  0.0052  0.2197
  136TCq2    C7 2076   3.525   3.669  10.297 -0.0856 -0.3302 -0.1129
  136TCq2    C8 2077   3.612   3.451  10.292 -0.5505 -0.5112 -0.6438
  136TCq2    O4 2078   3.700   3.487  10.210  0.6804 -0.9545  0.4621
  136TCq2    C9 2079   3.342   3.602  10.663 -0.5727 -0.3355 -0.2176
  136TCq2    O5 2080   3.358   3.489  10.715 -0.2726 -0.8267  0.3297
  136TCq2    O6 2081   3.247   3.679  10.695 -0.2999  0.3460 -0.1192
  136TCq2    H2 2082   3.343   3.820  10.540 -0.5063 -0.4348  0.2324
  136TCq2    H3 2083   3.481   3.430  10.533 -0.4880  0.0107 -0.0882
  136TCq2    H4 2084   3.575   3.688  10.203  1.0521 -0.5044  0.4565
  137MPD2     C 2085   3.094   3.965   9.266 -0.1492  0.2126 -0.3682
  137MPD2    C1 2086   3.063   3.948   9.395 -0.1941 -0.3559  0.1202
  137MPD2    C2 2087   3.093   3.826   9.450 -0.4872 -0.7212 -0.5436
  137MPD2    C3 2088   3.164   3.725   9.387 -0.2165 -0.0114 -0.4011
  137MPD2    C4 2089   3.184   3.741   9.256  0.3249 -0.1664  0.2057
  137MPD2    C5 2090   3.155   3.860   9.197 -0.1000 -0.2038  0.2448
  137MPD2     H 2091   3.082   3.819   9.557 -0.9023 -0.0522 -0.5407
  137MPD2    H1 2092   3.231   3.665   9.194  2.3722 -0.1362  1.7286
  137MPD2    H2 2093   3.075   4.058   9.213  0.1411  0.4689 -0.0292
  137MPD2    H3 2094   3.194   3.876   9.098 -1.1454 -0.5069 -0.2202
  137MPD2     N 2095   3.201   3.608   9.462 -0.5208 -0.9719  0.0163
  137MPD2    H5 2096   3.175   3.606   9.560  0.5753  2.3467  0.3960
  137MPD2    N1 2097   2.989   4.046   9.465 -0.4013  0.3675  0.0071
  137MPD2    H7 2098   2.974   4.132   9.413  0.0233  0.0125 -0.7049
  138TCq2    C1 2099   2.938   4.036   9.588 -0.1120  0.0438  0.0055
  138TCq2    O2 2100   2.930   3.944   9.672  0.3531 -0.0491 -0.4313
  138TCq2    C2 2101   2.872   4.154   9.641 -0.1920  0.7409 -0.0146
  138TCq2    C3 2102   2.947   4.270   9.638 -0.3003 -0.3417 -0.0925
  138TCq2    C4 2103   2.915   4.360   9.734 -0.6322  0.6495 -1.2015
  138TCq2    C5 2104   2.824   4.334   9.831 -0.0384  0.1278  0.1214
  138TCq2    C6 2105   2.770   4.210   9.847  0.8366  0.9128 -0.5250
  138TCq2    C7 2106   2.785   4.116   9.746 -0.0178 -0.5379 -0.0724
  138TCq2    C8 2107   2.719   4.181   9.978 -0.6445 -1.6954  0.5617
  138TCq2    O4 2108   2.738   4.265  10.065 -0.1223  0.4313  0.5618
  138TCq2    C9 2109   2.983   4.492   9.747 -0.0989  0.1423  0.3731
  138TCq2    O5 2110   2.943   4.583   9.823 -0.2413  0.1238  0.0420
  138TCq2    O6 2111   3.086   4.503   9.674  0.5626  0.0050 -0.0853
  138TCq2    H2 2112   3.015   4.294   9.556 -1.0544 -0.1596 -0.6724
  138TCq2    H3 2113   2.807   4.410   9.906  1.0115  1.2832 -0.8016
  138TCq2    H4 2114   2.742   4.017   9.753 -1.7409  0.3145  1.2500
  139TMC2    C1 2115   0.115   1.816  13.285  0.2049 -0.3745 -0.3706
  139TMC2    C2 2116   0.213   1.904  13.233  0.1048  0.3190  0.0196
  139TMC2    C3 2117   0.172   2.030  13.189 -0.5115 -0.0885  0.2575
  139TMC2    C4 2118   4.714   1.853  13.297  0.1138 -0.7846 -0.1494
  139TMC2    C5 2119   4.677   1.974  13.250  0.3173 -0.7896  0.3259
  139TMC2    C6 2120   0.037   2.064  13.191 -0.2741 -0.4737  0.2082
  139TMC2     C 2121   0.156   1.674  13.289  0.7017 -0.1376 -0.1871
  139TMC2     O 2122   0.266   1.644  13.256  0.0210  0.0734  0.2807
  139TMC2     H 2123   0.317   1.875  13.240 -0.0466 -0.3921 -0.6954
  139TMC2    H1 2124   4.638   1.788  13.338  0.4372 -0.2518  1.3118
  139TMC2    H2 2125   0.011   2.163  13.156  0.1731 -0.5121 -0.2361
  139TMC2    C7 2126   4.578   2.046  13.326 -0.3149  0.6575  0.3287
  139TMC2    C8 2127   0.272   2.147  13.198  0.0058 -0.2840 -0.5806
  139TMC2    O1 2128   4.583   2.167  13.316 -0.6272  0.2099 -0.1765
  139TMC2    O2 2129   0.243   2.242  13.263 -0.1451  0.4213  0.2544
  139TMC2    O5 2130   0.389   2.110  13.145  0.3893  0.2167  0.5357
  139TMC2    H5 2131   0.375   2.024  13.098 -0.4057  1.1811 -1.0043
  140MPD2     C 2132   4.686   1.380  13.414  0.0242  0.3527  0.3006
  140MPD2    C1 2133   0.065   1.448  13.351  0.0731  0.3066 -0.0597
  140MPD2    C2 2134   0.178   1.367  13.318 -0.4317 -0.3738  0.4715
  140MPD2    C3 2135   0.186   1.232  13.344  0.1503  0.7785 -0.8972
  140MPD2    C4 2136   0.077   1.167  13.390  1.2171 -0.1036 -0.1459
  140MPD2    C5 2137   4.697   1.245  13.433 -0.0007 -0.1304  0.6828
  140MPD2     H 2138   0.268   1.407  13.273 -1.2386  2.2815  1.2219
  140MPD2    H1 2139   0.069   1.060  13.407 -1.0627 -0.0047 -0.6008
  140MPD2    H2 2140   4.600   1.425  13.461  1.3930  2.5713  0.7075
  140MPD2    H3 2141   4.613   1.192  13.476 -0.3137 -1.8592 -2.0377
  140MPD2     N 2142   0.302   1.161  13.307 -0.0168 -0.1223 -0.4805
  140MPD2    H5 2143   0.373   1.214  13.258 -1.4105  1.4891 -0.7615
  140MPD2    N1 2144   0.055   1.587  13.337  0.2898 -0.6458  0.5573
  140MPD2    H7 2145   4.693   1.630  13.365  1.6551  0.9348  2.4254
  141TCq2    C1 2146   0.312   2.687  14.676  0.4405 -0.1552  0.1943
  141TCq2    O2 2147   0.392   2.762  14.627  0.2860 -0.5258 -0.5555
  141TCq2    C2 2148   0.268   2.715  14.810 -0.0113 -0.1136  0.1818
  141TCq2    C3 2149   0.201   2.615  14.889  0.9492 -0.0100  0.0900
  141TCq2    C4 2150   0.118   2.663  14.990  0.4248 -1.1792  0.4621
  141TCq2    C5 2151   0.098   2.795  15.014  0.1009 -0.1661 -0.5387
  141TCq2    C6 2152   0.178   2.885  14.941  0.0951  0.3648  0.8369
  141TCq2    C7 2153   0.266   2.845  14.843 -0.4423 -0.4482  0.1335
  141TCq2    C8 2154   0.188   3.025  14.993 -0.1368 -0.3114  0.3632
  141TCq2    O4 2155   0.146   3.040  15.108  0.2358 -0.1022 -0.5782
  141TCq2    C9 2156   0.046   2.573  15.073  0.0419  0.6426 -0.6022
  141TCq2    O5 2157   0.034   2.464  15.013 -0.0881 -0.0758  0.0543
  141TCq2    O6 2158   4.685   2.630  15.140 -0.4800  0.3120 -1.2246
  141TCq2    H2 2159   0.231   2.511  14.883  0.5129 -0.0824 -0.8539
  141TCq2    H3 2160   0.037   2.836  15.095 -0.0919 -0.5569 -0.4883
  141TCq2    H4 2161   0.318   2.911  14.774 -0.0869 -0.3780  0.4723
  142MPD2     C 2162   2.612   0.733  10.517 -0.0313 -0.1359 -0.2398
  142MPD2    C1 2163   2.578   0.711  10.388 -0.5398  0.0556  0.1662
  142MPD2    C2 2164   2.664   0.746  10.287 -0.6511 -0.2625 -0.2026
  142MPD2    C3 2165   2.784   0.811  10.316  0.0462 -0.7895  0.6820
  142MPD2    C4 2166   2.812   0.854  10.443 -0.5319 -0.1016  0.4579
  142MPD2    C5 2167   2.727   0.814  10.537 -0.1852  0.3282  0.0356
  142MPD2     H 2168   2.645   0.732  10.181  1.5177  1.2063 -0.7860
  142MPD2    H1 2169   2.897   0.916  10.467 -1.4406  0.0598  3.2324
  142MPD2    H2 2170   2.539   0.717  10.596  0.0111  2.6871  0.3725
  142MPD2    H3 2171   2.742   0.864  10.632 -1.0885 -0.1358  0.4221
  142MPD2     N 2172   2.881   0.851  10.218 -0.6171  0.5782 -0.0116
  142MPD2    H5 2173   2.972   0.880  10.253 -0.8457  0.8900  0.3124
  142MPD2    N1 2174   2.448   0.656  10.355  0.5258 -0.2587 -0.9433
  142MPD2    H7 2175   2.395   0.623  10.435  1.6845  1.3386  0.4785
  143TCq2    C1 2176   2.870   0.845  10.080 -0.9521  0.2443  0.1320
  143TCq2    O2 2177   2.781   0.812  10.007  0.0609  0.2793  0.4618
  143TCq2    C2 2178   2.995   0.890  10.026 -0.5837  0.7211 -0.9564
  143TCq2    C3 2179   3.109   0.891  10.101 -0.4540 -0.0823  0.1089
  143TCq2    C4 2180   3.210   0.971  10.042  0.5435 -0.1827 -0.1367
  143TCq2    C5 2181   3.200   1.027   9.918  0.8567  0.9668  0.7352
  143TCq2    C6 2182   3.076   1.028   9.853 -0.8875 -0.2519 -0.1236
  143TCq2    C7 2183   2.976   0.962   9.915 -0.1641  0.8750 -0.2409
  143TCq2    C8 2184   3.018   1.134   9.765  0.5165 -0.0878  0.4930
  143TCq2    O4 2185   2.896   1.132   9.754  0.4098 -0.1519 -0.1264
  143TCq2    C9 2186   3.341   0.960  10.105  0.5575  0.3497  0.3497
  143TCq2    O5 2187   3.350   0.869  10.187 -0.2434  0.2671 -0.6073
  143TCq2    O6 2188   3.432   1.048  10.086 -0.1744 -0.1944  0.4237
  143TCq2    H2 2189   3.123   0.826  10.187  0.7403  0.4438  0.3089
  143TCq2    H3 2190   3.285   1.085   9.883  1.5015  0.1564  0.9528
  143TCq2    H4 2191   2.891   0.937   9.854 -1.5175 -0.2539  2.1149
  144MPD2     C 2192   0.031   0.705   0.796  0.1618 -0.2299  0.4292
  144MPD2    C1 2193   0.114   0.599   0.826 -0.7879 -0.8378  0.7382
  144MPD2    C2 2194   0.201   0.605   0.929  0.4519 -0.3862 -0.0390
  144MPD2    C3 2195   0.193   0.709   1.021 -0.8593 -0.0600 -0.2508
  144MPD2    C4 2196   0.119   0.819   0.987  0.1916  0.1237 -0.0964
  144MPD2    C5 2197   0.042   0.818   0.875 -0.0604 -0.8955 -0.6749
  144MPD2     H 2198   0.264   0.519   0.948 -0.3744 -1.2502 -1.2501
  144MPD2    H1 2199   0.109   0.905   1.053  0.1417 -0.2414  0.3704
  144MPD2    H2 2200   4.677   0.705   0.723 -1.6504  0.0746  2.4134
  144MPD2    H3 2201   4.701   0.900   0.852  1.7753  1.3347  1.9481
  144MPD2     N 2202   0.259   0.704   1.144 -0.2760  0.1257  0.7449
  144MPD2    H5 2203   0.213   0.763   1.212  1.2371  1.9797  0.1668
  144MPD2    N1 2204   0.101   0.479   0.756 -0.1945 -0.1965  0.3339
  144MPD2    H7 2205   0.156   0.400   0.788  0.3776 -1.1787 -3.1585
  145TCq2    C1 2206   0.360   0.616   1.180 -0.3240  0.1849 -0.2229
  145TCq2    O2 2207   0.421   0.539   1.106  0.0739  0.4814  0.2723
  145TCq2    C2 2208   0.378   0.605   1.318  0.6227  0.6385  0.2991
  145TCq2    C3 2209   0.449   0.495   1.363 -0.2384  0.0547 -0.1437
  145TCq2    C4 2210   0.461   0.462   1.496  0.0922  0.7746  0.6327
  145TCq2    C5 2211   0.387   0.538   1.589  0.6614 -0.4383 -0.3325
  145TCq2    C6 2212   0.323   0.649   1.541 -0.1141 -0.2444  0.1725
  145TCq2    C7 2213   0.314   0.683   1.406 -0.3176  0.1998  0.1989
  145TCq2    C8 2214   0.208   0.697   1.616  0.6148 -0.5266  0.7768
  145TCq2    O4 2215   0.189   0.629   1.719 -0.6824 -0.5521 -1.0370
  145TCq2    C9 2216   0.549   0.362   1.545 -0.0339 -0.5344 -0.6229
  145TCq2    O5 2217   0.540   0.327   1.662 -0.1365 -0.9503 -0.3152
  145TCq2    O6 2218   0.613   0.298   1.457 -0.8434 -0.5056  0.1965
  145TCq2    H2 2219   0.513   0.439   1.296  0.5102  0.4665  0.2171
  145TCq2    H3 2220   0.386   0.512   1.694 -0.8625  0.2813 -0.1678
  145TCq2    H4 2221   0.280   0.779   1.370  0.5567 -0.2081 -1.6821
  146TMC2    C1 2222   1.612   4.158  12.902 -0.2922  0.1131  0.0792
  146TMC2    C2 2223   1.524   4.224  12.818  0.0197 -0.1806  0.7499
  146TMC2    C3 2224   1.471   4.155  12.710 -0.2631 -0.2133 -0.0608
  146TMC2    C4 2225   1.661   4.030  12.859 -0.1950  0.8633  0.2049
  146TMC2    C5 2226   1.598   3.966  12.750 -0.2210 -0.0234  0.7735
  146TMC2    C6 2227   1.503   4.026  12.680 -0.4009  0.4469  0.5317
  146TMC2     C 2228   1.663   4.225  13.027 -0.5823 -0.5515  0.2966
  146TMC2     O 2229   1.635   4.343  13.039  0.6237 -0.0828  0.1093
  146TMC2     H 2230   1.473   4.318  12.833 -0.3715 -0.1670 -0.6411
  146TMC2    H1 2231   1.724   3.984  12.933 -0.6969  0.8021  0.5934
  146TMC2    H2 2232   1.454   3.970  12.600 -3.3377 -0.4868  2.9562
  146TMC2    C7 2233   1.655   3.847  12.686  0.0476  0.1172  0.1665
  146TMC2    C8 2234   1.359   4.224  12.648 -0.8618  0.3009  0.3365
  146TMC2    O1 2235   1.602   3.808  12.585  0.4515  0.2841 -0.2680
  146TMC2    O2 2236   1.262   4.257  12.717  0.3674 -0.1414 -0.5197
  146TMC2    O5 2237   1.353   4.187  12.521 -0.5979 -0.4002 -0.3941
  146TMC2    H5 2238   1.445   4.177  12.489 -0.8786  0.3460 -1.4346
  147MPD2     C 2239   1.991   3.457  12.657  0.0663  0.1368  0.1565
  147MPD2    C1 2240   1.990   3.504  12.788 -0.2338  0.0731  0.4111
  147MPD2    C2 2241   1.912   3.613  12.822  0.0726 -0.2214  0.9738
  147MPD2    C3 2242   1.832   3.676  12.732  0.1229  0.4980 -0.3929
  147MPD2    C4 2243   1.826   3.627  12.607  0.2668 -0.0453  0.7060
  147MPD2    C5 2244   1.907   3.523  12.570  0.4346  0.3069 -0.0872
  147MPD2     H 2245   1.919   3.658  12.920 -1.7070  0.1406  0.9254
  147MPD2    H1 2246   1.759   3.673  12.535  0.1275 -0.1978  0.7403
  147MPD2    H2 2247   2.050   3.373  12.622 -0.5603 -0.7603  1.2284
  147MPD2    H3 2248   1.888   3.482  12.472  0.4526 -0.9500  0.4397
  147MPD2     N 2249   1.756   3.789  12.767 -0.5891  0.3297 -0.2192
  147MPD2    H5 2250   1.775   3.828  12.859  0.4702  0.3155 -0.4383
  147MPD2    N1 2251   2.085   3.451  12.879  0.1371 -0.6869 -0.3310
  147MPD2    H7 2252   2.143   3.374  12.849  0.9655 -0.0042 -0.4745
  148MPD2     C 2253   2.696   2.504  10.091  0.7141 -0.2763  0.3004
  148MPD2    C1 2254   2.686   2.370  10.099 -0.2080  0.1775  0.2816
  148MPD2    C2 2255   2.554   2.327  10.127 -0.5788 -0.1293 -0.2498
  148MPD2    C3 2256   2.445   2.402  10.144 -0.6669 -0.7396 -0.5437
  148MPD2    C4 2257   2.457   2.538  10.130 -0.3084  0.1359 -0.8482
  148MPD2    C5 2258   2.578   2.582  10.094 -0.2241 -0.0067 -0.2768
  148MPD2     H 2259   2.539   2.222  10.151 -0.1281 -0.2562 -0.5074
  148MPD2    H1 2260   2.379   2.612  10.147  1.7509  1.7643  1.5473
  148MPD2    H2 2261   2.787   2.558  10.069  1.0809 -0.4898  1.2722
  148MPD2    H3 2262   2.577   2.689  10.077 -0.6395  0.1212  0.5464
  148MPD2     N 2263   2.328   2.336  10.166 -0.3545 -0.0445  0.4886
  148MPD2    H5 2264   2.336   2.234  10.168  0.9073  0.0559  0.5262
  148MPD2    N1 2265   2.792   2.280  10.086  0.2122  0.2919  0.3693
  148MPD2    H7 2266   2.769   2.181  10.083 -1.3940  0.6622  0.1676
  149TCq2    C1 2267   2.921   2.319  10.065 -0.3996 -0.5270  1.0077
  149TCq2    O2 2268   2.978   2.427  10.041 -0.4370 -0.2829 -0.7971
  149TCq2    C2 2269   3.004   2.200  10.051 -0.1186 -0.1551 -0.5792
  149TCq2    C3 2270   3.077   2.195   9.941 -0.2463  0.7291  0.4867
  149TCq2    C4 2271   3.090   2.072   9.875  0.1960  0.6952 -0.4134
  149TCq2    C5 2272   3.011   1.970   9.908  0.7886  0.1326  0.8484
  149TCq2    C6 2273   2.957   1.970  10.036  0.1722 -0.3500 -0.3033
  149TCq2    C7 2274   2.949   2.087  10.104  0.1195  0.5712 -0.9283
  149TCq2    C8 2275   2.847   1.877  10.079  0.2132  0.3727  0.2980
  149TCq2    O4 2276   2.740   1.922  10.112  0.0903 -0.1060  0.6841
  149TCq2    C9 2277   3.138   2.082   9.740 -0.0475  0.5441  0.0429
  149TCq2    O5 2278   3.209   2.185   9.713  0.0623  0.1543 -0.6686
  149TCq2    O6 2279   3.083   2.007   9.656  0.4626 -0.2085 -0.2233
  149TCq2    H2 2280   3.111   2.290   9.901 -1.7373  1.1544  0.2281
  149TCq2    H3 2281   3.018   1.880   9.848  1.6795  0.6678  0.1572
  149TCq2    H4 2282   2.895   2.090  10.198  1.3964 -4.1610 -0.0742
  150MPD2     C 2283   4.055   1.796  11.596  0.6347 -0.1011  0.1620
  150MPD2    C1 2284   3.983   1.759  11.705 -0.0120  0.5779 -0.3419
  150MPD2    C2 2285   4.016   1.816  11.821  0.3836  0.3956 -0.7044
  150MPD2    C3 2286   4.127   1.905  11.836  0.6271  0.9348 -0.0397
  150MPD2    C4 2287   4.194   1.935  11.725 -0.1528 -0.2540  0.1406
  150MPD2    C5 2288   4.157   1.877  11.606  0.0067  0.1951  0.0726
  150MPD2     H 2289   3.962   1.792  11.913  4.4876 -0.6676  1.4036
  150MPD2    H1 2290   4.283   1.997  11.724  0.2926 -0.8988  0.4224
  150MPD2    H2 2291   4.033   1.762  11.495  0.4511  1.8505 -0.4469
  150MPD2    H3 2292   4.224   1.895  11.523 -1.9871  3.2299 -0.9153
  150MPD2     N 2293   4.169   1.953  11.962 -0.4487 -0.0729  0.4527
  150MPD2    H5 2294   4.121   1.918  12.044  1.7445  0.5701  2.0302
  150MPD2    N1 2295   3.879   1.658  11.698 -0.6538  0.2120  0.5933
  150MPD2    H7 2296   3.868   1.630  11.601 -0.5207  1.9076  0.0949
  151TCq2    C1 2297   4.280   2.033  11.984 -0.2355  1.0726 -0.4122
  151TCq2    O2 2298   4.381   2.061  11.915 -0.3157  0.3686 -0.0250
  151TCq2    C2 2299   4.282   2.072  12.127 -0.2283 -0.1873 -0.0237
  151TCq2    C3 2300   4.164   2.100  12.194 -0.4372  0.5538 -0.4048
  151TCq2    C4 2301   4.179   2.170  12.317  0.0002 -0.7486 -0.0158
  151TCq2    C5 2302   4.299   2.203  12.370 -0.0190 -0.1003  0.4870
  151TCq2    C6 2303   4.413   2.160  12.298  0.2606 -0.0410 -0.3191
  151TCq2    C7 2304   4.400   2.100  12.179  0.3157 -0.9882 -0.1745
  151TCq2    C8 2305   4.544   2.205  12.342  0.5274  0.2413 -0.3664
  151TCq2    O4 2306   4.560   2.318  12.392  0.0839  0.7973  0.2294
  151TCq2    C9 2307   4.065   2.181  12.407  0.8598 -0.7870  0.1267
  151TCq2    O5 2308   4.087   2.219  12.528 -0.1320 -0.5706  0.2063
  151TCq2    O6 2309   3.953   2.158  12.364  0.4645  0.3295  0.1782
  151TCq2    H2 2310   4.064   2.080  12.158 -0.8644  0.9332  0.5817
  151TCq2    H3 2311   4.309   2.213  12.478 -1.0736 -0.0911  0.5819
  151TCq2    H4 2312   4.488   2.081  12.119  1.6167 -1.0265  1.7393
  152MPD2     C 2313   3.839   1.552  12.746  0.3420  0.0188  0.7945
  152MPD2    C1 2314   3.849   1.609  12.622 -0.0677 -0.1501 -0.3459
  152MPD2    C2 2315   3.740   1.602  12.535 -0.0862 -0.3544  0.0369
  152MPD2    C3 2316   3.620   1.545  12.573  0.0776 -0.3401 -0.0306
  152MPD2    C4 2317   3.614   1.492  12.701  0.3429 -0.2272 -0.5429
  152MPD2    C5 2318   3.719   1.506  12.789  0.2340 -0.2858 -0.2244
  152MPD2     H 2319   3.746   1.653  12.440 -0.3243  0.6494  0.5582
  152MPD2    H1 2320   3.530   1.433  12.735  0.9381  0.0395  1.4063
  152MPD2    H2 2321   3.925   1.547  12.812  1.2059 -1.5219 -0.4415
  152MPD2    H3 2322   3.706   1.454  12.883 -0.7424 -0.6092 -0.5395
  152MPD2     N 2323   3.512   1.545  12.475  0.4940  0.1064 -0.0998
  152MPD2    H5 2324   3.523   1.583  12.381  1.4079  1.1859  0.4427
  152MPD2    N1 2325   3.987   1.639  12.593 -0.1724  0.3157  0.1339
  152MPD2    H7 2326   4.054   1.630  12.669 -0.1188  2.0742  0.2863
  153TCq2    C1 2327   4.035   1.683  12.470  0.2052  1.0081  0.3312
  153TCq2    O2 2328   3.975   1.701  12.367 -0.3978  0.0651  0.4442
  153TCq2    C2 2329   4.171   1.731  12.482 -0.1436  1.0134 -0.1146
  153TCq2    C3 2330   4.252   1.718  12.373 -0.3437  0.0286  0.0013
  153TCq2    C4 2331   4.380   1.763  12.380 -0.0303 -0.0227  0.9595
  153TCq2    C5 2332   4.423   1.830  12.491  0.2556 -0.2455 -0.1233
  153TCq2    C6 2333   4.338   1.856  12.592 -0.6297 -0.1488  0.2849
  153TCq2    C7 2334   4.210   1.803  12.590 -0.1695 -0.8838 -0.5846
  153TCq2    C8 2335   4.356   1.980  12.673  0.0246 -0.0967  0.6065
  153TCq2    O4 2336   4.261   2.034  12.731 -0.0354 -0.0816  0.1231
  153TCq2    C9 2337   4.464   1.768  12.260  0.2409  0.3520 -0.5671
  153TCq2    O5 2338   4.548   1.863  12.247 -0.1477 -0.4541  0.2785
  153TCq2    O6 2339   4.435   1.691  12.167  0.1875 -0.1698  0.3900
  153TCq2    H2 2340   4.216   1.679  12.278  2.3847 -2.0188 -0.1869
  153TCq2    H3 2341   4.513   1.889  12.477  0.3144  0.0257  1.4099
  153TCq2    H4 2342   4.143   1.827  12.673  0.9343 -1.7616  0.5538
  154MPD2     C 2343   0.242   1.007   0.703 -0.6127  0.5257  0.3184
  154MPD2    C1 2344   0.274   1.091   0.804  0.3561 -0.4591  0.4256
  154MPD2    C2 2345   0.215   1.213   0.812 -1.1618  0.0314 -0.0347
  154MPD2    C3 2346   0.129   1.257   0.717 -0.0561  0.0418  0.0349
  154MPD2    C4 2347   0.095   1.171   0.618 -0.8716  0.3672 -0.1498
  154MPD2    C5 2348   0.153   1.048   0.614 -0.3489  0.3384  0.4003
  154MPD2     H 2349   0.231   1.281   0.896 -1.2750 -1.8356  1.5024
  154MPD2    H1 2350   0.032   1.203   0.536  0.5173  2.5893 -0.3676
  154MPD2    H2 2351   0.299   0.915   0.694  0.7713  1.5215 -1.1630
  154MPD2    H3 2352   0.150   0.988   0.524 -2.2501  0.0199  0.6792
  154MPD2     N 2353   0.081   1.390   0.728  0.1460  0.1463 -0.4957
  154MPD2    H5 2354   0.100   1.442   0.813 -0.9337  1.3310 -0.9778
  154MPD2    N1 2355   0.360   1.032   0.904  0.5009 -0.1942 -0.2912
  154MPD2    H7 2356   0.392   0.938   0.888 -1.2696 -1.0343  1.1496
  155TCq2    C1 2357   0.394   1.093   1.025  0.1208 -0.3811  0.3450
  155TCq2    O2 2358   0.350   1.187   1.090 -0.5013 -0.5223 -0.2936
  155TCq2    C2 2359   0.472   0.999   1.103  0.0533 -0.4174 -0.2888
  155TCq2    C3 2360   0.450   1.000   1.241 -0.1553 -0.0596 -0.4112
  155TCq2    C4 2361   0.529   0.919   1.324  0.1560  0.2805  0.2582
  155TCq2    C5 2362   0.618   0.830   1.271  0.3710 -0.3019 -0.8814
  155TCq2    C6 2363   0.626   0.818   1.135  0.2092 -0.4475  0.1775
  155TCq2    C7 2364   0.555   0.904   1.052  0.3440 -0.1587  0.7919
  155TCq2    C8 2365   0.739   0.757   1.065  1.3846 -1.1520 -0.8473
  155TCq2    O4 2366   0.744   0.763   0.945 -1.0489  0.0932  0.2237
  155TCq2    C9 2367   0.509   0.929   1.463  0.2945 -0.1232  0.1595
  155TCq2    O5 2368   0.589   0.863   1.535 -0.3538  0.6635 -0.3274
  155TCq2    O6 2369   0.397   0.980   1.499  0.3714 -0.1786 -0.6834
  155TCq2    H2 2370   0.375   1.061   1.289  0.5613  0.0530  0.5625
  155TCq2    H3 2371   0.675   0.768   1.338  0.1287  1.2322  0.7560
  155TCq2    H4 2372   0.554   0.898   0.943 -3.1378  1.3097  0.7237
  156MPD2     C 2373   4.162   3.776  12.065 -0.3724 -0.2114 -0.5513
  156MPD2    C1 2374   4.033   3.778  12.100 -0.3222 -0.1727  0.9895
  156MPD2    C2 2375   3.990   3.778  12.229  0.2259 -0.0582  0.2989
  156MPD2    C3 2376   4.079   3.790  12.337 -0.2830  0.2074  0.4502
  156MPD2    C4 2377   4.215   3.787  12.296 -0.5649 -0.2369 -0.0465
  156MPD2    C5 2378   4.258   3.775  12.165  0.6961 -0.2960 -0.7269
  156MPD2     H 2379   3.886   3.776  12.258  0.2794 -1.9269  0.3773
  156MPD2    H1 2380   4.296   3.798  12.367 -0.5323  1.2499 -0.3030
  156MPD2    H2 2381   4.192   3.786  11.962  2.4118 -2.9811 -0.0112
  156MPD2    H3 2382   4.362   3.783  12.137  1.0006 -1.3194  0.1631
  156MPD2     N 2383   4.031   3.802  12.468 -0.3813  0.0124 -0.1105
  156MPD2    H5 2384   3.933   3.783  12.487  0.2640 -0.7019  2.5779
  156MPD2    N1 2385   3.939   3.783  11.992 -0.6296  0.2598 -0.7713
  156MPD2    H7 2386   3.977   3.773  11.898 -0.8172 -1.1449 -0.7024
  157TCq2    C1 2387   3.808   3.825  12.011  0.5199 -0.0473 -0.1108
  157TCq2    O2 2388   3.746   3.875  12.108 -0.7453 -0.0493 -0.0689
  157TCq2    C2 2389   3.733   3.824  11.882  0.6332  0.8741  0.9574
  157TCq2    C3 2390   3.791   3.738  11.789  0.4229  0.2982  0.2483
  157TCq2    C4 2391   3.750   3.764  11.660 -0.0380 -0.4379 -0.7230
  157TCq2    C5 2392   3.667   3.864  11.622  0.2259  0.3122  0.4743
  157TCq2    C6 2393   3.597   3.917  11.724 -0.3557 -0.4336 -0.1837
  157TCq2    C7 2394   3.639   3.917  11.852 -0.5002 -0.3695  0.7486
  157TCq2    C8 2395   3.563   4.051  11.691 -0.0460  0.2662  0.1948
  157TCq2    O4 2396   3.659   4.128  11.680  0.2655  0.3774 -0.9097
  157TCq2    C9 2397   3.800   3.681  11.556  0.2415 -0.1029  0.0717
  157TCq2    O5 2398   3.715   3.643  11.471  0.0067 -0.0085  0.2737
  157TCq2    O6 2399   3.913   3.627  11.574  0.2072  0.0841 -0.5212
  157TCq2    H2 2400   3.847   3.648  11.812  0.8514  0.7730  1.0400
  157TCq2    H3 2401   3.640   3.865  11.517  0.6950 -0.3955  0.3466
  157TCq2    H4 2402   3.609   3.993  11.924  0.4588  1.3344 -0.6691
  158TMC2    C1 2403   4.635   3.209  13.862  0.4977  0.5590 -0.1671
  158TMC2    C2 2404   0.002   3.301  13.824  0.3655  0.4586  0.4306
  158TMC2    C3 2405   4.700   3.383  13.718 -0.5713  0.1672 -0.0326
  158TMC2    C4 2406   4.512   3.198  13.800  0.3792  0.1268 -0.1735
  158TMC2    C5 2407   4.494   3.281  13.698  0.4004 -0.1447  0.7495
  158TMC2    C6 2408   4.586   3.372  13.655 -0.2342  0.0897 -0.1871
  158TMC2     C 2409   4.664   3.138  13.993  0.7594 -0.0990  0.7833
  158TMC2     O 2410   0.008   3.193  14.080 -0.3434  0.0332 -0.1784
  158TMC2     H 2411   0.099   3.306  13.874  2.0200  1.3694 -2.8982
  158TMC2    H1 2412   4.439   3.130  13.842  1.2960 -0.2678  0.8031
  158TMC2    H2 2413   4.560   3.445  13.579 -0.0055  1.9793  1.5613
  158TMC2    C7 2414   4.376   3.280  13.613  0.3633 -0.7029  0.5969
  158TMC2    C8 2415   0.076   3.473  13.672 -0.0002  0.2543  0.0813
  158TMC2    O1 2416   4.360   3.375  13.537 -0.2204 -0.3495  0.1789
  158TMC2    O2 2417   0.179   3.491  13.737 -0.0198  0.1767 -0.1720
  158TMC2    O5 2418   0.077   3.468  13.534  0.1652  0.1622 -0.0750
  158TMC2    H5 2419   0.000   3.440  13.480  1.9918 -2.6718 -1.2405
  159MPD2     C 2420   4.676   2.741  14.304 -0.5161  0.2254  0.0153
  159MPD2    C1 2421   4.560   2.724  14.226 -0.1029 -0.3469  0.4418
  159MPD2    C2 2422   4.528   2.824  14.136  0.0199 -0.1987 -0.1810
  159MPD2    C3 2423   4.614   2.931  14.107 -0.3647 -0.5259 -0.2906
  159MPD2    C4 2424   0.001   2.938  14.188  0.3659 -0.2828 -0.0584
  159MPD2    C5 2425   0.031   2.848  14.283 -0.9805 -0.8526  0.9477
  159MPD2     H 2426   4.439   2.817  14.075 -1.6849 -0.8902  2.4067
  159MPD2    H1 2427   0.089   3.001  14.189  1.0016 -1.2097  2.6658
  159MPD2    H2 2428   4.710   2.669  14.377 -0.2554  0.4760  0.1404
  159MPD2    H3 2429   0.122   2.860  14.340  0.4905  1.0999 -1.8104
  159MPD2     N 2430   4.592   3.022  14.003  1.0313  0.5650 -0.7655
  159MPD2    H5 2431   4.526   3.003  13.928 -0.6839 -0.3832  0.9790
  159MPD2    N1 2432   4.478   2.606  14.248  0.3451  0.5422  0.7814
  159MPD2    H7 2433   4.517   2.542  14.317  2.1118  0.4746 -0.2746
  160TMC2    C1 2434   3.865   0.902   1.366 -0.2643 -0.0963  0.1398
  160TMC2    C2 2435   3.763   0.816   1.395  0.3991  0.5475  0.2616
  160TMC2    C3 2436   3.756   0.695   1.341 -0.1213 -0.2397  0.5231
  160TMC2    C4 2437   3.964   0.856   1.283  0.3312 -0.5899 -0.3980
  160TMC2    C5 2438   3.970   0.717   1.253  0.4189 -0.4801  0.1527
  160TMC2    C6 2439   3.860   0.637   1.274  0.0131 -0.5023 -0.5150
  160TMC2     C 2440   3.878   1.031   1.429 -0.3420  0.0541  0.2904
  160TMC2     O 2441   3.984   1.092   1.412 -0.1402  0.0822  0.2095
  160TMC2     H 2442   3.693   0.840   1.475 -2.2977  0.7415 -2.1581
  160TMC2    H1 2443   4.037   0.933   1.262  0.8921 -1.0379 -0.0669
  160TMC2    H2 2444   3.831   0.549   1.217  1.7292 -1.1948 -0.3011
  160TMC2    C7 2445   4.057   0.675   1.146 -0.3991  0.4300  0.1573
  160TMC2    C8 2446   3.641   0.613   1.374 -0.4214  0.4482  0.9029
  160TMC2    O1 2447   4.010   0.578   1.086 -0.0927  0.2305  0.4187
  160TMC2    O2 2448   3.658   0.491   1.364  0.5749 -0.2524 -0.0733
  160TMC2    O5 2449   3.536   0.677   1.322 -0.1808  0.1089  0.2444
  160TMC2    H5 2450   3.518   0.763   1.367  0.5894  0.5647 -0.3359
  161MPD2     C 2451   3.822   1.305   1.522  0.4009 -0.7341  0.2486
  161MPD2    C1 2452   3.723   1.209   1.507  0.6808 -0.7229  0.6764
  161MPD2    C2 2453   3.593   1.244   1.534 -0.3269  0.0019 -0.3055
  161MPD2    C3 2454   3.553   1.371   1.564 -0.9734  0.7342  0.1967
  161MPD2    C4 2455   3.652   1.467   1.566 -0.5501 -0.9554 -0.4849
  161MPD2    C5 2456   3.783   1.429   1.557 -0.3847  0.0652  0.3846
  161MPD2     H 2457   3.512   1.172   1.526 -1.4476  1.1245  0.8996
  161MPD2    H1 2458   3.626   1.570   1.591  0.7606 -0.7048 -0.1404
  161MPD2    H2 2459   3.927   1.280   1.520  0.3320 -0.7514 -3.3773
  161MPD2    H3 2460   3.865   1.499   1.564 -0.4336  0.2476 -1.0166
  161MPD2     N 2461   3.423   1.413   1.602  0.9133  0.4775  0.0042
  161MPD2    H5 2462   3.417   1.513   1.617 -3.5955  0.3519 -1.1407
  161MPD2    N1 2463   3.759   1.077   1.479 -0.6033  0.2463  0.3131
  161MPD2    H7 2464   3.686   1.007   1.485 -0.6800  0.0057 -3.4771
  162TMC2    C1 2465   1.532   3.059   1.400  0.1798  0.3527 -0.2142
  162TMC2    C2 2466   1.449   3.162   1.453 -0.1987  0.6413 -0.3779
  162TMC2    C3 2467   1.364   3.120   1.555 -0.6669  0.2958  0.5452
  162TMC2    C4 2468   1.538   2.931   1.454  0.1345  0.1378 -0.2896
  162TMC2    C5 2469   1.447   2.905   1.555 -0.3119  0.0142  0.0875
  162TMC2    C6 2470   1.361   2.997   1.611 -0.5004 -0.2228 -0.5584
  162TMC2     C 2471   1.627   3.107   1.300  0.7714  0.0626 -0.2301
  162TMC2     O 2472   1.728   3.039   1.300 -0.2577 -0.2366  0.1028
  162TMC2     H 2473   1.438   3.266   1.425 -1.6730  0.6170  0.1023
  162TMC2    H1 2474   1.614   2.860   1.421 -0.3508  0.2500 -1.6182
  162TMC2    H2 2475   1.292   2.971   1.690  0.7424 -0.9951  0.2651
  162TMC2    C7 2476   1.423   2.765   1.595 -0.1644  0.5347 -0.3017
  162TMC2    C8 2477   1.312   3.228   1.633 -0.5135  0.1289 -0.2284
  162TMC2    O1 2478   1.311   2.741   1.636  0.0838  0.7046 -0.0354
  162TMC2    O2 2479   1.381   3.292   1.713  0.0043 -0.0397  0.3258
  162TMC2    O5 2480   1.178   3.201   1.644  0.1605  0.1788 -0.3062
  162TMC2    H5 2481   1.150   3.144   1.570 -2.3587  0.3792  0.5030
  163MPD2     C 2482   1.755   3.328   0.855  0.2916 -0.2054 -0.1493
  163MPD2    C1 2483   1.800   3.216   0.915 -0.2505  0.0766  0.0102
  163MPD2    C2 2484   1.752   3.186   1.042 -0.9163 -0.2410 -0.0242
  163MPD2    C3 2485   1.640   3.243   1.097  0.2996  0.5572  0.6551
  163MPD2    C4 2486   1.584   3.351   1.026  0.2887  0.1924 -0.0749
  163MPD2    C5 2487   1.644   3.392   0.907 -0.3551  0.0959  0.0617
  163MPD2     H 2488   1.787   3.098   1.094  0.4625  0.2186 -0.1808
  163MPD2    H1 2489   1.512   3.420   1.069  2.0129  1.3558  0.9793
  163MPD2    H2 2490   1.802   3.355   0.761 -1.3913 -2.1276 -1.5270
  163MPD2    H3 2491   1.608   3.480   0.855 -0.1921  0.0612 -0.1065
  163MPD2     N 2492   1.585   3.212   1.225  0.7152  0.2199 -0.1049
  163MPD2    H5 2493   1.492   3.252   1.233  0.2651 -0.5154 -1.6768
  163MPD2    N1 2494   1.916   3.150   0.859  0.5199  0.3540  0.4284
  163MPD2    H7 2495   1.936   3.191   0.768 -0.7342  1.4108  0.6202
  164TCq2    C1 2496   2.471   2.715  10.969  0.1799  0.3005 -0.6301
  164TCq2    O2 2497   2.390   2.794  10.921  0.2901 -0.4057  0.3621
  164TCq2    C2 2498   2.517   2.731  11.105  0.2782  0.1215  0.1249
  164TCq2    C3 2499   2.631   2.674  11.158  0.1132  0.5817 -0.6800
  164TCq2    C4 2500   2.643   2.658  11.289  0.1532 -0.3382  0.9465
  164TCq2    C5 2501   2.556   2.711  11.385 -0.1305 -0.9694  0.5837
  164TCq2    C6 2502   2.453   2.782  11.329 -0.4122  0.1930  0.3501
  164TCq2    C7 2503   2.431   2.796  11.189  0.0178 -0.2005 -0.5138
  164TCq2    C8 2504   2.344   2.818  11.420  0.6312  0.0893  0.4263
  164TCq2    O4 2505   2.373   2.871  11.526  0.1917  0.2155  0.1061
  164TCq2    C9 2506   2.748   2.583  11.345  0.2763 -0.0771 -0.3487
  164TCq2    O5 2507   2.831   2.540  11.263 -0.5209 -0.0701  0.2493
  164TCq2    O6 2508   2.711   2.511  11.440  0.7097  0.2175  0.5060
  164TCq2    H2 2509   2.699   2.621  11.093 -1.5507 -0.6362 -1.4287
  164TCq2    H3 2510   2.574   2.700  11.491  0.7326 -0.7924  0.4562
  164TCq2    H4 2511   2.344   2.842  11.143 -0.7114 -1.5324 -0.4780
  165MPD2     C 2512   3.001   4.060   1.980 -0.6079  0.9593 -0.6310
  165MPD2    C1 2513   3.128   4.107   2.017  0.2079 -0.9321 -0.9477
  165MPD2    C2 2514   3.143   4.243   2.043 -0.2960 -0.3375 -0.4906
  165MPD2    C3 2515   3.038   4.334   2.038 -0.2670  0.1543 -0.5816
  165MPD2    C4 2516   2.910   4.280   2.001 -0.7901 -0.0128  0.9044
  165MPD2    C5 2517   2.896   4.147   1.967 -0.0678 -1.2658 -0.1357
  165MPD2     H 2518   3.235   4.270   2.093 -1.0555  2.4205 -0.6150
  165MPD2    H1 2519   2.820   4.339   2.010 -0.9181 -0.0286 -0.3676
  165MPD2    H2 2520   2.973   3.956   1.971  1.0459  0.4041  0.5717
  165MPD2    H3 2521   2.794   4.109   1.967 -0.7453  0.5427  1.2499
  165MPD2     N 2522   3.051   4.473   2.064 -0.2047 -0.5227  0.5547
  165MPD2    H5 2523   2.975   4.536   2.037 -1.0591 -1.9444 -0.3460
  165MPD2    N1 2524   3.236   4.020   1.995 -0.1660 -0.5263  0.1880
  165MPD2    H7 2525   3.228   3.927   1.954 -2.3208  0.6416 -2.0434
  166TCq2    C1 2526   3.159   4.532   2.125  0.5717 -0.3270  0.2204
  166TCq2    O2 2527   3.269   4.483   2.151 -0.2442 -0.3100  0.1970
  166TCq2    C2 2528   3.130   4.678   2.155  0.0638  0.8611  0.4234
  166TCq2    C3 2529   3.008   0.001   2.143  0.5663 -0.0210  0.3583
  166TCq2    C4 2530   2.984   0.131   2.107  0.5252  0.1039 -0.7795
  166TCq2    C5 2531   3.089   0.218   2.104  0.0894 -0.3278  0.0505
  166TCq2    C6 2532   3.210   0.165   2.128  0.1506 -0.5203  0.2622
  166TCq2    C7 2533   3.239   0.032   2.155 -0.1477 -0.0935 -0.3586
  166TCq2    C8 2534   3.332   0.245   2.091 -0.3157  0.1981  0.3863
  166TCq2    O4 2535   3.444   0.197   2.104  0.2733 -0.2768 -0.4280
  166TCq2    C9 2536   2.850   0.176   2.081  0.0871  0.0272  0.0154
  166TCq2    O5 2537   2.833   0.296   2.064  0.3388  0.1575  0.1732
  166TCq2    O6 2538   2.778   0.091   2.027 -0.6534  0.3631  0.2201
  166TCq2    H2 2539   2.919   4.668   2.158  1.4980 -1.5609 -0.1279
  166TCq2    H3 2540   3.074   0.319   2.067 -0.8706 -0.3830  0.2892
  166TCq2    H4 2541   3.340   4.719   2.159  0.5056  1.5489 -1.0181
  167TMC2    C1 2542   1.861   2.399  12.664  0.2918 -0.4835 -0.1091
  167TMC2    C2 2543   1.777   2.433  12.770 -0.6411 -0.6920 -0.3891
  167TMC2    C3 2544   1.764   2.336  12.870 -0.8437 -0.2540  0.0515
  167TMC2    C4 2545   1.922   2.275  12.655 -0.7293 -0.3251 -0.1111
  167TMC2    C5 2546   1.903   2.192  12.757  0.3992  0.1973 -0.7116
  167TMC2    C6 2547   1.838   2.227  12.873  0.7412 -0.5385  0.6458
  167TMC2     C 2548   1.895   2.500  12.564  0.6781 -0.2076 -0.0009
  167TMC2     O 2549   1.823   2.599  12.575  0.2969  0.2928  0.2622
  167TMC2     H 2550   1.719   2.524  12.766  0.0842 -0.3267 -2.6391
  167TMC2    H1 2551   1.985   2.255  12.568  0.5867 -1.3818  1.0876
  167TMC2    H2 2552   1.833   2.159  12.957  1.2017  0.0043  1.1077
  167TMC2    C7 2553   1.981   2.065  12.779 -0.0405 -0.1434  0.1973
  167TMC2    C8 2554   1.684   2.372  12.984 -0.4716  0.1967 -0.0184
  167TMC2    O1 2555   1.941   1.996  12.874 -0.5728  0.3158  0.0858
  167TMC2    O2 2556   1.640   2.488  12.989 -0.0912  0.3895 -0.7488
  167TMC2    O5 2557   1.617   2.259  13.021 -0.3299  0.1356  0.1080
  167TMC2    H5 2558   1.647   2.177  12.975  0.5126  1.0397 -0.9492
  168MPD2     C 2559   2.000   2.692  12.358 -0.2893 -0.1078  0.0275
  168MPD2    C1 2560   2.056   2.566  12.392 -0.8330 -0.1470  0.3024
  168MPD2    C2 2561   2.157   2.517  12.307 -0.1348  0.9517 -0.1828
  168MPD2    C3 2562   2.193   2.582  12.195 -0.8410  0.0507  0.4325
  168MPD2    C4 2563   2.135   2.697  12.161 -0.0916 -0.2319 -0.2481
  168MPD2    C5 2564   2.037   2.749  12.240 -0.3447  0.3025  0.5834
  168MPD2     H 2565   2.201   2.421  12.331 -1.9113  0.1483 -0.1511
  168MPD2    H1 2566   2.145   2.748  12.066  2.5799 -1.6874 -0.7431
  168MPD2    H2 2567   1.924   2.746  12.412  0.1625 -0.2296  0.7914
  168MPD2    H3 2568   1.983   2.834  12.200 -0.1405  0.4644  0.6504
  168MPD2     N 2569   2.289   2.528  12.102  0.1093  0.7302 -0.0519
  168MPD2    H5 2570   2.306   2.566  12.009 -3.2792  0.2924 -0.8545
  168MPD2    N1 2571   2.013   2.485  12.495  0.8744 -0.1558  0.0596
  168MPD2    H7 2572   2.060   2.397  12.513 -0.6233 -0.7990  0.8408
  169MPD1     C 2573   4.435   0.239   9.578 -0.0716  0.1211 -0.0431
  169MPD1    C1 2574   4.313   0.239   9.508  0.7196  0.3277 -0.3559
  169MPD1    C2 2575   4.293   0.347   9.425  0.2881  0.2227 -0.3073
  169MPD1    C3 2576   4.386   0.446   9.411 -0.1595 -0.5786 -0.0282
  169MPD1    C4 2577   4.509   0.434   9.472  0.8357  0.5646 -0.3749
  169MPD1    C5 2578   4.526   0.338   9.567  0.4800 -0.5711  0.7095
  169MPD1     H 2579   4.218   0.342   9.347 -1.2275 -0.1707  1.1635
  169MPD1    H1 2580   4.584   0.511   9.463  0.4260  1.2231  1.8599
  169MPD1    H2 2581   4.454   0.154   9.642 -0.4864 -2.2742 -3.0784
  169MPD1    H3 2582   4.619   0.334   9.623  0.3690  2.0621  1.0921
  169MPD1     N 2583   4.344   0.564   9.340  0.2606 -0.1318 -0.1130
  169MPD1    H5 2584   4.245   0.573   9.316  1.3885  0.9536 -4.3710
  169MPD1    N1 2585   4.224   0.131   9.513 -0.3977 -0.4044 -0.1027
  169MPD1    H6 2586   4.227   0.066   9.591 -1.5024 -2.0500 -1.4473
  169MPD1    H7 2587   4.127   0.164   9.511 -0.4677 -0.5662  0.4533
  170MPD1     C 2588   3.612   4.387  13.104 -0.5735 -0.4870  0.1293
  170MPD1    C1 2589   3.597   4.521  13.080  0.0859 -0.0414 -0.6211
  170MPD1    C2 2590   3.572   4.607  13.191 -0.7823  0.7919 -1.0171
  170MPD1    C3 2591   3.546   4.557  13.316  0.0274  0.0045  0.1825
  170MPD1    C4 2592   3.567   4.423  13.332  0.4187  0.1741 -0.3060
  170MPD1    C5 2593   3.608   4.335  13.231 -0.1079 -0.5211 -1.0037
  170MPD1     H 2594   3.564   4.713  13.173 -0.3705  1.0628  0.4201
  170MPD1    H1 2595   3.560   4.372  13.427  0.8205 -2.8091 -1.8436
  170MPD1    H2 2596   3.643   4.316  13.029 -0.5333  1.8985 -2.1158
  170MPD1    H3 2597   3.638   4.232  13.239 -1.6166 -1.0202 -1.8428
  170MPD1     N 2598   3.506   4.649  13.424 -0.6319  0.0856  0.1506
  170MPD1    H5 2599   3.528   0.020  13.405 -1.3902  0.1129 -0.6095
  170MPD1    N1 2600   3.598   4.563  12.951  0.0533  0.1833  0.4500
  170MPD1    H6 2601   3.611   4.663  12.960 -0.2349  0.1505  1.2511
  170MPD1    H7 2602   3.676   4.535  12.892 -0.0323  3.1114 -1.0275
  171MPD1     C 2603   1.502   0.557  15.160  0.0102 -0.2443  0.0900
  171MPD1    C1 2604   1.450   0.589  15.288  0.2708 -0.5038 -0.3571
  171MPD1    C2 2605   1.521   0.549  15.399 -0.5153 -0.6911 -0.2136
  171MPD1    C3 2606   1.642   0.489  15.386  0.6618  0.6122 -0.1267
  171MPD1    C4 2607   1.687   0.447  15.263 -0.3895 -0.1095  0.6677
  171MPD1    C5 2608   1.619   0.479  15.148 -0.0101 -0.0382 -0.1074
  171MPD1     H 2609   1.483   0.565  15.499  1.2691 -1.2124  0.5437
  171MPD1    H1 2610   1.781   0.395  15.249 -1.0597 -1.2060  0.1720
  171MPD1    H2 2611   1.443   0.568  15.070  1.9162 -0.6607 -1.1998
  171MPD1    H3 2612   1.663   0.445  15.055 -1.3349  1.2578 -1.1958
  171MPD1     N 2613   1.729   0.472  15.492 -0.1126  0.0622  0.5602
  171MPD1    H5 2614   1.818   0.426  15.478 -0.5218  0.3554 -3.2431
  171MPD1    N1 2615   1.322   0.646  15.300  0.1910 -0.1644 -0.6475
  171MPD1    H6 2616   1.319   0.716  15.374  1.3586  0.6674 -1.3892
  171MPD1    H7 2617   1.288   0.692  15.217 -0.9085  1.2965  0.6107
  172MPD1     C 2618   0.004   0.148   1.006  0.2843 -0.3245 -0.3784
  172MPD1    C1 2619   0.090   0.088   0.909 -0.1126 -0.2169  0.8527
  172MPD1    C2 2620   0.219   0.138   0.898 -0.2178 -0.5594  0.5205
  172MPD1    C3 2621   0.265   0.244   0.977 -0.2809  0.6284 -0.4664
  172MPD1    C4 2622   0.172   0.302   1.065 -0.5933  0.1845  0.4980
  172MPD1    C5 2623   0.049   0.255   1.077 -0.2407 -0.2796 -1.0353
  172MPD1     H 2624   0.294   0.084   0.842  0.3814  0.5003  0.3053
  172MPD1    H1 2625   0.199   0.391   1.122  0.6080  1.2629 -1.7677
  172MPD1    H2 2626   4.630   0.110   1.015  0.7029 -0.8821  2.1433
  172MPD1    H3 2627   4.701   0.313   1.131  0.6745  0.3090 -0.4176
  172MPD1     N 2628   0.398   0.302   0.959  0.1830 -0.0129  0.0167
  172MPD1    H5 2629   0.411   0.392   1.004  0.8983 -0.2574  0.3041
  172MPD1    N1 2630   0.045   4.715   0.822 -0.1173 -0.3373  0.1643
  172MPD1    H6 2631   0.099   4.704   0.737  1.6502  0.4176  1.2037
  172MPD1    H7 2632   4.679   0.005   0.781  1.3072  0.6169 -2.6995
  173MPD1     C 2633   1.780   0.695  14.420  0.9071 -0.3339  0.2518
  173MPD1    C1 2634   1.908   0.730  14.475 -0.5737  0.5587 -0.6627
  173MPD1    C2 2635   2.006   0.630  14.480 -0.9873 -0.7765 -0.6025
  173MPD1    C3 2636   1.981   0.497  14.461 -0.4213 -0.0369 -0.0429
  173MPD1    C4 2637   1.855   0.465  14.410  0.1913 -0.2062  0.1814
  173MPD1    C5 2638   1.764   0.563  14.386  0.0619  0.2081 -0.0074
  173MPD1     H 2639   2.103   0.655  14.522 -1.1672 -0.2355 -0.5166
  173MPD1    H1 2640   1.829   0.364  14.378 -2.7665  0.5516  0.2023
  173MPD1    H2 2641   1.699   0.762  14.394  1.6217  1.0065  1.4872
  173MPD1    H3 2642   1.671   0.520  14.351  0.0168  1.2091 -1.1128
  173MPD1     N 2643   2.079   0.408  14.509 -0.4163  0.6642 -0.6724
  173MPD1    H5 2644   2.162   0.436  14.560 -0.2464  1.6520 -1.4799
  173MPD1    N1 2645   1.947   0.861  14.491 -0.1437  0.0293 -0.1609
  173MPD1    H6 2646   2.034   0.877  14.542 -0.7818  0.7041  0.7081
  173MPD1    H7 2647   1.870   0.922  14.516 -1.1703 -1.4009  0.1612
  174MPD1     C 2648   3.000   0.129  14.376  0.9642  0.0277 -0.0445
  174MPD1    C1 2649   2.923   0.239  14.344 -0.0329 -0.2710  0.8914
  174MPD1    C2 2650   2.795   0.245  14.404 -0.3840  0.4546  0.2991
  174MPD1    C3 2651   2.750   0.155  14.497  0.0925  0.5452 -0.1259
  174MPD1    C4 2652   2.842   0.063  14.541  0.2828 -0.1190 -0.3065
  174MPD1    C5 2653   2.959   0.044  14.475  0.2912  0.3843  0.5216
  174MPD1     H 2654   2.741   0.335  14.376 -1.3353  0.1091  1.0450
  174MPD1    H1 2655   2.813   4.710  14.609  1.7522  0.8082  1.4213
  174MPD1    H2 2656   3.096   0.113  14.328  0.7678 -1.1009 -0.0494
  174MPD1    H3 2657   3.029   4.694  14.507 -1.4006 -1.1216  0.5997
  174MPD1     N 2658   2.622   0.160  14.557  0.1940 -0.6659  0.1827
  174MPD1    H5 2659   2.605   0.090  14.629  0.9336  0.3075  1.2847
  174MPD1    N1 2660   2.968   0.333  14.250 -0.5451  0.2690 -0.5939
  174MPD1    H6 2661   2.923   0.423  14.264 -1.2649  0.2890 -3.0312
  174MPD1    H7 2662   3.069   0.336  14.258 -0.7260  0.6261  1.4874
  175MPD1     C 2663   0.816   1.135  15.405  0.4533  0.4181  0.6350
  175MPD1    C1 2664   0.682   1.157  15.434 -0.2431 -0.0023  0.4956
  175MPD1    C2 2665   0.621   1.077  15.533  0.1862 -0.3790  0.2703
  175MPD1    C3 2666   0.692   0.980  15.597 -0.5821  0.0691  0.0696
  175MPD1    C4 2667   0.824   0.959  15.562  0.5029 -0.0958 -0.2702
  175MPD1    C5 2668   0.883   1.035  15.464  0.0175 -0.5398 -0.6459
  175MPD1     H 2669   0.514   1.094  15.546  1.1481  3.6333  3.0770
  175MPD1    H1 2670   0.884   0.891  15.622 -0.5800 -1.5608 -0.8639
  175MPD1    H2 2671   0.869   1.192  15.330 -0.5452  1.2525  0.5642
  175MPD1    H3 2672   0.986   1.014  15.436 -0.3212 -3.2170  0.0741
  175MPD1     N 2673   0.638   0.915  15.712 -0.0797  0.2334 -0.4958
  175MPD1    H5 2674   0.704   0.861  15.766 -2.0363 -0.5056  1.1627
  175MPD1    N1 2675   0.610   1.255  15.361  0.0640 -0.5972  0.5263
  175MPD1    H6 2676   0.512   1.245  15.383 -0.3843 -3.5444 -2.8392
  175MPD1    H7 2677   0.616   1.240  15.260  2.5163 -1.5236  0.8028
  176MPD1     C 2678   3.245   4.020   0.600 -0.1887 -0.1571 -0.8948
  176MPD1    C1 2679   3.234   4.033   0.464 -0.0538 -1.7912  0.7386
  176MPD1    C2 2680   3.123   3.975   0.402  0.1664 -0.1941 -0.0005
  176MPD1    C3 2681   3.021   3.915   0.478  0.0434 -0.3474  1.0503
  176MPD1    C4 2682   3.040   3.897   0.619 -0.2816 -0.7015  0.0942
  176MPD1    C5 2683   3.149   3.952   0.676 -0.1865  0.1287  0.9007
  176MPD1     H 2684   3.119   3.976   0.293  1.4457  0.4811 -0.0308
  176MPD1    H1 2685   2.971   3.845   0.686  0.7191 -0.4833  1.2929
  176MPD1    H2 2686   3.330   4.065   0.649 -1.5724  1.0482  0.4317
  176MPD1    H3 2687   3.156   3.960   0.784 -2.3347 -1.0866  1.1354
  176MPD1     N 2688   2.904   3.887   0.406 -0.6092 -0.6626  0.4005
  176MPD1    H5 2689   2.900   3.927   0.313 -0.2043  0.4285  0.8424
  176MPD1    N1 2690   3.332   4.110   0.401 -0.7124 -0.5145  0.0897
  176MPD1    H6 2691   3.340   4.093   0.301  1.7995  0.0152  0.1972
  176MPD1    H7 2692   3.426   4.096   0.437 -0.6521  1.9163  0.8746
  177MPD1     C 2693   0.386   2.180  10.351 -0.3836 -0.2965 -0.1285
  177MPD1    C1 2694   0.297   2.137  10.252  0.2419  0.9188  0.6487
  177MPD1    C2 2695   0.260   2.231  10.151 -0.4190  0.2943 -0.1049
  177MPD1    C3 2696   0.307   2.361  10.155  0.2379 -0.4086 -0.3901
  177MPD1    C4 2697   0.390   2.395  10.260  0.7285 -0.4149  0.3190
  177MPD1    C5 2698   0.423   2.306  10.363 -0.4067 -0.0496  0.0682
  177MPD1     H 2699   0.182   2.206  10.079  1.1946  0.2882 -1.8528
  177MPD1    H1 2700   0.439   2.492  10.269 -2.8358  1.5767 -1.8981
  177MPD1    H2 2701   0.417   2.114  10.432 -0.2687  0.1621  0.2017
  177MPD1    H3 2702   0.496   2.330  10.439 -2.5437 -0.6767  2.3450
  177MPD1     N 2703   0.257   2.449  10.057 -0.4570  0.3009  0.1333
  177MPD1    H5 2704   0.205   2.405   9.981 -0.9856  0.9802  0.1010
  177MPD1    N1 2705   0.241   2.005  10.263  0.2674 -0.7102  0.6365
  177MPD1    H6 2706   0.184   1.980  10.182  1.1169 -0.3529 -0.0712
  177MPD1    H7 2707   0.322   1.944  10.258  1.2402  0.6360 -0.3448
  178MPD1     C 2708   2.988   4.473   0.410  0.1947  0.1420  0.3434
  178MPD1    C1 2709   2.982   4.338   0.425 -0.3940  0.0738  0.1721
  178MPD1    C2 2710   2.961   4.252   0.314 -0.0578  0.6474  0.3363
  178MPD1    C3 2711   2.980   4.311   0.189  0.0243  0.7345 -0.4832
  178MPD1    C4 2712   2.984   4.447   0.175  0.3223 -0.3515 -0.2985
  178MPD1    C5 2713   2.983   4.525   0.283  0.3039  0.0457  0.3442
  178MPD1     H 2714   2.935   4.148   0.330  0.5061  0.1653 -1.7843
  178MPD1    H1 2715   2.997   4.501   0.082  1.1630  0.8840  0.5277
  178MPD1    H2 2716   2.991   4.543   0.493  0.6298  0.4182  0.0935
  178MPD1    H3 2717   2.977   4.632   0.269 -1.9077  0.1714  2.2819
  178MPD1     N 2718   2.997   4.233   0.078  0.1284  0.1474 -0.4841
  178MPD1    H5 2719   3.015   4.277  17.694 -2.3287  1.4408 -0.3520
  178MPD1    N1 2720   2.954   4.280   0.553 -0.4383 -0.6837  0.1526
  178MPD1    H6 2721   2.991   4.339   0.628 -1.4072  1.0301 -0.6930
  178MPD1    H7 2722   2.985   4.184   0.555 -0.3206 -0.6654 -0.7114
  179MPD1     C 2723   2.562   2.527  15.599  0.4362  0.2312  0.2997
  179MPD1    C1 2724   2.458   2.483  15.524 -0.3013  0.4908  0.1654
  179MPD1    C2 2725   2.416   2.354  15.549  0.4243  0.5566 -0.1456
  179MPD1    C3 2726   2.492   2.274  15.627 -0.0739  0.5295 -0.7771
  179MPD1    C4 2727   2.613   2.311  15.690  0.3670  0.2786  0.5266
  179MPD1    C5 2728   2.637   2.447  15.680  0.5501  0.6921 -0.1268
  179MPD1     H 2729   2.312   2.327  15.532  0.1106  0.7506  1.4548
  179MPD1    H1 2730   2.691   2.246  15.726  0.5069  2.1150  3.5853
  179MPD1    H2 2731   2.605   2.626  15.590 -2.5339  1.4246 -0.6592
  179MPD1    H3 2732   2.735   2.476  15.717  2.2065 -2.9521 -1.6831
  179MPD1     N 2733   2.449   2.146  15.668  0.2995  0.1698 -0.1968
  179MPD1    H5 2734   2.517   2.102  15.729 -0.1167 -0.2768 -0.0595
  179MPD1    N1 2735   2.376   2.579  15.467  0.1557  0.2082  0.8564
  179MPD1    H6 2736   2.319   2.537  15.393 -0.5812 -1.1919  2.2039
  179MPD1    H7 2737   2.438   2.650  15.429  1.9225 -2.3222 -0.9521
  180MPD1     C 2738   3.340   3.885  15.169  0.0356 -0.3389  0.3493
  180MPD1    C1 2739   3.354   3.871  15.033 -0.1095 -0.2297 -0.1285
  180MPD1    C2 2740   3.255   3.816  14.960 -0.3626 -0.0623  0.5032
  180MPD1    C3 2741   3.148   3.759  15.030 -0.2011  0.2505 -0.3669
  180MPD1    C4 2742   3.156   3.742  15.168 -0.4641  0.7171  0.2206
  180MPD1    C5 2743   3.244   3.807  15.237  0.3995  0.2945  0.0189
  180MPD1     H 2744   3.239   3.823  14.853  0.1101 -1.5635  0.3334
  180MPD1    H1 2745   3.075   3.698  15.225  0.1227 -0.4700  0.1215
  180MPD1    H2 2746   3.408   3.945  15.229  2.1562  0.5462 -2.9504
  180MPD1    H3 2747   3.240   3.815  15.345 -1.1445  1.0866 -0.1064
  180MPD1     N 2748   3.048   3.696  14.956  0.6556 -0.0288 -0.1451
  180MPD1    H5 2749   3.057   3.709  14.856 -0.3655  0.3625 -0.1910
  180MPD1    N1 2750   3.451   3.950  14.969 -0.1295  0.0031  0.2686
  180MPD1    H6 2751   3.494   3.905  14.889  0.5464 -0.0806  0.6790
  180MPD1    H7 2752   3.519   3.979  15.039 -0.2977  0.0746  0.4054
  181MPD1     C 2753   3.324   0.376  10.082  0.7379  0.1504  0.0671
  181MPD1    C1 2754   3.361   0.477   9.995  0.0140  0.3519  0.1537
  181MPD1    C2 2755   3.493   0.490   9.950  0.1182  0.6589  0.0174
  181MPD1    C3 2756   3.586   0.404  10.002 -0.2240 -0.4689  0.1125
  181MPD1    C4 2757   3.551   0.302  10.091  0.3191 -0.4598 -0.1074
  181MPD1    C5 2758   3.418   0.287  10.120 -0.7552 -0.1927 -0.0307
  181MPD1     H 2759   3.514   0.576   9.888 -0.3463 -0.4084 -1.6402
  181MPD1    H1 2760   3.624   0.230  10.128  0.1548 -0.7730 -0.3924
  181MPD1    H2 2761   3.221   0.344  10.096  1.2971 -1.2601  0.9668
  181MPD1    H3 2762   3.380   0.194  10.160 -2.3419  0.6607  0.4797
  181MPD1     N 2763   3.726   0.408   9.958 -0.6056 -0.6824  0.2251
  181MPD1    H5 2764   3.785   0.335   9.996  3.0881  2.5119  0.6592
  181MPD1    N1 2765   3.273   0.585   9.979  0.5758 -0.0620  0.5706
  181MPD1    H6 2766   3.181   0.551   9.951  0.4448  0.9237 -0.1826
  181MPD1    H7 2767   3.316   0.643   9.907 -2.1045 -1.5875 -2.2454
  182MPD1     C 2768   4.529   4.192   2.122 -0.9551  0.2553  0.6163
  182MPD1    C1 2769   4.557   4.119   2.007 -0.8796  0.2446  0.2784
  182MPD1    C2 2770   4.457   4.108   1.907 -0.0408 -0.0547  0.4827
  182MPD1    C3 2771   4.333   4.161   1.931 -0.3605 -0.5717 -0.3674
  182MPD1    C4 2772   4.306   4.234   2.046 -0.1458  0.1166 -0.1265
  182MPD1    C5 2773   4.401   4.244   2.140 -0.2140  0.9195  0.3407
  182MPD1     H 2774   4.469   4.057   1.812  0.0770  1.1237 -0.1421
  182MPD1    H1 2775   4.207   4.275   2.061 -0.6193 -1.6370  1.5013
  182MPD1    H2 2776   4.600   4.205   2.202 -0.1955 -0.2398  0.0162
  182MPD1    H3 2777   4.373   4.303   2.227  0.9741  1.3822  0.4198
  182MPD1     N 2778   4.230   4.163   1.836 -0.2724  0.1433  0.6902
  182MPD1    H5 2779   4.140   4.203   1.859  0.4381  0.2929  3.2401
  182MPD1    N1 2780   4.687   4.069   1.990 -0.6449  0.1557 -0.1673
  182MPD1    H6 2781   0.017   4.072   2.074 -0.4245  0.0422 -0.3124
  182MPD1    H7 2782   4.689   3.974   1.955 -0.1113  0.6097 -1.3760
  183MPD1     C 2783   4.629   3.894   8.820 -0.0293 -0.3278  0.5711
  183MPD1    C1 2784   4.655   3.876   8.953  0.4681 -0.0935  0.0952
  183MPD1    C2 2785   4.630   3.977   9.042 -0.8699 -0.1462 -0.2463
  183MPD1    C3 2786   4.550   4.083   9.001  0.1477  0.3800 -0.6399
  183MPD1    C4 2787   4.504   4.085   8.872  0.5875  0.3979  0.1011
  183MPD1    C5 2788   4.548   3.996   8.779 -0.4677  0.7081  0.5649
  183MPD1     H 2789   4.672   3.974   9.142  1.0535  0.4129 -1.0492
  183MPD1    H1 2790   4.437   4.164   8.841 -0.9624 -1.3908 -1.0985
  183MPD1    H2 2791   4.672   3.821   8.751  0.1382 -0.0382  0.3692
  183MPD1    H3 2792   4.525   4.014   8.675 -1.3487 -0.0200  0.6269
  183MPD1     N 2793   4.531   4.187   9.095 -0.1876  0.0234 -0.2633
  183MPD1    H5 2794   4.545   4.169   9.194  2.1490 -2.7801 -1.1000
  183MPD1    N1 2795   0.018   3.784   8.990  0.0013  0.3400 -0.0175
  183MPD1    H6 2796   4.723   3.759   9.086 -1.7064 -0.7730 -0.6923
  183MPD1    H7 2797   0.002   3.704   8.930  1.0180  1.5851 -1.9680
  184MPD1     C 2798   4.375   1.527   9.848  0.4657  0.5374  0.2918
  184MPD1    C1 2799   4.474   1.618   9.890  0.5956  0.0879 -0.5280
  184MPD1    C2 2800   4.483   1.745   9.835  0.9055 -0.0323  0.4805
  184MPD1    C3 2801   4.388   1.778   9.733  0.0417  0.0407  0.1660
  184MPD1    C4 2802   4.300   1.681   9.686  0.4103 -0.4832  0.3749
  184MPD1    C5 2803   4.293   1.556   9.742 -0.1044 -0.2871 -0.2294
  184MPD1     H 2804   4.560   1.811   9.872  0.1612  0.8146  0.5314
  184MPD1    H1 2805   4.225   1.711   9.614 -0.6924 -2.0408  0.8569
  184MPD1    H2 2806   4.364   1.425   9.884  2.0599  0.2428 -0.0502
  184MPD1    H3 2807   4.219   1.483   9.710  0.0773 -1.1767  1.3682
  184MPD1     N 2808   4.379   1.911   9.676  0.3797 -0.0072  0.0706
  184MPD1    H5 2809   4.302   1.929   9.612 -0.1050 -0.2581  0.5852
  184MPD1    N1 2810   4.551   1.575   9.998 -0.5054  0.0672 -0.4442
  184MPD1    H6 2811   4.572   1.476   9.995 -0.7184  0.0815 -2.1094
  184MPD1    H7 2812   4.644   1.617   9.994 -1.1014  1.4244 -0.2506
  185MPD1     C 2813   4.377   2.052   8.792  0.5260  0.6133  0.7378
  185MPD1    C1 2814   4.339   2.178   8.844 -0.8047  0.4137  0.7180
  185MPD1    C2 2815   4.369   2.209   8.979 -0.2552 -0.6535  0.3073
  185MPD1    C3 2816   4.397   2.104   9.063 -0.8911 -0.5188  0.6003
  185MPD1    C4 2817   4.404   1.972   9.013 -0.1306  0.1613  0.1916
  185MPD1    C5 2818   4.406   1.949   8.878 -0.2403  0.2360 -0.1970
  185MPD1     H 2819   4.356   2.313   9.007  0.1604 -1.0120  1.8255
  185MPD1    H1 2820   4.418   1.882   9.072 -1.2802 -1.0511 -1.3686
  185MPD1    H2 2821   4.366   2.021   8.688  2.7981 -0.7874  0.9155
  185MPD1    H3 2822   4.408   1.844   8.852 -0.2150 -0.0701  1.0162
  185MPD1     N 2823   4.403   2.121   9.206  0.0286  0.2553  0.0833
  185MPD1    H5 2824   4.434   2.038   9.255  2.1135  0.5848 -0.6771
  185MPD1    N1 2825   4.312   2.278   8.749 -0.0796 -0.1025 -0.0910
  185MPD1    H6 2826   4.280   2.243   8.659  0.1474 -0.3518 -0.0755
  185MPD1    H7 2827   4.251   2.348   8.791 -0.5760 -0.2423 -0.5715
  186MPD1     C 2828   2.955   1.770  15.906 -0.1066 -0.0769  1.0168
  186MPD1    C1 2829   2.878   1.765  16.019  0.3124  0.7762  0.4929
  186MPD1    C2 2830   2.853   1.878  16.085  0.0590  0.3003 -0.4360
  186MPD1    C3 2831   2.904   2.001  16.040 -0.6111  0.5449 -0.0244
  186MPD1    C4 2832   2.977   2.010  15.922  0.4074  0.1990 -0.0744
  186MPD1    C5 2833   2.996   1.892  15.854  0.3975  0.2031  0.3072
  186MPD1     H 2834   2.791   1.865  16.173 -2.6470  1.6329 -2.1453
  186MPD1    H1 2835   3.013   2.106  15.887 -3.0950  1.6369  0.2916
  186MPD1    H2 2836   2.972   1.675  15.857  0.0736  0.2518  0.4545
  186MPD1    H3 2837   3.056   1.899  15.764  0.1949 -1.6955  0.0361
  186MPD1     N 2838   2.904   2.120  16.118 -0.1450 -0.1215 -0.3519
  186MPD1    H5 2839   2.934   2.206  16.073 -3.0604  0.2010 -1.7000
  186MPD1    N1 2840   2.845   1.640  16.066 -0.1703 -0.0099 -0.3712
  186MPD1    H6 2841   2.844   1.565  15.997 -0.1963  0.1110 -0.5026
  186MPD1    H7 2842   2.773   1.633  16.138 -0.5375  2.4889 -0.4721
  187MPD1     C 2843   2.283   4.003   0.695 -0.0781 -0.4601 -0.3706
  187MPD1    C1 2844   2.166   3.950   0.644 -0.2656  0.4965 -0.0757
  187MPD1    C2 2845   2.117   3.983   0.518 -0.5527  0.3217 -0.1245
  187MPD1    C3 2846   2.199   4.061   0.437  0.0596 -0.2692  0.4787
  187MPD1    C4 2847   2.324   4.089   0.478 -0.4578 -0.3623  0.3348
  187MPD1    C5 2848   2.363   4.065   0.605 -0.5344 -0.0500  0.3436
  187MPD1     H 2849   2.015   3.962   0.489 -1.1765  1.2426  1.3933
  187MPD1    H1 2850   2.397   4.149   0.424  1.0584 -2.7377 -0.2582
  187MPD1    H2 2851   2.306   3.982   0.799 -2.1992 -1.2994 -0.0719
  187MPD1    H3 2852   2.464   4.093   0.635  0.1726  0.7487 -2.8231
  187MPD1     N 2853   2.162   4.109   0.310 -0.5840  0.1158 -0.1514
  187MPD1    H5 2854   2.232   4.162   0.259 -1.1343  2.1969  1.2467
  187MPD1    N1 2855   2.066   3.890   0.733  0.1047  0.2307 -0.0764
  187MPD1    H6 2856   2.105   3.845   0.816  1.0777  1.3756  0.1034
  187MPD1    H7 2857   1.997   3.829   0.692 -0.1493  0.6702 -0.3078
  188MPD1     C 2858   1.830   4.024  10.569  0.5498 -0.2195  0.2775
  188MPD1    C1 2859   1.763   4.019  10.450 -0.7152  0.2050  0.4743
  188MPD1    C2 2860   1.699   3.896  10.415  0.2177  0.1063 -0.0718
  188MPD1    C3 2861   1.716   3.788  10.500  0.5783 -0.7769  0.3853
  188MPD1    C4 2862   1.792   3.799  10.611  0.5364 -0.1228  0.2375
  188MPD1    C5 2863   1.853   3.916  10.648 -0.3299 -0.1848 -0.3222
  188MPD1     H 2864   1.649   3.892  10.319  0.6283  0.4408 -0.2974
  188MPD1    H1 2865   1.828   3.708  10.657 -1.0549 -2.4883 -3.1706
  188MPD1    H2 2866   1.880   4.113  10.604 -0.2530  0.5220 -0.4396
  188MPD1    H3 2867   1.888   3.923  10.751 -0.9152  0.0990 -0.1452
  188MPD1     N 2868   1.652   3.666  10.467 -0.0824  0.3431 -0.1091
  188MPD1    H5 2869   1.668   3.586  10.528 -0.6510  1.6235  1.7100
  188MPD1    N1 2870   1.749   4.133  10.373 -0.4395  0.8613  0.7246
  188MPD1    H6 2871   1.826   4.196  10.396  0.5391  0.1005 -0.4320
  188MPD1    H7 2872   1.745   4.103  10.276  0.9270  0.9512  0.6303
  189MPD1     C 2873   4.176   4.499   0.374 -0.5677  0.2803 -0.0352
  189MPD1    C1 2874   4.125   4.447   0.487  0.0266  0.3652 -0.0501
  189MPD1    C2 2875   4.037   4.528   0.561  0.4416 -0.0571  0.4483
  189MPD1    C3 2876   4.003   4.653   0.524  0.3782  0.4308 -0.4445
  189MPD1    C4 2877   4.040   4.699   0.396 -0.2225 -0.0610  0.0013
  189MPD1    C5 2878   4.124   4.617   0.325  0.2948  0.2157 -0.1741
  189MPD1     H 2879   4.004   4.498   0.660  0.4927 -1.1422  0.1398
  189MPD1    H1 2880   3.998   0.058   0.343 -1.5496 -0.9676 -0.4085
  189MPD1    H2 2881   4.232   4.434   0.308 -1.8345  0.4627 -1.2876
  189MPD1    H3 2882   4.157   4.634   0.223  2.0781  0.8998  0.5249
  189MPD1     N 2883   3.913   4.725   0.610  0.4868 -0.3939  0.1452
  189MPD1    H5 2884   3.868   4.671   0.683  0.0438 -0.3033 -0.0638
  189MPD1    N1 2885   4.139   4.313   0.524 -0.8349  0.4810  0.0104
  189MPD1    H6 2886   4.230   4.286   0.486 -1.0835  0.3297 -0.4758
  189MPD1    H7 2887   4.130   4.303   0.625 -0.6493  0.1093 -0.0091
  190MPD1     C 2888   2.182   3.126  15.849  0.2939 -0.4591  0.7753
  190MPD1    C1 2889   2.271   3.174  15.943 -0.1290 -0.6079  0.1631
  190MPD1    C2 2890   2.389   3.227  15.888 -0.1143  0.6929 -0.6949
  190MPD1    C3 2891   2.416   3.220  15.755 -0.0897 -0.1271 -0.0325
  190MPD1    C4 2892   2.323   3.173  15.661 -0.2457 -0.6055  0.5283
  190MPD1    C5 2893   2.210   3.124  15.710  1.2086 -0.1540  0.1597
  190MPD1     H 2894   2.454   3.272  15.962 -3.0176 -0.0745  2.3077
  190MPD1    H1 2895   2.353   3.146  15.560  0.0311 -0.5038  0.5828
  190MPD1    H2 2896   2.080   3.098  15.870 -0.6222  1.4619 -1.0863
  190MPD1    H3 2897   2.140   3.089  15.635  0.4440  1.5761  0.0556
  190MPD1     N 2898   2.553   3.250  15.729 -0.4042 -0.2038  0.2915
  190MPD1    H5 2899   2.602   3.297  15.804  2.0597  1.4105 -2.3123
  190MPD1    N1 2900   2.241   3.201  16.074 -0.6306  0.0387  0.1214
  190MPD1    H6 2901   2.322   3.215  16.133  0.5879  1.5683 -1.9460
  190MPD1    H7 2902   2.177   3.135  16.119 -0.3043 -0.3804 -0.0450
  191MPD1     C 2903   2.552   0.256  13.342 -0.5814  0.0057 -0.4374
  191MPD1    C1 2904   2.606   0.290  13.222  0.0243  0.6867  0.0621
  191MPD1    C2 2905   2.528   0.365  13.139 -0.1678 -0.8392  0.1538
  191MPD1    C3 2906   2.400   0.402  13.165  0.4833 -0.2134 -0.0891
  191MPD1    C4 2907   2.343   0.369  13.284 -0.3504  0.5682 -0.6269
  191MPD1    C5 2908   2.420   0.294  13.369  0.4425 -0.4489  0.3960
  191MPD1     H 2909   2.555   0.371  13.034 -0.1054 -0.6928  0.1775
  191MPD1    H1 2910   2.246   0.395  13.324  1.1258  0.8696  2.7647
  191MPD1    H2 2911   2.596   0.181  13.408 -0.2908  0.0386 -0.5975
  191MPD1    H3 2912   2.373   0.266  13.462  1.9315 -3.2260  0.2992
  191MPD1     N 2913   2.330   0.474  13.069 -0.2859 -0.3770 -0.0669
  191MPD1    H5 2914   2.371   0.494  12.979 -1.8017 -1.4891 -1.0025
  191MPD1    N1 2915   2.730   0.228  13.181  0.1294  0.3961  0.2632
  191MPD1    H6 2916   2.777   0.289  13.115  0.4739  0.2604  0.3850
  191MPD1    H7 2917   2.787   0.207  13.263  0.4087  2.2914  0.5444
  192MPD1     C 2918   1.414   1.040  12.810  0.5801  0.0078  0.7912
  192MPD1    C1 2919   1.447   0.960  12.921 -0.6330  0.0210  0.1673
  192MPD1    C2 2920   1.574   0.907  12.919  0.3827 -0.2713 -0.3230
  192MPD1    C3 2921   1.662   0.914  12.809 -0.6280  0.8014  0.7357
  192MPD1    C4 2922   1.620   0.981  12.697 -0.4668  0.5559 -0.7281
  192MPD1    C5 2923   1.499   1.047  12.701 -0.4938 -0.4654 -0.7366
  192MPD1     H 2924   1.603   0.859  13.011 -0.3726 -1.8180 -0.8899
  192MPD1    H1 2925   1.682   0.992  12.609  0.3718  3.1140  0.2061
  192MPD1    H2 2926   1.314   1.081  12.804 -0.2307 -1.6420  3.2141
  192MPD1    H3 2927   1.460   1.104  12.618 -2.4012 -0.5230  0.1227
  192MPD1     N 2928   1.790   0.859  12.806 -0.2152 -0.9347 -0.4384
  192MPD1    H5 2929   1.832   0.870  12.714 -1.1569  1.8010 -0.5395
  192MPD1    N1 2930   1.358   0.968  13.031 -0.1578  0.1357  0.8050
  192MPD1    H6 2931   1.261   0.984  13.006 -0.0027  2.3218  1.6087
  192MPD1    H7 2932   1.375   0.893  13.098  1.5240 -2.9880 -3.1420
  193MPD1     C 2933   1.363   0.061  16.603 -0.8097 -0.2132 -1.1231
  193MPD1    C1 2934   1.279   0.153  16.663  0.1200 -0.8199  0.8590
  193MPD1    C2 2935   1.344   0.268  16.724  0.6996  1.3560 -0.3416
  193MPD1    C3 2936   1.476   0.291  16.721 -0.0946 -0.2224  0.3475
  193MPD1    C4 2937   1.558   0.197  16.656 -0.4796  0.1933 -0.5419
  193MPD1    C5 2938   1.499   0.085  16.600 -0.6258  0.0071  0.7954
  193MPD1     H 2939   1.275   0.333  16.776  1.2176  1.6373 -0.0034
  193MPD1    H1 2940   1.661   0.228  16.647 -0.4784  0.6380  1.1288
  193MPD1    H2 2941   1.322   4.689  16.584 -3.5021  0.2510  2.2803
  193MPD1    H3 2942   1.555   4.725  16.564 -0.7135  0.0421  0.5772
  193MPD1     N 2943   1.539   0.408  16.772 -0.6130  0.2740 -0.3288
  193MPD1    H5 2944   1.640   0.399  16.768 -0.5780 -0.0486  1.2046
  193MPD1    N1 2945   1.148   0.119  16.702  0.5458 -0.0807 -1.0720
  193MPD1    H6 2946   1.081   0.194  16.695  1.1274  0.6893  1.6931
  193MPD1    H7 2947   1.117   0.043  16.641 -0.9669  0.3209 -0.7982
  194MPD1     C 2948   4.103   3.116  16.622  0.3111 -0.2585 -0.7885
  194MPD1    C1 2949   4.104   3.053  16.496 -0.0096  0.3625 -0.2196
  194MPD1    C2 2950   4.194   2.949  16.477  0.5235 -0.4247 -0.4476
  194MPD1    C3 2951   4.267   2.898  16.580 -0.6832  0.6259  0.1190
  194MPD1    C4 2952   4.238   2.942  16.704  0.2007  0.2730 -0.4289
  194MPD1    C5 2953   4.169   3.058  16.725 -0.5978 -0.2542 -0.3105
  194MPD1     H 2954   4.206   2.916  16.374 -1.3032  1.8245 -1.3880
  194MPD1    H1 2955   4.304   2.918  16.787  0.5333 -1.9982 -1.3657
  194MPD1    H2 2956   4.055   3.211  16.645  0.4888  0.4517 -3.3717
  194MPD1    H3 2957   4.169   3.110  16.820  1.2245  0.1365 -0.5354
  194MPD1     N 2958   4.370   2.803  16.569  0.1355 -0.1719 -0.0939
  194MPD1    H5 2959   4.432   2.796  16.649 -1.7131 -0.8827  1.2604
  194MPD1    N1 2960   4.037   3.111  16.388 -0.2065  0.1032  0.0028
  194MPD1    H6 2961   4.005   3.050  16.313  2.5581 -0.0278 -1.0951
  194MPD1    H7 2962   3.955   3.158  16.425 -0.0347 -0.9275  1.6630
  195MPD1     C 2963   1.966   4.546   0.206 -0.8120 -0.2532 -0.4505
  195MPD1    C1 2964   1.858   4.522   0.123 -0.0421 -0.1142  0.4296
  195MPD1    C2 2965   1.772   4.419   0.146 -0.1097 -0.4083 -0.2726
  195MPD1    C3 2966   1.790   4.334   0.252 -0.0663  0.1349  0.3768
  195MPD1    C4 2967   1.899   4.351   0.336  0.1656  0.5886 -0.2138
  195MPD1    C5 2968   1.987   4.455   0.309  0.0340  0.0538 -0.5716
  195MPD1     H 2969   1.693   4.408   0.073 -1.2093  2.9487  0.4230
  195MPD1    H1 2970   1.933   4.283   0.413  0.0405 -0.1894 -0.8475
  195MPD1    H2 2971   2.029   4.629   0.176 -1.7662  0.5583 -0.2478
  195MPD1    H3 2972   2.075   4.458   0.371  1.1387 -0.6180 -2.0885
  195MPD1     N 2973   1.706   4.223   0.278  0.4780 -0.2308  0.0673
  195MPD1    H5 2974   1.728   4.155   0.350  0.8103 -1.0648 -0.8109
  195MPD1    N1 2975   1.831   4.628   0.034 -0.5105  0.2581 -0.2411
  195MPD1    H6 2976   1.918   4.670   0.001 -1.4798  0.6359 -2.3335
  195MPD1    H7 2977   1.779   4.596  17.658 -0.9565 -1.7986  0.8491
  196MPD1     C 2978   4.355   2.995   0.537 -0.4349  0.3198  0.7466
  196MPD1    C1 2979   4.435   3.109   0.549  0.8417 -0.1850  0.2875
  196MPD1    C2 2980   4.476   3.146   0.671 -0.1904 -0.7985  0.2012
  196MPD1    C3 2981   4.465   3.058   0.780 -0.9333 -0.1942  0.1626
  196MPD1    C4 2982   4.387   2.946   0.764  0.0906 -0.4063  0.1852
  196MPD1    C5 2983   4.341   2.915   0.644 -0.4405 -0.1343  0.1023
  196MPD1     H 2984   4.540   3.233   0.672 -2.0299  0.5819 -2.0161
  196MPD1    H1 2985   4.365   2.882   0.849  1.0608 -0.2248  0.5729
  196MPD1    H2 2986   4.320   2.957   0.442  2.1124  1.8861 -0.8151
  196MPD1    H3 2987   4.290   2.819   0.640  1.1768 -1.0434  1.1764
  196MPD1     N 2988   4.529   3.078   0.904  0.1049  0.0048  0.5365
  196MPD1    H5 2989   4.512   3.013   0.980 -0.7028  0.1740  0.5021
  196MPD1    N1 2990   4.447   3.195   0.439  0.4715  0.3450  0.4390
  196MPD1    H6 2991   4.530   3.253   0.452 -0.6538  2.3811 -1.4092
  196MPD1    H7 2992   4.437   3.148   0.350  1.0821 -1.6135  1.4048
  197MPD1     C 2993   0.134   1.510   0.146  0.0650  0.5082 -0.8894
  197MPD1    C1 2994   0.083   1.622   0.080  0.6176 -0.0994 -0.3153
  197MPD1    C2 2995   0.134   1.656  17.666  0.0532  0.3857  0.1625
  197MPD1    C3 2996   0.231   1.575  17.606  0.2292  0.0246 -0.2416
  197MPD1    C4 2997   0.285   1.463  17.673 -0.4258  0.0009 -1.0411
  197MPD1    C5 2998   0.237   1.435   0.089 -0.4105  0.0671  0.5376
  197MPD1     H 2999   0.091   1.747  17.625  0.7116  1.1286  1.1115
  197MPD1    H1 3000   0.363   1.399  17.635  0.3434  1.1315 -1.3762
  197MPD1    H2 3001   0.096   1.479   0.243  1.4012  1.6293  0.0027
  197MPD1    H3 3002   0.275   1.348   0.142  0.8923 -0.1091 -0.6763
  197MPD1     N 3003   0.291   1.588  17.478  0.4523  0.2325  0.0009
  197MPD1    H5 3004   0.346   1.507  17.451  0.0574 -0.3749  1.0106
  197MPD1    N1 3005   0.001   1.710   0.149  0.7873  0.5343  0.6005
  197MPD1    H6 3006   4.683   1.662   0.227 -1.6702 -1.0107 -1.7839
  197MPD1    H7 3007   4.651   1.742   0.090 -0.2923  0.0732  1.7440
  198MPD1     C 3008   2.708   4.483  15.635  0.3715  0.1609  0.1957
  198MPD1    C1 3009   2.803   4.567  15.598  0.0477  0.8387 -0.5689
  198MPD1    C2 3010   2.872   4.649  15.694  0.3783 -0.3641 -0.3954
  198MPD1    C3 3011   2.810   4.671  15.817  0.4093 -0.3372 -0.6235
  198MPD1    C4 3012   2.693   4.595  15.839  0.2020  0.2051  0.5024
  198MPD1    C5 3013   2.648   4.506  15.751  0.4429 -0.5272 -0.3552
  198MPD1     H 3014   2.961   4.708  15.673 -0.1886  0.1808 -1.2385
  198MPD1    H1 3015   2.639   4.600  15.933 -0.0631 -2.3409  0.4659
  198MPD1    H2 3016   2.666   4.407  15.570 -0.7305 -0.0900  1.2157
  198MPD1    H3 3017   2.556   4.455  15.777 -0.2452  0.9495  0.1014
  198MPD1     N 3018   2.863   0.029  15.918 -0.0611  0.5378 -0.0047
  198MPD1    H5 3019   2.958   0.063  15.910  0.3688 -0.9980 -1.4259
  198MPD1    N1 3020   2.863   4.545  15.474  0.4068  0.6057 -0.4749
  198MPD1    H6 3021   2.788   4.504  15.418  0.0756 -0.8762  1.0707
  198MPD1    H7 3022   2.903   4.630  15.435 -1.9291  2.2849  0.7590
  199MPD1     C 3023   3.570   4.564  10.193  0.6410 -0.6449 -0.2979
  199MPD1    C1 3024   3.680   4.611  10.120 -0.2295  0.0760 -0.2429
  199MPD1    C2 3025   3.655   4.679  10.008  0.5316 -0.3066 -0.1645
  199MPD1    C3 3026   3.525   4.720   9.975  0.1084 -0.4538 -0.5562
  199MPD1    C4 3027   3.419   4.664  10.037 -0.0440 -0.7024  0.1586
  199MPD1    C5 3028   3.445   4.585  10.148 -0.7100  0.5666  0.3971
  199MPD1     H 3029   3.740   4.705   9.947 -1.6560  3.5787 -1.5700
  199MPD1    H1 3030   3.314   4.686  10.024  0.5847  0.8633 -2.3929
  199MPD1    H2 3031   3.588   4.499  10.277 -1.6878  1.6477  1.9665
  199MPD1    H3 3032   3.363   4.551  10.211 -0.3584  0.9125  1.0430
  199MPD1     N 3033   3.500   0.084   9.872  0.3994 -0.3284  0.7031
  199MPD1    H5 3034   3.402   0.100   9.854  0.2581 -2.0688  0.0095
  199MPD1    N1 3035   3.801   4.552  10.154 -0.2677 -0.2444 -0.4452
  199MPD1    H6 3036   3.817   4.550  10.254  0.2195  2.4260 -0.4814
  199MPD1    H7 3037   3.878   4.601  10.111 -1.1607  2.0950  0.6601
  200MPD1     C 3038   3.863   1.136  15.289  0.5833 -0.3014 -0.9730
  200MPD1    C1 3039   3.794   1.026  15.242  0.5956 -0.2235 -0.5232
  200MPD1    C2 3040   3.801   0.997  15.111 -0.1471  0.0444  0.1528
  200MPD1    C3 3041   3.878   1.068  15.019 -0.0571 -0.4261  0.6238
  200MPD1    C4 3042   3.957   1.173  15.069  0.7122  0.8070  0.7155
  200MPD1    C5 3043   3.939   1.211  15.203 -0.3758  0.7895  0.2959
  200MPD1     H 3044   3.727   0.930  15.070 -1.5024  1.3515  0.4466
  200MPD1    H1 3045   4.021   1.236  15.008  0.0795  1.7953  1.0893
  200MPD1    H2 3046   3.844   1.167  15.391 -0.6461 -1.7525 -0.7582
  200MPD1    H3 3047   3.988   1.301  15.238  1.4622  0.6912 -2.0488
  200MPD1     N 3048   3.868   1.028  14.881 -0.6618 -0.3999 -0.2432
  200MPD1    H5 3049   3.804   0.951  14.866  1.7383 -2.0554 -2.0018
  200MPD1    N1 3050   3.696   0.967  15.320  0.1013  0.1133  0.2570
  200MPD1    H6 3051   3.714   0.976  15.420  1.1928  0.2223  0.0411
  200MPD1    H7 3052   3.691   0.866  15.308  0.0341  0.3915 -2.0273
  201MPD1     C 3053   0.649   0.070  13.393 -0.0977 -0.4746 -0.1943
  201MPD1    C1 3054   0.728   0.083  13.283  0.3567  0.1720 -0.2246
  201MPD1    C2 3055   0.835   4.721  13.269  0.5813  0.0026  0.0323
  201MPD1    C3 3056   0.875   4.640  13.375 -0.6805 -0.7025  0.6478
  201MPD1    C4 3057   0.790   4.633  13.489 -0.7330  0.3048  0.9133
  201MPD1    C5 3058   0.674   4.701  13.492  0.6022  0.1949  0.3967
  201MPD1     H 3059   0.897   0.005  13.181  0.7082  1.2371  0.2692
  201MPD1    H1 3060   0.812   4.572  13.576  0.1844 -1.1290 -0.3057
  201MPD1    H2 3061   0.573   0.146  13.409 -0.2492 -0.7463  0.3933
  201MPD1    H3 3062   0.608   4.711  13.577 -0.2339  0.3542 -0.2675
  201MPD1     N 3063   0.995   4.569  13.361  0.0414 -0.2139 -0.2224
  201MPD1    H5 3064   1.058   4.586  13.284 -0.0415 -0.0754 -0.2587
  201MPD1    N1 3065   0.716   0.201  13.200  0.5803 -0.2261  0.1541
  201MPD1    H6 3066   0.743   0.179  13.104 -0.3060 -3.9751  0.7428
  201MPD1    H7 3067   0.620   0.235  13.195  0.3884 -0.6273  1.0154
  202MPD1     C 3068   0.351   3.182   9.182  0.6997  0.2642 -0.3235
  202MPD1    C1 3069   0.255   3.261   9.225 -0.4568 -0.2501  0.1025
  202MPD1    C2 3070   0.301   3.373   9.294 -0.0297 -0.8040 -0.3936
  202MPD1    C3 3071   0.424   3.372   9.365  0.9808  0.3424 -0.3108
  202MPD1    C4 3072   0.511   3.273   9.340 -0.3708  0.1401  0.3892
  202MPD1    C5 3073   0.475   3.186   9.237  0.1921  0.4491  0.0009
  202MPD1     H 3074   0.221   3.445   9.307  1.1041  0.1602  1.2568
  202MPD1    H1 3075   0.611   3.272   9.383 -0.5338  1.0659  0.7905
  202MPD1    H2 3076   0.335   3.111   9.102  1.3189 -0.7349  0.4280
  202MPD1    H3 3077   0.549   3.114   9.205  0.7260  1.3467 -0.7795
  202MPD1     N 3078   0.457   3.473   9.459 -0.3267  0.4137 -0.2514
  202MPD1    H5 3079   0.552   3.472   9.496  0.2075 -0.2873 -1.6391
  202MPD1    N1 3080   0.135   3.262   9.149 -0.6497  0.5310 -0.2656
  202MPD1    H6 3081   0.111   3.165   9.130  2.2569  0.0806 -1.6987
  202MPD1    H7 3082   0.059   3.293   9.209  1.6534  3.5877  1.0809
  203MPD1     C 3083   4.206   0.227  12.525  0.1871 -0.0976  0.9379
  203MPD1    C1 3084   4.257   0.113  12.458 -0.2943  0.4478  0.3187
  203MPD1    C2 3085   4.362   0.049  12.517 -0.8938 -0.5484  0.6719
  203MPD1    C3 3086   4.411   0.081  12.637  0.1157  0.3979 -0.2392
  203MPD1    C4 3087   4.366   0.194  12.701 -0.5679 -1.1563 -0.8755
  203MPD1    C5 3088   4.257   0.261  12.640 -0.1355  0.3114  0.4817
  203MPD1     H 3089   4.396   4.683  12.470  0.3041 -0.9346  2.3154
  203MPD1    H1 3090   4.404   0.229  12.796 -1.2915 -0.5676 -0.8066
  203MPD1    H2 3091   4.129   0.285  12.475  0.3932 -0.9135 -0.3217
  203MPD1    H3 3092   4.223   0.348  12.694  1.7329  2.1739 -1.3416
  203MPD1     N 3093   4.511   4.720  12.687  0.1575 -0.0825 -0.4552
  203MPD1    H5 3094   4.511   4.627  12.646 -1.5164 -0.2209 -0.1465
  203MPD1    N1 3095   4.191   0.060  12.342 -0.2067  0.2307 -0.0607
  203MPD1    H6 3096   4.249   4.726  12.284  0.7724  0.2186  0.9427
  203MPD1    H7 3097   4.153   0.133  12.282  1.0531  0.9617  0.0503
  204MPD1     C 3098   3.401   0.773   0.074  0.2667  0.2881 -0.4037
  204MPD1    C1 3099   3.424   0.750  17.652  0.3416 -0.8649 -0.1906
  204MPD1    C2 3100   3.560   0.739  17.628 -0.3630  0.5169  0.0304
  204MPD1    C3 3101   3.655   0.733   0.018  0.7754 -0.5171  0.7141
  204MPD1    C4 3102   3.627   0.753   0.151 -0.3329  0.0747  0.1373
  204MPD1    C5 3103   3.498   0.774   0.174  0.0616  0.0236 -0.2401
  204MPD1     H 3104   3.590   0.711  17.527  0.5857 -0.8048  0.6785
  204MPD1    H1 3105   3.698   0.749   0.233  0.0854 -0.1177 -0.2299
  204MPD1    H2 3106   3.299   0.794   0.105 -0.0877 -0.5005 -1.0323
  204MPD1    H3 3107   3.461   0.781   0.276  2.8284  0.9201  0.7258
  204MPD1     N 3108   3.781   0.684  17.685  0.2958 -0.0431  0.3817
  204MPD1    H5 3109   3.787   0.648  17.590 -2.3468  0.4810  0.0313
  204MPD1    N1 3110   3.322   0.723  17.562 -0.4147 -0.4648  0.6254
  204MPD1    H6 3111   3.231   0.756  17.593 -1.8577 -1.0539 -2.9800
  204MPD1    H7 3112   3.340   0.754  17.467 -1.5625  0.3600  0.6694
  205MPD1     C 3113   4.548   4.199  16.630 -0.5362 -0.3966 -0.2201
  205MPD1    C1 3114   4.531   4.320  16.682  0.9383 -0.1587 -0.8651
  205MPD1    C2 3115   4.496   4.326  16.817 -0.4994 -0.6547 -0.7220
  205MPD1    C3 3116   4.513   4.224  16.906  0.4685 -0.1540  0.1130
  205MPD1    C4 3117   4.549   4.104  16.846 -0.0264 -0.6841 -0.1267
  205MPD1    C5 3118   4.546   4.091  16.710 -0.4457  0.6652 -0.1209
  205MPD1     H 3119   4.485   4.428  16.852  1.7226 -0.3613 -0.9113
  205MPD1    H1 3120   4.545   4.010  16.899  0.2083 -1.2407 -1.1103
  205MPD1    H2 3121   4.546   4.167  16.526  0.5432  0.5350 -0.5274
  205MPD1    H3 3122   4.547   3.990  16.671 -0.3201  1.2582 -1.6303
  205MPD1     N 3123   4.472   4.227  17.044  0.0446 -0.2727 -0.5039
  205MPD1    H5 3124   4.472   4.141  17.098 -2.9275  0.8186  1.2107
  205MPD1    N1 3125   4.511   4.430  16.601 -0.1415 -0.2683 -0.3489
  205MPD1    H6 3126   4.524   4.514  16.657 -0.1939 -0.2206 -0.4076
  205MPD1    H7 3127   4.574   4.429  16.521 -0.2651 -1.1691 -0.4326
  206MPD1     C 3128   0.024   3.046  16.657 -0.5684 -0.6523 -0.0033
  206MPD1    C1 3129   4.626   3.096  16.638 -0.6940 -1.0146  0.3832
  206MPD1    C2 3130   4.560   3.088  16.515  0.3889  0.4250 -0.2677
  206MPD1    C3 3131   4.618   3.010  16.415  0.6100  0.7660 -0.0633
  206MPD1    C4 3132   0.006   2.944  16.437  0.4242  0.6324 -0.0507
  206MPD1    C5 3133   0.076   2.962  16.558  0.4087  0.1041 -0.0868
  206MPD1     H 3134   4.463   3.129  16.489 -0.0838  1.1522  2.6805
  206MPD1    H1 3135   0.046   2.877  16.362  1.2093 -0.1283  1.0463
  206MPD1    H2 3136   0.073   3.067  16.751 -2.5454 -0.0651  0.8904
  206MPD1    H3 3137   0.173   2.914  16.574 -0.0329 -0.0744  2.1124
  206MPD1     N 3138   4.547   2.978  16.296  0.5484  0.3677  0.5449
  206MPD1    H5 3139   4.585   2.911  16.230  0.3849 -0.5355  1.3801
  206MPD1    N1 3140   4.566   3.180  16.736  0.5375  1.1169  0.0433
  206MPD1    H6 3141   4.467   3.184  16.713  0.7170 -2.3077 -1.4509
  206MPD1    H7 3142   4.594   3.156  16.831 -0.6246 -0.1257  0.0804
  207MPD1     C 3143   1.979   0.565   9.490  0.1711 -0.7083 -0.2552
  207MPD1    C1 3144   1.906   0.481   9.570  0.6500 -0.0818  0.2775
  207MPD1    C2 3145   1.938   0.487   9.700 -0.2340  0.0706 -0.7500
  207MPD1    C3 3146   2.053   0.545   9.742  0.6204 -0.4388 -0.2743
  207MPD1    C4 3147   2.132   0.627   9.662 -0.0439 -0.8362 -0.2676
  207MPD1    C5 3148   2.090   0.635   9.530 -0.0661 -0.5282  0.2408
  207MPD1     H 3149   1.876   0.423   9.762  0.9659 -1.2128 -0.8866
  207MPD1    H1 3150   2.223   0.673   9.698 -0.8762  0.5477  0.0395
  207MPD1    H2 3151   1.943   0.593   9.391 -0.6513 -1.2603 -0.1164
  207MPD1    H3 3152   2.139   0.696   9.455 -0.2443  0.4637  0.9265
  207MPD1     N 3153   2.101   0.528   9.875  0.3079  0.0771 -0.1493
  207MPD1    H5 3154   2.190   0.573   9.894 -0.6385  1.3798  1.2322
  207MPD1    N1 3155   1.779   0.433   9.526 -0.5740  0.8010  0.6229
  207MPD1    H6 3156   1.782   0.415   9.426  0.2369  4.5791 -0.0305
  207MPD1    H7 3157   1.737   0.353   9.573  0.2165 -1.0854 -1.8522
  208MPD1     C 3158   0.269   4.125   0.727 -0.5242  0.5892  0.6287
  208MPD1    C1 3159   0.158   4.187   0.777  0.0036  0.1865 -0.2883
  208MPD1    C2 3160   0.032   4.120   0.762 -0.1678 -0.6266  0.0362
  208MPD1    C3 3161   0.015   3.999   0.693 -0.4066  0.0420 -0.3055
  208MPD1    C4 3162   0.135   3.930   0.655 -0.7129 -0.7348  0.0807
  208MPD1    C5 3163   0.253   4.001   0.667 -0.3904  0.1649 -0.7455
  208MPD1     H 3164   4.666   4.169   0.792  1.1323  0.8923  1.5813
  208MPD1    H1 3165   0.136   3.843   0.590  3.5047  0.1954 -1.0636
  208MPD1    H2 3166   0.370   4.160   0.748 -0.1344 -0.9404  1.3544
  208MPD1    H3 3167   0.343   3.960   0.622  1.5262  1.2534  2.0323
  208MPD1     N 3168   4.610   3.939   0.676  0.5961 -0.1332  0.0206
  208MPD1    H5 3169   4.538   4.006   0.702 -0.6205 -1.3748 -0.1596
  208MPD1    N1 3170   0.173   4.326   0.824 -0.8544  0.2437 -0.4323
  208MPD1    H6 3171   0.267   4.362   0.839 -0.5841 -0.8992  0.6340
  208MPD1    H7 3172   0.134   4.347   0.916 -2.3619 -1.3405 -0.6935
  209MPD1     C 3173   1.699   4.406  11.488 -0.2373 -0.6504  0.1077
  209MPD1    C1 3174   1.706   4.416  11.349  0.3203  0.0589  0.4344
  209MPD1    C2 3175   1.828   4.467  11.303 -1.0240  0.3147  0.1920
  209MPD1    C3 3176   1.921   4.528  11.377  0.4274  0.3502 -0.9148
  209MPD1    C4 3177   1.897   4.530  11.511 -0.5448 -0.6248  0.0871
  209MPD1    C5 3178   1.791   4.462  11.565  0.2574  0.1230 -0.2929
  209MPD1     H 3179   1.845   4.466  11.196 -1.2720 -2.3182  0.1560
  209MPD1    H1 3180   1.967   4.576  11.580 -1.2204  2.0036 -0.9706
  209MPD1    H2 3181   1.617   4.356  11.537 -1.9014  2.5836  0.6098
  209MPD1    H3 3182   1.777   4.457  11.673 -1.3353  0.4052 -0.4990
  209MPD1     N 3183   2.032   4.596  11.319  0.2156  0.3606  0.1354
  209MPD1    H5 3184   2.035   4.591  11.217  0.1206  0.9201  0.1007
  209MPD1    N1 3185   1.608   4.361  11.270  0.4123  0.0752 -0.2824
  209MPD1    H6 3186   1.517   4.369  11.315 -0.3768 -0.5413 -1.7539
  209MPD1    H7 3187   1.596   4.420  11.187  0.8481 -1.3018 -1.3187
  210MPD1     C 3188   3.053   0.159  11.215 -0.4482 -0.0040  0.1504
  210MPD1    C1 3189   2.990   0.072  11.298 -0.1969  0.3279  0.2800
  210MPD1    C2 3190   2.851   0.072  11.297 -0.0885 -0.6697 -0.2287
  210MPD1    C3 3191   2.777   0.159  11.207  0.3075  0.8315 -0.0673
  210MPD1    C4 3192   2.848   0.248  11.126 -0.9511  0.5159 -0.3605
  210MPD1    C5 3193   2.983   0.246  11.135 -0.0724  0.0020  0.6606
  210MPD1     H 3194   2.800   0.011  11.371  0.4406  0.0034  0.6899
  210MPD1    H1 3195   2.800   0.301  11.044 -0.3389  1.4020 -0.1392
  210MPD1    H2 3196   3.161   0.159  11.215 -0.4530 -1.2935  0.9452
  210MPD1    H3 3197   3.043   0.309  11.070 -1.4932 -1.3946 -1.9825
  210MPD1     N 3198   2.633   0.158  11.187  0.2603  0.3657 -0.0637
  210MPD1    H5 3199   2.598   0.200  11.102  0.6151  1.2880  0.2356
  210MPD1    N1 3200   3.060   0.009  11.403  0.4896  0.2748  0.0180
  210MPD1    H6 3201   3.011   4.661  11.453  2.4393 -1.3618 -0.5174
  210MPD1    H7 3202   3.150   4.702  11.370  0.3639 -3.1372  3.1037
  211MPD1     C 3203   4.547   4.107  15.869  0.5730 -0.5278  0.0156
  211MPD1    C1 3204   4.468   4.215  15.835  0.4154 -0.5384 -0.0067
  211MPD1    C2 3205   4.359   4.235  15.917  0.2661  0.1602 -0.1082
  211MPD1    C3 3206   4.352   4.176  16.042  0.3658 -0.1991  0.1961
  211MPD1    C4 3207   4.449   4.091  16.084 -0.1085  0.1417  0.3857
  211MPD1    C5 3208   4.550   4.055  15.994 -0.2394  0.6309 -0.7684
  211MPD1     H 3209   4.287   4.310  15.886 -0.4873 -0.2571  0.6401
  211MPD1    H1 3210   4.440   4.027  16.172 -0.4609 -1.3381 -0.7270
  211MPD1    H2 3211   4.618   4.065  15.799  0.8434 -0.3020  0.1551
  211MPD1    H3 3212   4.628   3.984  16.020 -0.9653 -0.0625 -0.4689
  211MPD1     N 3213   4.240   4.211  16.117  0.5602 -0.1020  0.8402
  211MPD1    H5 3214   4.166   4.270  16.080  1.0233 -1.2812 -1.9791
  211MPD1    N1 3215   4.487   4.270  15.709 -0.1983  0.0757 -0.0936
  211MPD1    H6 3216   4.451   4.363  15.690  0.8629  1.0207  2.6478
  211MPD1    H7 3217   4.585   4.279  15.685 -0.1329 -0.9692 -0.2281
  212MPD1     C 3218   3.883   2.811  16.173  0.4416 -0.4841 -0.2896
  212MPD1    C1 3219   3.812   2.905  16.246 -0.3492  0.1888  0.2991
  212MPD1    C2 3220   3.755   2.870  16.364  0.0001  0.2197  0.0642
  212MPD1    C3 3221   3.764   2.744  16.416  0.0552  0.3841  0.3919
  212MPD1    C4 3222   3.843   2.650  16.348 -0.4260 -0.2226 -0.1349
  212MPD1    C5 3223   3.892   2.681  16.228 -0.9472  0.1878  0.1309
  212MPD1     H 3224   3.686   2.947  16.398 -0.1175 -0.0960  0.5381
  212MPD1    H1 3225   3.833   2.546  16.376  0.2208 -0.7328 -1.7662
  212MPD1    H2 3226   3.929   2.832  16.078  1.6851  0.2762  0.4776
  212MPD1    H3 3227   3.934   2.599  16.171 -0.5776  1.7450 -1.8067
  212MPD1     N 3228   3.693   2.695  16.527  0.0828 -0.3681 -0.0610
  212MPD1    H5 3229   3.719   2.600  16.553  1.9466  0.8568  2.4086
  212MPD1    N1 3230   3.782   3.025  16.182  0.0023  0.2278  0.4570
  212MPD1    H6 3231   3.860   3.062  16.128 -1.5812  1.3586 -1.0902
  212MPD1    H7 3232   3.756   3.088  16.258 -0.9348 -0.9908  1.1494
  213MPD1     C 3233   2.261   3.824  15.822  0.3839 -0.1321 -0.0405
  213MPD1    C1 3234   2.126   3.792  15.808 -0.5181 -0.7550 -0.1441
  213MPD1    C2 3235   2.057   3.881  15.720  0.8244  0.0650 -0.6825
  213MPD1    C3 3236   2.123   3.967  15.639 -0.0628 -0.3137 -0.0111
  213MPD1    C4 3237   2.260   3.970  15.645 -0.4817 -0.1999  0.6626
  213MPD1    C5 3238   2.327   3.900  15.733  0.1530 -0.1545 -1.0392
  213MPD1     H 3239   1.950   3.877  15.703  0.3678  0.6210  1.9837
  213MPD1    H1 3240   2.311   4.039  15.579 -2.2327 -0.1097 -0.6020
  213MPD1    H2 3241   2.315   3.771  15.899 -0.3966 -2.3746 -1.0258
  213MPD1    H3 3242   2.436   3.895  15.739  0.0991  0.0245  0.0548
  213MPD1     N 3243   2.042   4.029  15.542 -0.3347 -0.3464 -0.5239
  213MPD1    H5 3244   1.948   3.992  15.537 -0.4450 -0.0701 -0.4482
  213MPD1    N1 3245   2.057   3.737  15.913  0.1141  0.0804 -0.1226
  213MPD1    H6 3246   1.967   3.692  15.896  0.4803 -0.5018 -0.5374
  213MPD1    H7 3247   2.119   3.669  15.957  1.5212  0.3730 -1.7013
  214MPD1     C 3248   1.553   3.530  14.813 -0.0023 -0.9198  0.0673
  214MPD1    C1 3249   1.509   3.572  14.936  0.3687  0.4680  0.5542
  214MPD1    C2 3250   1.586   3.666  14.998 -0.1103  0.4026 -0.8224
  214MPD1    C3 3251   1.698   3.723  14.942  0.0441 -0.7063 -0.0692
  214MPD1    C4 3252   1.724   3.698  14.812 -0.3953  0.2952  0.5767
  214MPD1    C5 3253   1.652   3.600  14.747  0.2617  0.2487 -1.1072
  214MPD1     H 3254   1.561   3.704  15.096 -2.9881 -1.1301 -0.9435
  214MPD1    H1 3255   1.818   3.737  14.774 -0.1563 -0.5347  0.3174
  214MPD1    H2 3256   1.500   3.457  14.752 -0.4573  0.8446 -1.6339
  214MPD1    H3 3257   1.670   3.577  14.642 -1.0008  2.4665 -1.7933
  214MPD1     N 3258   1.777   3.815  15.008  0.1455 -0.2418 -0.1256
  214MPD1    H5 3259   1.864   3.849  14.968  1.4678 -1.6014  1.5449
  214MPD1    N1 3260   1.410   3.505  15.005 -0.0829 -0.4114 -0.1807
  214MPD1    H6 3261   1.342   3.468  14.939  0.1635  1.0049 -1.2291
  214MPD1    H7 3262   1.359   3.568  15.068 -0.3041 -2.2101  1.4506
  215MPD1     C 3263   1.084   4.547  11.362 -0.2630  0.2005  0.0719
  215MPD1    C1 3264   1.088   4.626  11.480 -0.7631  0.2686  0.3380
  215MPD1    C2 3265   1.208   4.687  11.523  0.5019  0.0783  0.6090
  215MPD1    C3 3266   1.321   4.692  11.446 -0.8526  0.3501  0.3905
  215MPD1    C4 3267   1.318   4.621  11.330 -0.9963 -0.4328  0.2345
  215MPD1    C5 3268   1.207   4.540  11.301 -0.3825 -0.3040 -0.5581
  215MPD1     H 3269   1.195   0.012  11.618 -0.8944 -0.0795  0.5135
  215MPD1    H1 3270   1.400   4.619  11.259 -0.7360  1.7695  0.4900
  215MPD1    H2 3271   0.997   4.490  11.334  0.0774 -0.0661 -0.4531
  215MPD1    H3 3272   1.206   4.486  11.207  0.4616  1.2958 -1.4976
  215MPD1     N 3273   1.440   0.028  11.495 -0.1429 -0.4605 -0.3879
  215MPD1    H5 3274   1.434   0.065  11.590 -1.0309 -2.6034  0.3805
  215MPD1    N1 3275   0.980   4.612  11.572  0.5280  0.2964 -0.0779
  215MPD1    H6 3276   0.898   4.613  11.512 -1.3235 -1.1696  2.4296
  215MPD1    H7 3277   0.979   4.704  11.614  1.4143  0.3222 -0.1069
  216MPD1     C 3278   3.946   0.759  16.341  0.4004  0.1503 -0.7443
  216MPD1    C1 3279   3.965   0.754  16.479 -0.2672 -0.2979 -0.1688
  216MPD1    C2 3280   3.952   0.872  16.542 -0.1438  0.4019  0.3556
  216MPD1    C3 3281   3.907   0.985  16.478  0.1068 -0.1696  0.5386
  216MPD1    C4 3282   3.884   0.986  16.345  0.2839 -0.0664 -0.8114
  216MPD1    C5 3283   3.907   0.870  16.278 -0.4207 -0.4416  0.8072
  216MPD1     H 3284   3.978   0.874  16.647 -1.0133  0.5951  0.5709
  216MPD1    H1 3285   3.849   1.070  16.287  0.6792  1.7452  1.5746
  216MPD1    H2 3286   3.967   0.674  16.277  1.7464 -0.8035  0.9527
  216MPD1    H3 3287   3.891   0.862  16.171 -1.4254 -0.2947  0.9445
  216MPD1     N 3288   3.900   1.098  16.559  0.3619  0.0247 -0.0757
  216MPD1    H5 3289   3.945   1.084  16.649  0.9270 -3.2227 -0.8836
  216MPD1    N1 3290   4.000   0.635  16.541 -0.4545 -0.4091 -0.0790
  216MPD1    H6 3291   3.949   0.628  16.629  0.6404 -2.0423  0.4275
  216MPD1    H7 3292   3.976   0.555  16.482 -1.0383  0.2290 -0.7109
  217MPD1     C 3293   3.633   4.513   9.048 -0.1523 -0.3297  0.5678
  217MPD1    C1 3294   3.682   4.400   8.994  0.1579 -0.0268  0.0737
  217MPD1    C2 3295   3.701   4.292   9.071 -0.1883  0.3395 -0.3164
  217MPD1    C3 3296   3.687   4.302   9.209  0.7532  0.4133  0.3771
  217MPD1    C4 3297   3.626   4.411   9.259  0.2296 -0.1354  0.0263
  217MPD1    C5 3298   3.604   4.520   9.182 -0.1205 -0.0060  0.1613
  217MPD1     H 3299   3.749   4.208   9.022 -2.3723 -1.2290  0.2080
  217MPD1    H1 3300   3.595   4.410   9.363  0.1833  0.9646  0.0217
  217MPD1    H2 3301   3.607   4.591   8.976 -0.4896 -0.9971 -0.0358
  217MPD1    H3 3302   3.557   4.606   9.229  1.7203  1.4496 -0.6985
  217MPD1     N 3303   3.721   4.195   9.299 -0.0215  0.2664  0.0801
  217MPD1    H5 3304   3.710   4.211   9.398  0.7460  1.0012  0.0494
  217MPD1    N1 3305   3.697   4.390   8.853 -0.0900 -0.7878  0.3324
  217MPD1    H6 3306   3.762   4.324   8.811  1.1768 -0.8488  2.3722
  217MPD1    H7 3307   3.713   4.477   8.802 -0.5898 -0.8732  0.0287
  218MPD1     C 3308   1.234   0.805  13.402  0.6005 -0.2026  0.6083
  218MPD1    C1 3309   1.370   0.833  13.399 -0.4620 -1.0636 -0.1393
  218MPD1    C2 3310   1.450   0.753  13.322 -0.8898 -0.6762  0.9167
  218MPD1    C3 3311   1.387   0.670  13.227 -0.3282  0.6752  0.3335
  218MPD1    C4 3312   1.254   0.650  13.215  0.4632  0.1448  0.6837
  218MPD1    C5 3313   1.179   0.728  13.312  0.4286 -0.2039  0.1314
  218MPD1     H 3314   1.557   0.763  13.335 -0.6485  0.0888 -1.5560
  218MPD1    H1 3315   1.203   0.577  13.153  0.2584 -0.1575  1.2073
  218MPD1    H2 3316   1.162   0.850  13.469  1.1379  1.9160 -0.2438
  218MPD1    H3 3317   1.071   0.730  13.320  0.3637 -0.4665 -0.6463
  218MPD1     N 3318   1.475   0.585  13.151  0.0225  0.5240  0.3687
  218MPD1    H5 3319   1.567   0.571  13.192  0.5200 -1.7363 -1.5389
  218MPD1    N1 3320   1.436   0.897  13.504  0.0237  0.1218  0.5486
  218MPD1    H6 3321   1.381   0.972  13.546  0.3055 -0.5640  2.1448
  218MPD1    H7 3322   1.527   0.934  13.478 -0.8148 -0.5412 -3.3015
  219MPD1     C 3323   1.392   0.144  12.245 -0.3152 -0.4464 -0.2013
  219MPD1    C1 3324   1.526   0.165  12.239  0.1169 -0.6205  0.1423
  219MPD1    C2 3325   1.585   0.240  12.345 -0.4346  0.4505 -0.9247
  219MPD1    C3 3326   1.506   0.286  12.450  0.3922 -0.0884  0.2305
  219MPD1    C4 3327   1.370   0.253  12.457  0.9405 -0.0146 -0.0218
  219MPD1    C5 3328   1.308   0.181  12.355 -0.8598 -0.2733  0.0690
  219MPD1     H 3329   1.691   0.255  12.335 -0.3340  0.3886  0.0684
  219MPD1    H1 3330   1.298   0.286  12.531 -0.3109 -0.5979 -0.9820
  219MPD1    H2 3331   1.341   0.096  12.162 -3.4501  2.0691  0.2654
  219MPD1    H3 3332   1.200   0.167  12.353 -0.7157 -1.4606  0.5264
  219MPD1     N 3333   1.546   0.350  12.568  0.5908  0.0673 -0.5624
  219MPD1    H5 3334   1.473   0.382  12.631 -1.2190 -2.1911 -1.5195
  219MPD1    N1 3335   1.604   0.094  12.145  0.4381 -0.0672 -0.1391
  219MPD1    H6 3336   1.543   0.064  12.069 -0.6188  0.1195  0.6278
  219MPD1    H7 3337   1.678   0.158  12.117  0.3322 -0.9096 -2.3545
  220MPD1     C 3338   1.969   0.888   9.904  0.1341 -0.2957 -0.4483
  220MPD1    C1 3339   2.019   0.917  10.029 -0.4077  0.3630 -0.4689
  220MPD1    C2 3340   1.986   0.835  10.135  0.1258  0.0018 -0.8472
  220MPD1    C3 3341   1.883   0.738  10.125 -0.3514  0.1299 -0.0206
  220MPD1    C4 3342   1.818   0.714   9.997  0.2895 -0.6957 -1.0105
  220MPD1    C5 3343   1.867   0.794   9.890 -0.4430  0.0915  0.8256
  220MPD1     H 3344   2.032   0.843  10.233 -0.4879 -0.3197 -0.5338
  220MPD1    H1 3345   1.741   0.641   9.975  0.6146 -1.0966 -0.8406
  220MPD1    H2 3346   2.000   0.936   9.812  0.0311 -1.7321 -1.2382
  220MPD1    H3 3347   1.833   0.774   9.789 -2.3135 -1.2020  1.7303
  220MPD1     N 3348   1.860   0.662  10.240 -0.7747  0.2307 -0.0097
  220MPD1    H5 3349   1.922   0.691  10.315  0.4427 -0.5611 -0.7228
  220MPD1    N1 3350   2.138   0.989  10.036 -0.0077  0.4316  0.3344
  220MPD1    H6 3351   2.162   1.014  10.132 -1.7653  1.1038  0.6109
  220MPD1    H7 3352   2.133   1.067   9.971  0.2067 -1.5704 -2.0744
  221MPD1     C 3353   3.755   4.323  16.033 -0.8732 -0.4141  0.2740
  221MPD1    C1 3354   3.772   4.217  16.122  0.2387  0.2449 -0.1559
  221MPD1    C2 3355   3.860   4.115  16.084 -0.2021 -0.1181 -0.1134
  221MPD1    C3 3356   3.925   4.119  15.959  0.4632  0.3017 -0.2286
  221MPD1    C4 3357   3.905   4.227  15.872  0.6961  0.6059  0.0015
  221MPD1    C5 3358   3.828   4.329  15.914  0.3841  0.0674  0.2577
  221MPD1     H 3359   3.871   4.022  16.138  0.3065 -0.6298 -1.0888
  221MPD1    H1 3360   3.953   4.229  15.775  0.9225 -0.3722  0.0854
  221MPD1    H2 3361   3.684   4.401  16.057 -0.5731 -0.0287 -0.0853
  221MPD1    H3 3362   3.815   4.408  15.841  0.5764 -0.7690 -0.6812
  221MPD1     N 3363   4.004   4.016  15.911 -0.3140  0.2239 -0.4346
  221MPD1    H5 3364   4.014   4.021  15.810  2.8393 -0.9849 -0.1780
  221MPD1    N1 3365   3.702   4.212  16.246  0.0898 -0.9503 -0.1608
  221MPD1    H6 3366   3.759   4.190  16.328  2.2003 -0.4044 -1.4761
  221MPD1    H7 3367   3.640   4.292  16.256 -1.1284 -2.2242  2.2671
  222MPD1     C 3368   3.991   2.546  16.842  0.1434  0.7113  0.3472
  222MPD1    C1 3369   3.905   2.590  16.935 -0.3087  0.0095 -0.5764
  222MPD1    C2 3370   3.852   2.720  16.918 -0.7766  0.1164 -0.4325
  222MPD1    C3 3371   3.893   2.796  16.807 -0.2871  0.5287 -0.5179
  222MPD1    C4 3372   3.964   2.739  16.704 -0.1697  1.0295  0.0059
  222MPD1    C5 3373   4.026   2.621  16.734  0.1635 -0.0433  0.1561
  222MPD1     H 3374   3.781   2.756  16.992 -1.5803  1.2515 -1.7430
  222MPD1    H1 3375   4.012   2.784  16.618 -1.4137 -0.4347 -1.4586
  222MPD1    H2 3376   4.034   2.447  16.846  1.2326  1.1548 -0.2958
  222MPD1    H3 3377   4.101   2.581  16.666  0.5843  0.6706  0.2047
  222MPD1     N 3378   3.845   2.929  16.786 -0.0626 -0.3768  0.0993
  222MPD1    H5 3379   3.861   2.972  16.695 -0.9693  1.4784  0.8259
  222MPD1    N1 3380   3.875   2.523  17.054  0.4609 -0.4639  0.2683
  222MPD1    H6 3381   3.881   2.422  17.041 -0.7498 -0.2537 -1.9937
  222MPD1    H7 3382   3.789   2.556  17.098 -0.9674 -0.0717 -2.7676
  223MPD1     C 3383   4.012   3.618  16.211 -0.0391  0.2563 -0.6172
  223MPD1    C1 3384   3.978   3.699  16.317 -0.3647  0.0386  0.4178
  223MPD1    C2 3385   3.909   3.638  16.417  0.3628 -0.2337 -0.1283
  223MPD1    C3 3386   3.869   3.511  16.408  0.0052  0.1148  0.2935
  223MPD1    C4 3387   3.884   3.434  16.291  0.1523 -0.3045 -0.0400
  223MPD1    C5 3388   3.959   3.494  16.198  0.0622  0.4902  0.1827
  223MPD1     H 3389   3.886   3.695  16.507 -1.9598 -0.0910 -0.8368
  223MPD1    H1 3390   3.873   3.327  16.282 -1.7962 -0.0267 -0.9968
  223MPD1    H2 3391   4.077   3.655  16.133  0.5030 -0.0555 -0.3130
  223MPD1    H3 3392   3.987   3.443  16.106 -2.7029  0.2195 -0.4911
  223MPD1     N 3393   3.816   3.458  16.524  0.0463 -0.3974  0.2263
  223MPD1    H5 3394   3.804   3.515  16.608 -0.4050 -2.8495  1.8278
  223MPD1    N1 3395   4.036   3.822  16.338 -0.2844  0.2891 -0.4518
  223MPD1    H6 3396   3.977   3.893  16.380  0.9066 -0.1408  1.9469
  223MPD1    H7 3397   4.051   3.867  16.248  1.3221 -1.0562 -0.8658
  224MPD1     C 3398   4.124   4.139   9.067 -0.0913  0.1478  0.1471
  224MPD1    C1 3399   4.063   4.233   9.150  0.7474  0.2195 -0.8922
  224MPD1    C2 3400   4.081   4.217   9.285 -0.1268 -1.0005  0.2059
  224MPD1    C3 3401   4.169   4.128   9.339 -0.0251 -0.4003  0.0511
  224MPD1    C4 3402   4.217   4.034   9.251  0.4568 -0.8210 -0.4122
  224MPD1    C5 3403   4.189   4.035   9.117 -0.1652  0.5034  0.2338
  224MPD1     H 3404   4.039   4.293   9.350 -0.7392 -0.6174 -0.6524
  224MPD1    H1 3405   4.286   3.962   9.293 -0.9960 -1.6547  0.5082
  224MPD1    H2 3406   4.120   4.149   8.959 -0.1347  1.6596  0.2812
  224MPD1    H3 3407   4.221   3.955   9.052 -0.6767  0.1155  0.4646
  224MPD1     N 3408   4.215   4.132   9.474 -0.0549 -0.4414  0.4383
  224MPD1    H5 3409   4.288   4.064   9.493  0.4712  0.1328  0.4649
  224MPD1    N1 3410   4.011   4.352   9.098  0.4867 -0.5669  0.1566
  224MPD1    H6 3411   3.971   4.327   9.008  0.4264  2.6143 -0.7284
  224MPD1    H7 3412   3.933   4.382   9.156 -0.9075 -0.9524 -1.4886
  225MPD1     C 3413   2.037   1.047  12.509 -0.2497 -0.0618  0.1685
  225MPD1    C1 3414   1.991   0.972  12.401  0.4508 -0.2102  0.8507
  225MPD1    C2 3415   1.872   1.008  12.337  0.1775 -0.8084  0.6976
  225MPD1    C3 3416   1.792   1.120  12.370  0.1375 -0.1272  0.0870
  225MPD1    C4 3417   1.846   1.194  12.478  0.0941  0.1507  0.0873
  225MPD1    C5 3418   1.961   1.155  12.542 -0.9185  0.5722  0.4065
  225MPD1     H 3419   1.833   0.928  12.273 -0.3694 -0.2045  0.2743
  225MPD1    H1 3420   1.791   1.282  12.509  0.5531  0.2860  0.5138
  225MPD1    H2 3421   2.131   1.019  12.556 -0.2679 -0.8713 -0.2610
  225MPD1    H3 3422   1.983   1.221  12.625 -0.7818 -2.2475  2.6274
  225MPD1     N 3423   1.667   1.157  12.309  0.3445 -0.4644 -0.1236
  225MPD1    H5 3424   1.616   1.233  12.354  1.6619 -0.8339  2.0142
  225MPD1    N1 3425   2.073   0.873  12.346  0.2834  0.3148  0.1849
  225MPD1    H6 3426   2.023   0.807  12.286  1.4121 -0.6427  0.2862
  225MPD1    H7 3427   2.134   0.824  12.411 -0.7147  0.3733  1.1658
  226MPD1     C 3428   4.013   0.935   8.757  0.4198 -0.2670 -0.3879
  226MPD1    C1 3429   3.888   0.920   8.712 -0.2079 -0.6415 -0.3425
  226MPD1    C2 3430   3.808   0.827   8.768  0.2759  0.7225 -0.6220
  226MPD1    C3 3431   3.852   0.738   8.866  0.3161 -0.3847  0.4109
  226MPD1    C4 3432   3.982   0.753   8.902 -0.4650 -0.0564 -0.2924
  226MPD1    C5 3433   4.062   0.853   8.851 -0.2252  0.0715  0.6478
  226MPD1     H 3434   3.706   0.822   8.732 -0.2689 -3.6444  1.5514
  226MPD1    H1 3435   4.028   0.699   8.984  0.7663  0.4994 -0.6208
  226MPD1    H2 3436   4.081   1.013   8.724  0.9308  0.9660  3.6384
  226MPD1    H3 3437   4.158   0.873   8.898  0.0559  1.5880 -0.6104
  226MPD1     N 3438   3.763   0.649   8.931  0.0240  0.7913 -0.5044
  226MPD1    H5 3439   3.664   0.654   8.910 -0.7454  1.0558  3.2144
  226MPD1    N1 3440   3.849   0.992   8.596 -0.6153  0.2681 -0.2692
  226MPD1    H6 3441   3.749   1.010   8.591 -0.7878 -0.5182  0.2665
  226MPD1    H7 3442   3.900   1.080   8.593 -1.0012  0.4730 -0.7586
  227MPD1     C 3443   2.855   0.653   9.299  0.7837 -0.1176 -0.3446
  227MPD1    C1 3444   2.866   0.527   9.250  0.1899  0.0115 -0.6230
  227MPD1    C2 3445   2.987   0.490   9.201  0.5542  0.7002 -0.4053
  227MPD1    C3 3446   3.097   0.577   9.208  0.8442 -0.0380 -0.6154
  227MPD1    C4 3447   3.084   0.707   9.265 -0.5608  0.3838  0.7935
  227MPD1    C5 3448   2.962   0.734   9.310  0.1249 -0.0765  0.0358
  227MPD1     H 3449   3.005   0.396   9.150 -0.1566  0.0853  0.4626
  227MPD1    H1 3450   3.169   0.770   9.289  1.3502 -2.1373  0.5802
  227MPD1    H2 3451   2.754   0.693   9.310  0.4901 -0.0670 -3.3212
  227MPD1    H3 3452   2.950   0.839   9.334 -1.1889 -0.7306  2.1824
  227MPD1     N 3453   3.216   0.520   9.165 -0.7803 -0.1186 -0.7103
  227MPD1    H5 3454   3.217   0.428   9.123 -1.3371  0.2458 -1.5149
  227MPD1    N1 3455   2.753   0.450   9.215 -0.2052 -0.3026 -0.6736
  227MPD1    H6 3456   2.672   0.464   9.276  0.4494 -0.7552  0.2885
  227MPD1    H7 3457   2.770   0.350   9.209 -1.7575 -0.6639  0.8453
  228MPD1     C 3458   3.010   3.091  12.907 -0.4180 -0.5098 -0.2932
  228MPD1    C1 3459   2.958   3.021  13.017  0.1962  0.4135  0.0880
  228MPD1    C2 3460   2.829   3.054  13.058 -0.1732  0.8456 -0.6896
  228MPD1    C3 3461   2.749   3.143  12.987 -0.2257 -0.1225  0.4910
  228MPD1    C4 3462   2.805   3.209  12.875 -0.0256 -0.3113 -0.0360
  228MPD1    C5 3463   2.932   3.179  12.834 -1.2593  0.9893  0.2012
  228MPD1     H 3464   2.795   3.029  13.158 -0.1125  2.1779 -0.3290
  228MPD1    H1 3465   2.755   3.285  12.817 -0.6752  0.1803  1.1650
  228MPD1    H2 3466   3.113   3.078  12.876 -0.4454 -2.1331  0.3116
  228MPD1    H3 3467   2.982   3.229  12.752  0.2300  1.9986  1.7089
  228MPD1     N 3468   2.631   3.187  13.048 -0.0062  0.3979 -0.0460
  228MPD1    H5 3469   2.608   3.148  13.138 -0.4601 -0.1355 -0.3906
  228MPD1    N1 3470   3.034   2.933  13.095 -0.2723 -0.8066  0.0293
  228MPD1    H6 3471   3.070   2.859  13.035 -1.1512 -0.9793 -0.2762
  228MPD1    H7 3472   2.967   2.889  13.158 -0.6210 -0.7257 -0.2845
  229MPD1     C 3473   3.386   2.127  13.822  0.2392 -0.3002 -0.1743
  229MPD1    C1 3474   3.309   2.188  13.918 -0.1007  0.0035  0.0591
  229MPD1    C2 3475   3.255   2.116  14.026 -0.3046  0.5372 -0.8817
  229MPD1    C3 3476   3.292   1.985  14.045 -0.3942 -0.1364  0.1065
  229MPD1    C4 3477   3.378   1.931  13.954 -1.0299 -0.1841  0.1139
  229MPD1    C5 3478   3.430   1.994  13.840  0.0843  0.4354  0.5249
  229MPD1     H 3479   3.193   2.173  14.094 -0.7115 -0.4565 -0.4083
  229MPD1    H1 3480   3.425   1.835  13.977  1.0142  0.9953  0.8866
  229MPD1    H2 3481   3.439   2.182  13.745 -0.4480 -1.1285 -1.2428
  229MPD1    H3 3482   3.501   1.947  13.773 -1.4705  1.4005 -1.8164
  229MPD1     N 3483   3.252   1.908  14.151  0.0426 -0.4687  0.4535
  229MPD1    H5 3484   3.288   1.813  14.149 -0.0359 -0.4167 -3.0003
  229MPD1    N1 3485   3.282   2.324  13.906 -0.1907  0.2586 -0.6239
  229MPD1    H6 3486   3.229   2.367  13.981 -0.7751 -1.4744 -0.0381
  229MPD1    H7 3487   3.367   2.379  13.894  2.7782 -3.8862  1.1837
  230MPD1     C 3488   2.690   2.165  14.966  0.4782  0.3385 -0.2480
  230MPD1    C1 3489   2.683   2.201  14.833 -0.3864 -0.2501 -0.2069
  230MPD1    C2 3490   2.770   2.134  14.746  0.7742  0.9037  0.1041
  230MPD1    C3 3491   2.855   2.039  14.796 -0.4641 -0.2234  0.2339
  230MPD1    C4 3492   2.861   2.007  14.928 -0.7729  0.3349 -0.5443
  230MPD1    C5 3493   2.776   2.068  15.010  0.2448  0.9242 -0.7554
  230MPD1     H 3494   2.783   2.158  14.640 -0.2608 -0.6196 -0.3576
  230MPD1    H1 3495   2.925   1.932  14.974 -1.9222 -0.9591 -1.0565
  230MPD1    H2 3496   2.614   2.195  15.036  1.0302 -0.1868  0.5733
  230MPD1    H3 3497   2.773   2.059  15.118 -1.4800 -4.2795 -1.2557
  230MPD1     N 3498   2.948   1.980  14.696  0.4738  0.0552 -0.4157
  230MPD1    H5 3499   2.947   2.029  14.607  0.7568 -0.2642 -0.5955
  230MPD1    N1 3500   2.603   2.312  14.797 -0.0353 -0.1908  0.3239
  230MPD1    H6 3501   2.558   2.305  14.706  2.3655  1.2855 -0.9754
  230MPD1    H7 3502   2.531   2.330  14.867  0.7521  3.1114  0.2776
  231MPD1     C 3503   1.156   3.695  15.646 -0.0187  0.2823 -0.5598
  231MPD1    C1 3504   1.116   3.706  15.514 -0.3012 -0.7521  0.2611
  231MPD1    C2 3505   1.177   3.805  15.440  0.1508 -0.5067  0.3632
  231MPD1    C3 3506   1.268   3.898  15.485  0.0786  0.3759  0.5227
  231MPD1    C4 3507   1.293   3.890  15.623 -0.6105 -0.1662 -0.5705
  231MPD1    C5 3508   1.239   3.788  15.701 -0.7158 -0.0550  0.2365
  231MPD1     H 3509   1.161   3.798  15.333 -0.4672  0.3471  0.3973
  231MPD1    H1 3510   1.363   3.957  15.670 -1.2428  0.4872 -0.5587
  231MPD1    H2 3511   1.105   3.623  15.710  2.8731  0.6472  2.1704
  231MPD1    H3 3512   1.246   3.790  15.809 -0.6329  0.3698  0.2228
  231MPD1     N 3513   1.325   3.994  15.396 -0.0797 -0.1752  0.0104
  231MPD1    H5 3514   1.298   4.004  15.299 -1.4172  0.8948  0.4852
  231MPD1    N1 3515   1.048   3.607  15.451  0.3938  0.1735  0.3362
  231MPD1    H6 3516   0.962   3.586  15.501  0.2215 -1.2668 -0.5931
  231MPD1    H7 3517   1.014   3.632  15.358  0.6775 -1.0314 -0.0800
  232MPD1     C 3518   2.497   1.420   0.767  0.0733  0.2093 -0.5059
  232MPD1    C1 3519   2.391   1.432   0.682 -0.5506 -0.4289  0.2005
  232MPD1    C2 3520   2.407   1.390   0.554 -0.9711 -0.2718 -1.0691
  232MPD1    C3 3521   2.521   1.328   0.509 -0.2750 -0.0774 -0.4295
  232MPD1    C4 3522   2.627   1.319   0.594  0.0930  0.4292 -0.3778
  232MPD1    C5 3523   2.614   1.370   0.720 -0.1615  0.1679  0.5256
  232MPD1     H 3524   2.325   1.408   0.487 -1.7801 -1.1698 -0.3236
  232MPD1    H1 3525   2.726   1.286   0.564  0.5036  0.6108  0.7835
  232MPD1    H2 3526   2.499   1.438   0.874  0.8197 -1.5087 -0.2258
  232MPD1    H3 3527   2.694   1.368   0.792  0.6431  0.6104 -0.3485
  232MPD1     N 3528   2.537   1.307   0.373  0.1439  0.2307  0.4303
  232MPD1    H5 3529   2.456   1.326   0.315  0.6270 -0.6762 -0.5578
  232MPD1    N1 3530   2.281   1.510   0.716  0.3717 -0.1729 -0.0292
  232MPD1    H6 3531   2.192   1.485   0.672  1.1670  1.3826 -2.5181
  232MPD1    H7 3532   2.275   1.518   0.818  0.3248 -1.8547  0.0934
  233MPD1     C 3533   3.026   0.803   1.414 -0.5646 -0.0513  0.2657
  233MPD1    C1 3534   2.961   0.746   1.524 -0.4577 -0.6263  0.4878
  233MPD1    C2 3535   3.013   0.632   1.586  0.0849 -0.6794  0.3689
  233MPD1    C3 3536   3.133   0.576   1.536  0.6129  0.0786  0.0797
  233MPD1    C4 3537   3.189   0.626   1.422 -0.3484  0.2976  0.4907
  233MPD1    C5 3538   3.139   0.738   1.363 -0.4125  0.0172  0.4989
  233MPD1     H 3539   2.964   0.597   1.677 -1.0770  2.0688  0.8075
  233MPD1    H1 3540   3.278   0.580   1.381 -0.2761  0.6410  0.2632
  233MPD1    H2 3541   2.996   0.895   1.365 -3.6210 -1.4387 -0.4517
  233MPD1    H3 3542   3.199   0.769   1.278  0.7337 -0.6624  1.0700
  233MPD1     N 3543   3.189   0.458   1.585 -0.2443 -0.2061  0.8978
  233MPD1    H5 3544   3.273   0.427   1.538 -1.1436 -2.7232  0.9307
  233MPD1    N1 3545   2.870   0.824   1.597 -0.1375  0.5397 -0.2499
  233MPD1    H6 3546   2.812   0.887   1.541  2.0392  1.7589 -1.1300
  233MPD1    H7 3547   2.802   0.766   1.645 -0.1977  1.4381  0.7604
  234MPD1     C 3548   0.517   2.723   9.759  0.3866 -0.3305 -0.3112
  234MPD1    C1 3549   0.529   2.839   9.839  0.3378  0.2068 -0.0907
  234MPD1    C2 3550   0.453   2.948   9.801  0.5024  0.3530 -0.4905
  234MPD1    C3 3551   0.373   2.953   9.692  0.6971  0.0223  0.1723
  234MPD1    C4 3552   0.366   2.841   9.618  0.4504 -0.3739 -1.2712
  234MPD1    C5 3553   0.442   2.732   9.648 -0.0786 -0.7478 -0.4898
  234MPD1     H 3554   0.480   3.041   9.849  1.7721  0.4595 -1.4123
  234MPD1    H1 3555   0.303   2.827   9.531 -0.1146  3.4461 -1.4815
  234MPD1    H2 3556   0.584   2.643   9.787  0.8540  0.5863  1.1748
  234MPD1    H3 3557   0.448   2.647   9.581  1.0210 -0.7689 -0.3559
  234MPD1     N 3558   0.302   3.065   9.660  0.5254 -0.5121 -0.7725
  234MPD1    H5 3559   0.307   3.138   9.730  0.3526 -1.9632  0.7532
  234MPD1    N1 3560   0.621   2.851   9.940  0.0998 -0.0214 -0.3554
  234MPD1    H6 3561   0.589   2.923  10.005 -0.2660 -0.7486  0.2802
  234MPD1    H7 3562   0.643   2.763   9.987 -0.9626  0.0652  0.3144
  235MPD1     C 3563   0.830   1.489   9.457  0.0908  0.2799 -0.0609
  235MPD1    C1 3564   0.952   1.436   9.438  0.2721  0.3632 -0.3648
  235MPD1    C2 3565   1.062   1.522   9.418  0.3622 -0.6584  0.0089
  235MPD1    C3 3566   1.049   1.661   9.404  0.6020 -0.3109 -0.0986
  235MPD1    C4 3567   0.921   1.712   9.428 -0.3433 -0.2898  0.2844
  235MPD1    C5 3568   0.815   1.626   9.451  0.5240  0.2015  0.3208
  235MPD1     H 3569   1.159   1.475   9.411  0.9825  0.5977  0.2756
  235MPD1    H1 3570   0.909   1.820   9.429 -0.2300 -0.2672 -0.7662
  235MPD1    H2 3571   0.741   1.429   9.475  0.0241  0.2147 -0.6177
  235MPD1    H3 3572   0.716   1.670   9.458 -0.2682 -1.7925  1.7677
  235MPD1     N 3573   1.168   1.733   9.406 -0.2876 -0.4277  0.0304
  235MPD1    H5 3574   1.256   1.683   9.416  0.0827  0.4495  1.0935
  235MPD1    N1 3575   0.975   1.297   9.467 -0.8437  0.2480 -0.8726
  235MPD1    H6 3576   1.056   1.261   9.417 -0.7853  0.5786 -1.0191
  235MPD1    H7 3577   0.888   1.245   9.457 -0.0478 -1.2829  0.2779
  236MPD1     C 3578   1.332   2.530  10.118  0.3649  0.3191 -0.6874
  236MPD1    C1 3579   1.352   2.393  10.089  0.2405 -0.3551  0.1912
  236MPD1    C2 3580   1.476   2.342  10.132  0.1094 -0.4021  0.0555
  236MPD1    C3 3581   1.580   2.412  10.197 -0.3228  0.7025  0.0985
  236MPD1    C4 3582   1.553   2.547  10.214  0.1049  0.1520 -0.5624
  236MPD1    C5 3583   1.433   2.599  10.182 -0.1923  0.4377 -0.7827
  236MPD1     H 3584   1.487   2.235  10.117  2.2399 -0.9651  5.4767
  236MPD1    H1 3585   1.630   2.608  10.260  0.8419  0.5477 -2.2954
  236MPD1    H2 3586   1.236   2.577  10.100  0.2500  0.5019  0.3479
  236MPD1    H3 3587   1.423   2.704  10.207 -0.3851  0.0306  0.8087
  236MPD1     N 3588   1.706   2.363  10.237  0.1547 -0.5061 -0.2475
  236MPD1    H5 3589   1.765   2.433  10.281  1.7630 -2.5455  0.8294
  236MPD1    N1 3590   1.247   2.323  10.029 -0.1444  0.0861 -0.0524
  236MPD1    H6 3591   1.176   2.383   9.988  0.5879  0.1154 -1.2580
  236MPD1    H7 3592   1.268   2.245   9.968  0.1169 -1.1000  1.5599
  237MPD1     C 3593   1.801   0.066  15.585  0.2547 -0.0410  0.3289
  237MPD1    C1 3594   1.730   0.099  15.699 -1.0186 -0.0230  0.7251
  237MPD1    C2 3595   1.606   0.166  15.681  0.9537  0.0928 -0.0294
  237MPD1    C3 3596   1.548   0.187  15.557 -0.1821  0.4462 -0.4003
  237MPD1    C4 3597   1.629   0.161  15.445 -0.0796  0.9489  0.3703
  237MPD1    C5 3598   1.760   0.111  15.461 -0.6800  0.2843 -0.4928
  237MPD1     H 3599   1.556   0.185  15.775 -0.6045 -1.7341 -0.4760
  237MPD1    H1 3600   1.586   0.168  15.346  2.6993 -1.9490 -1.0583
  237MPD1    H2 3601   1.894   0.010  15.590  1.0848  1.2235 -0.8947
  237MPD1    H3 3602   1.820   0.098  15.371 -2.1222  1.0064 -1.5648
  237MPD1     N 3603   1.427   0.254  15.544 -0.1911 -0.3403  0.0457
  237MPD1    H5 3604   1.389   0.251  15.450  1.9398  1.7616 -0.8907
  237MPD1    N1 3605   1.776   0.046  15.823 -0.1972 -0.2034  0.2781
  237MPD1    H6 3606   1.873   0.023  15.841 -0.2013 -0.2486  0.2416
  237MPD1    H7 3607   1.734   0.091  15.904 -0.0653  0.6901 -0.1464
  238MPD1     C 3608   3.347   4.511  15.461  1.0884 -0.5798  0.4304
  238MPD1    C1 3609   3.217   4.479  15.501  0.3879 -0.2805  0.5500
  238MPD1    C2 3610   3.163   4.356  15.469 -0.3657 -0.1881 -0.7537
  238MPD1    C3 3611   3.212   4.281  15.366 -0.3715  0.4307  0.5927
  238MPD1    C4 3612   3.340   4.312  15.317  0.2409 -0.1345 -0.5512
  238MPD1    C5 3613   3.406   4.420  15.368 -0.1327 -0.5925  0.0862
  238MPD1     H 3614   3.061   4.342  15.502 -0.5500  0.2490 -1.1257
  238MPD1    H1 3615   3.383   4.248  15.242  0.4449 -1.6253  0.8336
  238MPD1    H2 3616   3.398   4.604  15.485 -0.5281  0.4083  0.0603
  238MPD1    H3 3617   3.503   4.437  15.323  0.6947 -0.0115  2.1180
  238MPD1     N 3618   3.139   4.177  15.308 -0.1751  0.6142 -0.7980
  238MPD1    H5 3619   3.192   4.133  15.234  3.8163  1.8742  1.2846
  238MPD1    N1 3620   3.161   4.553  15.613  0.2487 -0.3825  0.2854
  238MPD1    H6 3621   3.060   4.539  15.611  0.4310 -1.3758 -1.3571
  238MPD1    H7 3622   3.192   4.650  15.606  1.0678 -0.8244 -2.1301
  239MPD1     C 3623   3.611   4.519  15.058  0.4109 -0.3132 -0.1863
  239MPD1    C1 3624   3.649   4.464  14.936  0.0989 -0.2404  0.3141
  239MPD1    C2 3625   3.649   4.540  14.815  0.4706 -0.4571  0.6502
  239MPD1    C3 3626   3.595   4.668  14.828 -0.0605 -0.0962 -0.0121
  239MPD1    C4 3627   3.541   4.720  14.948  0.1338  0.0882 -0.9156
  239MPD1    C5 3628   3.550   4.641  15.062  0.4064  0.7496 -0.2860
  239MPD1     H 3629   3.692   4.503  14.722 -1.3582 -0.0867 -0.3420
  239MPD1    H1 3630   3.490   0.089  14.958 -0.2130 -0.2351  0.4766
  239MPD1    H2 3631   3.632   4.464  15.149 -1.4291 -0.5450  0.1055
  239MPD1    H3 3632   3.513   4.671  15.159  0.8676  2.6612 -0.6973
  239MPD1     N 3633   3.586   0.019  14.714 -0.3232 -0.2451 -0.2147
  239MPD1    H5 3634   3.524   0.099  14.718 -0.6406 -0.4358 -1.4282
  239MPD1    N1 3635   3.703   4.331  14.936  0.0777  0.8844  0.3447
  239MPD1    H6 3636   3.642   4.272  14.992 -2.1853  1.3926 -1.5982
  239MPD1    H7 3637   3.691   4.303  14.839  2.2283 -2.3186  0.9806
  240MPD1     C 3638   2.980   4.618  13.675  0.0005 -0.3335  0.1731
  240MPD1    C1 3639   2.868   4.666  13.740  0.0799  0.0534 -0.0963
  240MPD1    C2 3640   2.838   4.614  13.866  0.0884 -0.5191  0.5554
  240MPD1    C3 3641   2.932   4.549  13.942  1.2293 -0.3220 -0.2180
  240MPD1    C4 3642   3.039   4.496  13.876 -0.4585 -0.3768  0.0061
  240MPD1    C5 3643   3.059   4.531  13.745  0.1061  0.3723 -0.8980
  240MPD1     H 3644   2.749   4.646  13.921  1.4782  1.9977  1.3575
  240MPD1    H1 3645   3.116   4.437  13.924 -0.8720 -1.8846 -1.1884
  240MPD1    H2 3646   2.994   4.629  13.568  1.3151  2.1429  0.5965
  240MPD1    H3 3647   3.158   4.512  13.705  0.0271 -0.9122 -0.4897
  240MPD1     N 3648   2.888   4.517  14.073 -0.5018  0.1612  0.3462
  240MPD1    H5 3649   2.807   4.561  14.116 -0.1953  0.8379  0.2305
  240MPD1    N1 3650   2.778   0.018  13.674 -0.3271  0.4164 -0.3564
  240MPD1    H6 3651   2.709   0.060  13.735 -0.0789  0.9256 -0.4283
  240MPD1    H7 3652   2.815   0.084  13.606 -0.3784  1.8681  1.0486
  241MPD1     C 3653   3.015   4.451  15.145  0.6151  0.4373 -0.2011
  241MPD1    C1 3654   3.115   4.461  15.052 -0.5930 -0.2958 -0.6709
  241MPD1    C2 3655   3.084   4.439  14.919  0.8575  0.1953  0.3336
  241MPD1    C3 3656   2.958   4.401  14.884 -0.1592 -0.1722  0.7809
  241MPD1    C4 3657   2.860   4.373  14.978 -0.0108  0.3239 -0.7421
  241MPD1    C5 3658   2.893   4.399  15.111  0.0956 -0.0090  0.2207
  241MPD1     H 3659   3.163   4.439  14.845  1.3988 -1.9795  0.9349
  241MPD1    H1 3660   2.759   4.347  14.949  0.3181  1.2930 -2.7700
  241MPD1    H2 3661   3.035   4.479  15.248  1.5931  2.6517 -1.0079
  241MPD1    H3 3662   2.818   4.401  15.190 -0.9691  0.4114 -0.7890
  241MPD1     N 3663   2.919   4.377  14.748 -0.1604  0.1782  0.4782
  241MPD1    H5 3664   2.829   4.332  14.748  0.2099 -0.5773 -0.7536
  241MPD1    N1 3665   3.239   4.518  15.088  0.4196  0.4226  0.2027
  241MPD1    H6 3666   3.260   4.495  15.185  0.3719  0.6525  0.2664
  241MPD1    H7 3667   3.322   4.480  15.041 -1.1222  0.5872 -2.6576
  242MPD1     C 3668   2.098   2.590  16.049 -0.2479  0.3967 -0.2986
  242MPD1    C1 3669   2.021   2.693  15.998  0.5114 -0.0180  0.3587
  242MPD1    C2 3670   2.048   2.731  15.865  0.2350  0.1339 -0.5061
  242MPD1    C3 3671   2.139   2.663  15.787 -0.0758 -0.5804  0.2256
  242MPD1    C4 3672   2.203   2.555  15.839 -0.2413  0.5971 -0.5228
  242MPD1    C5 3673   2.183   2.515  15.968 -0.1683 -0.0109 -0.7045
  242MPD1     H 3674   2.007   2.820  15.820  0.5195 -0.3528 -1.7167
  242MPD1    H1 3675   2.278   2.506  15.778 -0.2884  0.8474 -0.7842
  242MPD1    H2 3676   2.088   2.565  16.154 -3.2385  0.3534 -0.6079
  242MPD1    H3 3677   2.248   2.440  16.010  0.1365  0.6312 -0.0278
  242MPD1     N 3678   2.172   2.707  15.657 -0.0150 -1.2913  0.5647
  242MPD1    H5 3679   2.251   2.663  15.610 -0.4452 -1.7312  0.2562
  242MPD1    N1 3680   1.941   2.776  16.080 -0.2578  0.2223  0.4525
  242MPD1    H6 3681   1.865   2.819  16.029 -0.3524 -2.1301 -1.3588
  242MPD1    H7 3682   1.896   2.729  16.158  2.2991 -0.4799  1.5330
  243MPD1     C 3683   4.359   1.093  17.268  0.1370 -0.6354 -1.2008
  243MPD1    C1 3684   4.298   1.158  17.162  0.1195  0.8718 -0.2941
  243MPD1    C2 3685   4.160   1.150  17.156 -0.2041 -0.9180  0.1012
  243MPD1    C3 3686   4.080   1.085  17.253  0.2942 -0.0050 -0.0079
  243MPD1    C4 3687   4.149   1.015  17.352 -0.0747  0.2888  0.4187
  243MPD1    C5 3688   4.285   1.021  17.360  0.2656 -0.2301 -0.4699
  243MPD1     H 3689   4.101   1.199  17.079  1.3562 -1.4535 -1.4255
  243MPD1    H1 3690   4.093   0.964  17.430 -0.0663  1.9964  1.5279
  243MPD1    H2 3691   4.467   1.087  17.269  0.1114 -1.4724 -2.4634
  243MPD1    H3 3692   4.331   0.968  17.444 -0.7513  0.9479  0.8360
  243MPD1     N 3693   3.940   1.089  17.234  0.3475  0.0469  0.4177
  243MPD1    H5 3694   3.918   1.140  17.149  1.9157  1.1051  0.6462
  243MPD1    N1 3695   4.373   1.246  17.071  0.4593  0.0639 -0.3445
  243MPD1    H6 3696   4.326   1.270  16.984  1.2586 -2.2070 -1.3901
  243MPD1    H7 3697   4.468   1.213  17.060 -0.0775 -1.0891 -1.4735
  244MPD1     C 3698   3.100   1.093   0.107  0.4609  0.0732 -0.0277
  244MPD1    C1 3699   3.230   1.079   0.145  0.7756 -0.1413  0.9342
  244MPD1    C2 3700   3.322   1.085   0.040 -0.3089  0.3254  0.4294
  244MPD1    C3 3701   3.287   1.084  17.606  0.3820  0.3898 -0.0900
  244MPD1    C4 3702   3.150   1.101  17.577  0.0180 -0.4907 -0.1592
  244MPD1    C5 3703   3.064   1.105  17.685  0.0818 -0.5665 -0.4345
  244MPD1     H 3704   3.428   1.071   0.056 -0.0887  0.1129 -1.2373
  244MPD1    H1 3705   3.112   1.121  17.478 -1.2674 -0.4265  0.3467
  244MPD1    H2 3706   3.023   1.093   0.183  0.7521  1.5618  0.2729
  244MPD1    H3 3707   2.961   1.127  17.664  0.2812 -0.5178 -1.3314
  244MPD1     N 3708   3.383   1.072  17.509 -0.0326  0.2739  0.5523
  244MPD1    H5 3709   3.479   1.065  17.540  0.1542  2.2234  0.4001
  244MPD1    N1 3710   3.271   1.081   0.280 -0.6054 -0.6809  0.2873
  244MPD1    H6 3711   3.355   1.023   0.288  1.0238  1.2543 -2.5212
  244MPD1    H7 3712   3.197   1.045   0.339  0.9121 -0.3519  2.3888
  245MPD1     C 3713   1.239   2.075  13.185  0.1537  0.4716 -0.7824
  245MPD1    C1 3714   1.165   2.111  13.292 -0.1401  0.4012  0.1297
  245MPD1    C2 3715   1.184   2.229  13.356  0.4382 -0.2311  0.0836
  245MPD1    C3 3716   1.280   2.314  13.309 -0.9834 -0.9173  0.1013
  245MPD1    C4 3717   1.351   2.272  13.193  0.8237  0.5951  0.6393
  245MPD1    C5 3718   1.338   2.157  13.134  0.3879 -0.1915 -0.4473
  245MPD1     H 3719   1.120   2.259  13.439 -1.6610 -0.9431 -1.2912
  245MPD1    H1 3720   1.424   2.336  13.146  0.8729 -0.1041 -0.2178
  245MPD1    H2 3721   1.222   1.982  13.133  0.7218  1.4172 -2.6379
  245MPD1    H3 3722   1.390   2.127  13.044 -0.4244 -0.3025 -0.8786
  245MPD1     N 3723   1.291   2.444  13.369  0.0131  0.0900  0.1339
  245MPD1    H5 3724   1.232   2.464  13.449 -0.4106  0.8082 -0.3632
  245MPD1    N1 3725   1.057   2.028  13.334  0.5738  0.1418  0.5328
  245MPD1    H6 3726   1.069   1.930  13.312  2.1832  0.7857 -1.4478
  245MPD1    H7 3727   1.034   2.038  13.433  0.0965  0.9726  0.3333
  246MPD1     C 3728   1.991   3.497  10.268  0.4958  0.1470 -0.3174
  246MPD1    C1 3729   1.924   3.613  10.239  0.5229 -0.4374  0.5894
  246MPD1    C2 3730   1.827   3.616  10.143 -0.1306  0.7118  0.0760
  246MPD1    C3 3731   1.784   3.500  10.078  0.2001 -0.0906 -0.5078
  246MPD1    C4 3732   1.842   3.382  10.113 -0.4513  0.5852  0.1237
  246MPD1    C5 3733   1.935   3.386  10.212  0.6026 -0.4586  0.1681
  246MPD1     H 3734   1.779   3.709  10.116  1.1058  1.4779  0.5296
  246MPD1    H1 3735   1.797   3.288  10.083  0.9293 -0.0951  0.2106
  246MPD1    H2 3736   2.063   3.486  10.349  0.8229 -1.6773 -0.8665
  246MPD1    H3 3737   1.984   3.298  10.250 -0.8896 -0.5171  1.9689
  246MPD1     N 3738   1.684   3.513   9.975 -0.1723  0.2856  0.1347
  246MPD1    H5 3739   1.671   3.611   9.953  2.4897  0.6682  0.2079
  246MPD1    N1 3740   1.984   3.731  10.283  0.2878 -0.1434 -0.4659
  246MPD1    H6 3741   2.052   3.716  10.357  0.8264 -1.0950 -1.1504
  246MPD1    H7 3742   1.917   3.793  10.327  0.0266 -0.9939  0.3255
  247MPD1     C 3743   0.173   1.710  16.907 -0.3759  0.3162  0.1493
  247MPD1    C1 3744   0.189   1.833  16.844  0.4670  0.9084 -0.4993
  247MPD1    C2 3745   0.238   1.832  16.715  0.0666  0.1717  0.0030
  247MPD1    C3 3746   0.236   1.710  16.643  0.2578  0.1848 -0.3573
  247MPD1    C4 3747   0.199   1.592  16.709 -0.1651 -0.2565  1.1230
  247MPD1    C5 3748   0.182   1.589  16.847  0.4250  0.3392 -0.0414
  247MPD1     H 3749   0.262   1.923  16.662 -1.3197  0.6385  0.1992
  247MPD1    H1 3750   0.195   1.498  16.655  2.2346  0.0725  0.4202
  247MPD1    H2 3751   0.171   1.708  17.015 -0.5359  1.4662  0.1674
  247MPD1    H3 3752   0.178   1.499  16.907 -2.6937  1.3720  1.2844
  247MPD1     N 3753   0.249   1.714  16.501 -0.0137 -0.2277  0.3161
  247MPD1    H5 3754   0.239   1.621  16.460 -2.2716 -0.3956  1.2631
  247MPD1    N1 3755   0.176   1.953  16.920 -0.7131 -0.1206 -0.4470
  247MPD1    H6 3756   0.128   2.025  16.866 -3.0164  0.5080  2.4314
  247MPD1    H7 3757   0.118   1.945  17.003 -0.3619 -0.0471 -0.1900
  248MPD1     C 3758   1.078   0.370   1.070 -0.4299  0.6152  0.4709
  248MPD1    C1 3759   1.022   0.390   1.201 -0.6090  0.4649  0.3984
  248MPD1    C2 3760   0.932   0.489   1.213 -0.3099 -0.4714  0.4579
  248MPD1    C3 3761   0.893   0.571   1.112  0.6196 -0.5457 -0.3511
  248MPD1    C4 3762   0.936   0.543   0.983 -0.1029 -0.5652  0.9560
  248MPD1    C5 3763   1.026   0.442   0.966 -0.0704  0.4900 -0.8215
  248MPD1     H 3764   0.898   0.525   1.310 -1.2659 -3.2509  1.1346
  248MPD1    H1 3765   0.916   0.608   0.899  1.2812  0.8186  1.7126
  248MPD1    H2 3766   1.157   0.296   1.055 -0.6777  0.2385  1.0223
  248MPD1    H3 3767   1.076   0.432   0.871 -0.1506 -4.1795 -0.3500
  248MPD1     N 3768   0.808   0.676   1.154  0.5074 -0.6426 -0.5717
  248MPD1    H5 3769   0.801   0.679   1.255  1.1200  0.7526 -0.5749
  248MPD1    N1 3770   1.081   0.342   1.314 -0.3175 -0.6469 -0.0359
  248MPD1    H6 3771   1.147   0.408   1.354 -0.8460 -0.0300 -0.1717
  248MPD1    H7 3772   1.017   0.339   1.393 -1.5377 -0.5619 -1.0210
  249MPD1     C 3773   2.265   4.225  10.869  0.0609  0.6422 -0.3487
  249MPD1    C1 3774   2.301   4.355  10.845 -0.0759  0.0655  0.3475
  249MPD1    C2 3775   2.267   4.427  10.732 -0.0156  0.2624 -0.3741
  249MPD1    C3 3776   2.199   4.363  10.633 -0.1286 -0.1601 -0.7036
  249MPD1    C4 3777   2.167   4.225  10.656  0.3970  0.1580 -0.1130
  249MPD1    C5 3778   2.191   4.163  10.773  0.1841  0.5103 -0.4765
  249MPD1     H 3779   2.280   4.534  10.726 -1.5561  0.3465 -2.1770
  249MPD1    H1 3780   2.129   4.164  10.575 -1.1810  0.0350  0.7145
  249MPD1    H2 3781   2.290   4.170  10.959 -0.2598  1.3666  0.1777
  249MPD1    H3 3782   2.144   4.066  10.788  0.6709  0.4565  0.6999
  249MPD1     N 3783   2.153   4.435  10.523 -0.6097 -0.6716 -0.2892
  249MPD1    H5 3784   2.190   4.529  10.509 -1.9843 -0.4594 -2.4798
  249MPD1    N1 3785   2.366   4.418  10.950 -0.7462 -0.3358  0.2843
  249MPD1    H6 3786   2.431   4.355  10.996  0.1047  1.3729  1.4291
  249MPD1    H7 3787   2.417   4.505  10.932  0.4096 -1.3878 -1.5090
  250MPD2     C 3788   4.645   0.503  13.163  0.1025 -0.3726  0.8170
  250MPD2    C1 3789   4.536   0.577  13.126 -0.3664  0.8073  0.0140
  250MPD2    C2 3790   4.409   0.515  13.115  0.2962  0.0401 -0.0614
  250MPD2    C3 3791   4.389   0.378  13.138 -0.5338  0.1837  0.6419
  250MPD2    C4 3792   4.500   0.307  13.156 -0.1425 -0.3699  0.5898
  250MPD2    C5 3793   4.627   0.363  13.169 -0.5341 -0.0208  0.0237
  250MPD2     H 3794   4.317   0.571  13.100 -1.4211 -3.2589 -2.0069
  250MPD2    H1 3795   4.497   0.199  13.166 -1.1992 -0.3700  0.2407
  250MPD2    H2 3796   0.014   0.549  13.187  0.3748  0.2561 -1.4555
  250MPD2    H3 3797   4.706   0.290  13.179  0.4431  1.4586  2.9845
  250MPD2     N 3798   4.267   0.307  13.128  0.1616  0.3448 -0.1991
  250MPD2    H5 3799   4.265   0.211  13.161 -2.1752  0.3069 -0.4528
  250MPD2    N1 3800   4.562   0.709  13.099 -0.0498  0.4141  0.1275
  250MPD2    H7 3801   4.657   0.741  13.110 -0.3161  0.8219  1.2875
  251TMC3    C1 3802   4.515   0.922  13.040  0.0647  0.5895 -0.4570
  251TMC3    C2 3803   4.443   1.016  13.110  0.0390  0.3199 -0.2402
  251TMC3    C3 3804   4.505   1.137  13.144 -0.0498  0.0385  1.4764
  251TMC3    C4 3805   4.637   0.951  12.989 -0.1536  0.5783  0.2500
  251TMC3    C5 3806   4.690   1.076  13.009  0.0262 -0.6052 -0.4780
  251TMC3    C6 3807   4.629   1.171  13.090 -0.1793 -0.0528 -0.5501
  251TMC3     C 3808   4.466   0.791  13.059 -0.5200 -0.0396 -0.5615
  251TMC3     O 3809   4.346   0.781  13.072  0.8465  0.0769  0.4092
  251TMC3     H 3810   4.354   0.982  13.162  0.3385  1.0843  0.7906
  251TMC3    H1 3811   4.684   0.883  12.919  0.7005  0.1634  1.2294
  251TMC3    H2 3812   4.680   1.260  13.125 -0.4256  0.2592 -0.9898
  251TMC3    C7 3813   0.099   1.091  12.981  0.3365 -0.1062 -0.6628
  251TMC3    C8 3814   4.421   1.223  13.225  0.2470  0.4165 -0.3955
  251TMC3    O1 3815   0.165   0.986  12.992  0.2800 -0.7491 -0.9186
  251TMC3    O2 3816   4.331   1.174  13.293  0.6701 -0.4147 -0.0110
  252TMC3    C1 3817   4.373   0.771   9.233  0.3491 -0.2466  0.2548
  252TMC3    C2 3818   4.454   0.857   9.154  0.6760  0.0794 -0.0405
  252TMC3    C3 3819   4.401   0.980   9.115 -0.3311 -0.5679 -0.6103
  252TMC3    C4 3820   4.250   0.810   9.264  0.3484  1.1189  0.1423
  252TMC3    C5 3821   4.193   0.915   9.203  0.5241 -0.1301 -0.2991
  252TMC3    C6 3822   4.274   1.011   9.137  0.0670 -0.3267 -0.1774
  252TMC3     C 3823   4.441   0.661   9.298 -0.7515 -0.0610  0.2597
  252TMC3     O 3824   4.556   0.650   9.272  0.1956  0.3547  0.1184
  252TMC3     H 3825   4.554   0.830   9.122  0.4120  1.1239 -1.7302
  252TMC3    H1 3826   4.193   0.753   9.337 -0.3775 -2.7341 -3.4153
  252TMC3    H2 3827   4.224   1.100   9.100  0.5591  0.6037  1.3881
  252TMC3    C7 3828   4.050   0.954   9.230 -0.2846 -0.8195 -0.4878
  252TMC3    C8 3829   4.488   1.093   9.112  0.4679  0.4218  0.6116
  252TMC3    O1 3830   4.013   1.066   9.197 -0.0416 -0.0766  0.2365
  252TMC3    O2 3831   4.449   1.199   9.059 -0.2730 -0.5766 -0.9219
  253MPD2     C 3832   0.616   0.452  15.977  0.1268 -0.3838  0.4668
  253MPD2    C1 3833   0.521   0.448  15.878  0.4950  0.1565 -0.0998
  253MPD2    C2 3834   0.394   0.414  15.915  0.2846 -0.0273 -0.6685
  253MPD2    C3 3835   0.365   0.381  16.051  0.3079 -0.1942 -0.2795
  253MPD2    C4 3836   0.462   0.398  16.145 -0.5416  0.0468 -0.2780
  253MPD2    C5 3837   0.585   0.434  16.104 -0.8104 -0.1527 -0.3142
  253MPD2     H 3838   0.319   0.415  15.837 -1.0658 -3.3259  0.5661
  253MPD2    H1 3839   0.446   0.395  16.252  0.2567  1.4028 -0.1186
  253MPD2    H2 3840   0.719   0.480  15.954 -0.4038  0.8349 -0.4533
  253MPD2    H3 3841   0.657   0.432  16.185 -0.0139  0.4040 -1.0011
  253MPD2     N 3842   0.241   0.334  16.098  0.3963 -0.6807  0.1692
  253MPD2    H5 3843   0.238   0.323  16.199 -0.7270 -0.5515  0.1529
  253MPD2    N1 3844   0.533   0.457  15.741 -0.0942  0.2483  0.2996
  253MPD2    H7 3845   0.446   0.447  15.690  0.0928 -1.2904  0.2975
  254TMC3    C1 3846   0.012   0.273  16.091  1.1385 -0.7447 -0.5936
  254TMC3    C2 3847   4.613   0.294  16.028  0.5933 -0.5827  0.2256
  254TMC3    C3 3848   4.497   0.260  16.091 -0.1133  0.6140  0.3513
  254TMC3    C4 3849   0.017   0.221  16.215  0.1810 -0.0182 -0.7858
  254TMC3    C5 3850   4.625   0.190  16.280  0.2323 -0.4082  0.6023
  254TMC3    C6 3851   4.503   0.210  16.217  0.2115  0.1309 -0.0938
  254TMC3     C 3852   0.132   0.316  16.015 -0.8609 -0.1177 -0.0629
  254TMC3     O 3853   0.131   0.317  15.893 -0.5773  0.4667 -0.0512
  254TMC3     H 3854   4.603   0.341  15.931 -1.9996 -0.7253  0.4180
  254TMC3    H1 3855   0.112   0.200  16.261 -0.5886 -2.3937 -0.2692
  254TMC3    H2 3856   4.414   0.161  16.257  0.4931 -0.0170  0.3508
  254TMC3    C7 3857   4.625   0.114  16.405  0.7489 -0.2926  0.3761
  254TMC3    C8 3858   4.387   0.344  16.056  0.3293 -0.2985  0.4128
  254TMC3    O1 3859   0.017   0.097  16.442  0.6932 -0.6914 -0.2737
  254TMC3    O2 3860   4.350   0.341  15.938 -0.0633 -0.4916  0.0119
  255MPD2     C 3861   2.974   2.776  10.003  0.1605 -0.2449 -0.2803
  255MPD2    C1 3862   3.109   2.759   9.982 -0.1891 -0.6737 -0.2263
  255MPD2    C2 3863   3.186   2.854   9.911 -0.7193  0.5602  0.9076
  255MPD2    C3 3864   3.122   2.954   9.841 -0.1458  0.1030  0.0015
  255MPD2    C4 3865   2.986   2.977   9.869 -0.7418 -0.8153 -0.1795
  255MPD2    C5 3866   2.916   2.882   9.941  0.3357  0.1570  0.1566
  255MPD2     H 3867   3.292   2.838   9.897 -1.2491 -0.8647 -1.4057
  255MPD2    H1 3868   2.933   3.060   9.824 -3.0711 -2.6446 -0.8623
  255MPD2    H2 3869   2.908   2.711  10.059  0.4262  0.2181  0.5723
  255MPD2    H3 3870   2.809   2.899   9.948  0.0190 -0.9212 -2.3614
  255MPD2     N 3871   3.202   3.045   9.771  0.3246  0.3246 -0.1184
  255MPD2    H5 3872   3.289   2.998   9.746  0.5506  0.9172 -0.4555
  255MPD2    N1 3873   3.170   2.650  10.050  0.5750  0.3955 -0.3015
  255MPD2    H7 3874   3.111   2.583  10.098  1.0505  2.0451  2.5749
  256TMC3    C1 3875   3.328   2.528  10.169 -0.4903  0.4956 -0.0051
  256TMC3    C2 3876   3.457   2.546  10.207  0.0254  0.1892  0.9351
  256TMC3    C3 3877   3.477   2.623  10.312 -0.4594 -0.0885  0.2393
  256TMC3    C4 3878   3.224   2.532  10.256 -0.0945 -0.8768 -0.6841
  256TMC3    C5 3879   3.249   2.600  10.374  0.0227  0.2454 -1.1293
  256TMC3    C6 3880   3.373   2.658  10.399  0.1784  0.9142 -0.3867
  256TMC3     C 3881   3.306   2.619  10.054  0.2375  0.5145  0.4146
  256TMC3     O 3882   3.399   2.672  10.000  0.4391 -0.6392 -0.0426
  256TMC3     H 3883   3.537   2.545  10.134  0.1283 -2.1288  1.0904
  256TMC3    H1 3884   3.123   2.505  10.226 -0.4054  1.4296 -1.6719
  256TMC3    H2 3885   3.385   2.723  10.485  0.7604  2.3891 -1.5835
  256TMC3    C7 3886   3.145   2.686  10.409  0.0810 -0.6036  0.0922
  256TMC3    C8 3887   3.583   2.715  10.301  0.0282 -0.1249 -0.0143
  256TMC3    O1 3888   3.156   2.806  10.435  0.1324 -0.4859  0.4365
  256TMC3    O2 3889   3.693   2.669  10.269  0.4270  0.2436  0.4918
  257MPD2     C 3890   3.500   0.745  13.326  0.2710  0.1903  0.4102
  257MPD2    C1 3891   3.411   0.670  13.259 -0.5218  0.5344 -0.3092
  257MPD2    C2 3892   3.362   0.559  13.328 -0.0358  0.4027  0.9518
  257MPD2    C3 3893   3.411   0.531  13.455 -0.1806 -0.1617  1.0045
  257MPD2    C4 3894   3.505   0.613  13.516  0.3062  0.4859  1.1114
  257MPD2    C5 3895   3.551   0.720  13.447 -0.0727  0.1159  0.3701
  257MPD2     H 3896   3.281   0.495  13.295  0.4962  0.1944  0.0419
  257MPD2    H1 3897   3.555   0.581  13.606 -1.4695 -1.4547  1.4052
  257MPD2    H2 3898   3.533   0.838  13.280  2.0770 -0.3391  0.6364
  257MPD2    H3 3899   3.635   0.778  13.486  1.2593 -0.7986 -1.1382
  257MPD2     N 3900   3.367   0.406  13.506  0.0353 -0.2470  0.1700
  257MPD2    H5 3901   3.312   0.345  13.447 -1.2819 -1.5036  2.7558
  257MPD2    N1 3902   3.360   0.714  13.128 -0.2814  0.0075 -0.1982
  257MPD2    H7 3903   3.406   0.793  13.085 -0.7015  0.7320  0.6612
  258TMC3    C1 3904   3.349   0.225  13.661 -0.1647  0.4192 -0.1918
  258TMC3    C2 3905   3.385   0.129  13.571 -0.1979  0.2364  0.3962
  258TMC3    C3 3906   3.390   4.724  13.608  0.7012 -0.2718  0.6940
  258TMC3    C4 3907   3.317   0.191  13.790 -0.2202 -0.1723  0.1968
  258TMC3    C5 3908   3.320   0.060  13.822  0.2105  0.1216  0.6841
  258TMC3    C6 3909   3.361   4.687  13.733 -0.2315 -0.2118  0.0424
  258TMC3     C 3910   3.394   0.363  13.636 -0.0794 -0.3198  0.2119
  258TMC3     O 3911   3.433   0.422  13.736  0.1680  0.0196  0.0204
  258TMC3     H 3912   3.427   0.162  13.477 -0.1122  0.7262  0.6070
  258TMC3    H1 3913   3.289   0.268  13.861  0.7114 -1.3515  1.8290
  258TMC3    H2 3914   3.369   4.584  13.765 -0.1795  0.1006  1.0394
  258TMC3    C7 3915   3.296   0.024  13.964 -0.2575 -0.9788  0.1499
  258TMC3    C8 3916   3.424   4.610  13.521 -0.0442 -0.0444  0.3047
  258TMC3    O1 3917   3.228   0.101  14.030  0.1145  0.0473  0.0490
  258TMC3    O2 3918   3.400   4.498  13.551  1.0891 -0.1354  0.7242
  259MPD2     C 3919   1.846   2.329   0.825 -0.0770 -0.8402  0.1225
  259MPD2    C1 3920   1.838   2.193   0.792 -0.6748  0.1244  0.1387
  259MPD2    C2 3921   1.892   2.143   0.674  0.5993  0.3072  0.4231
  259MPD2    C3 3922   1.959   2.234   0.588 -0.0343 -0.0636 -0.0328
  259MPD2    C4 3923   1.970   2.369   0.624  0.1779 -0.0344  0.2518
  259MPD2    C5 3924   1.913   2.412   0.743 -0.4134  0.0202  0.4259
  259MPD2     H 3925   1.882   2.039   0.645 -1.5568  0.2622  1.3936
  259MPD2    H1 3926   2.023   2.442   0.564 -0.0824 -1.7562 -2.0687
  259MPD2    H2 3927   1.791   2.366   0.911  0.0174  2.2592 -1.1379
  259MPD2    H3 3928   1.917   2.516   0.774 -3.3047 -0.6621  3.1707
  259MPD2     N 3929   2.020   2.180   0.476  0.2839 -0.1349 -0.5401
  259MPD2    H5 3930   2.007   2.080   0.477 -0.1805 -0.0531  1.3160
  259MPD2    N1 3931   1.770   2.106   0.885 -0.6083  0.0220  0.4059
  259MPD2    H7 3932   1.726   2.159   0.960  1.5100  2.0573  0.2009
  260TMC3    C1 3933   2.148   2.159   0.285  0.0394 -0.3937  0.3784
  260TMC3    C2 3934   2.280   2.161   0.244 -0.2791  0.4276  0.4872
  260TMC3    C3 3935   2.335   2.051   0.184 -0.0301  0.4693  0.6040
  260TMC3    C4 3936   2.066   2.053   0.253 -0.3529 -0.2066  0.3939
  260TMC3    C5 3937   2.123   1.943   0.199 -0.1789  0.4566 -0.5010
  260TMC3    C6 3938   2.255   1.939   0.166  0.0718  0.1554  0.4112
  260TMC3     C 3939   2.102   2.245   0.386  0.2109  0.7369 -0.0922
  260TMC3     O 3940   2.103   2.370   0.359  0.0721 -0.4078  0.5589
  260TMC3     H 3941   2.348   2.239   0.275 -0.7222  2.3262 -3.3010
  260TMC3    H1 3942   1.959   2.058   0.271 -0.1262 -1.2261  1.9650
  260TMC3    H2 3943   2.289   1.853   0.111 -2.5776 -1.7044  1.6678
  260TMC3    C7 3944   2.050   1.832   0.144 -0.0358  0.2009 -0.4589
  260TMC3    C8 3945   2.481   2.045   0.191 -0.0883 -0.0175 -0.1666
  260TMC3    O1 3946   2.093   1.786   0.040 -0.6620 -0.1002  0.1199
  260TMC3    O2 3947   2.546   2.131   0.247  0.3934  0.7570 -0.1480
  261MPD2     C 3948   3.524   0.148  12.705  0.3339  0.0415  0.0006
  261MPD2    C1 3949   3.655   0.182  12.687  0.8015  0.6498 -0.5703
  261MPD2    C2 3950   3.688   0.219  12.557  0.4310  0.0229  0.5902
  261MPD2    C3 3951   3.611   0.190  12.449 -0.6177 -0.7243  0.3650
  261MPD2    C4 3952   3.478   0.136  12.470  0.2548  0.4233  0.3625
  261MPD2    C5 3953   3.439   0.126  12.600  0.1851 -0.3311 -0.1057
  261MPD2     H 3954   3.782   0.269  12.535  0.1860  0.4689  0.5699
  261MPD2    H1 3955   3.410   0.112  12.390  0.8821 -1.1451  0.2974
  261MPD2    H2 3956   3.481   0.128  12.802  1.5949  0.8915  0.7246
  261MPD2    H3 3957   3.338   0.092  12.618  0.6345 -0.6868  1.7279
  261MPD2     N 3958   3.663   0.229  12.323  0.0101  0.3566  0.0197
  261MPD2    H5 3959   3.757   0.267  12.317 -0.4060  1.2616 -0.7902
  261MPD2    N1 3960   3.754   0.205  12.780  0.0500 -0.6766  0.0176
  261MPD2    H7 3961   3.844   0.224  12.736 -0.6490 -1.1952 -1.6666
  262TMC3    C1 3962   3.678   0.266  12.087 -0.1371 -0.1224 -0.6051
  262TMC3    C2 3963   3.771   0.367  12.109 -0.4324 -0.0953  0.7618
  262TMC3    C3 3964   3.797   0.469  12.014  0.1421  0.3904  0.3144
  262TMC3    C4 3965   3.617   0.266  11.966 -0.1136  0.0824  0.4183
  262TMC3    C5 3966   3.650   0.356  11.865 -0.3294  0.7718 -0.7357
  262TMC3    C6 3967   3.732   0.464  11.887  0.2418  0.1503  0.0389
  262TMC3     C 3968   3.595   0.221  12.201  0.5042 -0.3857 -0.1226
  262TMC3     O 3969   3.476   0.192  12.186 -0.5574  0.7069 -0.5041
  262TMC3     H 3970   3.815   0.378  12.207  2.1812 -0.0287 -0.4161
  262TMC3    H1 3971   3.548   0.184  11.950 -0.4623  0.6944 -1.1974
  262TMC3    H2 3972   3.739   0.544  11.814  0.1295 -0.7712 -0.9855
  262TMC3    C7 3973   3.578   0.347  11.735  1.1901  0.1482 -0.1575
  262TMC3    C8 3974   3.858   0.591  12.068  0.4408 -0.4018  0.5342
  262TMC3    O1 3975   3.477   0.278  11.727 -0.1628 -0.2020  0.0329
  262TMC3    O2 3976   3.930   0.577  12.167 -0.1555 -0.3372  0.4739
  263MPD2     C 3977   4.573   3.937  11.403 -0.1497  0.8742  0.3619
  263MPD2    C1 3978   4.607   4.049  11.477  0.5790  0.7882 -0.5303
  263MPD2    C2 3979   4.590   4.167  11.419 -0.0488  0.2702 -0.0731
  263MPD2    C3 3980   4.557   4.182  11.286  0.2685 -0.4188  0.0529
  263MPD2    C4 3981   4.536   4.080  11.208  0.8031 -0.5492 -0.2510
  263MPD2    C5 3982   4.544   3.953  11.269 -0.0264  0.2723  0.1364
  263MPD2     H 3983   4.620   4.256  11.474  0.5063  0.4721 -0.7019
  263MPD2    H1 3984   4.506   4.080  11.104  1.2546 -1.7856 -0.3827
  263MPD2    H2 3985   4.578   3.835  11.440  3.5767  1.0957  0.4743
  263MPD2    H3 3986   4.519   3.865  11.211  2.2319 -0.3143  0.0616
  263MPD2     N 3987   4.568   4.318  11.231  0.9905 -0.1116 -0.0080
  263MPD2    H5 3988   4.593   4.399  11.287 -0.2305  0.2556  0.0217
  263MPD2    N1 3989   4.661   4.029  11.607  0.7700  0.2913  0.6292
  263MPD2    H7 3990   4.672   3.933  11.639 -0.2819  0.2475  0.8645
  264TMC3    C1 3991   4.570   4.482  11.060  0.0323 -0.2620 -0.3978
  264TMC3    C2 3992   4.509   4.582  11.133  0.0060 -0.0136 -1.1189
  264TMC3    C3 3993   4.509   4.710  11.082 -0.1568  0.3060  0.2944
  264TMC3    C4 3994   4.623   4.509  10.933  0.2074  0.2710  0.8294
  264TMC3    C5 3995   4.637   4.639  10.888  0.4107 -0.1694  0.7480
  264TMC3    C6 3996   4.585   0.014  10.972 -0.1346  0.1364  1.0376
  264TMC3     C 3997   4.558   4.346  11.095 -0.2568  0.0853  0.7870
  264TMC3     O 3998   4.557   4.269  10.999  0.1003 -0.0393  0.4949
  264TMC3     H 3999   4.462   4.556  11.227  1.4423 -1.2856 -0.7695
  264TMC3    H1 4000   4.667   4.425  10.882 -1.9619  0.0836 -0.7443
  264TMC3    H2 4001   4.569   0.116  10.940  0.9072 -0.0441 -0.0510
  264TMC3    C7 4002   4.715   4.671  10.771  0.0857 -0.1338  0.0315
  264TMC3    C8 4003   4.504   0.084  11.185  0.1538 -0.7531 -0.2467
  264TMC3    O1 4004   0.026   4.581  10.699 -0.1051 -0.2861 -0.9180
  264TMC3    O2 4005   4.430   0.067  11.284 -0.1766  0.5291  0.4877
  265MPD2     C 4006   2.236   4.710  15.647  0.1230 -0.4257  0.5449
  265MPD2    C1 4007   2.244   0.115  15.597 -0.4093  0.3146  0.0646
  265MPD2    C2 4008   2.341   0.147  15.502 -0.1349 -0.2048 -1.5242
  265MPD2    C3 4009   2.430   0.049  15.458  0.5313 -0.1100  0.5767
  265MPD2    C4 4010   2.425   4.649  15.510 -0.2539 -0.6516 -0.2815
  265MPD2    C5 4011   2.327   4.611  15.603  0.0358 -0.6971 -0.6061
  265MPD2     H 4012   2.342   0.247  15.462 -2.0332 -0.1988 -1.5763
  265MPD2    H1 4013   2.498   4.573  15.482  1.9359  0.8372  1.3828
  265MPD2    H2 4014   2.185   4.685  15.739  0.3183  0.1790  0.8191
  265MPD2    H3 4015   2.336   4.519  15.659  0.0493 -0.3158  0.0244
  265MPD2     N 4016   2.512   0.070  15.344 -0.1201 -0.0247  0.4803
  265MPD2    H5 4017   2.560   4.711  15.314  0.1561  0.7566 -1.2615
  265MPD2    N1 4018   2.154   0.216  15.636  0.1119  0.2241  0.0185
  265MPD2    H7 4019   2.156   0.297  15.574  0.6418 -0.7787 -1.2868
  266TMC3    C1 4020   2.001   0.341  15.771  0.4488  0.2849  0.1740
  266TMC3    C2 4021   1.975   0.358  15.905 -0.0903  0.4520 -0.0556
  266TMC3    C3 4022   1.875   0.440  15.941  0.0864 -0.9897  0.2415
  266TMC3    C4 4023   1.910   0.377  15.676  0.3532  0.0629  0.1559
  266TMC3    C5 4024   1.814   0.464  15.712  0.1229  0.6524  0.2030
  266TMC3    C6 4025   1.790   0.493  15.844 -0.3629 -0.8655 -0.3950
  266TMC3     C 4026   2.081   0.215  15.748  0.7061  0.6807 -0.5457
  266TMC3     O 4027   2.084   0.134  15.842  0.2541 -0.2953  0.0882
  266TMC3     H 4028   2.045   0.332  15.983 -1.0230  2.6520  1.5251
  266TMC3    H1 4029   1.922   0.336  15.576 -0.5462  0.5942 -0.1738
  266TMC3    H2 4030   1.706   0.554  15.875  0.0018 -1.2031  1.2528
  266TMC3    C7 4031   1.709   0.505  15.623 -0.3581 -0.2566  0.4794
  266TMC3    C8 4032   1.809   0.403  16.064 -1.1686 -0.6085  1.3493
  266TMC3    O1 4033   1.616   0.572  15.674 -0.2215  0.3182  0.3099
  266TMC3    O2 4034   1.843   0.292  16.109  0.2759  0.7242  0.0403
  267MPD2     C 4035   4.259   2.013  16.801 -0.5090  0.3965  0.1984
  267MPD2    C1 4036   4.210   1.935  16.903 -0.4429  0.1040 -0.1428
  267MPD2    C2 4037   4.105   1.850  16.892 -0.5574 -0.8020  0.0173
  267MPD2    C3 4038   4.045   1.831  16.770  0.5672  0.2771  0.1984
  267MPD2    C4 4039   4.098   1.917  16.666  0.1583 -0.1207 -0.3399
  267MPD2    C5 4040   4.205   2.004  16.678  0.4596  0.0793  0.1204
  267MPD2     H 4041   4.067   1.798  16.980 -0.9527 -2.5655 -1.1905
  267MPD2    H1 4042   4.063   1.913  16.564  0.7475  3.8249 -0.7160
  267MPD2    H2 4043   4.348   2.075  16.811 -0.4780  0.9680 -3.5856
  267MPD2    H3 4044   4.247   2.052  16.590 -1.4110 -0.4283 -1.0447
  267MPD2     N 4045   3.953   1.721  16.760 -0.4382 -0.4338 -0.4769
  267MPD2    H5 4046   3.939   1.668  16.845 -0.1672 -1.0234 -0.8007
  267MPD2    N1 4047   4.274   1.949  17.036 -0.2809 -0.2304 -0.1129
  267MPD2    H7 4048   4.356   2.010  17.035 -0.7391  0.3863  0.0097
  268TMC3    C1 4049   4.335   1.905  17.254  0.0501 -0.0218  0.9301
  268TMC3    C2 4050   4.408   2.024  17.249 -0.1686  0.0982  0.0118
  268TMC3    C3 4051   4.503   2.049  17.356  0.2189  1.1253 -0.3123
  268TMC3    C4 4052   4.371   1.809  17.345 -0.2707  0.2673 -0.0114
  268TMC3    C5 4053   4.471   1.834  17.438  1.0862  0.4962 -0.1815
  268TMC3    C6 4054   4.532   1.957  17.452  0.0796  0.1387 -0.2295
  268TMC3     C 4055   4.252   1.873  17.143 -0.6462 -0.2718  0.6447
  268TMC3     O 4056   4.197   1.763  17.143  0.0394 -0.3018  0.2944
  268TMC3     H 4057   4.378   2.105  17.184  1.7394  0.1236 -0.8140
  268TMC3    H1 4058   4.305   1.724  17.338  0.8870 -0.6114 -0.2232
  268TMC3    H2 4059   4.610   1.984  17.522  0.4911 -0.8055 -0.3256
  268TMC3    C7 4060   4.497   1.743  17.542  0.1891  0.4218 -0.3873
  268TMC3    C8 4061   4.574   2.174  17.346  0.0172  0.3689  0.0348
  268TMC3    O1 4062   4.540   1.782  17.649  0.1673 -0.2742  0.8275
  268TMC3    O2 4063   4.626   2.222  17.446 -0.7560  0.1474  0.4486
  269MPD2     C 4064   4.401   0.555  15.691  0.6119  0.0678  0.2038
  269MPD2    C1 4065   4.288   0.581  15.619 -0.1181  0.1986  0.5744
  269MPD2    C2 4066   4.239   0.708  15.597  0.4126  0.3233 -0.1809
  269MPD2    C3 4067   4.297   0.815  15.667  0.1910  0.8209 -0.6122
  269MPD2    C4 4068   4.405   0.788  15.748 -0.1630  0.2389  0.5463
  269MPD2    C5 4069   4.451   0.658  15.765  0.6648  0.5946 -0.1725
  269MPD2     H 4070   4.160   0.731  15.526  0.0236  0.5304  0.3182
  269MPD2    H1 4071   4.451   0.866  15.807 -0.4690 -0.2966  1.4906
  269MPD2    H2 4072   4.449   0.459  15.696 -2.3528 -1.5467 -2.2096
  269MPD2    H3 4073   4.543   0.634  15.817  0.0743  1.0724  1.0965
  269MPD2     N 4074   4.237   0.945  15.655 -0.2950 -0.5940  0.0361
  269MPD2    H5 4075   4.150   0.952  15.605  0.0120  1.8654 -0.1865
  269MPD2    N1 4076   4.232   0.462  15.565 -0.2916 -0.0985 -0.2220
  269MPD2    H7 4077   4.275   0.371  15.584  1.0316  0.4303 -0.6642
  270TMC3    C1 4078   4.087   0.320  15.448 -0.1119  0.2250 -0.4327
  270TMC3    C2 4079   3.965   0.292  15.387  0.5544  0.0887 -0.3508
  270TMC3    C3 4080   3.940   0.162  15.339  0.0956 -0.3018  0.2372
  270TMC3    C4 4081   4.186   0.221  15.460 -0.1400  0.3770  0.1465
  270TMC3    C5 4082   4.158   0.095  15.407  0.3199 -0.3237 -0.4168
  270TMC3    C6 4083   4.033   0.053  15.359  0.8136 -0.3275 -0.3377
  270TMC3     C 4084   4.113   0.458  15.495  0.2181 -0.0572 -1.2901
  270TMC3     O 4085   4.033   0.546  15.471 -0.5212 -0.4639  0.4517
  270TMC3     H 4086   3.877   0.355  15.384 -0.7326 -1.7469 -1.1046
  270TMC3    H1 4087   4.291   0.242  15.476 -0.3446 -0.0734  2.0618
  270TMC3    H2 4088   4.013   4.685  15.310 -0.1362 -0.1871 -0.2222
  270TMC3    C7 4089   4.269   0.002  15.392  0.2016  0.2799  0.3564
  270TMC3    C8 4090   3.817   0.139  15.268 -0.1276  0.2848  0.1309
  270TMC3    O1 4091   4.374   0.024  15.454 -0.3698  0.6734  0.3440
  270TMC3    O2 4092   3.711   0.168  15.324  0.1206 -0.1924 -0.3240
  271MPD2     C 4093   3.806   0.779  13.936  0.1790 -0.3786 -0.5244
  271MPD2    C1 4094   3.739   0.714  14.036  0.2129  0.1680 -0.2566
  271MPD2    C2 4095   3.610   0.734  14.055  0.0697  0.2310  0.1113
  271MPD2    C3 4096   3.533   0.797  13.960  0.0289 -0.6939 -0.2887
  271MPD2    C4 4097   3.595   0.861  13.853  0.3100  0.0089 -0.2561
  271MPD2    C5 4098   3.730   0.849  13.850 -0.3194  0.2182  0.2401
  271MPD2     H 4099   3.561   0.683  14.138  0.3713 -1.6824 -0.8975
  271MPD2    H1 4100   3.557   0.920  13.771  0.2826  0.3013 -0.0320
  271MPD2    H2 4101   3.914   0.777  13.944  0.0313 -2.4721  0.9689
  271MPD2    H3 4102   3.780   0.906  13.773 -1.1808  2.0932  1.0657
  271MPD2     N 4103   3.391   0.804  13.956  0.6982  0.3414  0.0238
  271MPD2    H5 4104   3.352   0.864  13.884 -1.5273 -0.2301  0.7374
  271MPD2    N1 4105   3.807   0.628  14.130 -0.2642 -0.3909 -0.0510
  271MPD2    H7 4106   3.743   0.591  14.200 -0.4493  2.7047  1.4399
  272TMC3    C1 4107   3.972   0.499  14.247 -0.6235  0.3122 -0.0199
  272TMC3    C2 4108   4.107   0.473  14.263  0.9921 -0.2437  0.3419
  272TMC3    C3 4109   4.146   0.400  14.373 -0.3882 -0.1498 -0.3012
  272TMC3    C4 4110   3.878   0.439  14.324 -0.0331  0.0108 -0.5641
  272TMC3    C5 4111   3.926   0.378  14.435 -1.2039  0.2956 -0.5536
  272TMC3    C6 4112   4.059   0.364  14.466 -0.0087 -0.1915 -0.3580
  272TMC3     C 4113   3.937   0.589  14.139  0.0533  0.0154 -0.0242
  272TMC3     O 4114   4.029   0.639  14.070 -0.3762 -0.1911 -0.0782
  272TMC3     H 4115   4.178   0.497  14.185  2.2373  1.1026  1.9236
  272TMC3    H1 4116   3.772   0.451  14.299 -0.0327 -1.3561 -1.1963
  272TMC3    H2 4117   4.105   0.317  14.552 -0.9410  0.4873  0.5194
  272TMC3    C7 4118   3.840   0.392  14.550  0.4080 -0.3870 -0.4167
  272TMC3    C8 4119   4.295   0.382  14.393  1.2484  0.2345 -1.0488
  272TMC3    O1 4120   3.718   0.374  14.539 -0.5109  0.2393 -0.1977
  272TMC3    O2 4121   4.368   0.449  14.324  0.0715 -0.7641 -0.2601
  273MPD2     C 4122   0.469   3.072  11.934 -0.7177 -0.5098 -0.5163
  273MPD2    C1 4123   0.536   3.190  11.892 -0.3287 -0.0844  0.3570
  273MPD2    C2 4124   0.574   3.203  11.764  0.0403 -0.7663 -0.3788
  273MPD2    C3 4125   0.514   3.115  11.670  0.0618  0.1169 -0.7593
  273MPD2    C4 4126   0.448   2.999  11.710  0.2869 -0.0490  0.8320
  273MPD2    C5 4127   0.432   2.973  11.845 -0.0991 -0.7808 -0.0331
  273MPD2     H 4128   0.629   3.291  11.733 -0.7459  0.6708  2.2237
  273MPD2    H1 4129   0.408   2.923  11.645  0.2898 -0.6245  1.5031
  273MPD2    H2 4130   0.452   3.066  12.041  1.0725  0.4420 -0.1795
  273MPD2    H3 4131   0.373   2.887  11.873  1.0472 -2.6247 -3.3802
  273MPD2     N 4132   0.516   3.161  11.538  0.0487 -0.2525  0.1658
  273MPD2    H5 4133   0.558   3.253  11.526 -0.2552  0.0626  1.5148
  273MPD2    N1 4134   0.586   3.275  11.996 -0.1639 -0.3376  0.5659
  273MPD2    H7 4135   0.552   3.252  12.089 -0.5052 -0.4108  0.4225
  274TMC3    C1 4136   0.440   3.200  11.323  0.1826  0.0955  0.5302
  274TMC3    C2 4137   0.327   3.196  11.245  0.2843  0.1018 -0.6893
  274TMC3    C3 4138   0.291   3.302  11.178  0.6728  0.4543 -0.2836
  274TMC3    C4 4139   0.521   3.310  11.329 -0.6235 -0.4603 -0.2151
  274TMC3    C5 4140   0.476   3.415  11.249  0.2621  0.5290 -0.1325
  274TMC3    C6 4141   0.370   3.414  11.164 -0.4062 -0.5616 -0.2960
  274TMC3     C 4142   0.456   3.109  11.433 -0.3259 -0.3394 -0.3207
  274TMC3     O 4143   0.401   3.001  11.427  0.0746 -0.1543  0.0181
  274TMC3     H 4144   0.278   3.099  11.237 -0.4912  0.5334 -1.0952
  274TMC3    H1 4145   0.609   3.325  11.390 -1.4184  0.7710  0.6344
  274TMC3    H2 4146   0.326   3.506  11.127 -1.8189 -1.4604 -0.8716
  274TMC3    C7 4147   0.468   3.530  11.330 -0.1104 -0.6372 -0.0897
  274TMC3    C8 4148   0.171   3.303  11.097  0.3303 -0.4398 -0.1956
  274TMC3    O1 4149   0.355   3.577  11.346  0.8118 -0.6853 -0.6458
  274TMC3    O2 4150   0.085   3.231  11.141 -0.1949  0.1285 -0.0268
  275MPD2     C 4151   0.281   1.066  14.760 -0.0382 -0.5927  0.1183
  275MPD2    C1 4152   0.294   1.206  14.766  0.7485 -0.1758  0.0095
  275MPD2    C2 4153   0.184   1.281  14.759  0.8527  0.7070  0.4507
  275MPD2    C3 4154   0.060   1.227  14.731 -0.8123  0.3513 -0.1589
  275MPD2    C4 4155   0.043   1.088  14.714  0.4264  0.2706  0.1128
  275MPD2    C5 4156   0.155   1.008  14.725 -0.7995  0.1415  0.7402
  275MPD2     H 4157   0.198   1.388  14.769  1.4437  0.7769 -1.1087
  275MPD2    H1 4158   4.678   1.042  14.677  0.2452  0.2857  0.5438
  275MPD2    H2 4159   0.369   1.003  14.763 -0.0346 -0.5590  0.8836
  275MPD2    H3 4160   0.152   0.906  14.691  0.9579  1.1873 -2.5465
  275MPD2     N 4161   4.668   1.306  14.718  0.3062  0.0957  0.1580
  275MPD2    H5 4162   4.590   1.252  14.682  0.9279 -1.3159  0.9044
  275MPD2    N1 4163   0.424   1.254  14.777  0.0576  0.0265 -0.9148
  275MPD2    H7 4164   0.500   1.187  14.773  1.0868  1.0427  1.5247
  276TMC3    C1 4165   0.610   1.398  14.805  0.8570  0.1072 -0.0549
  276TMC3    C2 4166   0.686   1.295  14.848 -0.1942 -0.8841  1.0565
  276TMC3    C3 4167   0.817   1.319  14.872 -0.3554 -0.5892 -0.2819
  276TMC3    C4 4168   0.664   1.525  14.780 -0.7787  0.4731  0.5886
  276TMC3    C5 4169   0.795   1.551  14.804 -0.3988  0.0767  0.0942
  276TMC3    C6 4170   0.873   1.444  14.843  0.0637 -0.0293  0.6779
  276TMC3     C 4171   0.461   1.384  14.799  0.2877  0.3477 -0.6009
  276TMC3     O 4172   0.398   1.490  14.801 -0.3357 -0.4212  0.3032
  276TMC3     H 4173   0.637   1.200  14.867 -0.6144 -0.5026  1.8905
  276TMC3    H1 4174   0.591   1.604  14.765 -2.2207 -0.8918  0.4675
  276TMC3    H2 4175   0.980   1.460  14.857  0.0928 -2.6956  3.4655
  276TMC3    C7 4176   0.820   1.660  14.894  0.2189  0.0683  0.8646
  276TMC3    C8 4177   0.912   1.224  14.928 -0.0132 -0.6242  0.4205
  276TMC3    O1 4178   0.872   1.633  15.002  0.2068  0.4088  0.5188
  276TMC3    O2 4179   1.026   1.255  14.950  0.1518  0.2105 -0.1062
  277MPD2     C 4180   2.334   0.563  13.625 -0.0085  0.1864 -0.0572
  277MPD2    C1 4181   2.200   0.587  13.620  0.2612 -0.4309  0.2863
  277MPD2    C2 4182   2.117   0.535  13.715 -0.3842 -0.4331 -0.2947
  277MPD2    C3 4183   2.171   0.478  13.832 -0.2301 -0.3593 -0.1846
  277MPD2    C4 4184   2.307   0.469  13.847 -0.3125  0.0545  0.4522
  277MPD2    C5 4185   2.379   0.513  13.742 -1.3210 -0.4576 -0.2827
  277MPD2     H 4186   2.009   0.543  13.712 -0.1058  2.8026 -2.0257
  277MPD2    H1 4187   2.357   0.435  13.937  0.8258  1.0559  0.2068
  277MPD2    H2 4188   2.397   0.591  13.541  0.8899 -2.0531 -0.1211
  277MPD2    H3 4189   2.485   0.490  13.743 -1.0145  1.0607  2.5181
  277MPD2     N 4190   2.088   0.424  13.929 -0.4130  0.4485  0.1784
  277MPD2    H5 4191   1.989   0.444  13.920 -0.4388  0.5056  0.5946
  277MPD2    N1 4192   2.146   0.641  13.501  0.2283 -0.2152  0.2151
  277MPD2    H7 4193   2.213   0.691  13.443 -2.7046  0.9063 -2.1840
  278TMC3    C1 4194   1.986   0.297  14.077 -0.5081  0.1046  1.0391
  278TMC3    C2 4195   1.978   0.164  14.082 -0.2914  0.4234 -0.1071
  278TMC3    C3 4196   1.863   0.102  14.052 -0.8818  0.0708  0.9778
  278TMC3    C4 4197   1.879   0.372  14.076  0.0381  0.2238 -0.2011
  278TMC3    C5 4198   1.761   0.311  14.082 -0.4232  0.4633  0.2504
  278TMC3    C6 4199   1.750   0.175  14.057 -0.4440 -0.5170  0.3599
  278TMC3     C 4200   2.116   0.346  14.034 -0.3173  0.5013 -0.1722
  278TMC3     O 4201   2.225   0.302  14.069  0.1391 -0.1920 -0.3104
  278TMC3     H 4202   2.075   0.114  14.084 -0.3246  0.5096  4.4283
  278TMC3    H1 4203   1.883   0.481  14.079  0.0361  0.2055  0.4632
  278TMC3    H2 4204   1.654   0.127  14.074 -1.0407  1.1519  1.6864
  278TMC3    C7 4205   1.648   0.397  14.058  0.3268  0.1299  0.1854
  278TMC3    C8 4206   1.864   4.689  14.002  0.8249  0.0261 -0.7616
  278TMC3    O1 4207   1.664   0.513  14.096  0.3434 -0.1132  0.2709
  278TMC3    O2 4208   1.971   4.632  14.004  0.1825 -0.4029  0.6181
  279MPD2     C 4209   1.097   0.235   0.411  0.0890  0.5852 -0.5883
  279MPD2    C1 4210   0.998   0.332   0.401 -0.3984 -0.3668  0.3817
  279MPD2    C2 4211   1.005   0.413   0.293 -0.7371  0.6074  0.1901
  279MPD2    C3 4212   1.067   0.380   0.176 -0.3909 -0.6600 -0.9273
  279MPD2    C4 4213   1.173   0.282   0.194  0.4082  0.1538  0.7126
  279MPD2    C5 4214   1.186   0.211   0.309 -0.2362 -0.1830  0.2416
  279MPD2     H 4215   0.932   0.494   0.295 -0.5876  0.7688 -1.6166
  279MPD2    H1 4216   1.233   0.259   0.107 -0.4222  1.6173 -0.2498
  279MPD2    H2 4217   1.107   0.190   0.509  0.7250  0.8248 -0.5447
  279MPD2    H3 4218   1.266   0.139   0.326 -0.9167 -1.0441 -0.2168
  279MPD2     N 4219   1.043   0.432   0.049  0.0437  0.1124  0.2502
  279MPD2    H5 4220   1.101   0.396  17.680  1.0521  0.9600  0.6219
  279MPD2    N1 4221   0.901   0.359   0.501 -0.4205  0.1106  0.6174
  279MPD2    H7 4222   0.828   0.420   0.467 -0.7367 -0.1587  0.8023
  280TMC3    C1 4223   0.778   0.370   0.700  0.2168  0.2480  0.4892
  280TMC3    C2 4224   0.712   0.293   0.796 -0.1355 -0.4144 -0.2848
  280TMC3    C3 4225   0.606   0.352   0.853 -0.2871  0.7038  0.1862
  280TMC3    C4 4226   0.735   0.494   0.661  0.0396 -0.5746  0.1637
  280TMC3    C5 4227   0.634   0.552   0.735  0.8120 -0.3793 -0.7829
  280TMC3    C6 4228   0.559   0.476   0.828  0.3252 -0.2296  0.2367
  280TMC3     C 4229   0.883   0.301   0.624 -0.1859  0.4466 -0.2028
  280TMC3     O 4230   0.948   0.211   0.665 -0.1173  0.3969 -1.0596
  280TMC3     H 4231   0.750   0.195   0.822 -1.7560 -1.1555 -0.7102
  280TMC3    H1 4232   0.794   0.552   0.592 -0.0450 -0.9645 -0.2334
  280TMC3    H2 4233   0.470   0.523   0.870  1.5126 -0.2816  2.8073
  280TMC3    C7 4234   0.576   0.682   0.693  0.0718  0.6191 -0.5897
  280TMC3    C8 4235   0.508   0.253   0.882 -0.6254  0.2667  0.0381
  280TMC3    O1 4236   0.499   0.741   0.766 -0.2398  0.1141  0.1696
  280TMC3    O2 4237   0.531   0.143   0.834 -0.4507  0.2152 -0.1951
  281TMC3    C1 4238   0.445   0.978  13.269 -0.0605 -0.0896  0.2466
  281TMC3    C2 4239   0.510   1.056  13.173  0.4413 -0.1940  0.6068
  281TMC3    C3 4240   0.568   0.987  13.065 -0.1096  0.1982  0.1345
  281TMC3    C4 4241   0.442   0.840  13.260 -0.1907 -0.0574 -0.7178
  281TMC3    C5 4242   0.521   0.775  13.163 -0.0808 -0.1432  0.4621
  281TMC3    C6 4243   0.583   0.851  13.060 -0.0407 -0.1848  0.1655
  281TMC3     C 4244   0.331   1.031  13.341 -0.5155 -0.3185  1.0091
  281TMC3     O 4245   0.262   0.948  13.406 -0.7120  0.0042 -0.3607
  281TMC3     H 4246   0.526   1.163  13.180 -1.2073  0.1208 -0.5200
  281TMC3    H1 4247   0.394   0.782  13.338 -1.3576  0.2848 -1.1777
  281TMC3    H2 4248   0.646   0.809  12.983  1.3385  0.9055  0.7086
  281TMC3    C7 4249   0.513   0.635  13.125  0.3088 -0.7360  0.9627
  281TMC3    C8 4250   0.657   1.064  12.980  0.1933 -0.2421  0.2307
  281TMC3    O1 4251   0.539   0.610  13.010  0.1221 -0.0288 -0.5072
  281TMC3    O2 4252   0.761   1.005  12.951  0.2740  0.1606  0.2142
  282MPD2     C 4253   1.833   2.321  15.227 -0.0883 -0.9651 -0.8669
  282MPD2    C1 4254   1.708   2.345  15.260  0.4509  0.2502  0.4289
  282MPD2    C2 4255   1.630   2.397  15.162 -0.1951  0.4635  0.3876
  282MPD2    C3 4256   1.686   2.440  15.042 -0.2080  1.2813  0.0000
  282MPD2    C4 4257   1.816   2.414  15.015 -0.2164 -0.5311 -0.3224
  282MPD2    C5 4258   1.892   2.354  15.108 -0.1801  0.7140  0.2566
  282MPD2     H 4259   1.525   2.420  15.176 -1.1501 -2.8119 -1.4746
  282MPD2    H1 4260   1.868   2.444  14.925  2.1119 -0.4043  1.0507
  282MPD2    H2 4261   1.906   2.284  15.297 -0.6851 -0.1500  0.1870
  282MPD2    H3 4262   1.996   2.331  15.091 -0.3856 -0.4806  0.5732
  282MPD2     N 4263   1.597   2.481  14.941 -0.0512  0.0346  0.0075
  282MPD2    H5 4264   1.499   2.501  14.959 -0.1981 -0.6536 -0.0517
  282MPD2    N1 4265   1.650   2.338  15.388 -0.4432  0.2571  0.3908
  282MPD2    H7 4266   1.560   2.382  15.402  0.0024  0.7459  1.6646
  283TMC3    C1 4267   1.653   2.288  15.612 -0.1367 -0.0040 -0.1282
  283TMC3    C2 4268   1.629   2.421  15.660 -0.6919 -0.0891 -0.3227
  283TMC3    C3 4269   1.545   2.443  15.768  0.7714  0.3673  0.1739
  283TMC3    C4 4270   1.600   2.183  15.672  0.6116 -0.0772  0.1627
  283TMC3    C5 4271   1.524   2.207  15.785 -0.9103 -0.2724  0.4883
  283TMC3    C6 4272   1.498   2.337  15.835  0.5913 -0.8518  0.1987
  283TMC3     C 4273   1.712   2.268  15.486  0.1391 -0.3829  0.1200
  283TMC3     O 4274   1.782   2.170  15.475  0.1530  0.3727 -1.2271
  283TMC3     H 4275   1.672   2.510  15.618 -0.5098  0.3702  0.8284
  283TMC3    H1 4276   1.602   2.086  15.624  1.8826 -1.2089  2.5338
  283TMC3    H2 4277   1.426   2.350  15.915 -1.1023  0.8509 -1.5974
  283TMC3    C7 4278   1.433   2.103  15.824 -0.4541 -0.3909 -0.4178
  283TMC3    C8 4279   1.565   2.561  15.855 -0.2995 -0.6435  0.0600
  283TMC3    O1 4280   1.325   2.143  15.871 -0.0966  0.6692  0.1115
  283TMC3    O2 4281   1.544   2.544  15.971 -0.5394 -0.7839  0.2476
  284MPD2     C 4282   0.284   0.842  12.170 -0.2507  0.0509 -0.2936
  284MPD2    C1 4283   0.322   0.868  12.041  0.2735 -0.2033 -0.1612
  284MPD2    C2 4284   0.244   0.824  11.941  0.9034  0.2453  0.2916
  284MPD2    C3 4285   0.137   0.740  11.963  0.1417  0.1675  0.1937
  284MPD2    C4 4286   0.111   0.703  12.103 -0.8670  0.1580  0.3367
  284MPD2    C5 4287   0.177   0.765  12.202  0.0350  0.1836 -0.1443
  284MPD2     H 4288   0.275   0.842  11.839 -1.7754  1.9333 -0.2316
  284MPD2    H1 4289   0.034   0.628  12.116 -2.4768  1.5761 -1.0523
  284MPD2    H2 4290   0.336   0.891  12.251  0.9185 -0.0100 -1.0083
  284MPD2    H3 4291   0.147   0.741  12.303 -2.5771 -0.1000 -0.9880
  284MPD2     N 4292   0.053   0.681  11.862 -0.3055  0.1518  0.0683
  284MPD2    H5 4293   4.724   0.600  11.887 -0.3692  0.2403  0.2127
  284MPD2    N1 4294   0.431   0.956  12.007  0.6261 -0.3282 -0.1405
  284MPD2    H7 4295   0.445   0.963  11.907 -2.2587  2.7481 -0.3431
  285TMC3    C1 4296   0.616   1.102  12.016  0.0053 -0.0411 -0.2406
  285TMC3    C2 4297   0.637   1.045  11.892  0.7042  0.5289 -0.3778
  285TMC3    C3 4298   0.662   1.124  11.788 -0.5249  0.0625  0.4636
  285TMC3    C4 4299   0.619   1.233  12.037  1.0450 -0.0667 -0.2374
  285TMC3    C5 4300   0.642   1.316  11.930 -0.7054 -0.1390  0.2891
  285TMC3    C6 4301   0.674   1.261  11.805  0.3565  0.1874  0.2298
  285TMC3     C 4302   0.511   1.036  12.091  0.3773  0.7328  0.2231
  285TMC3     O 4303   0.495   1.062  12.209  0.1039  0.1315 -0.1158
  285TMC3     H 4304   0.644   0.939  11.869  0.3837  0.4430 -0.0833
  285TMC3    H1 4305   0.586   1.271  12.132  0.1700  1.2929 -1.0799
  285TMC3    H2 4306   0.684   1.328  11.720  2.1725  1.4515  1.4251
  285TMC3    C7 4307   0.626   1.458  11.948 -0.1292  0.1425 -0.8236
  285TMC3    C8 4308   0.654   1.075  11.653 -0.6983 -0.1134 -0.1102
  285TMC3    O1 4309   0.695   1.527  11.872  0.4697 -0.8301 -0.0162
  285TMC3    O2 4310   0.576   0.986  11.637 -0.1504 -0.1237  0.2149
  286MPD2     C 4311   4.244   4.632   1.819 -0.6173 -0.3676  0.2513
  286MPD2    C1 4312   4.236   4.653   1.685 -0.3287 -0.8125  0.1414
  286MPD2    C2 4313   4.301   4.575   1.594  0.2689  0.0650  0.5088
  286MPD2    C3 4314   4.381   4.472   1.641  0.1611  0.1908  0.0555
  286MPD2    C4 4315   4.391   4.453   1.779  0.0943 -0.0644  0.7552
  286MPD2    C5 4316   4.315   4.530   1.862  0.5559  0.0375  0.1159
  286MPD2     H 4317   4.276   4.590   1.489  2.4121  1.3587  0.1775
  286MPD2    H1 4318   4.453   4.373   1.818 -2.7911 -2.6874  0.0198
  286MPD2    H2 4319   4.210   4.708   1.888  1.2882  1.8809 -1.2869
  286MPD2    H3 4320   4.325   4.513   1.968  1.6846  0.4525  0.0739
  286MPD2     N 4321   4.449   4.385   1.559  0.0351  0.3697 -0.1898
  286MPD2    H5 4322   4.515   4.320   1.600 -0.6494 -0.4079 -0.3383
  286MPD2    N1 4323   4.169   0.046   1.646  0.2877 -0.7760 -0.0842
  286MPD2    H7 4324   4.182   0.077   1.550 -0.9728  0.5983  0.1952
  287TMC3    C1 4325   4.513   4.243   1.381  0.0417  0.6538  0.2505
  287TMC3    C2 4326   4.476   4.143   1.289 -1.0262  0.0084 -0.3049
  287TMC3    C3 4327   4.575   4.053   1.245 -0.6138  0.3660 -0.0571
  287TMC3    C4 4328   4.644   4.254   1.432  0.0358 -0.4341  0.1437
  287TMC3    C5 4329   0.005   4.165   1.385 -0.0244 -1.1220 -1.1590
  287TMC3    C6 4330   4.703   4.066   1.287 -0.5792 -0.8612 -1.1113
  287TMC3     C 4331   4.423   4.348   1.425 -0.0865 -0.4091 -0.8609
  287TMC3     O 4332   4.328   4.371   1.353  0.3592  0.4622  0.4709
  287TMC3     H 4333   4.375   4.117   1.260 -1.1590  1.1065 -0.8409
  287TMC3    H1 4334   4.678   4.333   1.498 -0.8760  0.1289 -0.0555
  287TMC3    H2 4335   0.047   3.986   1.267  0.5917 -0.6364  2.2316
  287TMC3    C7 4336   0.130   4.171   1.444  0.1203 -0.0114  0.1381
  287TMC3    C8 4337   4.539   3.937   1.158  0.1690 -0.7277 -0.4693
  287TMC3    O1 4338   0.167   4.280   1.485  0.0130 -0.5346 -0.4441
  287TMC3    O2 4339   4.423   3.928   1.130 -0.4170  0.4131  0.4107
  288TMC3    C1 4340   2.394   0.242  14.595  0.6133 -0.1653 -0.0493
  288TMC3    C2 4341   2.385   0.160  14.707  0.6749 -0.0711 -0.3039
  288TMC3    C3 4342   2.270   0.097  14.742 -1.0457  0.1394  0.1549
  288TMC3    C4 4343   2.291   0.258  14.514 -0.2145 -0.0560 -0.3846
  288TMC3    C5 4344   2.176   0.205  14.562  0.6721 -0.6819 -0.0836
  288TMC3    C6 4345   2.154   0.119  14.667 -0.2527 -0.3081  0.0720
  288TMC3     C 4346   2.520   0.252  14.528  0.6516  0.1894  0.0540
  288TMC3     O 4347   2.521   0.335  14.437 -0.5454 -0.1577 -0.1856
  288TMC3     H 4348   2.472   0.148  14.770  1.7751 -1.1601 -2.0329
  288TMC3    H1 4349   2.307   0.312  14.422  1.0693  1.4485  0.7177
  288TMC3    H2 4350   2.054   0.086  14.693 -0.1096  0.2327  1.3517
  288TMC3    C7 4351   2.062   0.274  14.497 -0.2663 -0.2477 -0.3602
  288TMC3    C8 4352   2.250   0.068  14.880  0.1386 -0.2087 -0.2734
  288TMC3    O1 4353   1.969   0.206  14.457  0.0993 -0.0248 -0.8610
  288TMC3    O2 4354   2.341   0.107  14.952  0.5058  0.0102 -1.1351
  289MPD2     C 4355   2.407   4.073  14.592 -0.0243 -0.6926  0.0082
  289MPD2    C1 4356   2.403   4.180  14.506  0.3683 -0.4013 -0.6153
  289MPD2    C2 4357   2.292   4.203  14.428 -1.0378  0.1775 -0.3643
  289MPD2    C3 4358   2.167   4.139  14.454 -1.0668 -0.8137  0.4478
  289MPD2    C4 4359   2.178   4.036  14.541  0.2337 -0.8081  0.5767
  289MPD2    C5 4360   2.294   3.995  14.602  0.1346 -0.2215 -0.6322
  289MPD2     H 4361   2.293   4.279  14.350 -1.3486 -0.9021 -1.4187
  289MPD2    H1 4362   2.102   3.964  14.569 -1.6003  0.9836  0.1226
  289MPD2    H2 4363   2.498   4.047  14.645 -1.8244 -0.8450  3.0614
  289MPD2    H3 4364   2.299   3.902  14.658  1.1478  0.7274  0.8692
  289MPD2     N 4365   2.050   4.166  14.387  0.3655 -0.7984 -0.0299
  289MPD2    H5 4366   1.972   4.106  14.413  0.7934 -0.4377  2.0807
  289MPD2    N1 4367   2.526   4.250  14.491 -0.1909  0.1190  0.5528
  289MPD2    H7 4368   2.596   4.226  14.561  2.2182  1.8041 -1.2606
  290TMC3    C1 4369   1.886   4.274  14.267  0.2746  0.7557 -0.1532
  290TMC3    C2 4370   1.829   4.402  14.272 -0.0925  0.0207  0.2760
  290TMC3    C3 4371   1.695   4.412  14.259  0.1133 -0.3841 -0.3760
  290TMC3    C4 4372   1.818   4.154  14.272  0.8116  0.2322  0.3647
  290TMC3    C5 4373   1.682   4.172  14.263 -0.4143 -0.6498  0.4459
  290TMC3    C6 4374   1.619   4.295  14.260 -0.5391 -0.1135 -0.2904
  290TMC3     C 4375   2.030   4.266  14.297 -0.1281  1.0667 -0.1656
  290TMC3     O 4376   2.105   4.355  14.254  0.2565 -0.2257  0.0812
  290TMC3     H 4377   1.897   4.486  14.267 -1.2778  0.9152 -0.9587
  290TMC3    H1 4378   1.868   4.061  14.247  0.8061  0.4983 -0.6294
  290TMC3    H2 4379   1.511   4.298  14.252 -0.7013 -0.1075  1.7281
  290TMC3    C7 4380   1.600   4.053  14.290  0.0343  0.9965 -0.2638
  290TMC3    C8 4381   1.622   4.544  14.260 -0.0520  0.0963 -0.4109
  290TMC3    O1 4382   1.479   4.077  14.285  0.5369 -0.0537  0.4012
  290TMC3    O2 4383   1.519   4.543  14.196  0.7126  0.8623  0.3607
  291MPD2     C 4384   0.917   3.820  17.472 -0.0570 -0.2943 -0.1577
  291MPD2    C1 4385   0.904   3.767  17.595 -0.7756  0.2718  0.0219
  291MPD2    C2 4386   0.997   3.799  17.691 -0.3648  0.2062  0.5793
  291MPD2    C3 4387   1.110   3.884  17.668 -0.1032  0.3824 -0.0439
  291MPD2    C4 4388   1.114   3.945  17.547  0.3083 -0.1265  0.4021
  291MPD2    C5 4389   1.021   3.906  17.453 -0.4319  1.2062  0.6357
  291MPD2     H 4390   0.989   3.750   0.082  2.0207 -1.2552  0.0359
  291MPD2    H1 4391   1.184   4.022  17.517 -1.6550  1.2076 -0.8115
  291MPD2    H2 4392   0.857   3.798  17.384  0.6702  1.2739 -1.0491
  291MPD2    H3 4393   1.025   3.957  17.357  0.3620  0.5435  0.3158
  291MPD2     N 4394   1.209   3.921   0.057 -0.1367  0.4537 -0.5163
  291MPD2    H5 4395   1.271   3.989   0.014  0.5564  1.2971  1.8223
  291MPD2    N1 4396   0.817   3.661  17.628  0.5320 -0.2620 -0.1928
  291MPD2    H7 4397   0.809   3.635   0.020  1.8689  4.8844  1.2719
  292TMC3    C1 4398   0.637   3.516  17.611  0.5078 -0.0669  1.0470
  292TMC3    C2 4399   0.578   3.536   0.029 -0.0544 -0.3154  0.0576
  292TMC3    C3 4400   0.503   3.446   0.093 -0.0947 -0.3892  0.0092
  292TMC3    C4 4401   0.618   3.402  17.548 -0.0151  0.1632 -0.4227
  292TMC3    C5 4402   0.541   3.304  17.614  0.6300 -0.6832 -0.3400
  292TMC3    C6 4403   0.476   3.329   0.030 -0.1078  0.0508 -0.3126
  292TMC3     C 4404   0.727   3.610  17.539 -0.2004 -0.0238  0.6155
  292TMC3     O 4405   0.739   3.595  17.419 -0.8363 -0.1414 -0.0757
  292TMC3     H 4406   0.591   3.628   0.086  0.3239  0.1022 -0.6999
  292TMC3    H1 4407   0.667   3.375  17.455  1.0028  0.6997 -0.0503
  292TMC3    H2 4408   0.409   3.257   0.074  0.1331 -0.2207 -0.3852
  292TMC3    C7 4409   0.506   3.184  17.537  0.1271 -0.5950 -0.2435
  292TMC3    C8 4410   0.455   3.478   0.229  0.7328 -0.2911 -0.4810
  292TMC3    O1 4411   0.584   3.140  17.455 -0.5563  0.1357 -1.0432
  292TMC3    O2 4412   0.475   3.593   0.267  0.5100 -0.3391  0.0005
  293MPD2     C 4413   3.263   0.433  12.682  0.4302  0.7172  0.0755
  293MPD2    C1 4414   3.231   0.376  12.799  0.6031 -0.0777  0.2505
  293MPD2    C2 4415   3.321   0.379  12.899  0.1616 -0.4022 -0.1556
  293MPD2    C3 4416   3.445   0.441  12.890 -0.6120  0.4448  1.0837
  293MPD2    C4 4417   3.479   0.500  12.769 -0.4433  0.3936  0.1328
  293MPD2    C5 4418   3.388   0.486  12.666  0.3183  0.3876 -0.0724
  293MPD2     H 4419   3.285   0.350  12.997  0.2796  0.9771  0.2929
  293MPD2    H1 4420   3.575   0.542  12.743 -0.7229  1.4040  0.7231
  293MPD2    H2 4421   3.194   0.420  12.599 -0.3814 -1.2434  1.0484
  293MPD2    H3 4422   3.417   0.515  12.566 -1.0873 -1.1552 -0.9233
  293MPD2     N 4423   3.517   0.453  13.007  0.7984  0.1125  0.3116
  293MPD2    H5 4424   3.481   0.400  13.085  2.0391  0.6862  1.2908
  293MPD2    N1 4425   3.106   0.310  12.810  0.3270 -0.1217 -0.0843
  293MPD2    H7 4426   3.045   0.318  12.729  0.2653 -3.3400 -0.3631
  294TMC3    C1 4427   2.913   0.216  12.897 -0.2630 -0.4173  0.0891
  294TMC3    C2 4428   2.846   0.314  12.823  0.2834 -0.1060  0.2381
  294TMC3    C3 4429   2.746   0.262  12.746 -0.3367 -0.1232  0.0126
  294TMC3    C4 4430   2.884   0.088  12.911 -0.0771 -0.2783  0.3960
  294TMC3    C5 4431   2.781   0.044  12.842  0.1316 -0.3592  0.0638
  294TMC3    C6 4432   2.708   0.126  12.764 -0.3275 -0.5500  0.0298
  294TMC3     C 4433   3.054   0.243  12.919  0.6615  0.0070 -0.3253
  294TMC3     O 4434   3.110   0.195  13.020  0.2536  0.3857  0.1158
  294TMC3     H 4435   2.880   0.415  12.807 -2.0695  0.4332 -1.2741
  294TMC3    H1 4436   2.955   0.020  12.955  1.9876  0.0375 -2.4432
  294TMC3    H2 4437   2.608   0.094  12.739  0.1202 -0.7155 -1.5504
  294TMC3    C7 4438   2.800   4.639  12.786 -0.0731 -0.4444  0.4060
  294TMC3    C8 4439   2.735   0.319  12.615  0.0808  0.4514  0.1387
  294TMC3    O1 4440   2.841   4.550  12.858  0.3499  0.1661 -0.6712
  294TMC3    O2 4441   2.813   0.404  12.578  0.0021 -0.5787 -0.1722
  295MPD2     C 4442   2.986   3.564   0.201  0.4259  0.1212  0.2581
  295MPD2    C1 4443   3.094   3.626   0.266  0.0476  0.2959 -0.0897
  295MPD2    C2 4444   3.119   3.602   0.398 -0.2605 -0.2294 -0.2332
  295MPD2    C3 4445   3.026   3.525   0.480 -0.4942  0.3390  0.2124
  295MPD2    C4 4446   2.916   3.473   0.416 -0.6324  0.5626  0.2182
  295MPD2    C5 4447   2.889   3.497   0.282 -0.0541  0.6216 -0.3328
  295MPD2     H 4448   3.203   3.654   0.442  0.3872 -1.1997 -0.3036
  295MPD2    H1 4449   2.852   3.408   0.475  1.7379 -1.4066  0.6071
  295MPD2    H2 4450   2.962   3.569   0.095 -0.7761  1.5775  0.5918
  295MPD2    H3 4451   2.801   3.457   0.233 -0.2967 -1.0733  1.4821
  295MPD2     N 4452   3.043   3.505   0.617 -0.8096  0.2211  0.1454
  295MPD2    H5 4453   2.969   3.459   0.670  0.9287 -2.2457  0.4068
  295MPD2    N1 4454   3.192   3.694   0.191  0.1145  0.6516  0.1064
  295MPD2    H7 4455   3.281   3.702   0.240  0.1530  0.9538 -0.0180
  296TMC3    C1 4456   3.164   3.520   0.820  0.1513  0.1767 -0.3798
  296TMC3    C2 4457   3.288   3.500   0.878  0.1355 -0.4598  0.6296
  296TMC3    C3 4458   3.288   3.482   1.019  0.3011 -0.5879  0.1467
  296TMC3    C4 4459   3.048   3.514   0.898  0.6324  0.8356  0.0200
  296TMC3    C5 4460   3.060   3.515   1.035 -0.4600  0.3668 -0.4869
  296TMC3    C6 4461   3.178   3.488   1.098 -0.3146 -0.0141 -0.2000
  296TMC3     C 4462   3.159   3.543   0.675  0.2266  0.6365  0.5396
  296TMC3     O 4463   3.267   3.544   0.618 -0.1019  0.1647  0.1772
  296TMC3     H 4464   3.379   3.500   0.818  0.3793 -1.9187  1.0074
  296TMC3    H1 4465   2.951   3.517   0.849 -0.6145 -1.2761  2.2947
  296TMC3    H2 4466   3.184   3.466   1.204 -1.6523 -1.1538 -0.3725
  296TMC3    C7 4467   2.947   3.485   1.125  0.3952 -0.0066 -0.1195
  296TMC3    C8 4468   3.416   3.469   1.078  0.2631 -0.1664 -0.4957
  296TMC3    O1 4469   2.972   3.429   1.228  0.2934 -0.2384  0.5921
  296TMC3    O2 4470   3.499   3.396   1.023 -0.4516  0.2793 -0.1079
  297MPD2     C 4471   0.710   0.933  16.438 -0.4225  0.3081 -0.3556
  297MPD2    C1 4472   0.728   0.965  16.301 -0.0989 -0.3872 -0.4457
  297MPD2    C2 4473   0.815   1.065  16.272  0.0624  0.3865 -0.3435
  297MPD2    C3 4474   0.887   1.126  16.375  0.3316 -0.2134 -0.5307
  297MPD2    C4 4475   0.852   1.112  16.507 -0.3368 -0.6412 -0.3259
  297MPD2    C5 4476   0.770   1.003  16.538  0.1376  0.1641 -0.8197
  297MPD2     H 4477   0.833   1.104  16.172  1.5282 -0.2012 -0.3176
  297MPD2    H1 4478   0.897   1.158  16.595  0.3327 -1.1679 -0.3924
  297MPD2    H2 4479   0.659   0.846  16.477  1.4498  0.4682  2.4863
  297MPD2    H3 4480   0.754   0.961  16.637  3.0670 -0.9148 -0.8097
  297MPD2     N 4481   0.978   1.225  16.327 -0.1808  0.0574 -0.1823
  297MPD2    H5 4482   1.003   1.228  16.229 -0.7284  3.6182 -0.2005
  297MPD2    N1 4483   0.660   0.903  16.193 -0.3040  1.0675  0.1104
  297MPD2    H7 4484   0.670   0.949  16.102 -2.0690 -0.3598 -0.8083
  298TMC3    C1 4485   0.506   0.776  16.081  0.7446  0.6728  0.3681
  298TMC3    C2 4486   0.548   0.839  15.965  0.1746 -0.4557 -0.1713
  298TMC3    C3 4487   0.476   0.812  15.855 -0.2922 -0.2866  0.2770
  298TMC3    C4 4488   0.383   0.716  16.100  0.0709 -0.0861  0.7542
  298TMC3    C5 4489   0.301   0.721  15.984  0.3242  0.6494 -0.7486
  298TMC3    C6 4490   0.344   0.763  15.859  0.0659  0.3548 -0.1544
  298TMC3     C 4491   0.570   0.804  16.208  0.4458 -0.6630 -0.0894
  298TMC3     O 4492   0.526   0.768  16.315 -0.3136 -0.3795 -0.5794
  298TMC3     H 4493   0.649   0.871  15.940  0.4080 -2.0962 -1.3000
  298TMC3    H1 4494   0.349   0.677  16.195 -2.4298 -3.1052 -1.3371
  298TMC3    H2 4495   0.285   0.771  15.768  0.6091 -1.7132 -0.6758
  298TMC3    C7 4496   0.157   0.757  15.990  0.5586 -0.3214 -0.2988
  298TMC3    C8 4497   0.507   0.899  15.740 -0.0283 -0.1226  0.1897
  298TMC3    O1 4498   0.087   0.730  15.896  0.0385 -0.3608  0.1883
  298TMC3    O2 4499   0.412   0.941  15.679 -0.4993 -0.2203 -0.0902
  299MPD2     C 4500   1.333   0.354  10.800 -0.1887 -0.0892  0.6737
  299MPD2    C1 4501   1.374   0.452  10.716 -0.1812 -0.0652 -1.1459
  299MPD2    C2 4502   1.311   0.465  10.596 -0.6378  0.0578 -0.3609
  299MPD2    C3 4503   1.197   0.388  10.562  0.1055  0.4491 -0.9972
  299MPD2    C4 4504   1.158   0.299  10.653  1.3187 -0.3022 -0.1732
  299MPD2    C5 4505   1.233   0.276  10.766  0.5527  0.6333  0.2498
  299MPD2     H 4506   1.353   0.535  10.524 -0.3988 -0.6958 -0.9543
  299MPD2    H1 4507   1.066   0.243  10.636  1.5117 -1.2825  2.0455
  299MPD2    H2 4508   1.385   0.334  10.893 -2.3693  0.6560  2.0749
  299MPD2    H3 4509   1.188   0.201  10.831 -1.2941  0.3231 -1.4089
  299MPD2     N 4510   1.135   0.396  10.431 -0.1082  0.9907 -0.2674
  299MPD2    H5 4511   1.061   0.331  10.407  0.6669 -0.1056  0.3168
  299MPD2    N1 4512   1.485   0.516  10.762  0.3574 -0.1239  0.3002
  299MPD2    H7 4513   1.530   0.478  10.844  1.7345  1.8559  0.4541
  300TMC3    C1 4514   1.090   0.482  10.225  0.1317 -0.1600 -0.7204
  300TMC3    C2 4515   1.134   0.540  10.111  0.7624  0.2516 -0.9834
  300TMC3    C3 4516   1.049   0.582  10.017 -0.2453 -0.2684  1.0936
  300TMC3    C4 4517   0.959   0.464  10.249  0.4295  1.2952 -0.3037
  300TMC3    C5 4518   0.869   0.502  10.151 -0.5050 -0.5694 -0.5781
  300TMC3    C6 4519   0.919   0.560  10.032  0.5165 -0.0833  0.1755
  300TMC3     C 4520   1.180   0.474  10.331 -0.2682  0.2047 -0.1333
  300TMC3     O 4521   1.280   0.541  10.320 -0.1355 -0.1649  0.6957
  300TMC3     H 4522   1.241   0.543  10.094  0.4314  2.0046 -2.7621
  300TMC3    H1 4523   0.923   0.430  10.346  0.5075 -1.5654 -1.2871
  300TMC3    H2 4524   0.850   0.601   9.959 -0.3060 -1.1851  0.3270
  300TMC3    C7 4525   0.727   0.508  10.165  0.2169 -0.1140 -0.4761
  300TMC3    C8 4526   1.069   0.711   9.960 -0.6254 -0.1017  0.1195
  300TMC3    O1 4527   0.661   0.502  10.063  0.4324  0.8768 -0.3958
  300TMC3    O2 4528   0.990   0.756   9.875 -0.3507  0.0948 -0.5965
  301MPD2     C 4529   3.191   2.189   1.818 -0.8628 -0.0129 -0.2160
  301MPD2    C1 4530   3.059   2.147   1.807 -0.0224 -0.3187  0.3391
  301MPD2    C2 4531   3.035   2.009   1.809 -0.8771 -0.0254  0.4573
  301MPD2    C3 4532   3.140   1.918   1.801 -0.4572  0.4882  0.5670
  301MPD2    C4 4533   3.265   1.965   1.825  0.5933 -0.9231 -0.0230
  301MPD2    C5 4534   3.291   2.098   1.848 -0.5414  0.4861 -0.7585
  301MPD2     H 4535   2.936   1.970   1.787 -0.9245 -0.7766  1.9700
  301MPD2    H1 4536   3.346   1.893   1.814  2.8934  1.8828 -1.2610
  301MPD2    H2 4537   3.208   2.295   1.825  0.9297 -0.3551  0.5807
  301MPD2    H3 4538   3.393   2.137   1.850 -1.4133  2.6793  1.5614
  301MPD2     N 4539   3.129   1.788   1.757 -0.8206 -0.0421 -0.1636
  301MPD2    H5 4540   3.212   1.732   1.747  0.2328  1.0903  2.0977
  301MPD2    N1 4541   2.949   2.237   1.785  0.3561 -0.1395 -0.0834
  301MPD2    H7 4542   2.856   2.197   1.787  0.2639  0.1093  0.6172
  302TMC3    C1 4543   3.035   1.586   1.663 -0.4021  0.2317 -0.1933
  302TMC3    C2 4544   3.164   1.524   1.663 -0.5688  0.4192 -0.1414
  302TMC3    C3 4545   3.182   1.412   1.579  0.4537  0.7478  0.4309
  302TMC3    C4 4546   2.934   1.542   1.588  0.0492 -0.9316  0.2738
  302TMC3    C5 4547   2.959   1.447   1.491  0.8989 -0.5747  0.0636
  302TMC3    C6 4548   3.078   1.377   1.491 -0.0584  0.6006  0.4686
  302TMC3     C 4549   3.009   1.727   1.718 -0.0012 -0.6148  0.6505
  302TMC3     O 4550   2.891   1.757   1.728 -0.3119 -0.3371  0.3595
  302TMC3     H 4551   3.247   1.548   1.728 -0.1927 -0.9150 -0.1239
  302TMC3    H1 4552   2.834   1.582   1.601  0.1315 -0.1974 -1.4682
  302TMC3    H2 4553   3.097   1.294   1.424 -1.1353 -0.4412  1.4426
  302TMC3    C7 4554   2.853   1.379   1.418  0.4556 -0.2568  0.5724
  302TMC3    C8 4555   3.307   1.342   1.573  0.2496  0.1268 -0.1065
  302TMC3    O1 4556   2.866   1.264   1.390 -0.3037  0.3015  0.7143
  302TMC3    O2 4557   3.302   1.225   1.535  0.1993 -0.3918 -0.6802
  303MPD2     C 4558   3.112   0.179  10.533  0.1571  0.1561 -0.2171
  303MPD2    C1 4559   3.011   0.106  10.580 -0.1793 -0.0495 -0.4256
  303MPD2    C2 4560   2.917   0.053  10.496  0.1450  0.6605 -0.1499
  303MPD2    C3 4561   2.930   0.074  10.356  0.0321 -0.6049  0.4600
  303MPD2    C4 4562   3.030   0.155  10.312  0.0350 -0.1293 -0.1796
  303MPD2    C5 4563   3.121   0.204  10.397 -0.3109  0.3184  0.3225
  303MPD2     H 4564   2.841   4.707  10.523  1.5185 -0.2732  1.2819
  303MPD2    H1 4565   3.054   0.185  10.211  0.0280 -0.6915 -0.3511
  303MPD2    H2 4566   3.180   0.227  10.602  1.4489 -1.2293 -0.5380
  303MPD2    H3 4567   3.207   0.264  10.372  1.8579 -4.2817 -3.3655
  303MPD2     N 4568   2.853   0.005  10.260 -1.0740 -0.3796 -0.2677
  303MPD2    H5 4569   2.899   0.005  10.169 -1.2845 -2.8266 -0.3799
  303MPD2    N1 4570   3.021   0.080  10.717  0.3526 -0.1321  0.0660
  303MPD2    H7 4571   3.105   0.114  10.763 -0.4102 -0.9223  2.0278
  304TMC3    C1 4572   2.984   4.678  10.919  0.2733  0.0435  0.0346
  304TMC3    C2 4573   2.889   4.640  11.007 -0.0605  0.5703  0.0459
  304TMC3    C3 4574   2.924   4.551  11.102 -0.0256 -0.6034  0.4337
  304TMC3    C4 4575   3.111   4.637  10.920 -0.2790 -0.2985 -0.0457
  304TMC3    C5 4576   3.141   4.537  11.012 -0.3281  0.6188 -0.3300
  304TMC3    C6 4577   3.047   4.504  11.104 -0.0860  0.4274  0.1802
  304TMC3     C 4578   2.929   0.006  10.788  0.2342  0.5999 -1.0786
  304TMC3     O 4579   2.817   4.704  10.758 -0.1093 -0.4588 -0.4708
  304TMC3     H 4580   2.782   4.653  10.993  0.0480  0.5902 -0.7667
  304TMC3    H1 4581   3.173   4.654  10.833  0.5497 -2.7725  0.0464
  304TMC3    H2 4582   3.060   4.430  11.182 -0.0847  0.5385  0.2850
  304TMC3    C7 4583   3.203   4.429  10.940 -0.4220 -0.2639  0.2456
  304TMC3    C8 4584   2.831   4.436  11.120  0.3179 -0.5831 -0.2552
  304TMC3    O1 4585   3.296   4.456  10.860 -0.6341 -0.1094  0.1216
  304TMC3    O2 4586   2.878   4.333  11.081  0.4445 -0.4790  0.8085
  305MPD2     C 4587   1.498   2.533  14.002 -0.1702  0.1547 -0.6419
  305MPD2    C1 4588   1.613   2.455  14.000 -0.2795 -0.2006  0.1246
  305MPD2    C2 4589   1.633   2.368  13.896  0.8101  0.4769 -1.2939
  305MPD2    C3 4590   1.532   2.340  13.799 -0.5095 -0.4304 -0.1793
  305MPD2    C4 4591   1.410   2.416  13.813 -0.9788 -0.0448  0.0436
  305MPD2    C5 4592   1.400   2.512  13.915  0.1199  0.4572  0.0680
  305MPD2     H 4593   1.727   2.318  13.877  0.2910 -1.1031  0.2454
  305MPD2    H1 4594   1.323   2.400  13.750 -1.5169  2.3581  0.1749
  305MPD2    H2 4595   1.489   2.598  14.088  2.6440 -1.0689  0.5741
  305MPD2    H3 4596   1.309   2.572  13.920 -0.1724 -0.2086  2.6676
  305MPD2     N 4597   1.558   2.247  13.697  0.8526 -0.2500  0.5957
  305MPD2    H5 4598   1.656   2.232  13.672  1.1518  2.5186  0.0807
  305MPD2    N1 4599   1.707   2.485  14.101  0.1991  0.2193  1.0818
  305MPD2    H7 4600   1.686   2.556  14.170  1.3590  2.1391 -0.5680
  306TMC3    C1 4601   1.864   2.438  14.266  0.2601 -0.1697 -0.4403
  306TMC3    C2 4602   1.934   2.341  14.325 -0.9654  0.0679  0.1110
  306TMC3    C3 4603   1.950   2.348  14.457 -0.0211  0.2460  0.3341
  306TMC3    C4 4604   1.826   2.554  14.333 -0.3049 -0.3482  0.2382
  306TMC3    C5 4605   1.846   2.557  14.470 -0.2331 -0.3799 -0.9922
  306TMC3    C6 4606   1.903   2.454  14.530  0.0891  0.0380 -0.7273
  306TMC3     C 4607   1.819   2.411  14.130  0.0461  0.3568 -0.6797
  306TMC3     O 4608   1.873   2.320  14.065 -0.2409 -0.4972  0.1441
  306TMC3     H 4609   1.983   2.265  14.264  0.3858  0.9706  0.0706
  306TMC3    H1 4610   1.785   2.640  14.282  0.6576 -0.2203 -0.3295
  306TMC3    H2 4611   1.928   2.455  14.636  2.4309  1.3276 -1.2890
  306TMC3    C7 4612   1.789   2.669  14.552  0.5297  1.1738  0.6449
  306TMC3    C8 4613   1.999   2.232  14.528  0.4895  0.5184  0.1365
  306TMC3    O1 4614   1.687   2.725  14.510  0.6048 -0.5873 -0.3091
  306TMC3    O2 4615   2.096   2.181  14.478 -0.6335  0.4086  0.3690
  307MPD2     C 4616   3.880   4.645   1.060 -0.5192 -0.8762  0.8290
  307MPD2    C1 4617   3.924   0.032   0.997  0.2760  0.5311 -1.6377
  307MPD2    C2 4618   3.843   0.144   0.997  0.2932  0.4747  0.2956
  307MPD2    C3 4619   3.725   0.140   1.060  0.1646  0.1419 -1.3243
  307MPD2    C4 4620   3.674   0.019   1.117  0.0239  0.3564 -0.5962
  307MPD2    C5 4621   3.754   4.640   1.120  0.4199 -0.3395  0.0790
  307MPD2     H 4622   3.873   0.229   0.936 -2.0026  0.9132 -0.2575
  307MPD2    H1 4623   3.580   0.016   1.171  1.3076 -0.6919  1.5710
  307MPD2    H2 4624   3.934   4.552   1.045 -1.4818 -1.3438  0.2288
  307MPD2    H3 4625   3.710   4.554   1.169  3.0368 -1.0320  1.2265
  307MPD2     N 4626   3.645   0.260   1.056  0.3247 -0.4296 -0.3043
  307MPD2    H5 4627   3.670   0.336   0.994 -0.1604 -0.2877 -0.3282
  307MPD2    N1 4628   4.038   0.042   0.912 -0.0041 -0.2117  0.1971
  307MPD2    H7 4629   4.049   0.130   0.861 -2.5086  1.5291  2.6733
  308TMC3    C1 4630   3.229   0.496   1.041  0.4385  0.4342  0.5862
  308TMC3    C2 4631   3.296   0.610   1.005 -0.4005  0.2155 -0.0406
  308TMC3    C3 4632   3.433   0.613   1.011 -0.8812  0.1716 -0.4710
  308TMC3    C4 4633   3.306   0.389   1.085 -0.2753 -0.2574 -0.4752
  308TMC3    C5 4634   3.449   0.395   1.082  0.0466  0.0279  0.3204
  308TMC3    C6 4635   3.514   0.504   1.040  0.0385 -0.1992  0.1641
  308TMC3     C 4636   3.079   0.494   1.051 -0.4781  0.0261  0.3125
  308TMC3     O 4637   3.033   0.389   1.095  0.4905  0.5845  0.6816
  308TMC3     H 4638   3.238   0.701   0.994  1.0903  1.1425 -0.0927
  308TMC3    H1 4639   3.258   0.295   1.109  0.1326 -0.4584 -0.4512
  308TMC3    H2 4640   3.622   0.503   1.053 -0.0443 -0.4284  0.8227
  308TMC3    C7 4641   3.521   0.276   1.127  0.0413  0.7736  0.5278
  308TMC3    C8 4642   3.490   0.745   1.005 -0.0968  0.7841 -0.6935
  308TMC3    O1 4643   3.464   0.211   1.212 -0.6843 -0.2310 -0.1198
  308TMC3    O2 4644   3.416   0.841   1.028 -0.1675 -0.3244 -0.3050
  309MPD2     C 4645   3.395   0.682  17.116  0.6378  0.3042  0.1191
  309MPD2    C1 4646   3.370   0.765  17.010 -0.0570 -1.1818  0.0081
  309MPD2    C2 4647   3.263   0.844  17.018  0.6975 -0.2336 -0.6587
  309MPD2    C3 4648   3.182   0.851  17.133  0.1666  1.1080 -1.0733
  309MPD2    C4 4649   3.202   0.764  17.238 -0.6836 -0.3082  0.2961
  309MPD2    C5 4650   3.310   0.682  17.222 -0.2862  0.3191  0.2187
  309MPD2     H 4651   3.242   0.898  16.927 -0.0070  1.2015  0.3409
  309MPD2    H1 4652   3.144   0.760  17.329  0.0965 -1.5948  0.7304
  309MPD2    H2 4653   3.466   0.601  17.110 -0.8869 -0.9008 -1.6744
  309MPD2    H3 4654   3.346   0.610  17.295  1.4230  1.2929  0.3387
  309MPD2     N 4655   3.073   0.946  17.146 -0.5031 -0.3773  0.1318
  309MPD2    H5 4656   3.023   0.935  17.234  0.0695 -2.6411  0.1894
  309MPD2    N1 4657   3.428   0.748  16.884  0.1762 -0.2002  0.4379
  309MPD2    H7 4658   3.376   0.801  16.814  0.1117 -0.9506 -0.0797
  310TMC3    C1 4659   3.573   0.670  16.711 -0.1533  0.1435  0.1660
  310TMC3    C2 4660   3.539   0.779  16.642 -0.6437 -0.1019  0.1537
  310TMC3    C3 4661   3.564   0.781  16.501  0.2654  0.3016 -0.1571
  310TMC3    C4 4662   3.641   0.569  16.657  0.0552  0.6747 -0.0070
  310TMC3    C5 4663   3.662   0.568  16.519 -0.2760  0.2527 -0.6082
  310TMC3    C6 4664   3.624   0.673  16.437  0.4127 -0.5604 -0.1377
  310TMC3     C 4665   3.543   0.669  16.859 -0.5773  0.3433 -1.2587
  310TMC3     O 4666   3.628   0.609  16.928  0.0006  0.4469 -0.2286
  310TMC3     H 4667   3.487   0.863  16.687 -0.0146  1.3264 -1.7644
  310TMC3    H1 4668   3.677   0.493  16.725 -0.7250 -1.7060 -2.2455
  310TMC3    H2 4669   3.645   0.682  16.331 -2.5672 -0.3107 -0.6925
  310TMC3    C7 4670   3.729   0.445  16.464 -1.6270  1.2113  1.1119
  310TMC3    C8 4671   3.478   0.867  16.418 -0.0324 -0.3480  0.2949
  310TMC3    O1 4672   3.735   0.350  16.535  0.5051 -0.0562 -0.3557
  310TMC3    O2 4673   3.370   0.892  16.458 -0.6735 -0.1982  0.3824
  311MPD2     C 4674   1.187   1.969  12.870 -0.1321  0.0177 -0.0502
  311MPD2    C1 4675   1.160   2.098  12.815 -0.2743  0.1475  0.3099
  311MPD2    C2 4676   1.034   2.150  12.821  0.1914 -0.3847 -0.2602
  311MPD2    C3 4677   0.933   2.096  12.902 -0.2266 -0.7472  0.1621
  311MPD2    C4 4678   0.965   1.974  12.963 -0.4001  0.4687  0.0891
  311MPD2    C5 4679   1.081   1.912  12.937 -0.9321  0.0833  0.0985
  311MPD2     H 4680   1.006   2.234  12.759  0.7840  0.2288  0.3153
  311MPD2    H1 4681   0.897   1.927  13.034 -0.1098  2.3424  1.5985
  311MPD2    H2 4682   1.286   1.925  12.865  1.0290  2.9320 -3.3051
  311MPD2    H3 4683   1.100   1.817  12.986 -0.9336 -0.3505 -0.7579
  311MPD2     N 4684   0.807   2.162  12.910 -0.5641 -0.2038 -0.7170
  311MPD2    H5 4685   0.801   2.252  12.863 -0.7255 -0.0245 -0.3507
  311MPD2    N1 4686   1.259   2.165  12.739 -0.1598 -0.4444  0.0349
  311MPD2    H7 4687   1.233   2.257  12.704 -0.8786 -0.7223 -0.1561
  312TMC3    C1 4688   0.590   2.203  12.930 -0.3188  0.2437  0.1433
  312TMC3    C2 4689   0.478   2.159  12.869 -0.3501 -0.4269  0.6582
  312TMC3    C3 4690   0.374   2.244  12.844 -0.5557  0.4682  0.0147
  312TMC3    C4 4691   0.612   2.334  12.957  0.3207  0.6116  1.0265
  312TMC3    C5 4692   0.502   2.414  12.927 -0.6876 -0.2379 -1.0495
  312TMC3    C6 4693   0.388   2.380  12.867  0.2066  0.5420  0.1606
  312TMC3     C 4694   0.694   2.112  12.960 -0.2311 -0.0455  0.2023
  312TMC3     O 4695   0.671   1.997  12.987 -0.0731  0.2992 -0.0475
  312TMC3     H 4696   0.463   2.054  12.848 -1.6733 -0.3838  1.3488
  312TMC3    H1 4697   0.706   2.365  13.001  1.0448 -0.3909  0.2146
  312TMC3    H2 4698   0.310   2.453  12.853 -1.0884 -1.0560 -0.9807
  312TMC3    C7 4699   0.508   2.548  12.979 -0.1894  0.2687 -0.3088
  312TMC3    C8 4700   0.243   2.197  12.835  0.2207  0.2607 -0.4124
  312TMC3    O1 4701   0.432   2.633  12.936 -0.1012 -0.4404 -0.2406
  312TMC3    O2 4702   0.214   2.084  12.864 -0.2019 -0.0506 -0.5957
  313MPD2     C 4703   0.772   1.064  10.233  0.0423  0.5023 -0.4803
  313MPD2    C1 4704   0.678   0.979  10.284  1.2440 -0.1059  0.1727
  313MPD2    C2 4705   0.609   0.898  10.193  0.0599  0.5797  0.1882
  313MPD2    C3 4706   0.639   0.899  10.058 -0.6381 -0.6030 -0.1440
  313MPD2    C4 4707   0.744   0.978  10.017 -0.4355  0.2925  0.4460
  313MPD2    C5 4708   0.805   1.062  10.097  0.1483 -1.1642 -0.2931
  313MPD2     H 4709   0.530   0.831  10.227  0.7660 -0.8779 -1.0222
  313MPD2    H1 4710   0.793   0.966   9.921  1.5374  2.2525  1.2175
  313MPD2    H2 4711   0.847   1.112  10.295 -2.2433  1.1316  1.7805
  313MPD2    H3 4712   0.889   1.117  10.057 -1.3023  0.9588 -0.4125
  313MPD2     N 4713   0.560   0.816   9.982  0.1783  0.1140 -0.0779
  313MPD2    H5 4714   0.495   0.755  10.031  0.4493  0.7582  1.1096
  313MPD2    N1 4715   0.630   0.975  10.417 -0.5709 -0.3146 -0.2278
  313MPD2    H7 4716   0.546   0.920  10.431 -0.6673 -0.2297 -0.4785
  314TMC3    C1 4717   0.614   1.008  10.648  0.5462  0.0916 -0.1475
  314TMC3    C2 4718   0.628   1.091  10.755 -0.4250 -0.3421 -0.3636
  314TMC3    C3 4719   0.514   1.127  10.827 -0.1891 -0.5072 -0.0199
  314TMC3    C4 4720   0.489   0.952  10.633  0.5122  0.3138 -0.2715
  314TMC3    C5 4721   0.383   0.985  10.709 -0.0330  0.3028  0.1271
  314TMC3    C6 4722   0.392   1.083  10.797 -0.1298  0.1322 -0.0971
  314TMC3     C 4723   0.699   1.017  10.532  0.3608 -0.4336 -0.4233
  314TMC3     O 4724   0.809   1.068  10.537 -0.1364 -0.4695 -0.0214
  314TMC3     H 4725   0.717   1.150  10.773 -0.2013 -0.9451  0.5459
  314TMC3    H1 4726   0.472   0.870  10.564 -0.8240  1.5658 -1.4074
  314TMC3    H2 4727   0.305   1.123  10.848 -1.9973 -1.6051 -1.8668
  314TMC3    C7 4728   0.253   0.970  10.650  0.0597 -0.8280 -0.3168
  314TMC3    C8 4729   0.535   1.202  10.957 -0.3134 -0.8277  0.5635
  314TMC3    O1 4730   0.186   0.883  10.695 -0.7814 -0.4186 -0.2214
  314TMC3    O2 4731   0.624   1.285  10.961 -0.3153  0.5334  0.0960
  315MPD2     C 4732   4.716   0.293  17.686 -0.2621 -0.8160  0.1617
  315MPD2    C1 4733   0.009   0.378   0.086 -0.1575  0.3114 -0.3442
  315MPD2    C2 4734   0.049   0.505   0.070 -0.2383  0.2690 -0.1691
  315MPD2    C3 4735   0.070   0.556  17.650 -0.4793 -0.3782  0.3892
  315MPD2    C4 4736   0.043   0.474  17.539  0.1813  0.2010 -0.2123
  315MPD2    C5 4737   4.725   0.342  17.562 -0.1653 -0.6143 -0.4557
  315MPD2     H 4738   0.078   0.565   0.155  0.6405  0.1190 -0.3676
  315MPD2    H1 4739   0.065   0.512  17.440  0.0436  0.6119 -0.0838
  315MPD2    H2 4740   4.689   0.188  17.695 -0.0702 -0.6547  2.6428
  315MPD2    H3 4741   4.716   0.271  17.481  1.1169 -1.9661  0.5941
  315MPD2     N 4742   0.115   0.692  17.635 -0.5559  0.5894  0.1984
  315MPD2    H5 4743   0.144   0.740   0.013 -1.2007  1.4822 -0.0864
  315MPD2    N1 4744   4.721   0.335   0.216 -0.4984  0.8081 -0.2036
  315MPD2    H7 4745   4.708   0.408   0.286  0.4037 -0.6918  1.5212
  316TMC3    C1 4746   0.193   0.889  17.539  0.2360 -0.6787 -0.2362
  316TMC3    C2 4747   0.278   0.902  17.647 -0.9386 -0.5530 -0.1251
  316TMC3    C3 4748   0.365   1.006  17.656  0.3794 -0.0425  0.1942
  316TMC3    C4 4749   0.195   0.978  17.436  0.4495  0.3885 -0.1000
  316TMC3    C5 4750   0.269   1.093  17.455  0.4828 -0.4101 -0.1603
  316TMC3    C6 4751   0.359   1.101  17.558  0.0267  0.1562 -0.3206
  316TMC3     C 4752   0.124   0.763  17.522 -0.0959  0.6130  0.4204
  316TMC3     O 4753   0.059   0.746  17.418 -0.1160  0.2698  0.3176
  316TMC3     H 4754   0.266   0.841   0.029 -0.7930  2.0030  1.6584
  316TMC3    H1 4755   0.128   0.964  17.352 -0.4372  0.0233  0.6724
  316TMC3    H2 4756   0.414   1.194  17.562 -2.1425  1.3996  0.2494
  316TMC3    C7 4757   0.231   1.215  17.386 -0.2417 -0.4773  0.3197
  316TMC3    C8 4758   0.410   1.045   0.081 -0.1130  0.4487  0.2583
  316TMC3    O1 4759   0.306   1.316  17.406 -0.2943  0.2384 -0.3637
  316TMC3    O2 4760   0.451   1.160   0.100 -0.3752  0.2749 -0.2213
  317MPD2     C 4761   1.785   4.294  13.290 -0.4385 -0.0615 -0.1908
  317MPD2    C1 4762   1.789   4.170  13.232  0.2306  0.4472 -0.1642
  317MPD2    C2 4763   1.865   4.078  13.308 -0.4291  0.7240  0.4661
  317MPD2    C3 4764   1.930   4.108  13.426 -0.3189  0.3906  0.0066
  317MPD2    C4 4765   1.917   4.234  13.471  0.4376  0.7259 -0.3845
  317MPD2    C5 4766   1.839   4.323  13.410  0.6761 -0.0563  0.2102
  317MPD2     H 4767   1.884   3.977  13.276 -1.3873  0.8537 -0.4707
  317MPD2    H1 4768   1.952   4.270  13.567  0.7320  1.8214 -0.9028
  317MPD2    H2 4769   1.705   4.356  13.251  0.7186  1.0648 -0.7578
  317MPD2    H3 4770   1.841   4.426  13.443  2.9933  0.2424 -0.8334
  317MPD2     N 4771   2.002   4.014  13.494  0.2030 -0.3706  0.2569
  317MPD2    H5 4772   2.018   3.927  13.445 -3.0111 -1.2350  0.7256
  317MPD2    N1 4773   1.714   4.135  13.120  0.0297  0.6570 -0.5957
  317MPD2    H7 4774   1.722   4.038  13.094  1.5135  1.1353 -1.9361
  318TMC3    C1 4775   2.133   3.911  13.654  0.3245 -0.3201 -0.5873
  318TMC3    C2 4776   2.073   3.786  13.621  0.8169  0.4428  0.4444
  318TMC3    C3 4777   2.128   3.671  13.674 -0.1865 -0.1372 -0.0995
  318TMC3    C4 4778   2.244   3.919  13.733 -0.5296  0.2191  0.6106
  318TMC3    C5 4779   2.293   3.800  13.777  0.3136  0.0180  0.5026
  318TMC3    C6 4780   2.242   3.675  13.748 -0.2763  0.1350 -0.1503
  318TMC3     C 4781   2.064   4.029  13.611  0.9116  0.0022  0.9577
  318TMC3     O 4782   2.096   4.133  13.671  0.1148 -0.4745  0.0312
  318TMC3     H 4783   1.970   3.779  13.586  0.7505 -0.8389  0.9090
  318TMC3    H1 4784   2.276   4.016  13.768 -1.1836  1.1964 -1.4963
  318TMC3    H2 4785   2.288   3.579  13.772  0.5400  0.4289 -0.5225
  318TMC3    C7 4786   2.431   3.811  13.818 -0.0471 -0.2515 -0.0951
  318TMC3    C8 4787   2.061   3.546  13.653 -0.1851 -0.6599 -0.0159
  318TMC3    O1 4788   2.475   3.926  13.830  0.4681  0.3083  0.2240
  318TMC3    O2 4789   2.084   3.461  13.741  0.3276  0.2584 -0.2229
  319MPD2     C 4790   2.881   0.625  16.988  0.3133 -0.1955  0.1738
  319MPD2    C1 4791   2.780   0.557  17.047 -0.3293  0.1567  0.0317
  319MPD2    C2 4792   2.693   0.479  16.971 -0.4170 -0.0685  0.9146
  319MPD2    C3 4793   2.713   0.463  16.836  0.3871 -0.4448 -0.0283
  319MPD2    C4 4794   2.817   0.534  16.781  0.2626 -0.0263 -0.0252
  319MPD2    C5 4795   2.897   0.624  16.850  0.3143 -0.5723 -0.7955
  319MPD2     H 4796   2.615   0.420  17.019 -2.1721  0.8301 -0.8214
  319MPD2    H1 4797   2.847   0.522  16.677 -2.2539 -1.1099 -0.6184
  319MPD2    H2 4798   2.952   0.687  17.042 -0.1315 -0.5071  1.0984
  319MPD2    H3 4799   2.982   0.679  16.810  0.7426 -1.7523 -1.4906
  319MPD2     N 4800   2.620   0.406  16.752 -0.2692  0.6201  0.2729
  319MPD2    H5 4801   2.635   0.415  16.652  0.7324 -1.9650  0.1837
  319MPD2    N1 4802   2.748   0.574  17.183 -0.5975  0.2665  0.4691
  319MPD2    H7 4803   2.687   0.504  17.224 -0.1859 -0.8604 -0.8581
  320TMC3    C1 4804   2.457   0.279  16.647  0.1687  0.8789  0.2153
  320TMC3    C2 4805   2.442   0.375  16.551 -0.9214  0.1606  0.4402
  320TMC3    C3 4806   2.390   0.342  16.427  0.3514 -0.2835  0.2353
  320TMC3    C4 4807   2.404   0.148  16.631  0.1842 -0.1237  0.0946
  320TMC3    C5 4808   2.340   0.125  16.511 -0.7796  0.8845 -0.3093
  320TMC3    C6 4809   2.343   0.215  16.405  0.3435  0.2775  0.5378
  320TMC3     C 4810   2.522   0.310  16.770  0.1309  0.4174 -0.0883
  320TMC3     O 4811   2.504   0.252  16.875 -0.1419 -0.3230  0.1081
  320TMC3     H 4812   2.464   0.481  16.560 -0.1539 -0.0420  0.9042
  320TMC3    H1 4813   2.423   0.071  16.705 -1.6096  0.4854  1.2074
  320TMC3    H2 4814   2.301   0.184  16.310 -0.0665 -2.9957  1.7859
  320TMC3    C7 4815   2.320   4.710  16.465  0.1813  0.2674 -0.0387
  320TMC3    C8 4816   2.353   0.448  16.332 -0.4635 -0.2774  0.3156
  320TMC3    O1 4817   2.325   4.688  16.345 -0.0106  0.4513 -0.8693
  320TMC3    O2 4818   2.344   0.562  16.373 -0.3935 -0.1256 -0.6356
  321TMC3    C1 4819   2.763   0.661  17.408 -0.2175 -0.0520 -0.2535
  321TMC3    C2 4820   2.693   0.553  17.458  0.2559 -0.3881 -0.1970
  321TMC3    C3 4821   2.693   0.537  17.594  0.1627  0.3207 -0.6168
  321TMC3    C4 4822   2.814   0.759  17.482 -0.1250 -0.1645 -0.3144
  321TMC3    C5 4823   2.813   0.744  17.616  0.6142  0.4406  0.0830
  321TMC3    C6 4824   2.749   0.636  17.673  0.1851  0.6944  0.9009
  321TMC3     C 4825   2.796   0.670  17.265  1.0502  0.3396  0.2699
  321TMC3     O 4826   2.870   0.760  17.232  0.3804 -0.4963  0.6277
  321TMC3     H 4827   2.647   0.481  17.392 -0.0724 -0.6111  0.2743
  321TMC3    H1 4828   2.859   0.849  17.442 -0.1671 -0.3521 -0.7720
  321TMC3    H2 4829   2.740   0.638   0.075 -2.3190 -1.5506  0.7150
  321TMC3    C7 4830   2.941   0.754  17.680  0.3694 -0.2965 -0.0552
  321TMC3    C8 4831   2.710   0.408  17.652  0.5607  0.7710 -0.4203
  321TMC3    O1 4832   3.027   0.709  17.611  0.6893 -0.2296 -0.1084
  321TMC3    O2 4833   2.748   0.396   0.065 -0.1926 -0.1722  0.0848
  322MPD2     C 4834   1.908   1.560  13.356 -0.4049 -0.2063  0.4469
  322MPD2    C1 4835   1.897   1.574  13.500  0.2702  0.3356  0.7959
  322MPD2    C2 4836   1.911   1.471  13.581  0.0336 -0.6023 -0.6718
  322MPD2    C3 4837   1.945   1.344  13.526  0.6185 -0.3624 -0.5630
  322MPD2    C4 4838   1.967   1.335  13.388  0.1632 -0.7519  0.2439
  322MPD2    C5 4839   1.955   1.444  13.308 -0.7649 -0.5161  0.3300
  322MPD2     H 4840   1.911   1.472  13.690 -3.1902  1.1286 -0.6826
  322MPD2    H1 4841   1.986   1.243  13.334  1.3887 -0.4817  0.2178
  322MPD2    H2 4842   1.869   1.632  13.285 -1.1112 -0.5147  0.5211
  322MPD2    H3 4843   1.975   1.427  13.203 -1.0316 -0.4935  0.2759
  322MPD2     N 4844   1.962   1.233  13.613  0.0558 -0.1449 -1.2721
  322MPD2    H5 4845   1.930   1.259  13.706 -1.4624  0.0497 -1.8546
  322MPD2    N1 4846   1.870   1.707  13.543  0.3497  0.2597 -0.2878
  322MPD2    H7 4847   1.870   1.780  13.472 -0.1164 -1.6957 -2.3145
  323TMC3    C1 4848   1.844   1.894  13.684  0.1979 -0.2359 -0.1842
  323TMC3    C2 4849   1.940   1.975  13.625  0.4711  0.1880 -0.1873
  323TMC3    C3 4850   1.976   2.093  13.684  0.0853 -0.8705 -0.2966
  323TMC3    C4 4851   1.792   1.932  13.801  0.1833  0.2631 -0.2360
  323TMC3    C5 4852   1.832   2.045  13.867  0.7908  0.2494 -0.5910
  323TMC3    C6 4853   1.925   2.123  13.808  0.0457  0.9077 -0.1146
  323TMC3     C 4854   1.857   1.747  13.670 -0.2499 -0.0126 -0.9334
  323TMC3     O 4855   1.825   1.671  13.757 -0.4741 -0.4013 -0.3826
  323TMC3     H 4856   2.004   1.923  13.555 -0.1122  0.2596 -0.7732
  323TMC3    H1 4857   1.719   1.871  13.853  1.2952 -1.9140 -1.2408
  323TMC3    H2 4858   1.966   2.206  13.865  0.5961 -1.1230  2.4327
  323TMC3    C7 4859   1.883   2.009  13.998  0.4651 -0.1102  0.2790
  323TMC3    C8 4860   2.116   2.120  13.674 -0.8360 -0.1552  0.4902
  323TMC3    O1 4861   1.806   1.946  14.070 -0.3169  0.4199  0.5267
  323TMC3    O2 4862   2.164   2.129  13.787  0.0054  0.1686  0.0800
  324MPD2     C 4863   3.207   2.296  14.470  0.1155 -0.7619  0.1637
  324MPD2    C1 4864   3.242   2.400  14.404 -0.7097 -0.0326 -0.6691
  324MPD2    C2 4865   3.172   2.519  14.398 -0.8315  0.9710  0.7369
  324MPD2    C3 4866   3.046   2.528  14.466 -0.3623 -0.0317 -0.1482
  324MPD2    C4 4867   3.008   2.409  14.528 -0.1968  0.0949 -0.0508
  324MPD2    C5 4868   3.089   2.302  14.535  0.2162  0.7492 -0.4266
  324MPD2     H 4869   3.197   2.601  14.332 -0.5679  1.6947  1.7303
  324MPD2    H1 4870   2.908   2.405  14.572 -0.3909 -0.3043 -0.5405
  324MPD2    H2 4871   3.265   2.205  14.485  1.6524  0.2837  0.4581
  324MPD2    H3 4872   3.064   2.219  14.600 -0.1013  1.2415  0.0864
  324MPD2     N 4873   2.938   2.613  14.436  0.3423  0.6977  0.0672
  324MPD2    H5 4874   2.850   2.608  14.487 -0.6244  2.1283 -1.4646
  324MPD2    N1 4875   3.367   2.401  14.333  0.3592 -0.1620 -0.8171
  324MPD2    H7 4876   3.384   2.483  14.276  0.7991  1.3302  1.4941
  325TMC3    C1 4877   2.811   2.775  14.344 -0.4732  0.8061 -0.5707
  325TMC3    C2 4878   2.688   2.713  14.337 -0.4243  0.3932  0.2370
  325TMC3    C3 4879   2.580   2.797  14.332  0.1205 -0.4290 -0.2720
  325TMC3    C4 4880   2.826   2.904  14.319  0.3994  0.5014  0.2822
  325TMC3    C5 4881   2.719   2.985  14.302 -0.1593  0.2746 -1.0209
  325TMC3    C6 4882   2.596   2.934  14.327 -0.4138  0.0103 -0.1147
  325TMC3     C 4883   2.938   2.715  14.346  0.3359 -0.6350  0.2776
  325TMC3     O 4884   3.030   2.758  14.279 -0.4426 -0.1415 -0.3078
  325TMC3     H 4885   2.680   2.606  14.350  3.2682  0.1659  0.4905
  325TMC3    H1 4886   2.925   2.948  14.318 -0.2135  1.8367 -1.2998
  325TMC3    H2 4887   2.508   2.998  14.319 -1.5322 -1.2766  1.7896
  325TMC3    C7 4888   2.741   3.125  14.317 -0.2247 -0.1780  0.8060
  325TMC3    C8 4889   2.445   2.738  14.291 -0.1607 -0.0879 -0.0946
  325TMC3    O1 4890   2.838   3.156  14.390 -0.2031 -0.2165  0.0211
  325TMC3    O2 4891   2.443   2.624  14.245  0.0770 -0.4183  0.6106
  326MPD2     C 4892   4.513   3.454  11.365 -0.1874 -0.1884 -0.1080
  326MPD2    C1 4893   4.498   3.509  11.241 -0.4597  0.4799  0.1138
  326MPD2    C2 4894   4.596   3.592  11.192 -0.3491  0.1003 -0.4698
  326MPD2    C3 4895   4.703   3.632  11.277 -0.1038  0.0485  0.1013
  326MPD2    C4 4896   4.709   3.581  11.403  0.1553 -0.1138  0.6418
  326MPD2    C5 4897   4.611   3.491  11.448 -0.3651 -0.1391  0.9573
  326MPD2     H 4898   4.594   3.638  11.094  0.5610  2.5424  0.6524
  326MPD2    H1 4899   0.066   3.603  11.469 -0.0270  0.0696  0.8110
  326MPD2    H2 4900   4.435   3.383  11.393  1.0291 -1.3490  0.3247
  326MPD2    H3 4901   4.624   3.458  11.550  1.5479  1.3881  1.2083
  326MPD2     N 4902   0.072   3.729  11.230 -0.6598 -0.6653  0.6734
  326MPD2    H5 4903   0.145   3.770  11.287 -0.1018  0.0701 -0.5832
  326MPD2    N1 4904   4.389   3.471  11.159 -0.6753  0.0961  0.4426
  326MPD2    H7 4905   4.398   3.484  11.058  2.1464 -0.5677  0.6121
  327TMC3    C1 4906   4.189   3.388  11.094  0.3109 -0.0733 -0.3503
  327TMC3    C2 4907   4.092   3.476  11.063  0.3210 -0.4357 -0.1657
  327TMC3    C3 4908   4.066   3.500  10.932 -0.0562 -0.4505 -0.6465
  327TMC3    C4 4909   4.258   3.321  11.002  0.1410 -0.2819  0.6668
  327TMC3    C5 4910   4.228   3.340  10.865 -0.1459 -0.4456  0.3146
  327TMC3    C6 4911   4.132   3.436  10.837 -0.2525 -0.9757 -0.4418
  327TMC3     C 4912   4.268   3.433  11.208  0.2265  0.3153  0.1515
  327TMC3     O 4913   4.220   3.440  11.316  0.3581 -0.4956 -0.2097
  327TMC3     H 4914   4.050   3.535  11.144 -0.8188 -1.2280 -0.1838
  327TMC3    H1 4915   4.335   3.250  11.032  0.9076  1.0341  1.8407
  327TMC3    H2 4916   4.122   3.475  10.736 -0.2375 -1.0155 -0.4590
  327TMC3    C7 4917   4.340   3.345  10.776 -0.0979  0.5680 -0.3062
  327TMC3    C8 4918   4.014   3.632  10.894 -0.4082 -0.1626  0.0720
  327TMC3    O1 4919   4.332   3.388  10.662  0.4217  0.2950 -0.0583
  327TMC3    O2 4920   4.054   3.670  10.787  0.6332  0.1933  0.3879
  328MPD2     C 4921   2.653   4.339   0.039 -0.5219  0.0257 -0.0384
  328MPD2    C1 4922   2.587   4.225   0.006 -0.0496 -0.1140 -0.9126
  328MPD2    C2 4923   2.519   4.217  17.594 -0.0847  0.5302  0.1734
  328MPD2    C3 4924   2.500   4.328  17.510 -1.2231 -0.5233 -0.0294
  328MPD2    C4 4925   2.570   4.440  17.550 -0.2426 -0.3344 -0.7671
  328MPD2    C5 4926   2.640   4.447  17.665 -0.0428 -0.1130  0.1271
  328MPD2     H 4927   2.476   4.120  17.573  3.3069 -0.7961 -0.6173
  328MPD2    H1 4928   2.551   4.534  17.501 -1.3765 -0.1797 -0.0324
  328MPD2    H2 4929   2.712   4.348   0.130 -1.3393  1.9209  0.2965
  328MPD2    H3 4930   2.680   4.544  17.690  2.8043 -0.9270 -1.1706
  328MPD2     N 4931   2.414   4.332  17.397  0.9243  0.1367 -0.2068
  328MPD2    H5 4932   2.391   4.422  17.356  1.2217  0.8387  1.1843
  328MPD2    N1 4933   2.594   4.127   0.108  0.2747 -0.0271  0.3133
  328MPD2    H7 4934   2.644   4.145   0.194 -0.2759  0.2791  0.5710
  329TMC3    C1 4935   2.538   3.925   0.224  0.0928 -0.0820 -0.2365
  329TMC3    C2 4936   2.432   3.844   0.252 -0.3468  0.2449 -0.0522
  329TMC3    C3 4937   2.457   3.743   0.342 -0.1878  0.2390  0.1654
  329TMC3    C4 4938   2.661   3.912   0.278 -0.1269  0.5585 -0.3722
  329TMC3    C5 4939   2.684   3.809   0.366  0.4540  0.1463  0.5727
  329TMC3    C6 4940   2.583   3.728   0.409  0.3361 -0.7077 -0.0726
  329TMC3     C 4941   2.515   4.011   0.111 -0.0345 -1.3212  0.1561
  329TMC3     O 4942   2.434   3.969   0.032 -0.0823  0.1299 -0.7309
  329TMC3     H 4943   2.338   3.857   0.199 -0.0349  3.1940  0.1086
  329TMC3    H1 4944   2.736   3.979   0.238 -0.0556  0.4355 -0.4441
  329TMC3    H2 4945   2.602   3.646   0.476  0.8110  0.1147  0.8010
  329TMC3    C7 4946   2.799   3.823   0.458  0.2207 -0.1464 -0.3802
  329TMC3    C8 4947   2.345   3.695   0.421 -0.4411 -0.0316  0.2575
  329TMC3    O1 4948   2.780   3.771   0.571 -0.3081  0.1060  0.4795
  329TMC3    O2 4949   2.378   3.629   0.518 -0.0989 -0.3643 -0.4050
  330TMC3    C1 4950   0.099   2.832   9.849 -1.4650 -0.9983 -0.1271
  330TMC3    C2 4951   0.066   2.761   9.740  0.2631 -0.6824 -0.4648
  330TMC3    C3 4952   0.107   2.625   9.733  0.2773 -0.1705  0.2352
  330TMC3    C4 4953   0.181   2.773   9.946  0.6116 -0.3357  0.4394
  330TMC3    C5 4954   0.219   2.641   9.935 -0.0723  0.5628  0.5189
  330TMC3    C6 4955   0.188   2.568   9.828  0.2638  0.6603 -0.3495
  330TMC3     C 4956   0.082   2.975   9.867 -0.7391 -0.3189  0.4972
  330TMC3     O 4957   0.147   3.036   9.950 -0.3445  0.2128  0.9694
  330TMC3     H 4958   0.028   2.819   9.657 -0.8562  0.4412  0.8387
  330TMC3    H1 4959   0.205   2.833  10.033 -1.3571  0.7494  0.2372
  330TMC3    H2 4960   0.236   2.472   9.807 -0.7254 -0.2547  1.5607
  330TMC3    C7 4961   0.279   2.583  10.053 -0.3582 -0.5857  0.7011
  330TMC3    C8 4962   0.074   2.559   9.606 -0.0143 -0.8454  0.5509
  330TMC3    O1 4963   0.326   2.649  10.143  0.5076 -0.3381 -0.0192
  330TMC3    O2 4964   0.033   2.637   9.518  0.1342  0.0287 -0.3757
  331MPD2     C 4965   2.691   2.094  12.305  0.2060 -0.8520 -1.1210
  331MPD2    C1 4966   2.805   2.095  12.223 -0.1783  0.4844 -0.0905
  331MPD2    C2 4967   2.883   1.984  12.202  0.4215 -0.6550  0.2044
  331MPD2    C3 4968   2.859   1.863  12.256  0.1681  0.1838  0.2906
  331MPD2    C4 4969   2.748   1.858  12.342 -0.2967  0.2377 -0.1008
  331MPD2    C5 4970   2.672   1.966  12.368 -0.1119 -0.2110 -0.1620
  331MPD2     H 4971   2.977   1.993  12.149  0.3083  0.1359  0.1348
  331MPD2    H1 4972   2.731   1.757  12.379  0.8068  0.9351  2.2491
  331MPD2    H2 4973   2.633   2.177  12.343  1.3849 -0.4808 -0.1576
  331MPD2    H3 4974   2.590   1.964  12.438 -0.1189 -1.5650 -0.2070
  331MPD2     N 4975   2.948   1.761  12.241  0.1524 -0.6543  0.6659
  331MPD2    H5 4976   3.020   1.787  12.175 -0.3883 -0.6988  0.0627
  331MPD2    N1 4977   2.845   2.218  12.157 -0.1378 -0.6547  0.6061
  331MPD2    H7 4978   2.930   2.221  12.102 -1.3592 -0.6109 -1.2469
  332TMC3    C1 4979   3.094   1.579  12.282  0.2176 -0.4860 -0.7899
  332TMC3    C2 4980   3.149   1.580  12.155  0.6220 -0.4832  0.1818
  332TMC3    C3 4981   3.276   1.532  12.137  0.3193 -0.6369 -0.0201
  332TMC3    C4 4982   3.169   1.547  12.393 -0.1745 -0.2788 -0.4815
  332TMC3    C5 4983   3.300   1.525  12.374  0.1458 -0.5554  0.6118
  332TMC3    C6 4984   3.355   1.520  12.250 -0.0050  1.0611  0.1696
  332TMC3     C 4985   2.968   1.648  12.310 -0.1781  0.1614  0.5514
  332TMC3     O 4986   2.908   1.618  12.410  0.0561  0.6323 -0.0931
  332TMC3     H 4987   3.098   1.611  12.065  0.0962 -1.4667  0.1391
  332TMC3    H1 4988   3.132   1.558  12.495 -0.0588 -2.0152 -0.2566
  332TMC3    H2 4989   3.452   1.473  12.246  0.4693  2.2271 -2.0599
  332TMC3    C7 4990   3.378   1.509  12.499 -0.0740 -0.6905  0.2399
  332TMC3    C8 4991   3.349   1.544  12.008  0.3380 -0.6897 -0.2063
  332TMC3    O1 4992   3.318   1.488  12.606  0.6380  0.6300  0.6145
  332TMC3    O2 4993   3.470   1.528  12.008  0.2845  0.4733 -0.2012
  333MPD2     C 4994   3.077   2.114  11.009 -0.0907 -0.2047 -0.5424
  333MPD2    C1 4995   3.163   2.025  10.946 -0.2899  0.7014 -0.4141
  333MPD2    C2 4996   3.167   1.889  10.983 -0.5511 -0.4993  0.6656
  333MPD2    C3 4997   3.093   1.845  11.091 -0.8167 -0.6279 -0.8860
  333MPD2    C4 4998   3.010   1.935  11.153  0.1367  0.3928 -0.2214
  333MPD2    C5 4999   3.005   2.063  11.113  0.2300  0.5207 -0.4479
  333MPD2     H 5000   3.229   1.817  10.930 -0.3710 -1.0774  1.6533
  333MPD2    H1 5001   2.934   1.910  11.227  1.1249 -1.1380  0.2738
  333MPD2    H2 5002   3.074   2.216  10.974 -1.5210 -0.9026 -2.4322
  333MPD2    H3 5003   2.931   2.127  11.161 -0.4417 -0.8464  0.3377
  333MPD2     N 5004   3.107   1.710  11.126 -0.3880 -0.1651 -0.0179
  333MPD2    H5 5005   3.158   1.648  11.063 -0.0169  2.0314 -1.8470
  333MPD2    N1 5006   3.250   2.080  10.850 -0.0783 -0.7850  0.2305
  333MPD2    H7 5007   3.243   2.179  10.831  1.1878 -0.4486  1.4410
  334TMC3    C1 5008   3.417   2.089  10.684 -0.0099  0.0506 -0.6186
  334TMC3    C2 5009   3.480   2.025  10.586  0.0438  0.5104  0.5146
  334TMC3    C3 5010   3.558   2.101  10.508  0.4049  0.1688 -0.4107
  334TMC3    C4 5011   3.426   2.229  10.701  0.2036  0.1453 -0.4321
  334TMC3    C5 5012   3.506   2.295  10.612  0.4628 -0.0745  0.5993
  334TMC3    C6 5013   3.586   2.228  10.529  0.2196 -0.0448 -0.2395
  334TMC3     C 5014   3.351   2.010  10.783  0.0174  0.5265 -0.1638
  334TMC3     O 5015   3.393   1.896  10.802  0.7399 -0.2132  0.3417
  334TMC3     H 5016   3.460   1.922  10.559 -1.0615  0.4647  1.5076
  334TMC3    H1 5017   3.377   2.273  10.787  0.0009  2.1758 -1.5914
  334TMC3    H2 5018   3.630   2.285  10.448  1.2075  0.1774  0.4612
  334TMC3    C7 5019   3.524   2.437  10.630  0.3400  1.0434 -0.2141
  334TMC3    C8 5020   3.657   2.026  10.439  0.4228 -0.0696 -0.0387
  334TMC3    O1 5021   3.617   2.488  10.568 -0.3088  0.5882 -0.1696
  334TMC3    O2 5022   3.628   1.911  10.405 -0.0309  0.0480  0.1554
  335TMC3    C1 5023   3.047   4.037  17.666  0.5399 -0.0885  0.0067
  335TMC3    C2 5024   2.977   3.928  17.624  0.0635 -0.2384 -0.7440
  335TMC3    C3 5025   3.008   3.880  17.501  0.2286 -0.1619 -0.4127
  335TMC3    C4 5026   3.153   4.092  17.602 -0.2370 -0.0860  0.1152
  335TMC3    C5 5027   3.183   4.046  17.477  0.2112 -0.4482 -0.4056
  335TMC3    C6 5028   3.115   3.939  17.429 -0.1915  0.6015 -0.5571
  335TMC3     C 5029   2.988   4.094   0.079  0.5639 -0.1467  0.1563
  335TMC3     O 5030   2.938   4.011   0.153 -0.3033  0.2170  0.5744
  335TMC3     H 5031   2.888   3.897  17.676  0.2210  0.0231 -0.3198
  335TMC3    H1 5032   3.203   4.177  17.648  0.6987  0.2600 -1.5650
  335TMC3    H2 5033   3.148   3.897  17.334 -0.8620  0.7076 -0.8446
  335TMC3    C7 5034   3.314   4.078  17.422 -0.6516 -0.6361  0.1107
  335TMC3    C8 5035   2.930   3.769  17.456  0.0105  0.2864 -0.6636
  335TMC3    O1 5036   3.348   4.018  17.318  0.5145 -0.6718  0.3891
  335TMC3    O2 5037   2.846   3.709  17.525 -0.3194 -0.4264 -0.3138
  336MPD2     C 5038   2.550   1.625  16.214 -1.1924 -0.8895 -0.1868
  336MPD2    C1 5039   2.525   1.557  16.097 -0.0075 -0.2876 -0.6187
  336MPD2    C2 5040   2.522   1.414  16.097  0.4796 -1.0004 -0.0816
  336MPD2    C3 5041   2.564   1.347  16.211 -0.3860 -0.7769 -0.3322
  336MPD2    C4 5042   2.610   1.421  16.321  0.2733 -0.3600 -0.0674
  336MPD2    C5 5043   2.600   1.555  16.321 -0.3201  0.0622 -0.9795
  336MPD2     H 5044   2.506   1.358  16.006  0.7445  0.4639 -1.0328
  336MPD2    H1 5045   2.633   1.383  16.420  0.7481  1.9143  0.6998
  336MPD2    H2 5046   2.549   1.733  16.218  1.2052 -0.9162  0.7830
  336MPD2    H3 5047   2.626   1.602  16.415 -4.3183 -1.3839  0.8352
  336MPD2     N 5048   2.570   1.208  16.223  0.1520 -0.1960  0.0395
  336MPD2    H5 5049   2.604   1.173  16.312  1.2837  0.4494 -0.1487
  336MPD2    N1 5050   2.461   1.628  15.992 -0.4605 -0.2620 -0.2255
  336MPD2    H7 5051   2.431   1.561  15.921 -0.3799 -0.4110 -0.1207
  337TMC3    C1 5052   2.358   1.798  15.868  0.2517  0.1060  0.6288
  337TMC3    C2 5053   2.274   1.706  15.811  0.4251  0.9645 -0.2436
  337TMC3    C3 5054   2.201   1.747  15.699 -0.0606  0.6507 -0.5209
  337TMC3    C4 5055   2.376   1.926  15.824  0.4001 -0.8445 -0.3072
  337TMC3    C5 5056   2.310   1.955  15.707 -0.6982 -0.6771  0.2629
  337TMC3    C6 5057   2.224   1.868  15.646  0.0863 -0.1288  0.4648
  337TMC3     C 5058   2.456   1.766  15.970  0.2927 -0.0868 -0.2388
  337TMC3     O 5059   2.509   1.859  16.033 -0.2980  0.6064 -0.5989
  337TMC3     H 5060   2.254   1.607  15.851  2.3125  1.0850  1.0004
  337TMC3    H1 5061   2.447   1.993  15.871  0.6705  0.0335 -1.9690
  337TMC3    H2 5062   2.169   1.904  15.559 -0.7624  1.1288  1.5134
  337TMC3    C7 5063   2.325   2.093  15.651  0.8711 -0.1729  0.5628
  337TMC3    C8 5064   2.079   1.670  15.679  0.2527  1.0572  0.3083
  337TMC3    O1 5065   2.225   2.143  15.597  0.1962 -0.2121  0.4421
  337TMC3    O2 5066   2.070   1.559  15.727 -0.7874  0.3311  0.6829
  338MPD2     C 5067   2.128   1.170   0.863 -0.5419 -0.2656  0.2205
  338MPD2    C1 5068   2.136   1.122   0.731 -0.2401  0.5141 -0.7907
  338MPD2    C2 5069   2.022   1.140   0.654 -0.1628 -0.0656  0.4106
  338MPD2    C3 5070   1.900   1.176   0.703  0.0169 -0.6418  0.2312
  338MPD2    C4 5071   1.890   1.201   0.837  0.1011 -0.4182  0.1770
  338MPD2    C5 5072   2.000   1.194   0.924 -0.2222  0.4252  0.2542
  338MPD2     H 5073   2.014   1.127   0.546 -1.4114  0.6396  0.4076
  338MPD2    H1 5074   1.793   1.210   0.884 -0.2730  0.1966 -0.6958
  338MPD2    H2 5075   2.214   1.188   0.927 -0.1677 -0.6621 -0.1704
  338MPD2    H3 5076   1.993   1.207   1.032 -1.9295  2.3947 -0.0864
  338MPD2     N 5077   1.796   1.175   0.613  0.0775 -0.1705 -0.5996
  338MPD2    H5 5078   1.821   1.158   0.516  0.0444 -3.4794 -0.0092
  338MPD2    N1 5079   2.257   1.073   0.681  0.4091  0.3707  0.0327
  338MPD2    H7 5080   2.326   1.046   0.751 -0.1534 -0.0116  0.4478
  339TMC3    C1 5081   1.588   1.148   0.532  0.8101 -0.1208  0.1351
  339TMC3    C2 5082   1.548   1.018   0.535  0.3674 -0.5420  0.7289
  339TMC3    C3 5083   1.561   0.941   0.424  0.3446 -0.4269 -0.1474
  339TMC3    C4 5084   1.640   1.214   0.426  0.1801 -0.8406 -0.0947
  339TMC3    C5 5085   1.654   1.137   0.309 -0.2441  0.6967  0.1894
  339TMC3    C6 5086   1.608   1.003   0.305 -0.1163 -0.0826 -0.2042
  339TMC3     C 5087   1.665   1.178   0.646 -0.3380 -0.1545 -0.9479
  339TMC3     O 5088   1.612   1.164   0.754  0.0412  0.1066 -0.1394
  339TMC3     H 5089   1.511   0.987   0.632 -0.7775 -0.2691  0.3796
  339TMC3    H1 5090   1.669   1.318   0.437  1.3498 -0.9576 -2.1444
  339TMC3    H2 5091   1.636   0.940   0.222  0.0963 -0.1131 -0.1089
  339TMC3    C7 5092   1.783   1.145   0.243  0.5982 -0.4889  0.0482
  339TMC3    C8 5093   1.583   0.797   0.431 -0.2326 -0.5786  0.0747
  339TMC3    O1 5094   1.874   1.185   0.316 -0.0085 -0.6413 -1.0198
  339TMC3    O2 5095   1.633   0.735   0.331  0.5562  0.1461  0.7962
  340MPD2     C 5096   2.634   2.736  10.375  0.1092 -0.1542 -0.0048
  340MPD2    C1 5097   2.734   2.838  10.366  0.5438  0.4762 -0.2562
  340MPD2    C2 5098   2.865   2.795  10.381  0.1007  0.1672  0.1190
  340MPD2    C3 5099   2.898   2.668  10.414 -0.2852  0.3284  0.2233
  340MPD2    C4 5100   2.800   2.575  10.440 -0.3814  0.2204 -0.8393
  340MPD2    C5 5101   2.671   2.619  10.431  0.5283 -0.0148  0.2972
  340MPD2     H 5102   2.950   2.853  10.348 -0.6314  1.1962  0.0252
  340MPD2    H1 5103   2.818   2.471  10.461  0.5315  0.5412 -0.0476
  340MPD2    H2 5104   2.529   2.759  10.367 -0.1533 -2.0622 -1.8992
  340MPD2    H3 5105   2.581   2.560  10.448  0.8631 -0.4319  0.6027
  340MPD2     N 5106   3.028   2.619  10.416 -0.2779 -0.0732  0.2876
  340MPD2    H5 5107   3.041   2.520  10.435 -0.1594 -0.6240 -2.6658
  340MPD2    N1 5108   2.705   2.954  10.311  0.8674 -0.2395 -0.0748
  340MPD2    H7 5109   2.610   2.966  10.276  0.9584 -3.0535 -1.2657
  341TMC3    C1 5110   2.743   3.168  10.227  0.4435 -0.1521 -0.5341
  341TMC3    C2 5111   2.653   3.148  10.129  0.7579  0.5032  0.0015
  341TMC3    C3 5112   2.600   3.259  10.058  0.3301 -0.0549 -0.2352
  341TMC3    C4 5113   2.786   3.289  10.258  0.0041  0.1355 -0.2470
  341TMC3    C5 5114   2.734   3.394  10.194 -0.2008  0.1607  0.7263
  341TMC3    C6 5115   2.651   3.384  10.089 -0.4827  0.1506 -0.2130
  341TMC3     C 5116   2.791   3.057  10.301  0.2187  0.2557  0.4612
  341TMC3     O 5117   2.903   3.069  10.342 -0.5936 -0.2067  0.3625
  341TMC3     H 5118   2.622   3.045  10.110  2.6814 -0.1530  0.4657
  341TMC3    H1 5119   2.865   3.308  10.330 -0.8537 -0.3993  0.8569
  341TMC3    H2 5120   2.595   3.470  10.054 -0.2338  0.0498 -0.8553
  341TMC3    C7 5121   2.775   3.523  10.249 -0.3313 -0.1448  0.1517
  341TMC3    C8 5122   2.535   3.217   9.933 -0.9626 -0.2963 -0.6080
  341TMC3    O1 5123   2.818   3.522  10.365  0.3535 -0.2515  0.5180
  341TMC3    O2 5124   2.531   3.096   9.910  0.2444 -0.3989 -0.2041
  342MPD2     C 5125   0.550   1.733  17.632 -0.2209  0.0485  0.1204
  342MPD2    C1 5126   0.630   1.744  17.517 -0.3413 -0.2652  0.4317
  342MPD2    C2 5127   0.655   1.870  17.469 -0.0481 -0.0086  0.2559
  342MPD2    C3 5128   0.605   1.981  17.526  0.5686 -0.6274 -0.4383
  342MPD2    C4 5129   0.520   1.964  17.631  0.4894  0.2114  0.2981
  342MPD2    C5 5130   0.493   1.842  17.688 -0.7623  0.2367  0.2830
  342MPD2     H 5131   0.725   1.876  17.387 -1.3253 -0.3030 -0.8710
  342MPD2    H1 5132   0.473   2.049  17.678 -0.3856 -0.3121  0.3582
  342MPD2    H2 5133   0.521   1.639  17.676  0.2063 -0.3899 -0.5386
  342MPD2    H3 5134   0.424   1.825   0.064  0.5926 -1.1071  1.1587
  342MPD2     N 5135   0.604   2.108  17.469 -0.8732 -0.9627  0.7636
  342MPD2    H5 5136   0.573   2.181  17.532 -0.9755  1.2936 -1.8807
  342MPD2    N1 5137   0.687   1.638  17.448  0.4563 -0.5436  0.9748
  342MPD2    H7 5138   0.747   1.664  17.371 -1.2152  1.0453  0.1875
  343TMC3    C1 5139   0.739   1.422  17.385 -0.2190  0.3792  0.1135
  343TMC3    C2 5140   0.870   1.450  17.348  0.3394 -1.0609  0.1975
  343TMC3    C3 5141   0.929   1.356  17.270  0.4498 -0.1749 -0.0642
  343TMC3    C4 5142   0.677   1.302  17.359 -0.4323 -0.3429  0.7858
  343TMC3    C5 5143   0.746   1.205  17.290  0.3490  0.3411 -0.5977
  343TMC3    C6 5144   0.874   1.227  17.246  0.5410 -0.6690  0.5805
  343TMC3     C 5145   0.656   1.505  17.466  0.5954 -0.2378  0.1383
  343TMC3     O 5146   0.579   1.437  17.533 -0.0247  0.0143 -0.3168
  343TMC3     H 5147   0.918   1.544  17.375  0.7053 -1.3384  0.5056
  343TMC3    H1 5148   0.574   1.280  17.382 -0.3747 -1.7238 -0.3259
  343TMC3    H2 5149   0.930   1.147  17.199  0.4960 -0.1670 -0.3196
  343TMC3    C7 5150   0.715   1.066  17.334 -0.1661 -0.5783 -0.2630
  343TMC3    C8 5151   1.069   1.376  17.230  0.1486 -0.0391 -0.3834
  343TMC3    O1 5152   0.714   0.976  17.248 -0.1115  0.0975 -0.2479
  343TMC3    O2 5153   1.116   1.481  17.273 -0.0341  0.5925 -0.6643
  344MPD2     C 5154   2.176   0.896  10.476 -0.1963 -0.5224 -0.3519
  344MPD2    C1 5155   2.054   0.967  10.496  0.6765  0.4332 -0.3537
  344MPD2    C2 5156   2.040   1.085  10.423 -0.4271  0.5888 -0.6025
  344MPD2    C3 5157   2.143   1.129  10.342 -0.1066 -0.4662 -0.1314
  344MPD2    C4 5158   2.260   1.065  10.330  0.7895 -0.6543  0.3250
  344MPD2    C5 5159   2.277   0.956  10.413 -0.5014 -0.2391  0.1313
  344MPD2     H 5160   1.952   1.148  10.428  0.0983  1.2749  0.0703
  344MPD2    H1 5161   2.342   1.114  10.277  0.9774 -0.9597  0.3285
  344MPD2    H2 5162   2.194   0.807  10.535  0.2209  0.4662  1.0104
  344MPD2    H3 5163   2.373   0.905  10.411 -2.0875 -3.1611 -0.1030
  344MPD2     N 5164   2.133   1.254  10.266  0.3958  0.0487 -0.9383
  344MPD2    H5 5165   2.221   1.280  10.222 -0.2037  0.3245 -1.9755
  344MPD2    N1 5166   1.951   0.922  10.577 -0.1695  0.1237  0.2747
  344MPD2    H7 5167   1.856   0.949  10.551 -0.8148 -2.0089  0.4470
  345TMC3    C1 5168   2.056   1.445  10.155  0.6241 -0.0509  0.1484
  345TMC3    C2 5169   2.193   1.468  10.138 -0.5219 -0.5563  0.2505
  345TMC3    C3 5170   2.228   1.589  10.085  0.2207 -0.0974  0.8132
  345TMC3    C4 5171   1.958   1.528  10.114  0.1580 -0.4197 -0.0631
  345TMC3    C5 5172   1.998   1.643  10.057  0.3902 -0.4142 -0.0566
  345TMC3    C6 5173   2.134   1.678  10.045  0.2479  0.5801  0.0725
  345TMC3     C 5174   2.021   1.330  10.231 -0.7552 -0.6748  0.1738
  345TMC3     O 5175   1.904   1.302  10.236 -0.7032  0.6392 -0.0042
  345TMC3     H 5176   2.275   1.425  10.194  1.0139 -1.3655 -2.6167
  345TMC3    H1 5177   1.856   1.510  10.146  0.6707 -1.6744  0.8636
  345TMC3    H2 5178   2.173   1.769   9.999 -1.0739  0.2559 -1.6864
  345TMC3    C7 5179   1.908   1.758  10.047  0.5574  0.8129 -0.6504
  345TMC3    C8 5180   2.374   1.626  10.069 -0.7102  0.8393 -0.0771
  345TMC3    O1 5181   1.966   1.865  10.038  0.4110  0.5486 -0.0546
  345TMC3    O2 5182   2.397   1.744  10.032  0.0479 -0.0548  0.1791
  346MPD2     C 5183   2.005   3.488  14.688 -0.0370 -0.1936  0.1117
  346MPD2    C1 5184   2.100   3.466  14.593  0.6342  0.1406 -0.4010
  346MPD2    C2 5185   2.232   3.496  14.635  0.6083  0.0146  0.2389
  346MPD2    C3 5186   2.262   3.559  14.753 -0.2609 -0.0142 -0.0883
  346MPD2    C4 5187   2.159   3.586  14.842  0.9122  0.6279 -0.4433
  346MPD2    C5 5188   2.027   3.544  14.815 -0.1057 -0.5752  0.0676
  346MPD2     H 5189   2.312   3.481  14.563  2.4606 -1.6443  2.6340
  346MPD2    H1 5190   2.174   3.642  14.934 -0.2569  1.6649 -0.8797
  346MPD2    H2 5191   1.900   3.470  14.667 -0.4308  3.0483 -0.6185
  346MPD2    H3 5192   1.952   3.566  14.890  1.5837  1.6909  1.1019
  346MPD2     N 5193   2.391   3.602  14.768  0.4236  0.4133  0.0794
  346MPD2    H5 5194   2.455   3.581  14.692 -0.1875 -0.0204 -0.3130
  346MPD2    N1 5195   2.070   3.413  14.469  0.1878  0.2755 -0.3866
  346MPD2    H7 5196   2.146   3.375  14.414  2.3463  2.4977  1.0643
  347TMC3    C1 5197   2.590   3.689  14.855 -0.4590 -0.0954 -0.3837
  347TMC3    C2 5198   2.626   3.712  14.721 -0.2020 -0.6940  0.0319
  347TMC3    C3 5199   2.757   3.684  14.689  0.3890 -0.4116 -0.3108
  347TMC3    C4 5200   2.687   3.654  14.948 -0.3578  0.7916  0.3074
  347TMC3    C5 5201   2.817   3.634  14.909 -0.5155 -0.1011  0.0566
  347TMC3    C6 5202   2.853   3.654  14.778 -0.3960 -0.3585  0.3513
  347TMC3     C 5203   2.451   3.657  14.885  0.7862 -0.4709 -0.1823
  347TMC3     O 5204   2.407   3.679  14.993 -0.1292 -0.5032 -0.1821
  347TMC3     H 5205   2.547   3.736  14.650  0.0204  2.2514  0.7925
  347TMC3    H1 5206   2.658   3.643  15.052  0.9768 -1.3546  0.4515
  347TMC3    H2 5207   2.945   3.624  14.729  0.8887  3.6303  0.3185
  347TMC3    C7 5208   2.927   3.649  15.007 -0.4160 -0.2978  0.1795
  347TMC3    C8 5209   2.763   3.595  14.576  0.0447 -0.1026 -0.4719
  347TMC3    O1 5210   2.899   3.613  15.117  0.0561  0.5648  0.0245
  347TMC3    O2 5211   2.831   3.495  14.587  0.0849 -0.7843  0.5358
  348MPD2     C 5212   0.634   2.738  12.154  0.3976 -0.1195 -0.4091
  348MPD2    C1 5213   0.746   2.704  12.090 -0.2921 -0.3645 -0.7157
  348MPD2    C2 5214   0.740   2.664  11.964  0.6769 -0.1806  1.0782
  348MPD2    C3 5215   0.628   2.664  11.893  0.6792  0.3729 -0.7177
  348MPD2    C4 5216   0.508   2.685  11.958  0.0815  0.4213 -0.1457
  348MPD2    C5 5217   0.510   2.726  12.090  0.3250  1.0023  0.1564
  348MPD2     H 5218   0.835   2.642  11.916  0.6872  0.1960  0.9319
  348MPD2    H1 5219   0.413   2.697  11.908 -0.0932 -2.1567 -0.4401
  348MPD2    H2 5220   0.636   2.770  12.258 -0.3599 -0.5642 -0.2503
  348MPD2    H3 5221   0.421   2.746  12.149 -0.3756 -0.6848 -0.3239
  348MPD2     N 5222   0.634   2.630  11.759 -0.0325 -0.1590  0.2712
  348MPD2    H5 5223   0.726   2.622  11.717 -0.4725  0.5152 -0.8082
  348MPD2    N1 5224   0.876   2.710  12.144 -0.7055 -0.5254  0.0824
  348MPD2    H7 5225   0.953   2.679  12.085 -2.1921 -1.0392 -1.5750
  349TMC3    C1 5226   1.041   2.696  12.325 -0.4232  0.0622  0.1531
  349TMC3    C2 5227   1.040   2.582  12.399 -0.1753  0.5775 -0.0949
  349TMC3    C3 5228   1.141   2.491  12.377  0.4401 -0.4848 -0.3404
  349TMC3    C4 5229   1.135   2.708  12.225  0.4122 -0.0107 -0.6326
  349TMC3    C5 5230   1.230   2.608  12.197 -0.2946 -0.0838 -0.3954
  349TMC3    C6 5231   1.237   2.505  12.284  0.2068  0.0796 -0.1343
  349TMC3     C 5232   0.903   2.729  12.280  0.3664 -0.4392  0.6714
  349TMC3     O 5233   0.816   2.721  12.364 -0.2067  0.2052  0.3783
  349TMC3     H 5234   0.957   2.559  12.465  0.1625  0.6042  0.3408
  349TMC3    H1 5235   1.129   2.786  12.150  0.2958 -0.5676 -1.1959
  349TMC3    H2 5236   1.317   2.434  12.270  1.9582  2.5078 -2.2950
  349TMC3    C7 5237   1.218   2.549  12.065 -0.2570  0.4550  0.1431
  349TMC3    C8 5238   1.113   2.361  12.426  0.4609 -0.4223  0.1068
  349TMC3    O1 5239   1.193   2.426  12.067  0.1069 -0.3520  0.0312
  349TMC3    O2 5240   1.038   2.350  12.525  0.3022 -0.0308  0.1052
  350MPD2     C 5241   4.376   0.876   9.569 -0.5724 -0.4436 -0.7940
  350MPD2    C1 5242   4.405   0.767   9.644 -0.3170 -0.0032 -0.6779
  350MPD2    C2 5243   4.536   0.746   9.678  0.4910  0.2348 -0.2977
  350MPD2    C3 5244   4.640   0.815   9.621 -0.4641  0.1068  0.0989
  350MPD2    C4 5245   4.605   0.904   9.533 -0.5638  0.5447  0.6669
  350MPD2    C5 5246   4.477   0.946   9.515  0.4421 -0.4593 -0.3212
  350MPD2     H 5247   4.570   0.670   9.747 -3.4502  0.9478  2.4124
  350MPD2    H1 5248   4.686   0.960   9.488  0.6732  0.1748  2.4173
  350MPD2    H2 5249   4.278   0.912   9.542 -0.5741  0.6999  0.7064
  350MPD2    H3 5250   4.445   1.024   9.446  0.9597 -0.2538 -0.3358
  350MPD2     N 5251   0.046   0.777   9.658 -0.1180  0.2688 -0.0103
  350MPD2    H5 5252   0.055   0.721   9.741  1.3998 -1.8568 -1.6252
  350MPD2    N1 5253   4.305   0.677   9.696 -0.3178  0.0299 -0.5362
  350MPD2    H7 5254   4.336   0.608   9.764  0.0483 -0.7195 -1.4656
  351TMC3    C1 5255   4.101   0.564   9.729 -0.0299 -0.3159  0.2949
  351TMC3    C2 5256   4.171   0.448   9.762  0.2293 -0.7463  1.2928
  351TMC3    C3 5257   4.116   0.353   9.844 -0.1862 -0.8905 -0.6378
  351TMC3    C4 5258   3.974   0.587   9.773  0.3567 -0.6506 -0.7424
  351TMC3    C5 5259   3.917   0.487   9.847 -0.2708  0.1638  0.0216
  351TMC3    C6 5260   3.985   0.374   9.882 -0.7743  0.4329 -0.1153
  351TMC3     C 5261   4.172   0.676   9.666 -0.6154  0.2682  0.5292
  351TMC3     O 5262   4.107   0.764   9.610 -0.3893 -0.2379  0.5282
  351TMC3     H 5263   4.270   0.433   9.722 -0.5036 -1.2754 -0.3354
  351TMC3    H1 5264   3.915   0.671   9.741 -0.2790 -0.8788 -0.1831
  351TMC3    H2 5265   3.942   0.294   9.940  3.1884 -0.9060  0.9984
  351TMC3    C7 5266   3.781   0.518   9.893 -0.7765 -0.1736  0.5371
  351TMC3    C8 5267   4.183   0.226   9.876  0.3279 -0.0146 -0.7281
  351TMC3    O1 5268   3.727   0.623   9.854  0.0923 -0.0520 -0.1416
  351TMC3    O2 5269   4.105   0.130   9.887  0.3938  0.1537  0.4121
  352MPD2     C 5270   2.973   3.171   1.431 -0.8860 -0.0389  0.4461
  352MPD2    C1 5271   2.867   3.103   1.381 -0.1804 -0.3544  0.1200
  352MPD2    C2 5272   2.825   2.990   1.443 -0.5990 -0.4172 -0.3250
  352MPD2    C3 5273   2.888   2.941   1.557 -0.3974  0.5360 -0.2983
  352MPD2    C4 5274   2.987   3.019   1.610  0.1776  0.4446 -0.2542
  352MPD2    C5 5275   3.022   3.136   1.551  0.0021 -0.5591  1.1993
  352MPD2     H 5276   2.740   2.938   1.400  0.0092 -1.5688 -0.1213
  352MPD2    H1 5277   3.030   2.996   1.707 -2.1730 -3.5504 -0.1913
  352MPD2    H2 5278   3.013   3.263   1.389 -1.2595 -1.1065 -2.2357
  352MPD2    H3 5279   3.093   3.199   1.604  1.4750  0.2474 -1.7170
  352MPD2     N 5280   2.846   2.829   1.628  0.3478  0.1440 -0.3334
  352MPD2    H5 5281   2.888   2.811   1.719 -1.3423 -1.3438  0.1478
  352MPD2    N1 5282   2.812   3.143   1.258 -0.3845  0.6047 -0.3837
  352MPD2    H7 5283   2.850   3.222   1.207  0.8022  0.9818  1.0906
  353TMC3    C1 5284   2.721   2.632   1.674  0.4189 -1.0726  0.3716
  353TMC3    C2 5285   2.832   2.572   1.739 -0.6924  0.1517 -0.2838
  353TMC3    C3 5286   2.829   2.436   1.747  0.2957  0.3751 -0.3242
  353TMC3    C4 5287   2.605   2.563   1.665 -0.3057  0.6350 -0.4509
  353TMC3    C5 5288   2.599   2.427   1.699  0.2611 -0.7128  0.3830
  353TMC3    C6 5289   2.712   2.362   1.739 -0.9409 -0.3376  0.0517
  353TMC3     C 5290   2.738   2.757   1.596  0.1591 -0.0281  0.7057
  353TMC3     O 5291   2.673   2.750   1.496 -0.1751  0.1458  0.3512
  353TMC3     H 5292   2.930   2.617   1.744 -0.7688  0.2346  0.4621
  353TMC3    H1 5293   2.525   2.613   1.611 -0.5918  1.8507  1.0882
  353TMC3    H2 5294   2.702   2.255   1.742  0.1230 -0.5124 -2.9091
  353TMC3    C7 5295   2.500   2.345   1.634 -0.3177 -0.6421 -0.0800
  353TMC3    C8 5296   2.958   2.374   1.769 -0.6915  0.8504 -0.5502
  353TMC3    O1 5297   2.529   2.232   1.598  0.4266  0.4301 -0.1272
  353TMC3    O2 5298   3.057   2.443   1.769  0.3621  0.1757  0.1116
  354TMC3    C1 5299   4.562   3.820  13.658 -0.6120 -0.2525 -0.4017
  354TMC3    C2 5300   4.619   3.943  13.642  0.1979  0.5484  0.0162
  354TMC3    C3 5301   4.604   4.007  13.523  0.1252 -0.1023 -0.4240
  354TMC3    C4 5302   4.504   3.749  13.553  0.2305 -0.5564 -0.1347
  354TMC3    C5 5303   4.522   3.800  13.429  0.4106 -0.0999 -1.1933
  354TMC3    C6 5304   4.562   3.934  13.413 -0.1289 -0.9295  0.8738
  354TMC3     C 5305   4.568   3.743  13.778 -0.5160  0.5955 -0.1248
  354TMC3     O 5306   4.479   3.658  13.794 -0.5558 -0.7740  0.2840
  354TMC3     H 5307   4.649   4.004  13.726 -0.0879  1.6133 -0.6486
  354TMC3    H1 5308   4.486   3.643  13.570  0.6444 -0.5025  0.6369
  354TMC3    H2 5309   4.540   3.986  13.320  1.6873 -2.2905 -0.3279
  354TMC3    C7 5310   4.569   3.700  13.333 -0.0377  0.6676 -0.2417
  354TMC3    C8 5311   4.667   4.129  13.494  0.0789  0.1257 -0.0157
  354TMC3    O1 5312   4.558   3.579  13.362  0.0884 -0.1011 -1.0907
  354TMC3    O2 5313   4.613   4.210  13.420  0.1428  0.2356 -0.2584
  355MPD2     C 5314   0.271   4.591  12.348 -0.4650  0.1801  0.1876
  355MPD2    C1 5315   0.271   4.593  12.211 -0.3307 -0.2158 -0.1243
  355MPD2    C2 5316   0.388   4.623  12.147  0.0993 -0.3938 -0.2756
  355MPD2    C3 5317   0.494   4.671  12.219  0.5814  0.4055 -0.2870
  355MPD2    C4 5318   0.497   4.674  12.356 -0.1722  0.1722 -0.1733
  355MPD2    C5 5319   0.385   4.632  12.410  0.2419  0.2956 -0.1142
  355MPD2     H 5320   0.396   4.599  12.042 -2.2113 -0.8860 -0.3352
  355MPD2    H1 5321   0.578   4.713  12.416  0.0325  0.7935 -0.8490
  355MPD2    H2 5322   0.185   4.563  12.407 -1.1663  2.6170  0.3249
  355MPD2    H3 5323   0.384   4.634  12.518  0.2334  1.5100 -0.1393
  355MPD2     N 5324   0.593   0.014  12.150 -0.2486 -0.1833  0.3366
  355MPD2    H5 5325   0.649   0.080  12.202  0.7058  0.2393 -1.2426
  355MPD2    N1 5326   0.151   4.553  12.141  0.2172  0.2904  0.3224
  355MPD2    H7 5327   0.076   4.530  12.205 -1.8992 -0.7517 -2.5347
  356TMC3    C1 5328   0.639   0.153  11.970 -0.0508  0.3575 -0.5523
  356TMC3    C2 5329   0.728   0.146  11.867  0.2661  0.1584 -0.1307
  356TMC3    C3 5330   0.799   0.261  11.850 -0.4995  0.1198 -0.2086
  356TMC3    C4 5331   0.610   0.254  12.058 -0.2902 -0.5961  0.0659
  356TMC3    C5 5332   0.695   0.357  12.037 -0.0042 -0.5230 -0.0244
  356TMC3    C6 5333   0.789   0.366  11.934 -0.2872  0.1184  0.4382
  356TMC3     C 5334   0.602   0.015  12.012  0.3282  0.1964 -0.5463
  356TMC3     O 5335   0.565   4.663  11.926  0.3500  0.0230  0.0813
  356TMC3     H 5336   0.741   0.057  11.806 -0.8297  0.3557 -0.6430
  356TMC3    H1 5337   0.521   0.245  12.119  0.2834  2.4207  1.3068
  356TMC3    H2 5338   0.827   0.459  11.896 -1.0327  0.0762 -0.4113
  356TMC3    C7 5339   0.676   0.463  12.127  0.8357  0.7402  0.9744
  356TMC3    C8 5340   0.911   0.261  11.752  0.1506  0.1223  0.3169
  356TMC3    O1 5341   0.580   0.458  12.204  0.0547  0.8280 -0.1801
  356TMC3    O2 5342   0.924   0.168  11.683 -0.8366 -0.9397 -0.2003
  357MPD2     C 5343   3.885   0.035   1.377 -0.5062 -0.1841 -0.4937
  357MPD2    C1 5344   3.861   4.681   1.487  0.0202  0.6979  0.0153
  357MPD2    C2 5345   3.757   4.711   1.571 -0.3121 -0.0895  0.2494
  357MPD2    C3 5346   3.681   0.102   1.543 -0.5270  0.5082  0.0084
  357MPD2    C4 5347   3.713   0.177   1.432 -0.1381 -0.5391  0.4168
  357MPD2    C5 5348   3.821   0.153   1.364 -0.1419  0.6209  0.0082
  357MPD2     H 5349   3.744   4.651   1.660 -0.7928  0.2479  0.4094
  357MPD2    H1 5350   3.668   0.274   1.413 -2.1943 -1.4938  0.4077
  357MPD2    H2 5351   3.972   0.013   1.316 -0.5283  0.3530 -0.7253
  357MPD2    H3 5352   3.857   0.223   1.290  0.5484  0.0041 -0.2369
  357MPD2     N 5353   3.568   0.148   1.612  0.1648 -0.0856 -0.3992
  357MPD2    H5 5354   3.524   0.233   1.579  0.8702 -0.2766 -1.8479
  357MPD2    N1 5355   3.930   4.553   1.486 -0.3443 -0.4713 -0.0960
  357MPD2    H7 5356   3.993   4.544   1.407 -0.5429  0.9663 -0.4269
  358TMC3    C1 5357   4.001   4.343   1.563  0.5928  1.0613  0.0144
  358TMC3    C2 5358   4.005   4.300   1.435 -0.2750 -0.6327  0.1642
  358TMC3    C3 5359   4.066   4.181   1.403 -0.1153 -0.9431  0.1006
  358TMC3    C4 5360   4.072   4.278   1.660 -0.2718 -0.3969  0.2450
  358TMC3    C5 5361   4.137   4.157   1.627  0.0877  0.1625  0.2566
  358TMC3    C6 5362   4.140   4.112   1.492 -0.2449 -0.0186  0.4176
  358TMC3     C 5363   3.935   4.467   1.592 -0.5424  0.2277  0.0733
  358TMC3     O 5364   3.894   4.482   1.709  0.4037  0.1922 -0.1551
  358TMC3     H 5365   3.956   4.358   1.358  1.8332 -0.3378 -0.9641
  358TMC3    H1 5366   4.066   4.317   1.761 -0.2957  1.1883 -0.3716
  358TMC3    H2 5367   4.184   4.015   1.474  1.0462  0.4547  0.9909
  358TMC3    C7 5368   4.240   4.106   1.713  0.3767 -0.0962  0.0132
  358TMC3    C8 5369   4.053   4.115   1.272  0.2208  0.2698 -0.4533
  358TMC3    O1 5370   4.322   4.032   1.663  0.2080 -0.6565  0.1587
  358TMC3    O2 5371   4.141   4.039   1.240  0.0547 -0.6052  0.4979
  359MPD2     C 5372   0.223   3.842  12.276 -0.4900  0.3073  0.3053
  359MPD2    C1 5373   0.249   3.720  12.225 -0.0533  0.2142 -0.2419
  359MPD2    C2 5374   0.144   3.628  12.209  0.0617 -0.1255  0.2128
  359MPD2    C3 5375   0.016   3.657  12.253 -0.6294 -0.5388 -0.1195
  359MPD2    C4 5376   4.716   3.783  12.299 -0.0856 -0.6006  0.2807
  359MPD2    C5 5377   0.098   3.877  12.320 -0.0229  0.2187  0.3267
  359MPD2     H 5378   0.164   3.533  12.162  1.9715  0.3454  0.0719
  359MPD2    H1 5379   4.618   3.800  12.343  0.0346 -3.7205  1.7471
  359MPD2    H2 5380   0.301   3.917  12.283  0.6872 -0.7574 -1.3368
  359MPD2    H3 5381   0.087   3.979  12.354 -2.0649  0.0082  0.2844
  359MPD2     N 5382   4.635   3.559  12.250  0.3317 -0.0308  0.3727
  359MPD2    H5 5383   4.546   3.592  12.285 -1.3643 -2.4830 -1.6428
  359MPD2    N1 5384   0.377   3.673  12.192 -0.0620  0.3863 -0.2337
  359MPD2    H7 5385   0.388   3.575  12.166 -2.5431  0.1189 -0.2920
  360TMC3    C1 5386   0.609   3.673  12.155  0.3129 -0.0118  0.1589
  360TMC3    C2 5387   0.731   3.732  12.155 -0.7005  0.1665 -0.4908
  360TMC3    C3 5388   0.835   3.652  12.128  0.3517  0.6323 -0.2239
  360TMC3    C4 5389   0.593   3.537  12.126  0.1971 -0.0162 -0.3405
  360TMC3    C5 5390   0.704   3.463  12.094 -0.4237  0.0261  0.3326
  360TMC3    C6 5391   0.826   3.525  12.095 -0.0585 -0.3646  0.2587
  360TMC3     C 5392   0.486   3.752  12.177 -1.1324 -0.1511  0.2161
  360TMC3     O 5393   0.506   3.874  12.181  0.2587 -0.0091  0.4630
  360TMC3     H 5394   0.739   3.840  12.153 -1.4748  0.2238 -0.5188
  360TMC3    H1 5395   0.493   3.504  12.100 -1.1714  0.9411  3.8789
  360TMC3    H2 5396   0.908   3.455  12.085  1.1065  1.0827 -0.2413
  360TMC3    C7 5397   0.684   3.371  11.985  0.1767 -0.0781  0.3812
  360TMC3    C8 5398   0.940   3.718  12.058 -0.6787  0.1401  0.0565
  360TMC3    O1 5399   0.778   3.355  11.905  0.1387  0.3713 -0.7912
  360TMC3    O2 5400   0.952   3.843  12.063 -0.4828 -0.2791 -0.5142
  361MPD2     C 5401   1.520   2.239  16.655  0.2362 -0.1184  0.1670
  361MPD2    C1 5402   1.559   2.327  16.757 -0.8216 -0.1219 -0.2475
  361MPD2    C2 5403   1.689   2.308  16.803 -0.5072  0.2967 -0.1110
  361MPD2    C3 5404   1.771   2.204  16.752  0.3425  0.4911  0.1223
  361MPD2    C4 5405   1.724   2.119  16.662 -0.5383  0.5266 -0.4547
  361MPD2    C5 5406   1.598   2.132  16.618 -0.5685  0.0925  0.3079
  361MPD2     H 5407   1.732   2.377  16.875  1.0269 -0.0230 -0.7020
  361MPD2    H1 5408   1.790   2.037  16.638 -1.1225  0.0882 -0.5607
  361MPD2    H2 5409   1.427   2.241  16.600  0.5630  0.9767 -0.3635
  361MPD2    H3 5410   1.555   2.059  16.550 -1.1458  1.2947 -0.6126
  361MPD2     N 5411   1.897   2.166  16.809 -0.2161 -0.0260  0.7692
  361MPD2    H5 5412   1.943   2.088  16.763 -1.1058  0.8126 -1.5208
  361MPD2    N1 5413   1.477   2.424  16.814  0.2471  0.2998 -0.1229
  361MPD2    H7 5414   1.521   2.496  16.871 -0.3375  1.2984 -0.9369
  362TMC3    C1 5415   1.288   2.552  16.864 -0.6831 -0.3963 -0.0608
  362TMC3    C2 5416   1.159   2.541  16.913  0.9613  0.9201 -0.5966
  362TMC3    C3 5417   1.082   2.657  16.924 -0.8248  0.8701  0.4955
  362TMC3    C4 5418   1.346   2.669  16.841  0.0089 -0.6006  0.4710
  362TMC3    C5 5419   1.285   2.783  16.886 -0.2017  0.2220  0.2988
  362TMC3    C6 5420   1.152   2.781  16.920  0.7683 -0.1132  0.1871
  362TMC3     C 5421   1.343   2.434  16.797  0.1090  0.0095  1.0183
  362TMC3     O 5422   1.260   2.357  16.756  1.1601 -0.3566 -0.6031
  362TMC3     H 5423   1.109   2.445  16.917  0.9586  0.8363 -2.5369
  362TMC3    H1 5424   1.445   2.666  16.797  0.5171 -1.0262  1.6475
  362TMC3    H2 5425   1.106   2.877  16.943  1.8102  0.4561 -0.0562
  362TMC3    C7 5426   1.322   2.898  16.800 -0.0917 -0.2916  0.2455
  362TMC3    C8 5427   0.934   2.652  16.926 -0.1415  0.4668 -0.7459
  362TMC3    O1 5428   1.334   3.007  16.851  0.4425  0.0868 -0.0136
  362TMC3    O2 5429   0.875   2.542  16.924 -0.2408  0.2252 -0.6563
  363TMC3    C1 5430   4.441   4.373   9.196  0.7488  0.2639  0.3707
  363TMC3    C2 5431   4.504   4.341   9.312  0.0880 -0.6562 -0.2718
  363TMC3    C3 5432   4.442   4.389   9.428  0.3140  0.5095 -0.5618
  363TMC3    C4 5433   4.332   4.456   9.190 -0.2339 -0.0625  0.4784
  363TMC3    C5 5434   4.266   4.489   9.303  0.3398 -0.6392 -0.0674
  363TMC3    C6 5435   4.324   4.457   9.424  0.2738 -0.5206  0.0315
  363TMC3     C 5436   4.475   4.310   9.069 -0.1188 -0.0203  1.0493
  363TMC3     O 5437   4.452   4.361   8.961 -0.8896 -0.5954 -0.3021
  363TMC3     H 5438   4.603   4.296   9.307  0.2828 -0.3729  1.2613
  363TMC3    H1 5439   4.292   4.484   9.094 -0.5416 -0.0987  0.5960
  363TMC3    H2 5440   4.282   4.485   9.520  0.8706  0.9149 -0.1210
  363TMC3    C7 5441   4.145   4.574   9.289  0.9035 -0.1289  0.0262
  363TMC3    C8 5442   4.524   4.397   9.550  0.2712 -0.0749  0.7121
  363TMC3    O1 5443   4.130   4.643   9.185 -0.1780  0.5182 -0.5710
  363TMC3    O2 5444   4.490   4.478   9.637 -0.4841  0.1874 -0.1833
  364MPD2     C 5445   3.862   4.106  11.005 -0.2313 -0.5313  0.3376
  364MPD2    C1 5446   3.914   4.047  10.887  0.1139  0.0892  0.3615
  364MPD2    C2 5447   3.941   3.914  10.887 -0.4287 -0.1562 -0.0175
  364MPD2    C3 5448   3.911   3.837  11.000 -0.2953 -0.0734 -0.1348
  364MPD2    C4 5449   3.855   3.892  11.111 -0.0180 -0.0973  0.2168
  364MPD2    C5 5450   3.829   4.023  11.110  0.3287 -0.0557 -0.5098
  364MPD2     H 5451   3.984   3.873  10.797 -0.6270 -0.0682 -0.1520
  364MPD2    H1 5452   3.832   3.836  11.201  4.4299 -0.2147  1.2765
  364MPD2    H2 5453   3.838   4.212  11.010 -0.6544 -0.5612 -1.0363
  364MPD2    H3 5454   3.774   4.064  11.194  3.6871 -0.1291  1.7104
  364MPD2     N 5455   3.946   3.698  10.995  0.1142  0.3722 -0.0803
  364MPD2    H5 5456   3.927   3.648  11.081 -2.8157 -1.1577 -1.6426
  364MPD2    N1 5457   3.955   4.139  10.787  0.1529  0.3919  0.1807
  364MPD2    H7 5458   3.904   4.227  10.788 -0.0358  0.2859 -2.4467
  365TMC3    C1 5459   4.029   4.207  10.573 -0.5474 -0.3971  0.1549
  365TMC3    C2 5460   4.074   4.171  10.450  0.1999  0.4769 -0.0958
  365TMC3    C3 5461   4.098   4.265  10.359 -0.1431 -0.5532  0.0311
  365TMC3    C4 5462   4.006   4.337  10.613  1.1775  0.3919  0.0792
  365TMC3    C5 5463   4.012   4.433  10.510  0.7102  0.3738  0.5105
  365TMC3    C6 5464   4.063   4.398  10.386  0.2635  0.0768 -0.5596
  365TMC3     C 5465   4.012   4.101  10.669 -0.1970 -0.5006 -0.2539
  365TMC3     O 5466   4.067   3.995  10.637  0.2596 -0.0573 -0.1973
  365TMC3     H 5467   4.077   4.066  10.427 -0.9052  0.3535  0.3064
  365TMC3    H1 5468   4.007   4.371  10.716  2.3971 -3.4846  1.3398
  365TMC3    H2 5469   4.072   4.472  10.308 -2.4322 -0.4160 -1.3374
  365TMC3    C7 5470   4.007   4.573  10.541 -1.1475  0.4668  0.9409
  365TMC3    C8 5471   4.102   4.216  10.219 -0.3894  0.1864  0.6386
  365TMC3    O1 5472   4.043   4.657  10.461  0.3334  0.1173  0.7648
  365TMC3    O2 5473   4.039   4.271  10.137 -0.0213  0.6222 -0.6861
  366MPD2     C 5474   1.786   0.897  15.295 -0.6448  0.2273  0.2339
  366MPD2    C1 5475   1.903   0.975  15.301 -0.1060 -0.0775 -0.1533
  366MPD2    C2 5476   2.023   0.925  15.249  0.1965 -0.1150 -0.1107
  366MPD2    C3 5477   2.024   0.800  15.202 -1.2824  0.0344  0.2543
  366MPD2    C4 5478   1.912   0.727  15.191 -0.8253  0.0559  0.5336
  366MPD2    C5 5479   1.787   0.775  15.232 -0.2884 -0.0631  0.1558
  366MPD2     H 5480   2.112   0.988  15.253  0.9327 -1.1259 -0.5015
  366MPD2    H1 5481   1.916   0.627  15.151  0.4207  0.5586 -0.6093
  366MPD2    H2 5482   1.686   0.932  15.318 -1.7980 -2.4964 -0.7041
  366MPD2    H3 5483   1.700   0.712  15.217 -1.4545  1.5127  0.3509
  366MPD2     N 5484   2.148   0.759  15.153  0.4554 -0.2814  0.0964
  366MPD2    H5 5485   2.214   0.830  15.121 -1.9471  2.7243  1.7852
  366MPD2    N1 5486   1.905   1.106  15.358  0.1899  0.5572 -0.6122
  366MPD2    H7 5487   1.993   1.154  15.371 -0.6853  1.2452  2.9423
  367TMC3    C1 5488   1.870   1.308  15.419 -0.9102  0.1113 -0.0248
  367TMC3    C2 5489   1.994   1.302  15.474 -0.0450  0.2798 -0.2017
  367TMC3    C3 5490   2.092   1.392  15.433 -0.7768  0.0928  0.3700
  367TMC3    C4 5491   1.847   1.410  15.325  0.3239  0.7673  0.2854
  367TMC3    C5 5492   1.953   1.490  15.280 -0.5609  0.3313 -0.1382
  367TMC3    C6 5493   2.075   1.489  15.338  0.5444 -0.0067 -0.4306
  367TMC3     C 5494   1.806   1.183  15.394  0.1425 -0.4083 -0.2825
  367TMC3     O 5495   1.688   1.175  15.371  0.3186  0.4443  0.0020
  367TMC3     H 5496   2.017   1.227  15.548 -1.6784 -1.9178 -1.9116
  367TMC3    H1 5497   1.749   1.421  15.281 -0.1887 -1.7797  0.7866
  367TMC3    H2 5498   2.153   1.560  15.312  1.2059 -0.9409 -1.0002
  367TMC3    C7 5499   1.922   1.596  15.192 -0.0779 -0.9198 -0.3215
  367TMC3    C8 5500   2.229   1.364  15.475  0.3741  0.3419  0.0849
  367TMC3    O1 5501   1.963   1.713  15.212 -0.5709 -0.0812  0.5065
  367TMC3    O2 5502   2.240   1.255  15.529  0.5958  0.3425  0.1537
  368MPD2     C 5503   3.056   2.574  12.984  0.5761  0.2314  0.0720
  368MPD2    C1 5504   3.033   2.666  12.885 -0.4271  0.6121 -0.1999
  368MPD2    C2 5505   3.140   2.740  12.833 -0.2460 -0.2911 -0.3026
  368MPD2    C3 5506   3.268   2.705  12.869 -0.2649 -0.1395 -0.1441
  368MPD2    C4 5507   3.285   2.612  12.967  0.0178  0.6544  0.1709
  368MPD2    C5 5508   3.184   2.552  13.028 -0.8857  0.2009 -0.0015
  368MPD2     H 5509   3.128   2.822  12.763 -0.9842 -0.1686 -0.0334
  368MPD2    H1 5510   3.383   2.600  13.011 -0.0881 -2.1247 -0.3584
  368MPD2    H2 5511   2.971   2.524  13.030  0.8325  0.1370  0.4444
  368MPD2    H3 5512   3.202   2.473  13.099  1.3868  0.9790  0.2792
  368MPD2     N 5513   3.381   2.761  12.808 -0.3012 -0.1106 -0.1204
  368MPD2    H5 5514   3.476   2.728  12.819  0.1360  0.7623 -1.3115
  368MPD2    N1 5515   2.897   2.697  12.859 -0.2471 -0.6641  0.2142
  368MPD2    H7 5516   2.826   2.658  12.921 -0.0948  0.1310  0.8919
  369TMC3    C1 5517   2.714   2.803  12.748  0.0027 -0.3839  0.3179
  369TMC3    C2 5518   2.687   2.866  12.624  0.2801 -0.5717 -0.2965
  369TMC3    C3 5519   2.594   2.959  12.623 -0.7101 -0.3489 -0.6844
  369TMC3    C4 5520   2.638   2.826  12.860 -0.0002  0.1432  0.2953
  369TMC3    C5 5521   2.537   2.917  12.855  0.0385  0.0162 -0.3763
  369TMC3    C6 5522   2.517   2.985  12.736  0.1085  0.0227 -0.4368
  369TMC3     C 5523   2.856   2.777  12.755  0.0590  0.2044  0.2186
  369TMC3     O 5524   2.925   2.836  12.671 -0.1354  0.0819  0.0749
  369TMC3     H 5525   2.744   2.839  12.536 -0.5044  1.8183 -1.5349
  369TMC3    H1 5526   2.667   2.790  12.958 -0.0670  1.2175  0.7006
  369TMC3    H2 5527   2.454   3.073  12.739  2.1359  1.4307  0.5301
  369TMC3    C7 5528   2.457   2.917  12.975 -0.4107 -0.0136 -0.4403
  369TMC3    C8 5529   2.653   3.079  12.557 -0.6027  0.3293  0.0101
  369TMC3    O1 5530   2.483   2.834  13.064 -0.0716  0.1008 -0.2001
  369TMC3    O2 5531   2.581   3.162  12.500 -0.3606 -0.3978 -0.2928
  370TMC3    C1 5532   3.097   3.242  16.181  0.3259  0.5204 -0.3787
  370TMC3    C2 5533   3.025   3.181  16.274  0.1527  0.3322  0.7011
  370TMC3    C3 5534   2.993   3.054  16.261  0.0950 -0.2093 -0.1486
  370TMC3    C4 5535   3.151   3.177  16.074 -0.1530 -0.4226  0.2508
  370TMC3    C5 5536   3.118   3.049  16.065 -0.0140 -0.4085  0.0049
  370TMC3    C6 5537   3.031   2.986  16.149 -0.1017 -0.1994  0.5162
  370TMC3     C 5538   3.154   3.370  16.224 -0.2630 -0.2729 -0.2187
  370TMC3     O 5539   3.153   3.400  16.342  0.2907 -0.0758 -0.1289
  370TMC3     H 5540   2.998   3.239  16.362  3.9199  1.9355  0.8355
  370TMC3    H1 5541   3.231   3.218  16.013  1.7774 -2.3305  1.4922
  370TMC3    H2 5542   3.007   2.880  16.140  0.3226 -0.4423  2.1957
  370TMC3    C7 5543   3.171   2.971  15.950  0.5501  0.8884  0.4271
  370TMC3    C8 5544   2.933   2.979  16.363 -0.4429 -0.3027  0.3315
  370TMC3    O1 5545   3.221   3.026  15.853  0.6425 -0.0567  0.4668
  370TMC3    O2 5546   2.941   2.855  16.358 -0.4920  0.2288 -0.0541
  371TMC3    C1 5547   4.222   1.178  15.659  0.2663 -0.3322 -0.0205
  371TMC3    C2 5548   4.084   1.172  15.674  0.4871 -0.0057  0.0167
  371TMC3    C3 5549   4.014   1.283  15.658  0.9080 -0.3367  0.1064
  371TMC3    C4 5550   4.291   1.294  15.631  0.5218  0.1316 -0.5911
  371TMC3    C5 5551   4.208   1.400  15.614 -0.2878  0.3439  0.0285
  371TMC3    C6 5552   4.075   1.396  15.628  0.1609  0.2132  0.1993
  371TMC3     C 5553   4.303   1.061  15.700  0.0377 -0.4689 -1.0587
  371TMC3     O 5554   4.420   1.087  15.725 -0.1350 -0.0621  0.1506
  371TMC3     H 5555   4.033   1.084  15.712  1.1355 -1.5414 -2.6448
  371TMC3    H1 5556   4.398   1.304  15.615  0.2568  2.5552 -0.8689
  371TMC3    H2 5557   4.020   1.485  15.598  1.7574  0.6366 -1.4716
  371TMC3    C7 5558   4.272   1.521  15.573  0.1859  0.3789 -0.3113
  371TMC3    C8 5559   3.890   1.289  15.729  0.2849  0.9373  0.4552
  371TMC3    O1 5560   4.197   1.606  15.525 -0.0615  0.1832 -0.5720
  371TMC3    O2 5561   3.843   1.178  15.767 -0.0898 -0.6832  0.7522
  372MPD2     C 5562   4.125   3.238  13.477 -0.0409 -0.3842 -0.1533
  372MPD2    C1 5563   4.203   3.137  13.529 -0.4035 -0.2102 -0.2831
  372MPD2    C2 5564   4.168   3.006  13.508 -0.4438  0.9276  0.0392
  372MPD2    C3 5565   4.066   2.972  13.429 -0.1924 -0.4369 -0.7891
  372MPD2    C4 5566   3.980   3.069  13.381  0.2700  0.2065  0.7308
  372MPD2    C5 5567   4.018   3.198  13.401 -0.4526  0.1032  0.3298
  372MPD2     H 5568   4.236   2.930  13.545 -0.6048  1.2230  0.9555
  372MPD2    H1 5569   3.883   3.046  13.337  1.2632 -0.6248 -1.0135
  372MPD2    H2 5570   4.144   3.343  13.494  1.2249 -0.2919 -2.1520
  372MPD2    H3 5571   3.956   3.272  13.353 -1.6244  1.0714  3.3701
  372MPD2     N 5572   4.040   2.834  13.420  0.6407  0.1467  0.0404
  372MPD2    H5 5573   4.106   2.775  13.470  0.7269 -0.6651 -1.0476
  372MPD2    N1 5574   4.305   3.159  13.616 -0.2089  0.4064  0.4126
  372MPD2    H7 5575   4.339   3.081  13.672 -0.2798  0.1221  0.0646
  373TMC3    C1 5576   3.915   2.632  13.426  0.4349  0.2678  0.2299
  373TMC3    C2 5577   3.812   2.573  13.485  0.7505  0.6129  0.1725
  373TMC3    C3 5578   3.797   2.436  13.485 -0.4647  0.9083  0.4442
  373TMC3    C4 5579   4.014   2.558  13.373 -0.1812 -0.1960  0.1077
  373TMC3    C5 5580   4.004   2.417  13.385 -0.4324  0.2065 -0.4711
  373TMC3    C6 5581   3.892   2.355  13.430 -0.1827 -0.1885 -0.8261
  373TMC3     C 5582   3.919   2.777  13.411 -0.2606 -0.1972  0.2812
  373TMC3     O 5583   3.814   2.836  13.403  0.0494  0.0436 -0.0533
  373TMC3     H 5584   3.730   2.634  13.521  0.5510  1.2310 -1.3095
  373TMC3    H1 5585   4.100   2.603  13.327  0.4104 -0.3763  1.0419
  373TMC3    H2 5586   3.874   2.249  13.419  0.6006 -0.3111 -0.8645
  373TMC3    C7 5587   4.119   2.332  13.376  0.2003  0.5511 -0.2977
  373TMC3    C8 5588   3.756   2.399  13.622  0.2316  0.4073  0.9487
  373TMC3    O1 5589   4.211   2.364  13.304  0.3292  0.0411  0.2678
  373TMC3    O2 5590   3.748   2.479  13.714 -0.0951 -0.2542 -0.1515
  374TMC3    C1 5591   4.426   2.138   9.628 -0.2958  0.0495 -0.1129
  374TMC3    C2 5592   4.430   2.257   9.692  0.2122  0.4105 -0.2872
  374TMC3    C3 5593   4.424   2.370   9.610 -0.2637  0.1260  0.2654
  374TMC3    C4 5594   4.400   2.124   9.493  0.7836 -0.3675 -0.4721
  374TMC3    C5 5595   4.392   2.242   9.419  0.0027  0.2958  0.2384
  374TMC3    C6 5596   4.402   2.364   9.475  0.4547 -0.4489 -0.1779
  374TMC3     C 5597   4.446   2.024   9.717 -0.1056  0.5465 -0.4646
  374TMC3     O 5598   4.515   2.037   9.817  0.7047  0.5571 -0.9070
  374TMC3     H 5599   4.405   2.256   9.797 -1.3876 -1.2552 -0.6964
  374TMC3    H1 5600   4.401   2.027   9.444  1.3423 -1.2194  1.2196
  374TMC3    H2 5601   4.380   2.456   9.420  0.6497  0.9409  2.0872
  374TMC3    C7 5602   4.379   2.241   9.272  0.3277  0.1699 -0.5035
  374TMC3    C8 5603   4.433   2.502   9.659 -0.3757  0.5125 -0.3957
  374TMC3    O1 5604   4.338   2.348   9.226  0.1482  0.1421  0.1753
  374TMC3    O2 5605   4.403   2.601   9.588 -0.2289 -0.3362 -0.2858
  375MPD2     C 5606   4.414   3.681  16.990  0.1070 -0.4016  0.1956
  375MPD2    C1 5607   4.376   3.727  16.870 -0.8435 -0.3949  0.1443
  375MPD2    C2 5608   4.432   3.659  16.759 -0.1361 -0.2952 -0.4509
  375MPD2    C3 5609   4.502   3.534  16.771  0.1027  0.6216  0.0757
  375MPD2    C4 5610   4.527   3.485  16.897  0.0663  0.2866 -0.0282
  375MPD2    C5 5611   4.476   3.558  17.000 -0.2189  0.2613 -0.1866
  375MPD2     H 5612   4.420   3.713  16.666 -2.9915  0.0596  0.0929
  375MPD2    H1 5613   4.587   3.399  16.924  0.2686 -0.2513 -2.1936
  375MPD2    H2 5614   4.398   3.742  17.078 -0.3299 -2.2594  1.4084
  375MPD2    H3 5615   4.491   3.531  17.104 -1.0255 -1.7267 -0.5979
  375MPD2     N 5616   4.564   3.469  16.656  0.5084  0.0649  0.2494
  375MPD2    H5 5617   4.601   3.377  16.673 -1.5771 -0.8200 -0.0053
  375MPD2    N1 5618   4.304   3.848  16.855 -0.6063  0.0238 -0.0709
  375MPD2    H7 5619   4.265   3.881  16.767 -0.7276 -0.1376 -0.0771
  376TMC3    C1 5620   4.615   3.416  16.429  0.3848 -0.5089 -0.2003
  376TMC3    C2 5621   0.005   3.354  16.463  0.2606  0.1204 -0.1026
  376TMC3    C3 5622   0.080   3.302  16.355  0.7231 -0.0704 -0.5432
  376TMC3    C4 5623   4.565   3.421  16.304 -0.5242  0.4627 -0.1026
  376TMC3    C5 5624   4.632   3.341  16.210 -0.1404  0.2129 -0.0052
  376TMC3    C6 5625   0.037   3.304  16.228 -0.3943  0.1499  0.1011
  376TMC3     C 5626   4.553   3.511  16.526  0.0736  0.1268  0.1030
  376TMC3     O 5627   4.495   3.604  16.474 -0.2725 -0.2577 -0.2805
  376TMC3     H 5628   0.044   3.373  16.562 -1.4294 -0.5949  0.6979
  376TMC3    H1 5629   4.474   3.476  16.282 -0.1793  1.3628  0.7575
  376TMC3    H2 5630   0.097   3.272  16.143  0.4420  3.0830 -0.3796
  376TMC3    C7 5631   4.576   3.323  16.072 -0.1477  0.1489  0.1912
  376TMC3    C8 5632   0.219   3.296  16.381  1.2905 -0.5237  0.1150
  376TMC3    O1 5633   4.653   3.278  15.990 -0.1113 -0.6333 -0.0570
  376TMC3    O2 5634   0.286   3.346  16.293 -0.1895  0.4348  0.0419
  377MPD2     C 5635   2.206   3.135  12.316 -0.7195 -0.5419  0.6048
  377MPD2    C1 5636   2.262   3.014  12.349  0.8096  0.2156 -0.5100
  377MPD2    C2 5637   2.214   2.940  12.461  0.2976 -0.2014 -0.6105
  377MPD2    C3 5638   2.095   2.976  12.514 -0.6736 -0.3500  0.3827
  377MPD2    C4 5639   2.038   3.097  12.477  0.3726 -0.5015 -0.5111
  377MPD2    C5 5640   2.098   3.173  12.384  0.3212 -0.2723 -0.3829
  377MPD2     H 5641   2.259   2.845  12.487 -0.6109 -1.3557 -3.2519
  377MPD2    H1 5642   1.948   3.130  12.528 -0.0334 -1.6679 -0.4838
  377MPD2    H2 5643   2.237   3.196  12.232  1.3592 -0.9177  1.0969
  377MPD2    H3 5644   2.050   3.262  12.344 -2.1450 -0.5426  2.0199
  377MPD2     N 5645   2.031   2.913  12.629 -0.1895  0.3277 -0.0782
  377MPD2    H5 5646   1.930   2.915  12.640 -0.3328 -0.8127 -1.1685
  377MPD2    N1 5647   2.379   2.966  12.279 -0.6908  0.2405 -0.9381
  377MPD2    H7 5648   2.414   3.032  12.210 -2.2163  3.0550  0.9882
  378TMC3    C1 5649   2.719   2.985  12.102 -0.2383  0.2304 -0.0265
  378TMC3    C2 5650   2.594   2.947  12.138 -0.0612 -0.0887 -0.5993
  378TMC3    C3 5651   2.573   2.841  12.214  0.2487  0.2812 -0.8309
  378TMC3    C4 5652   2.823   2.917  12.151 -0.0337 -0.1452 -0.4462
  378TMC3    C5 5653   2.805   2.796  12.222 -0.6799  0.1405  0.6146
  378TMC3    C6 5654   2.674   2.763  12.255 -0.4702  0.0958 -0.1143
  378TMC3     C 5655   2.738   3.086  12.000 -0.3852 -1.9844 -0.3389
  378TMC3     O 5656   2.632   3.137  11.963 -0.6103  0.4926 -0.1275
  378TMC3     H 5657   2.509   3.003  12.100 -0.2731  0.7390  1.0619
  378TMC3    H1 5658   2.925   2.949  12.134 -0.4776  2.9697  2.9346
  378TMC3    H2 5659   2.652   2.675  12.313  0.2623  1.1279  1.7140
  378TMC3    C7 5660   2.914   2.722  12.294  0.0409  0.2301 -0.0660
  378TMC3    C8 5661   2.457   2.850  12.301 -0.5965  0.1174  0.5798
  378TMC3    O1 5662   2.869   2.636  12.365  0.3930 -0.2526 -0.3786
  378TMC3    O2 5663   2.438   2.761  12.388 -0.2410  1.1884  0.4623
  379MPD2     C 5664   3.367   1.107  15.986  0.7922  0.1854 -0.3959
  379MPD2    C1 5665   3.283   1.069  16.088 -0.5604 -0.9057  0.2834
  379MPD2    C2 5666   3.335   1.000  16.194  0.0410  0.5262  0.3302
  379MPD2    C3 5667   3.473   0.969  16.194 -0.1120 -0.0422  0.8488
  379MPD2    C4 5668   3.557   1.014  16.097  0.1442  0.4501  0.4669
  379MPD2    C5 5669   3.498   1.077  15.989  0.8128  0.4643  0.4587
  379MPD2     H 5670   3.271   0.969  16.276 -2.6643  0.5437 -1.7328
  379MPD2    H1 5671   3.659   0.979  16.089  0.3472  1.1522 -0.0146
  379MPD2    H2 5672   3.325   1.157  15.900 -1.9068 -2.3642 -0.5620
  379MPD2    H3 5673   3.548   1.114  15.900  0.1278 -0.5220 -0.3248
  379MPD2     N 5674   3.533   0.895  16.297  0.4520  0.3671  0.1185
  379MPD2    H5 5675   3.632   0.880  16.284  0.1222 -1.7234  0.0244
  379MPD2    N1 5676   3.145   1.105  16.078  0.3259  0.3347  0.2497
  379MPD2    H7 5677   3.123   1.176  16.008  2.1023  1.4211  0.7995
  380TMC3    C1 5678   2.925   1.043  16.073  0.4672 -0.5661  0.2295
  380TMC3    C2 5679   2.916   0.923  16.003  1.1254  0.2356  0.6873
  380TMC3    C3 5680   2.859   0.932  15.877 -0.6913  0.1346 -0.1178
  380TMC3    C4 5681   2.872   1.163  16.032  0.9121 -0.2329  0.3654
  380TMC3    C5 5682   2.820   1.161  15.902 -0.0816  0.2488 -0.2856
  380TMC3    C6 5683   2.807   1.051  15.827  0.4740 -0.0505 -0.1941
  380TMC3     C 5684   3.048   1.040  16.148  0.1404 -0.4570  0.8637
  380TMC3     O 5685   3.057   0.934  16.211 -0.3309 -0.0190  0.0334
  380TMC3     H 5686   2.974   0.833  16.021  0.0793 -0.5489  0.1229
  380TMC3    H1 5687   2.884   1.246  16.101 -1.0136 -0.1640  0.6143
  380TMC3    H2 5688   2.756   1.044  15.732 -0.9381 -1.9499  0.7010
  380TMC3    C7 5689   2.783   1.289  15.850 -0.5621 -0.3300 -0.2163
  380TMC3    C8 5690   2.936   0.850  15.780 -0.0412  0.2899 -0.2713
  380TMC3    O1 5691   2.848   1.378  15.901 -0.4262  0.3347 -0.2416
  380TMC3    O2 5692   2.925   0.732  15.778 -0.1586 -0.1353  0.5282
  381TMC3    C1 5693   2.857   2.274  16.291 -0.6764  0.1048 -0.3259
  381TMC3    C2 5694   2.974   2.342  16.266 -0.4369 -0.5624  0.2667
  381TMC3    C3 5695   3.006   2.449  16.344 -0.3957  0.1765 -0.2314
  381TMC3    C4 5696   2.782   2.310  16.399  0.5911  0.2431  0.4454
  381TMC3    C5 5697   2.808   2.425  16.464  0.0390  0.6067  0.1249
  381TMC3    C6 5698   2.915   2.502  16.432 -0.3227 -0.5930 -0.1353
  381TMC3     C 5699   2.837   2.141  16.243 -0.1535 -0.0385  0.5122
  381TMC3     O 5700   2.756   2.072  16.300  0.4463 -0.4523  0.5014
  381TMC3     H 5701   3.043   2.305  16.191 -1.6176 -0.8914 -0.6508
  381TMC3    H1 5702   2.694   2.250  16.417  0.7961 -0.6828 -1.5324
  381TMC3    H2 5703   2.931   2.590  16.494  0.8974 -0.8594 -0.0844
  381TMC3    C7 5704   2.769   2.412  16.604  0.0537  0.7612  0.1709
  381TMC3    C8 5705   3.128   2.523  16.302 -0.5276 -0.1340 -0.6091
  381TMC3    O1 5706   2.712   2.308  16.638  0.6013 -0.0823  0.6131
  381TMC3    O2 5707   3.204   2.461  16.225  0.2918  0.5566 -0.2370
  382MPD2     C 5708   2.452   0.128   0.013  0.0794 -0.5652  0.4218
  382MPD2    C1 5709   2.348   0.104  17.642  0.4185  0.2549  0.0115
  382MPD2    C2 5710   2.300   4.701  17.639 -0.8493 -0.8422 -0.2744
  382MPD2    C3 5711   2.325   4.602   0.028 -0.0949  0.3320 -0.3561
  382MPD2    C4 5712   2.428   4.640   0.112  0.2432  0.4079  0.9282
  382MPD2    C5 5713   2.488   0.032   0.101 -0.3718  0.2699  0.4749
  382MPD2     H 5714   2.223   4.678  17.566 -1.2660  0.9829 -0.3985
  382MPD2    H1 5715   2.473   4.568   0.180 -0.9484 -0.6132  0.6306
  382MPD2    H2 5716   2.515   0.217   0.015 -2.4535  1.1851  1.7158
  382MPD2    H3 5717   2.577   0.059   0.157  0.0839  1.5884 -0.8952
  382MPD2     N 5718   2.266   4.471   0.030 -0.3165  0.4033  0.8247
  382MPD2    H5 5719   2.276   4.419   0.116  0.4302  0.4674  0.7816
  382MPD2    N1 5720   2.298   0.198  17.552  0.8417 -0.0723  0.0192
  382MPD2    H7 5721   2.224   0.174  17.487  0.8988  0.4108 -0.2199
  383TMC3    C1 5722   2.102   4.307  17.669  0.7514  1.3031  0.5953
  383TMC3    C2 5723   1.986   4.275  17.593  0.4992  0.9385 -0.2006
  383TMC3    C3 5724   1.902   4.175  17.631  0.3291 -0.8679 -0.1366
  383TMC3    C4 5725   2.135   4.242   0.082 -0.1820  0.6052  0.0165
  383TMC3    C5 5726   2.038   4.145   0.119 -0.5487  0.3870  0.2490
  383TMC3    C6 5727   1.927   4.115   0.046 -0.7717 -0.6721 -0.8894
  383TMC3     C 5728   2.184   4.426  17.635 -0.5119  0.0632  0.5763
  383TMC3     O 5729   2.157   4.469  17.521  0.1725  0.2177 -0.1968
  383TMC3     H 5730   1.980   4.319  17.494 -4.1125 -1.8312 -1.1357
  383TMC3    H1 5731   2.222   4.266   0.143  0.0144  0.1587 -0.0917
  383TMC3    H2 5732   1.841   4.065   0.090 -2.0431 -0.8577 -3.5445
  383TMC3    C7 5733   2.044   4.083   0.248 -0.2165 -0.1660 -0.4532
  383TMC3    C8 5734   1.785   4.161  17.555  0.0404 -1.0150  0.8019
  383TMC3    O1 5735   1.942   4.029   0.282  0.2900  0.5825 -0.4994
  383TMC3    O2 5736   1.757   4.253  17.476  0.3332 -0.1602 -0.3867
  384MPD2     C 5737   4.071   1.236  11.921 -0.4211 -0.9204  0.3499
  384MPD2    C1 5738   4.144   1.200  12.038  0.3469 -0.1868 -0.8203
  384MPD2    C2 5739   4.200   1.071  12.033  0.4947 -0.0372 -0.1203
  384MPD2    C3 5740   4.179   0.987  11.931 -1.1249  0.2247 -0.2532
  384MPD2    C4 5741   4.096   1.017  11.822 -0.0028 -0.0918  0.0031
  384MPD2    C5 5742   4.046   1.146  11.820  0.0189  0.1443 -0.0678
  384MPD2     H 5743   4.262   1.033  12.114 -1.2538 -1.5443  0.4983
  384MPD2    H1 5744   4.077   0.945  11.744 -2.4691 -1.5297  1.9502
  384MPD2    H2 5745   4.033   1.336  11.907  0.3168 -0.5940  0.6581
  384MPD2    H3 5746   3.966   1.172  11.751  1.0273  0.5675 -1.0900
  384MPD2     N 5747   4.236   0.852  11.946  0.0029  0.2348 -0.5059
  384MPD2    H5 5748   4.291   0.835  12.030  0.2678 -0.1418 -0.7567
  384MPD2    N1 5749   4.141   1.266  12.163 -0.5595 -0.4820  0.3603
  384MPD2    H7 5750   4.180   1.214  12.241 -0.0664  2.6333  2.1741
  385TMC3    C1 5751   4.288   0.631  11.927  0.1807  0.3589 -0.0954
  385TMC3    C2 5752   4.211   0.521  11.941  0.8080 -0.5473  0.5029
  385TMC3    C3 5753   4.227   0.450  12.059  0.5882  0.1997 -0.0293
  385TMC3    C4 5754   4.389   0.663  12.014  0.0746 -0.7543 -0.6280
  385TMC3    C5 5755   4.394   0.596  12.135 -0.0088 -0.4644  0.0913
  385TMC3    C6 5756   4.311   0.487  12.160  0.4276 -0.5839  0.6952
  385TMC3     C 5757   4.208   0.741  11.874  0.1826 -0.0287  0.5326
  385TMC3     O 5758   4.106   0.718  11.808 -0.2582 -0.2403  0.4668
  385TMC3     H 5759   4.125   0.513  11.875 -0.4506  0.4145  2.0459
  385TMC3    H1 5760   4.452   0.749  11.995 -3.6317  1.9206 -0.9688
  385TMC3    H2 5761   4.303   0.431  12.253  0.8607 -1.1161  0.4115
  385TMC3    C7 5762   4.405   0.700  12.236  0.0492 -0.3400 -0.3755
  385TMC3    C8 5763   4.135   0.340  12.081  0.3578 -0.5534  0.1382
  385TMC3    O1 5764   4.381   0.814  12.201 -0.2241 -0.1422 -0.5756
  385TMC3    O2 5765   4.119   0.311  12.200  0.1831 -0.0208  0.4570
  386TMC3    C1 5766   3.781   3.223  11.740 -0.0939 -0.2788  0.7404
  386TMC3    C2 5767   3.833   3.188  11.620  0.2564 -0.5059 -0.2557
  386TMC3    C3 5768   3.789   3.260  11.517 -0.5738  0.4435  0.0907
  386TMC3    C4 5769   3.682   3.310  11.749  0.1636 -0.2560  0.3066
  386TMC3    C5 5770   3.634   3.381  11.650  0.9657 -0.7274  0.1752
  386TMC3    C6 5771   3.688   3.357  11.526  0.9156 -0.1657  0.7486
  386TMC3     C 5772   3.796   3.127  11.849 -0.4045 -0.3140  0.2724
  386TMC3     O 5773   3.693   3.088  11.900  0.4273  0.3996  0.2877
  386TMC3     H 5774   3.904   3.107  11.607  1.5183  0.9490 -2.4080
  386TMC3    H1 5775   3.638   3.323  11.847  0.1135 -0.8716  0.3671
  386TMC3    H2 5776   3.645   3.408  11.441  0.7003 -1.9023 -0.1748
  386TMC3    C7 5777   3.511   3.446  11.670  0.0045 -0.2602  0.7404
  386TMC3    C8 5778   3.834   3.233  11.383  0.9423 -0.0797  0.0497
  386TMC3    O1 5779   3.436   3.400  11.759  0.4733  0.3799  0.2190
  386TMC3    O2 5780   3.761   3.261  11.290 -0.0922  0.1167 -0.3823
  387MPD2     C 5781   1.222   3.178   9.888  0.5843  0.2816  0.1784
  387MPD2    C1 5782   1.280   3.115   9.993 -0.4246 -0.2262  0.4620
  387MPD2    C2 5783   1.324   2.983   9.986 -0.3865  0.0894 -0.0459
  387MPD2    C3 5784   1.308   2.909   9.875  0.2744  0.3168 -1.3126
  387MPD2    C4 5785   1.229   2.967   9.776  0.2583 -0.2707 -0.3521
  387MPD2    C5 5786   1.192   3.098   9.782 -0.3554  0.1219  0.0245
  387MPD2     H 5787   1.381   2.943  10.069  2.0234  2.6021 -0.5065
  387MPD2    H1 5788   1.211   2.913   9.684 -1.6072  0.9235 -0.6746
  387MPD2    H2 5789   1.197   3.283   9.890 -2.4988 -0.4665  0.5329
  387MPD2    H3 5790   1.141   3.148   9.700 -0.3552  0.3963  0.1894
  387MPD2     N 5791   1.367   2.783   9.871 -0.5505  0.2289 -0.6984
  387MPD2    H5 5792   1.441   2.752   9.932 -0.5893  0.9672 -0.2720
  387MPD2    N1 5793   1.306   3.181  10.113  0.0657  0.1993 -0.3199
  387MPD2    H7 5794   1.319   3.118  10.190 -1.2068 -0.4054 -0.6009
  388TMC3    C1 5795   1.412   3.336  10.245  0.3379 -0.2094 -0.2963
  388TMC3    C2 5796   1.438   3.470  10.260 -0.0068  0.3065 -0.3698
  388TMC3    C3 5797   1.543   3.503  10.346 -0.1859 -0.4145  0.4626
  388TMC3    C4 5798   1.496   3.244  10.293 -0.6120 -0.6028 -0.0211
  388TMC3    C5 5799   1.603   3.280  10.372  0.1136  0.0903 -0.1279
  388TMC3    C6 5800   1.624   3.412  10.408  1.1143 -0.2542 -0.2679
  388TMC3     C 5801   1.337   3.310  10.128  0.2918  0.5558 -0.3221
  388TMC3     O 5802   1.299   3.404  10.061  0.1240 -0.3523 -0.0810
  388TMC3     H 5803   1.377   3.545  10.211 -0.4017 -0.7564 -1.4754
  388TMC3    H1 5804   1.472   3.138  10.295 -0.5337 -0.5838  1.9586
  388TMC3    H2 5805   1.711   3.434  10.470  0.1062 -2.1155  1.8067
  388TMC3    C7 5806   1.715   3.188  10.390 -0.3624 -0.2980  0.2440
  388TMC3    C8 5807   1.559   3.641  10.369 -0.0179 -0.3024  0.7471
  388TMC3    O1 5808   1.807   3.201  10.472  0.0478  0.2353 -0.4085
  388TMC3    O2 5809   1.491   3.719  10.309  0.4799 -0.0393  0.1396
  389MPD2     C 5810   1.407   1.259  11.197 -0.0231  0.7182 -0.1755
  389MPD2    C1 5811   1.351   1.188  11.085  1.2360 -0.3670 -0.4587
  389MPD2    C2 5812   1.260   1.081  11.109  0.2555 -0.4592  0.0284
  389MPD2    C3 5813   1.234   1.042  11.237  0.2440 -0.1079 -0.6166
  389MPD2    C4 5814   1.299   1.105  11.340 -0.1532  0.3785  0.0964
  389MPD2    C5 5815   1.378   1.216  11.322 -0.5993  0.0293 -0.4213
  389MPD2     H 5816   1.210   1.043  11.021  0.0044  1.0117 -0.4646
  389MPD2    H1 5817   1.268   1.068  11.437 -0.1210 -3.1168 -1.2273
  389MPD2    H2 5818   1.459   1.353  11.186 -0.1476  0.8649  0.5235
  389MPD2    H3 5819   1.415   1.266  11.411 -1.4856  2.5574 -1.4708
  389MPD2     N 5820   1.156   0.930  11.269 -0.3157  0.4334  0.0314
  389MPD2    H5 5821   1.140   0.920  11.369  0.4703 -1.0440  0.0091
  389MPD2    N1 5822   1.393   1.229  10.948  0.2073 -0.2543  0.4685
  389MPD2    H7 5823   1.464   1.302  10.946  0.3376 -0.4331 -1.0430
  390TMC3    C1 5824   0.993   0.770  11.251  0.5692 -0.2895  0.2740
  390TMC3    C2 5825   1.002   0.736  11.387 -0.1874 -0.0080 -0.4860
  390TMC3    C3 5826   0.949   0.623  11.433  0.6477  0.6456 -0.0357
  390TMC3    C4 5827   0.914   0.690  11.169  0.1406  0.5299  0.4589
  390TMC3    C5 5828   0.881   0.565  11.219 -0.3284 -0.3770 -0.3048
  390TMC3    C6 5829   0.901   0.530  11.348 -0.0757 -0.5635  0.0421
  390TMC3     C 5830   1.072   0.866  11.182 -0.4331  0.1876 -0.0777
  390TMC3     O 5831   1.051   0.881  11.060  0.3079 -0.2731  0.8242
  390TMC3     H 5832   1.045   0.805  11.459  3.3260 -0.8376 -1.8126
  390TMC3    H1 5833   0.899   0.712  11.064 -1.4501 -0.2540  0.5086
  390TMC3    H2 5834   0.869   0.428  11.370 -0.4245 -0.4243  0.1899
  390TMC3    C7 5835   0.775   0.490  11.157  0.5349 -0.0145 -0.3955
  390TMC3    C8 5836   0.869   0.635  11.557 -0.0564  0.7015  0.4770
  390TMC3    O1 5837   0.803   0.428  11.058 -0.3756 -0.4447 -0.4784
  390TMC3    O2 5838   0.895   0.727  11.632  0.1311 -0.0771 -0.4544
  391MPD2     C 5839   0.257   2.247  11.160  0.0818  0.1103  0.0748
  391MPD2    C1 5840   0.332   2.355  11.126  0.0716  0.2148 -0.3130
  391MPD2    C2 5841   0.315   2.412  10.998  0.2144 -0.2683  0.1402
  391MPD2    C3 5842   0.228   2.363  10.901 -0.2976 -0.0036 -0.4105
  391MPD2    C4 5843   0.158   2.250  10.938 -0.6043  0.2052  0.0081
  391MPD2    C5 5844   0.174   2.195  11.065 -0.4143 -0.2549  0.2999
  391MPD2     H 5845   0.379   2.494  10.970  0.2811 -0.2986  0.2055
  391MPD2    H1 5846   0.084   2.200  10.876  1.1665 -0.3236 -1.6878
  391MPD2    H2 5847   0.267   2.190  11.252 -1.4827  1.7449  1.2371
  391MPD2    H3 5848   0.103   2.115  11.085 -1.5547  0.0488 -2.5565
  391MPD2     N 5849   0.231   2.437  10.774  0.1237  0.0826 -0.0067
  391MPD2    H5 5850   0.304   2.506  10.759  1.1855 -1.2206 -0.9140
  391MPD2    N1 5851   0.430   2.404  11.221 -0.3512 -0.2638 -0.3575
  391MPD2    H7 5852   0.428   2.375  11.319 -0.1280  1.1835  0.0718
  392TMC3    C1 5853   0.165   2.509  10.556  0.1476 -0.1297 -0.4863
  392TMC3    C2 5854   0.082   2.487  10.447  0.4486 -0.1583  0.8268
  392TMC3    C3 5855   0.087   2.587  10.352 -0.5357 -0.2769  0.8047
  392TMC3    C4 5856   0.243   2.625  10.567  0.0376  0.1653 -0.1935
  392TMC3    C5 5857   0.249   2.712  10.459  0.0731  0.1368  0.6224
  392TMC3    C6 5858   0.156   2.705  10.359  0.1021  0.9585 -0.1480
  392TMC3     C 5859   0.147   2.407  10.661  0.4613 -0.0749 -0.3897
  392TMC3     O 5860   0.057   2.328  10.652 -0.3555  0.0442 -0.5307
  392TMC3     H 5861   0.026   2.396  10.431  0.7900 -0.2235  0.0236
  392TMC3    H1 5862   0.304   2.654  10.652 -0.5441 -1.9426  0.9256
  392TMC3    H2 5863   0.157   2.777  10.278 -2.1502  2.0886  0.8303
  392TMC3    C7 5864   0.365   2.806  10.461 -0.4202  0.1013 -0.1067
  392TMC3    C8 5865   4.715   2.576  10.250  0.1631 -0.7942 -0.4690
  392TMC3    O1 5866   0.432   2.817  10.562 -0.7006 -0.3923 -0.1935
  392TMC3    O2 5867   4.666   2.463  10.238  0.2773 -0.1097  0.4482
  393TMC3    C1 5868   4.393   0.101  10.325  0.0124  0.2643 -0.8044
  393TMC3    C2 5869   4.352   0.015  10.422  0.4722 -0.1657 -0.0758
  393TMC3    C3 5870   4.440   4.655  10.474  0.5421  0.6612  0.1375
  393TMC3    C4 5871   4.521   0.102  10.285 -0.2072 -0.5850 -0.4336
  393TMC3    C5 5872   4.611   0.005  10.335  0.5205  0.1634  0.4733
  393TMC3    C6 5873   4.563   4.637  10.423 -0.4139 -0.4029 -0.7515
  393TMC3     C 5874   4.305   0.216  10.298  0.2328 -0.1029  0.3502
  393TMC3     O 5875   4.357   0.320  10.271  0.4685  0.0309 -0.2264
  393TMC3     H 5876   4.246   0.016  10.445  0.8476 -0.5953  1.6781
  393TMC3    H1 5877   4.555   0.179  10.218 -0.1682 -1.5501 -1.5221
  393TMC3    H2 5878   4.613   4.545  10.454  0.7051 -0.0065 -1.3820
  393TMC3    C7 5879   0.026   0.020  10.323 -0.4536 -0.5427  0.3049
  393TMC3    C8 5880   4.374   4.562  10.573  0.3595 -0.3273 -0.3360
  393TMC3    O1 5881   0.091   4.657  10.376  0.5485  0.8624 -0.3981
  393TMC3    O2 5882   4.423   4.452  10.570  0.2842  0.1564 -0.3361
  394TMC3    C1 5883   1.422   1.236  10.715  0.2952 -0.2998 -0.2626
  394TMC3    C2 5884   1.367   1.216  10.590 -0.4520  0.4270 -0.3185
  394TMC3    C3 5885   1.429   1.286  10.482 -0.2618  0.4921  0.0424
  394TMC3    C4 5886   1.535   1.314  10.735 -0.8021  0.2473  0.1216
  394TMC3    C5 5887   1.597   1.363  10.621 -0.7810 -0.1883 -0.1656
  394TMC3    C6 5888   1.548   1.355  10.494  0.2618 -0.5404  0.2502
  394TMC3     C 5889   1.346   1.181  10.825  0.6782 -0.0072  0.2087
  394TMC3     O 5890   1.258   1.103  10.802  0.0381 -0.1802  0.2112
  394TMC3     H 5891   1.275   1.160  10.577 -0.1022  0.2232 -1.8766
  394TMC3    H1 5892   1.593   1.318  10.827  0.9868  1.9045 -1.0716
  394TMC3    H2 5893   1.604   1.362  10.401 -1.3905  3.4737 -0.4043
  394TMC3    C7 5894   1.740   1.387  10.617 -0.5040 -0.4490  0.0484
  394TMC3    C8 5895   1.379   1.260  10.345  0.3655  0.4481 -0.2347
  394TMC3    O1 5896   1.801   1.336  10.711 -0.4793  0.0681 -0.3408
  394TMC3    O2 5897   1.429   1.332  10.261 -0.3696  0.0513 -0.0512
  395TMC3    C1 5898   0.831   3.499  14.559 -0.0055 -0.3831 -0.4887
  395TMC3    C2 5899   0.698   3.532  14.580  0.6176 -0.1995  0.4999
  395TMC3    C3 5900   0.673   3.631  14.672  0.1341 -0.2565  0.8031
  395TMC3    C4 5901   0.934   3.564  14.620  0.9010  0.0014  0.4181
  395TMC3    C5 5902   0.905   3.673  14.699 -0.0593  0.5548  0.1548
  395TMC3    C6 5903   0.775   3.698  14.732  0.0481 -0.2312 -0.0442
  395TMC3     C 5904   0.864   3.426  14.442  0.2474 -0.1961  0.1591
  395TMC3     O 5905   0.944   3.484  14.370 -0.4559  0.0095  0.4254
  395TMC3     H 5906   0.617   3.486  14.525  2.6395 -0.8440 -1.9659
  395TMC3    H1 5907   1.034   3.522  14.605  0.5375 -0.4996 -0.6327
  395TMC3    H2 5908   0.761   3.792  14.784  1.3697  0.9544 -1.8367
  395TMC3    C7 5909   1.013   3.735  14.772  0.1354  0.4165  0.0697
  395TMC3    C8 5910   0.568   3.618  14.766  0.5389 -0.5745  0.2816
  395TMC3    O1 5911   0.989   3.806  14.872 -0.0328 -0.0929  0.1449
  395TMC3    O2 5912   0.558   3.704  14.851  0.1064  0.1542 -0.3312
  396MPD2     C 5913   4.595   4.138  17.643  0.5258  0.5214 -0.9044
  396MPD2    C1 5914   4.633   4.056  17.539  0.5490 -0.0231  0.4359
  396MPD2    C2 5915   4.700   4.113  17.428  0.3573  0.1219 -0.2510
  396MPD2    C3 5916   4.715   4.252  17.418  0.5053 -0.0386  0.0454
  396MPD2    C4 5917   4.670   4.326  17.526  0.2299 -0.4117 -0.3108
  396MPD2    C5 5918   4.620   4.273  17.634 -0.4538 -0.3959  0.4725
  396MPD2     H 5919   0.008   4.059  17.341 -0.6273 -2.0092  0.6546
  396MPD2    H1 5920   4.677   4.434  17.535  0.4186 -0.4900  0.4554
  396MPD2    H2 5921   4.553   4.101   0.030  2.4183  0.6641  0.0021
  396MPD2    H3 5922   4.593   4.334   0.014 -2.0793  1.4709 -1.3537
  396MPD2     N 5923   0.047   4.320  17.310 -0.0056  0.0361  0.0187
  396MPD2    H5 5924   0.068   4.257  17.234 -1.2324 -1.7747  1.1718
  396MPD2    N1 5925   4.623   3.917  17.542 -0.0436  0.1614 -0.3273
  396MPD2    H7 5926   4.654   3.870  17.458  0.8451 -0.8516  0.5726
  397TMC3    C1 5927   4.636   3.705  17.618  0.2788  0.1736 -0.0236
  397TMC3    C2 5928   4.700   3.691  17.498  0.3322 -0.3491  0.0390
  397TMC3    C3 5929   4.690   3.578  17.430 -1.2946 -0.0402 -0.2011
  397TMC3    C4 5930   4.543   3.614  17.657  0.3238 -0.0312  0.6518
  397TMC3    C5 5931   4.520   3.508  17.573  0.5178  1.4817 -0.1350
  397TMC3    C6 5932   4.599   3.477  17.466  0.0781 -0.1793  0.1486
  397TMC3     C 5933   4.599   3.840  17.654  0.1400 -0.0712 -0.4171
  397TMC3     O 5934   4.565   3.872   0.059  0.9672 -0.0753 -0.1397
  397TMC3     H 5935   0.056   3.755  17.469 -0.0349 -0.0906 -0.4303
  397TMC3    H1 5936   4.479   3.637   0.036  0.6305  2.0185  0.3340
  397TMC3    H2 5937   4.572   3.397  17.398 -0.9629 -0.0999  0.4725
  397TMC3    C7 5938   4.403   3.418  17.589  0.8168 -0.3854  0.1986
  397TMC3    C8 5939   4.723   3.597  17.294 -0.7167  0.0999  0.0495
  397TMC3    O1 5940   4.361   3.359  17.489 -0.1621  0.0898 -0.5054
  397TMC3    O2 5941   0.018   3.715  17.256  0.2142 -0.2333 -0.0472
  398MPD2     C 5942   3.505   0.763   0.600 -0.1386 -0.0916 -0.3249
  398MPD2    C1 5943   3.619   0.692   0.577  0.6627  0.9831  0.0206
  398MPD2    C2 5944   3.724   0.761   0.516 -0.7407  0.3208 -0.9711
  398MPD2    C3 5945   3.729   0.895   0.494 -0.1178 -0.3994 -0.3641
  398MPD2    C4 5946   3.608   0.960   0.499 -0.4051 -0.0070  0.4126
  398MPD2    C5 5947   3.502   0.894   0.554  0.0060  0.0102  0.4061
  398MPD2     H 5948   3.820   0.712   0.501 -1.1296 -1.0136  0.9373
  398MPD2    H1 5949   3.593   1.065   0.480 -1.9910 -0.2095  0.5657
  398MPD2    H2 5950   3.425   0.717   0.656  1.3587  0.3804  2.1647
  398MPD2    H3 5951   3.409   0.943   0.582  0.2243  0.0580  1.0430
  398MPD2     N 5952   3.855   0.948   0.460  0.1162  0.1911  0.9566
  398MPD2    H5 5953   3.936   0.888   0.448  0.5834  0.8383  0.8601
  398MPD2    N1 5954   3.635   0.553   0.609  0.0302  0.2003 -0.6962
  398MPD2    H7 5955   3.713   0.501   0.570  0.3728  0.5171 -0.4318
  399TMC3    C1 5956   3.587   0.334   0.682  0.9106 -0.0030 -0.5915
  399TMC3    C2 5957   3.713   0.304   0.651 -0.3637 -0.2510 -0.3121
  399TMC3    C3 5958   3.759   0.172   0.672 -0.5962  0.2853  0.2132
  399TMC3    C4 5959   3.489   0.241   0.711 -0.1075  0.4426 -0.1423
  399TMC3    C5 5960   3.530   0.116   0.730  0.5528 -0.3425  0.0592
  399TMC3    C6 5961   3.667   0.078   0.708  0.0238 -0.2875  0.2137
  399TMC3     C 5962   3.539   0.471   0.673 -0.1808 -0.2177  0.4845
  399TMC3     O 5963   3.432   0.498   0.737 -0.0815 -0.4837  0.3794
  399TMC3     H 5964   3.788   0.378   0.626  0.1901  0.0841  2.3340
  399TMC3    H1 5965   3.387   0.263   0.742 -0.6824 -1.4259 -0.6735
  399TMC3    H2 5966   3.689   4.699   0.699  0.7961 -0.3835  3.3249
  399TMC3    C7 5967   3.427   0.016   0.733  0.3016  0.1886 -0.1549
  399TMC3    C8 5968   3.874   0.131   0.585 -0.9420 -0.2821 -0.0124
  399TMC3    O1 5969   3.314   0.058   0.738 -0.1667  0.1773 -0.2285
  399TMC3    O2 5970   3.914   0.212   0.503  0.6079  0.0141 -0.4384
  400TMC3    C1 5971   2.240   4.268  17.258 -0.4965  0.1756 -0.1719
  400TMC3    C2 5972   2.163   4.160  17.212 -0.4306  0.4801 -0.1737
  400TMC3    C3 5973   2.060   4.187  17.127  0.1083 -0.0868  1.1141
  400TMC3    C4 5974   2.215   4.397  17.227  0.4176 -0.3601  0.4474
  400TMC3    C5 5975   2.093   4.418  17.159 -0.7656  1.2464 -0.2741
  400TMC3    C6 5976   2.014   4.311  17.109  0.6334 -0.0751 -0.7940
  400TMC3     C 5977   2.333   4.229  17.364  0.0786  0.2247  0.8515
  400TMC3     O 5978   2.347   4.110  17.385 -0.5625  0.4967 -0.1570
  400TMC3     H 5979   2.211   4.064  17.218  0.0753  0.7540  0.1927
  400TMC3    H1 5980   2.265   4.483  17.271  0.4239  0.4859 -1.1998
  400TMC3    H2 5981   1.927   4.333  17.048  1.5216 -0.8669 -2.3617
  400TMC3    C7 5982   2.070   4.553  17.122 -0.6095 -0.1482 -0.3715
  400TMC3    C8 5983   1.956   4.082  17.113 -0.2191  0.4412 -0.0797
  400TMC3    O1 5984   2.163   4.633  17.140 -0.7497  0.4596 -0.1886
  400TMC3    O2 5985   1.950   3.994  17.198 -0.4704 -0.1075 -0.2548
  401MPD2     C 5986   4.412   2.379   0.427  0.6854  0.5273 -0.3587
  401MPD2    C1 5987   4.532   2.375   0.499  0.4753 -0.5177  0.6220
  401MPD2    C2 5988   4.577   2.256   0.557  0.1188  0.3076  0.1066
  401MPD2    C3 5989   4.514   2.136   0.522  0.1669 -0.4955  0.1186
  401MPD2    C4 5990   4.405   2.136   0.437 -0.1040  0.4212 -0.4855
  401MPD2    C5 5991   4.363   2.254   0.381  0.1501  0.1363 -0.6226
  401MPD2     H 5992   4.669   2.268   0.612  0.7170 -1.1328 -0.5726
  401MPD2    H1 5993   4.353   2.046   0.407  2.3644 -1.5025  1.0586
  401MPD2    H2 5994   4.383   2.473   0.382  0.7041  0.2463 -0.9605
  401MPD2    H3 5995   4.284   2.255   0.307  1.3840 -1.4383 -1.9939
  401MPD2     N 5996   4.563   2.020   0.587 -0.2155 -0.0866 -0.3661
  401MPD2    H5 5997   4.644   2.040   0.646  1.9091 -2.1757 -2.6105
  401MPD2    N1 5998   4.605   2.495   0.529  0.2892  0.8160 -0.9814
  401MPD2    H7 5999   4.690   2.482   0.582 -1.1264 -1.5333  0.7075
  402TMC3    C1 6000   4.587   1.795   0.648  0.6004  0.8058  0.5518
  402TMC3    C2 6001   4.581   1.831   0.785 -0.6972 -0.6764 -0.5267
  402TMC3    C3 6002   4.623   1.733   0.874  0.2778 -0.5245 -0.1875
  402TMC3    C4 6003   4.630   1.670   0.603  0.0603  0.2629 -0.8474
  402TMC3    C5 6004   4.677   1.583   0.696 -0.0378  0.3112 -0.2520
  402TMC3    C6 6005   4.675   1.612   0.830  0.5906  0.4443  0.2233
  402TMC3     C 6006   4.536   1.892   0.558 -0.3429  0.2420 -0.9643
  402TMC3     O 6007   4.468   1.849   0.466  0.6697 -0.5507  0.0299
  402TMC3     H 6008   4.530   1.923   0.813  0.6287  0.1566 -0.8494
  402TMC3    H1 6009   4.626   1.642   0.499 -2.4236 -2.3156 -0.0681
  402TMC3    H2 6010   4.685   1.538   0.908  0.8190  1.0258  0.7457
  402TMC3    C7 6011   4.720   1.453   0.643 -0.3774 -0.0103  0.2287
  402TMC3    C8 6012   4.690   1.773   0.996 -0.4682  0.3735  0.1861
  402TMC3    O1 6013   4.690   1.433   0.527 -0.2509  0.1613  0.3073
  402TMC3    O2 6014   0.078   1.731   1.020 -0.2427  0.0727  0.0035
  403MPD2     C 6015   3.852   1.002  13.308 -0.3348 -0.3823 -0.3566
  403MPD2    C1 6016   3.921   0.902  13.361 -0.7328 -0.0449  0.1404
  403MPD2    C2 6017   4.024   0.928  13.457  0.5104  0.5672 -0.3472
  403MPD2    C3 6018   4.043   1.051  13.505 -0.2702 -0.3425 -0.5941
  403MPD2    C4 6019   3.960   1.152  13.462 -0.1064 -0.2271  0.2642
  403MPD2    C5 6020   3.866   1.125  13.368  0.2734  0.7032 -0.0372
  403MPD2     H 6021   4.080   0.844  13.494  1.8480  0.6970 -2.0755
  403MPD2    H1 6022   3.981   1.256  13.482 -1.8634 -0.0648  1.2538
  403MPD2    H2 6023   3.781   0.989  13.227 -0.7774 -3.4640  0.5219
  403MPD2    H3 6024   3.821   1.211  13.320 -0.1554  0.1188 -0.7033
  403MPD2     N 6025   4.151   1.082  13.596  0.7418  0.4336  0.1281
  403MPD2    H5 6026   4.206   1.001  13.622  0.7692  0.4078 -0.0084
  403MPD2    N1 6027   3.893   0.780  13.302 -0.1480  0.1034  0.7067
  403MPD2    H7 6028   3.816   0.776  13.236 -0.4060  0.3717  0.9893
  404TMC3    C1 6029   3.882   0.551  13.274 -0.0786 -0.4148 -0.4103
  404TMC3    C2 6030   3.857   0.453  13.368 -0.2129 -0.1630 -0.0185
  404TMC3    C3 6031   3.755   0.364  13.346 -0.0983  0.6986  0.3001
  404TMC3    C4 6032   3.811   0.567  13.162  0.1311  0.0159  0.4743
  404TMC3    C5 6033   3.705   0.479  13.146 -0.2353 -0.6892 -0.2713
  404TMC3    C6 6034   3.680   0.376  13.233  0.0331  0.2879  0.2373
  404TMC3     C 6035   3.960   0.665  13.328 -0.0984 -0.7702  0.0694
  404TMC3     O 6036   4.058   0.646  13.401  0.4728  0.0887  0.4529
  404TMC3     H 6037   3.922   0.443  13.453 -0.5849  0.8448  0.3759
  404TMC3    H1 6038   3.840   0.641  13.088 -0.7807 -1.1180 -1.0317
  404TMC3    H2 6039   3.590   0.318  13.219  0.0868  0.6079 -1.4140
  404TMC3    C7 6040   3.648   0.486  13.013 -1.2006 -0.1007 -0.1404
  404TMC3    C8 6041   3.722   0.247  13.432  1.2602  0.2564  0.1442
  404TMC3    O1 6042   3.713   0.549  12.931  0.2292  0.1154  0.3386
  404TMC3    O2 6043   3.653   0.159  13.382 -0.2204 -0.2265 -0.2480
  405MPD2     C 6044   3.900   1.521  14.272 -0.4416 -0.1614 -1.1572
  405MPD2    C1 6045   3.847   1.399  14.299 -0.0191  0.4360 -0.2663
  405MPD2    C2 6046   3.714   1.387  14.271 -0.5967  0.2403  0.0174
  405MPD2    C3 6047   3.631   1.490  14.229  0.0972 -0.9174  0.4268
  405MPD2    C4 6048   3.690   1.610  14.207  0.3066 -0.4312  0.0846
  405MPD2    C5 6049   3.823   1.633  14.240  0.0968 -0.0585  0.0752
  405MPD2     H 6050   3.665   1.294  14.297 -1.5188  0.5547 -0.5808
  405MPD2    H1 6051   3.629   1.689  14.165 -0.2631 -0.1844  1.3974
  405MPD2    H2 6052   4.008   1.528  14.274 -0.4828 -0.1653  1.0475
  405MPD2    H3 6053   3.878   1.726  14.222 -1.6962  1.2438  1.4233
  405MPD2     N 6054   3.493   1.459  14.210  0.1860 -0.3335  0.1804
  405MPD2    H5 6055   3.462   1.380  14.265 -0.0798 -1.2824 -1.3421
  405MPD2    N1 6056   3.919   1.287  14.341  0.1235  0.2807  0.5557
  405MPD2    H7 6057   4.008   1.308  14.385 -0.7080  1.1947  1.8122
  406TMC3    C1 6058   3.036   1.464  14.161 -1.0407  0.7193 -0.6178
  406TMC3    C2 6059   3.035   1.331  14.150 -0.1621 -0.3704 -0.2765
  406TMC3    C3 6060   3.150   1.261  14.151 -0.4786 -0.2881  0.2780
  406TMC3    C4 6061   3.152   1.535  14.164 -0.1102 -0.6026 -0.1578
  406TMC3    C5 6062   3.261   1.465  14.174 -0.2018  0.1039  0.0749
  406TMC3    C6 6063   3.268   1.332  14.166 -0.4258 -0.1081  0.8747
  406TMC3     C 6064   2.935   1.528  14.242 -0.2664  0.2296 -0.2442
  406TMC3     O 6065   2.867   1.462  14.317 -0.4784 -0.1779  0.5942
  406TMC3     H 6066   2.944   1.272  14.161  0.2893 -1.2491 -1.3098
  406TMC3    H1 6067   3.153   1.642  14.180  1.8387 -0.5653 -0.5197
  406TMC3    H2 6068   3.361   1.278  14.158  0.4428  1.7377 -1.8352
  406TMC3    C7 6069   3.387   1.538  14.169  0.0531  0.0704  0.7161
  406TMC3    C8 6070   3.140   1.124  14.209  0.1775 -0.4790 -0.1838
  406TMC3    O1 6071   3.381   1.648  14.131 -0.2568  0.1286 -0.2601
  406TMC3    O2 6072   3.036   1.072  14.254 -0.2031 -0.4524 -0.0911
  407MPD2     C 6073   0.967   2.313   9.792  0.0316  0.0963  0.2116
  407MPD2    C1 6074   1.020   2.436   9.760 -0.1920 -0.1366  0.2386
  407MPD2    C2 6075   1.018   2.539   9.853  0.3189  0.2637 -0.1241
  407MPD2    C3 6076   0.974   2.515   9.981 -0.2209 -0.0176 -0.9776
  407MPD2    C4 6077   0.907   2.399  10.007  0.4430 -0.1569 -0.5149
  407MPD2    C5 6078   0.909   2.300   9.912 -0.6094  0.1018 -0.0271
  407MPD2     H 6079   1.059   2.638   9.833 -1.5732  0.8205 -1.2140
  407MPD2    H1 6080   0.860   2.384  10.105 -3.1740  1.6597 -1.9567
  407MPD2    H2 6081   0.957   2.230   9.723  0.4413  0.1740  0.0552
  407MPD2    H3 6082   0.879   2.202   9.948  1.2569 -0.1988  0.7030
  407MPD2     N 6083   0.955   2.617  10.073  0.3133 -0.4062  0.0934
  407MPD2    H5 6084   0.911   2.590  10.160 -1.5876  0.1695 -0.6811
  407MPD2    N1 6085   1.084   2.470   9.634 -0.2392 -0.1196 -0.3908
  407MPD2    H7 6086   1.121   2.564   9.628 -1.2277  0.3009  0.0694
  408TMC3    C1 6087   1.205   2.448   9.445  0.8173 -0.4031  0.3174
  408TMC3    C2 6088   1.337   2.404   9.440  0.1176  0.2618  0.5235
  408TMC3    C3 6089   1.430   2.499   9.404  0.4434 -0.3250  0.7002
  408TMC3    C4 6090   1.174   2.573   9.406 -0.2671  0.1416  0.9010
  408TMC3    C5 6091   1.273   2.653   9.357 -0.1655 -0.1396 -0.1497
  408TMC3    C6 6092   1.403   2.614   9.340 -0.1798 -0.4128 -0.7171
  408TMC3     C 6093   1.125   2.380   9.539 -0.5703 -0.5031 -0.4240
  408TMC3     O 6094   1.122   2.258   9.536 -0.0039 -0.4850  0.2251
  408TMC3     H 6095   1.360   2.321   9.505  0.9450  1.1886  1.4072
  408TMC3    H1 6096   1.074   2.613   9.419 -0.7881 -0.3170 -1.5864
  408TMC3    H2 6097   1.464   2.688   9.290  0.9108  0.3856  1.7933
  408TMC3    C7 6098   1.261   2.794   9.389  0.7604  0.2263 -0.3801
  408TMC3    C8 6099   1.563   2.488   9.463  0.2495 -0.4304 -0.1440
  408TMC3    O1 6100   1.361   2.845   9.430  0.0164  0.3993 -0.2810
  408TMC3    O2 6101   1.616   2.386   9.498 -0.1935  0.3218  0.3871
  409MPD2     C 6102   0.541   3.916  16.774  0.1204 -0.1238 -0.1523
  409MPD2    C1 6103   0.585   3.891  16.899  0.0387  0.5502  0.0378
  409MPD2    C2 6104   0.680   3.974  16.958 -0.6249 -0.6583  0.7785
  409MPD2    C3 6105   0.728   4.087  16.889 -0.7572  0.3129  0.1020
  409MPD2    C4 6106   0.662   4.111  16.768  0.1857  0.1784 -0.0440
  409MPD2    C5 6107   0.572   4.027  16.710  0.1735  0.1598 -0.7661
  409MPD2     H 6108   0.718   3.935  17.052  0.4779 -2.6651 -0.4914
  409MPD2    H1 6109   0.704   4.184  16.699  0.6066 -1.4387 -1.5029
  409MPD2    H2 6110   0.484   3.840  16.722 -0.0793 -0.3351  0.3670
  409MPD2    H3 6111   0.526   4.046  16.613 -0.5142  1.9638 -0.0855
  409MPD2     N 6112   0.842   4.167  16.932 -1.1282  0.4468  0.5804
  409MPD2    H5 6113   0.863   4.245  16.870 -0.4053 -0.1608  0.0550
  409MPD2    N1 6114   0.565   3.758  16.953  0.0438 -0.3668 -0.0288
  409MPD2    H7 6115   0.620   3.737  17.036  0.2892 -0.2571 -0.1619
  410TMC3    C1 6116   1.042   4.220  17.047  0.6297  0.7960 -0.3159
  410TMC3    C2 6117   1.141   4.170  17.134  0.8363 -0.4443  0.3553
  410TMC3    C3 6118   1.272   4.194  17.107 -1.2254 -0.4196 -0.0290
  410TMC3    C4 6119   1.071   4.297  16.940 -0.7800 -0.4434 -0.6445
  410TMC3    C5 6120   1.206   4.324  16.926 -0.4171 -0.6182 -0.0845
  410TMC3    C6 6121   1.306   4.274  16.997  0.1232  0.4579 -0.1959
  410TMC3     C 6122   0.913   4.147  17.049  0.3422  0.3993  0.3277
  410TMC3     O 6123   0.900   4.063  17.134  0.3117 -0.3183 -0.2977
  410TMC3     H 6124   1.120   4.118  17.227  0.3759 -0.0666  0.4632
  410TMC3    H1 6125   0.993   4.323  16.870  0.6396  1.5242 -1.4843
  410TMC3    H2 6126   1.409   4.301  16.978 -0.0139  1.1996  0.1423
  410TMC3    C7 6127   1.244   4.367  16.800  0.5938 -0.6774  0.1061
  410TMC3    C8 6128   1.386   4.149  17.190 -0.0291  0.0833  0.1303
  410TMC3    O1 6129   1.350   4.318  16.751  0.0792 -0.1728  0.5847
  410TMC3    O2 6130   1.486   4.220  17.182  1.1763  0.3092  0.3627
  411MPD2     C 6131   1.817   4.467  14.709  0.5332 -0.1255  0.3150
  411MPD2    C1 6132   1.699   4.508  14.775 -0.6048  0.3817  0.4582
  411MPD2    C2 6133   1.581   4.451  14.746 -0.4206 -0.4246 -0.0859
  411MPD2    C3 6134   1.579   4.341  14.662  0.4220  0.5134 -0.3121
  411MPD2    C4 6135   1.696   4.281  14.619  0.2798  0.2938 -0.1254
  411MPD2    C5 6136   1.815   4.351  14.642  0.1394  0.9650  0.0292
  411MPD2     H 6137   1.488   4.488  14.788  0.5962 -0.3094  2.0371
  411MPD2    H1 6138   1.710   4.195  14.555 -1.5004  0.2603 -0.4477
  411MPD2    H2 6139   1.910   4.522  14.713  0.1845  0.6351 -2.3994
  411MPD2    H3 6140   1.912   4.312  14.612 -0.7927 -0.0637 -1.7042
  411MPD2     N 6141   1.465   4.280  14.633  0.3251  0.1915  0.5884
  411MPD2    H5 6142   1.471   4.204  14.566 -0.6338 -0.9403  1.7889
  411MPD2    N1 6143   1.709   4.627  14.853 -0.2403  0.4039  0.6323
  411MPD2    H7 6144   1.774   4.703  14.837 -0.1739  0.4281  1.0198
  412TMC3    C1 6145   1.237   4.211  14.639 -0.3008  0.8836  1.0529
  412TMC3    C2 6146   1.122   4.186  14.710  1.1789  0.8570  0.1412
  412TMC3    C3 6147   1.048   4.082  14.669 -0.4037  0.6315  0.0059
  412TMC3    C4 6148   1.267   4.149  14.518 -0.3674  0.2954  0.6031
  412TMC3    C5 6149   1.178   4.057  14.473 -0.1205 -0.2620 -0.0813
  412TMC3    C6 6150   1.076   4.014  14.555  0.4436  0.4014 -0.2545
  412TMC3     C 6151   1.340   4.293  14.697 -0.9517  0.6042 -0.6802
  412TMC3     O 6152   1.309   4.360  14.792 -0.4751 -0.0592 -0.3146
  412TMC3     H 6153   1.096   4.231  14.805  0.2057  0.2212  0.1704
  412TMC3    H1 6154   1.343   4.182  14.448 -3.2218  0.4344 -2.4610
  412TMC3    H2 6155   1.024   3.921  14.533 -0.2141  0.7808 -0.3102
  412TMC3    C7 6156   1.131   4.051  14.338 -0.4942 -0.0191 -0.6498
  412TMC3    C8 6157   0.903   4.103  14.683 -0.3868 -0.4986 -0.8232
  412TMC3    O1 6158   1.011   4.021  14.339  0.4424 -0.0083 -0.0923
  412TMC3    O2 6159   0.861   4.150  14.786 -0.1173 -0.3737 -0.1945
  413MPD2     C 6160   2.737   2.881  15.654 -0.1962  0.8187  0.2645
  413MPD2    C1 6161   2.706   2.843  15.525 -0.3216  0.1832 -0.0047
  413MPD2    C2 6162   2.778   2.749  15.465 -0.3467 -0.4211  0.1209
  413MPD2    C3 6163   2.880   2.682  15.533  0.7233 -0.6032 -0.5905
  413MPD2    C4 6164   2.898   2.717  15.666  0.0206 -0.2679  0.1026
  413MPD2    C5 6165   2.836   2.820  15.722  0.6226  0.2762  0.0136
  413MPD2     H 6166   2.752   2.724  15.363  0.7308  0.9781 -0.4924
  413MPD2    H1 6167   2.979   2.668  15.719 -0.8378 -0.8233  0.8973
  413MPD2    H2 6168   2.685   2.958  15.711 -2.7979 -0.5618 -0.2740
  413MPD2    H3 6169   2.863   2.843  15.824  1.3437 -0.2680 -0.0617
  413MPD2     N 6170   2.933   2.566  15.474 -0.3762  0.5164  0.7915
  413MPD2    H5 6171   2.920   2.555  15.374 -1.4711 -0.9126  1.1002
  413MPD2    N1 6172   2.578   2.894  15.472  0.0457 -0.2454 -0.2212
  413MPD2    H7 6173   2.537   2.977  15.515  2.1000  0.7707 -0.2038
  414TMC3    C1 6174   3.036   2.345  15.452  0.2819 -0.3256 -0.6828
  414TMC3    C2 6175   3.080   2.232  15.514 -0.1827  0.2598 -0.1786
  414TMC3    C3 6176   3.076   2.113  15.447  0.4390  0.9598  0.6642
  414TMC3    C4 6177   2.990   2.338  15.327  0.0292 -0.2029  0.1370
  414TMC3    C5 6178   2.990   2.223  15.260  0.5932  0.5194 -0.8899
  414TMC3    C6 6179   3.020   2.105  15.323 -0.7965 -0.2414 -0.1989
  414TMC3     C 6180   2.986   2.459  15.541 -0.2910 -0.3233 -0.1058
  414TMC3     O 6181   2.999   2.446  15.662  0.1500 -0.2014  0.1350
  414TMC3     H 6182   3.093   2.234  15.622  2.1602 -2.6685 -0.4144
  414TMC3    H1 6183   2.946   2.424  15.278  0.0375 -0.7998 -0.9143
  414TMC3    H2 6184   3.030   2.009  15.273 -2.1389 -0.4944  0.0257
  414TMC3    C7 6185   3.044   2.239  15.126  0.3752 -0.4683  0.2155
  414TMC3    C8 6186   3.184   2.005  15.465  0.6541  0.5202 -0.4682
  414TMC3    O1 6187   3.036   2.349  15.079 -0.5516 -0.0523  0.3014
  414TMC3    O2 6188   3.174   1.903  15.398 -0.3891  0.2417 -0.1010
  415TMC3    C1 6189   2.685   4.595  10.165  0.1292 -0.0993  0.3068
  415TMC3    C2 6190   2.703   4.656  10.038  0.1377 -0.6274 -0.0001
  415TMC3    C3 6191   2.617   4.631   9.942  0.2043  0.2674 -0.0389
  415TMC3    C4 6192   2.579   4.516  10.180  0.3407  0.2345  0.2600
  415TMC3    C5 6193   2.500   4.482  10.075 -0.5731  0.4908  0.2419
  415TMC3    C6 6194   2.505   4.554   9.956  0.2331 -0.0132 -0.2078
  415TMC3     C 6195   2.739   4.662  10.284  1.0303 -0.0610 -0.0036
  415TMC3     O 6196   2.672   4.663  10.381  0.5797 -0.6175 -0.3406
  415TMC3     H 6197   2.776   0.008  10.023  1.5405 -1.5200  2.1279
  415TMC3    H1 6198   2.574   4.474  10.280 -2.6965  3.2835  1.3534
  415TMC3    H2 6199   2.460   4.528   9.861 -0.3087  2.9997 -0.7679
  415TMC3    C7 6200   2.402   4.374  10.091 -0.0552 -0.1649 -0.4855
  415TMC3    C8 6201   2.623   4.713   9.818  0.7007  0.0812  0.1835
  415TMC3    O1 6202   2.311   4.356  10.012 -0.0580 -0.0959 -0.5043
  415TMC3    O2 6203   2.522   0.018   9.761 -0.5064  0.7085  0.0618
  416MPD2     C 6204   0.641   3.814  11.729 -1.2772 -0.6205  0.7393
  416MPD2    C1 6205   0.510   3.775  11.700  0.0646 -0.1438 -0.2258
  416MPD2    C2 6206   0.478   3.698  11.584  0.2230  0.2952 -0.9324
  416MPD2    C3 6207   0.585   3.666  11.501  0.6732  0.2221  0.0600
  416MPD2    C4 6208   0.708   3.707  11.536  0.1864 -0.3566  0.3094
  416MPD2    C5 6209   0.735   3.786  11.641 -0.0629 -0.2364  0.0731
  416MPD2     H 6210   0.382   3.650  11.569  1.0726 -0.7587 -3.0659
  416MPD2    H1 6211   0.798   3.684  11.481 -0.6746 -1.2037 -0.7347
  416MPD2    H2 6212   0.659   3.858  11.827  1.8885  0.3939 -0.3032
  416MPD2    H3 6213   0.838   3.813  11.663  0.2856 -0.6591 -1.0707
  416MPD2     N 6214   0.578   3.565  11.399  0.1428 -1.1095 -0.1912
  416MPD2    H5 6215   0.663   3.545  11.347  0.9568  3.1395 -0.4403
  416MPD2    N1 6216   0.416   3.814  11.795  0.9941  0.0025  0.5594
  416MPD2    H7 6217   0.441   3.886  11.861 -2.3364 -0.4159  2.2686
  417TMC3    C1 6218   0.212   3.896  11.854 -0.1622  0.1947 -0.1626
  417TMC3    C2 6219   0.275   3.973  11.948  0.2695  0.3164 -0.3162
  417TMC3    C3 6220   0.209   4.095  11.968  0.3648 -0.5843 -0.5743
  417TMC3    C4 6221   0.113   3.947  11.779  0.9070  0.0603 -0.6164
  417TMC3    C5 6222   0.062   4.071  11.800  0.2199 -0.1936 -0.2547
  417TMC3    C6 6223   0.107   4.146  11.894  0.1316  0.6584 -0.2578
  417TMC3     C 6224   0.283   3.799  11.780 -0.3965 -0.4173  0.6707
  417TMC3     O 6225   0.223   3.708  11.723  0.8476 -0.1633 -0.0412
  417TMC3     H 6226   0.352   3.939  12.017  1.6882  1.7087 -1.2112
  417TMC3    H1 6227   0.071   3.874  11.711  0.3778 -0.0719 -0.1481
  417TMC3    H2 6228   0.060   4.241  11.919  0.4121  0.5818  0.5456
  417TMC3    C7 6229   4.709   4.129  11.693 -0.1730 -0.1951  0.4841
  417TMC3    C8 6230   0.217   4.147  12.102 -0.1903  0.4075  0.6334
  417TMC3    O1 6231   4.686   4.248  11.701 -0.2412  0.6322 -0.1610
  417TMC3    O2 6232   0.117   4.197  12.151  0.0010 -0.1291 -0.4017
  418TMC3    C1 6233   4.166   0.909   0.396  0.1814 -0.3935 -0.2429
  418TMC3    C2 6234   4.083   1.006   0.350  0.6939 -0.5741  0.4084
  418TMC3    C3 6235   4.033   1.090   0.434  0.3653  0.2582  0.1995
  418TMC3    C4 6236   4.190   0.897   0.533 -0.3822 -0.1374 -0.3145
  418TMC3    C5 6237   4.143   0.992   0.621 -0.0116 -0.3672  0.0217
  418TMC3    C6 6238   4.071   1.092   0.564 -0.0584 -0.4955  0.0385
  418TMC3     C 6239   4.223   0.815   0.305  0.6046  0.7678  0.4492
  418TMC3     O 6240   4.235   0.859   0.189  0.4246  0.7664 -0.2726
  418TMC3     H 6241   4.060   1.008   0.244  3.3753  2.7706 -0.0830
  418TMC3    H1 6242   4.251   0.822   0.582  0.0610  0.1329 -0.4515
  418TMC3    H2 6243   4.022   1.163   0.630 -0.7708 -1.9604  1.0917
  418TMC3    C7 6244   4.060   0.925   0.722  0.0402 -0.7338 -0.1509
  418TMC3    C8 6245   3.884   1.080   0.449  0.3506 -0.3574 -0.1746
  418TMC3    O1 6246   4.040   0.802   0.705  0.4169 -0.0106  0.1656
  418TMC3    O2 6247   3.823   1.179   0.477  0.3671 -0.6436 -0.2738
  419MPD2     C 6248   2.054   4.029  12.489 -0.0518 -0.8568 -0.1628
  419MPD2    C1 6249   2.109   4.154  12.506 -0.3737  0.1166 -0.2273
  419MPD2    C2 6250   2.120   4.193  12.637  0.0974 -0.4087 -0.4408
  419MPD2    C3 6251   2.103   4.109  12.746  0.0543  0.2725 -0.2083
  419MPD2    C4 6252   2.062   3.976  12.724  0.0317 -0.5593  0.5960
  419MPD2    C5 6253   2.037   3.942  12.596 -0.4329 -0.1630 -0.5423
  419MPD2     H 6254   2.166   4.288  12.663  1.3679 -1.8178  2.5102
  419MPD2    H1 6255   2.037   3.913  12.808  0.4558 -0.9223  0.4505
  419MPD2    H2 6256   2.022   3.995  12.391 -1.0876 -1.4573  0.3834
  419MPD2    H3 6257   1.985   3.847  12.587 -0.3881  0.0018 -2.3918
  419MPD2     N 6258   2.111   4.172  12.873 -0.4548  0.0001 -0.9437
  419MPD2    H5 6259   2.135   4.271  12.866 -1.9090  0.2550 -2.2810
  419MPD2    N1 6260   2.150   4.247  12.404  0.2590 -0.1012 -0.4864
  419MPD2    H7 6261   2.193   4.332  12.440 -2.6671  1.6301 -1.0986
  420TMC3    C1 6262   2.126   4.197  13.108 -0.1213  0.2157 -0.1508
  420TMC3    C2 6263   2.080   4.330  13.092  0.6023 -0.1500 -0.1036
  420TMC3    C3 6264   2.122   4.423  13.195  0.3552 -0.0502  0.3385
  420TMC3    C4 6265   2.208   4.163  13.210 -0.2981 -0.5679  0.6111
  420TMC3    C5 6266   2.228   4.255  13.313 -0.7885  0.0996 -0.0862
  420TMC3    C6 6267   2.199   4.390  13.302 -0.6429  0.3343  0.2719
  420TMC3     C 6268   2.109   4.109  12.995 -1.0072  0.1725 -0.2396
  420TMC3     O 6269   2.083   3.990  13.019 -0.0488  0.1313  0.6255
  420TMC3     H 6270   2.017   4.363  13.010  0.9738  1.3464  0.2100
  420TMC3    H1 6271   2.237   4.059  13.224  1.7598  0.0792  1.1278
  420TMC3    H2 6272   2.205   4.447  13.394 -0.2579 -0.3018  0.6490
  420TMC3    C7 6273   2.325   4.224  13.411 -0.1701  0.4809  0.0621
  420TMC3    C8 6274   2.082   4.564  13.173  0.4973  0.0571 -0.2423
  420TMC3    O1 6275   2.323   4.103  13.441 -0.3439  0.9388 -0.3861
  420TMC3    O2 6276   1.985   4.579  13.099  0.1649 -0.1751  0.0590
  421TMC3    C1 6277   4.299   1.197  13.748  0.3943  0.2786  0.3179
  421TMC3    C2 6278   4.323   1.329  13.785  0.0368  0.3736  0.2647
  421TMC3    C3 6279   4.461   1.369  13.790  0.3312  0.0978  0.2181
  421TMC3    C4 6280   4.403   1.106  13.720 -0.6402  0.8053  0.3312
  421TMC3    C5 6281   4.533   1.153  13.737 -0.7143 -1.2388  0.0955
  421TMC3    C6 6282   4.566   1.284  13.760  0.5291 -0.0571  0.4412
  421TMC3     C 6283   4.197   1.202  13.644  0.3561 -0.1411 -0.1990
  421TMC3     O 6284   4.147   1.313  13.622 -0.3746  0.5286 -0.0484
  421TMC3     H 6285   4.236   1.389  13.807  0.7406  1.1378  0.9290
  421TMC3    H1 6286   4.368   1.005  13.700  0.5555  0.4060  0.2759
  421TMC3    H2 6287   4.666   1.323  13.770 -0.2221  1.6881  1.1964
  421TMC3    C7 6288   4.638   1.058  13.740 -0.3497 -0.1552 -0.6796
  421TMC3    C8 6289   4.487   1.506  13.835 -0.7238  0.3892 -0.4272
  421TMC3    O1 6290   0.019   1.089  13.789 -0.6477 -0.2399  0.6639
  421TMC3    O2 6291   4.585   1.566  13.801  0.0813  0.8848 -0.0684
  422TMC3    C1 6292   1.621   2.230  12.457  0.7914  0.0328  0.1262
  422TMC3    C2 6293   1.603   2.368  12.466 -1.1198 -0.3032 -0.3269
  422TMC3    C3 6294   1.504   2.417  12.537  0.5232 -0.2726  0.4651
  422TMC3    C4 6295   1.547   2.144  12.531 -0.2606  0.2808 -0.6006
  422TMC3    C5 6296   1.457   2.201  12.619  0.1773  0.6096 -0.0541
  422TMC3    C6 6297   1.429   2.333  12.618  0.9733  0.4902  0.2947
  422TMC3     C 6298   1.731   2.193  12.373  0.4669 -0.2090  0.3422
  422TMC3     O 6299   1.792   2.281  12.314  0.5768 -0.1207 -0.2397
  422TMC3     H 6300   1.664   2.436  12.408  1.1851 -2.0157  0.1028
  422TMC3    H1 6301   1.571   2.039  12.524 -0.1941  0.2028  0.7068
  422TMC3    H2 6302   1.357   2.380  12.685 -1.3225 -2.8140  0.1510
  422TMC3    C7 6303   1.384   2.114  12.707 -0.4820  0.3357 -0.4359
  422TMC3    C8 6304   1.491   2.561  12.556 -0.0336  0.5899 -0.4258
  422TMC3    O1 6305   1.417   1.999  12.724 -0.4636  0.2972 -0.5675
  422TMC3    O2 6306   1.469   2.609  12.668  0.0740  0.1817  0.6385
  423MPD2     C 6307   3.050   3.189   0.538  0.4818 -0.0265 -0.0956
  423MPD2    C1 6308   2.934   3.127   0.534  0.5442 -0.0463  0.3382
  423MPD2    C2 6309   2.892   3.066   0.420  0.5661  0.2504  0.1741
  423MPD2    C3 6310   2.970   3.071   0.302 -0.1521  0.3824  0.3002
  423MPD2    C4 6311   3.099   3.130   0.309 -0.2665 -0.8385 -0.8543
  423MPD2    C5 6312   3.130   3.194   0.427 -0.1202 -0.2719  0.4211
  423MPD2     H 6313   2.798   3.013   0.415 -0.0250  1.1982  1.2143
  423MPD2    H1 6314   3.166   3.138   0.224  0.0215  0.2753 -0.5164
  423MPD2    H2 6315   3.088   3.249   0.620  0.3577 -1.0854  0.7401
  423MPD2    H3 6316   3.220   3.256   0.428 -0.4986  0.3012 -1.3023
  423MPD2     N 6317   2.942   3.004   0.183  0.4711 -0.1009 -0.0966
  423MPD2    H5 6318   3.016   3.005   0.114 -1.9114 -1.4341 -2.6587
  423MPD2    N1 6319   2.839   3.126   0.635  0.3486 -0.4242  0.3890
  423MPD2    H7 6320   2.761   3.061   0.623 -1.1604  1.8732 -2.2731
  424TMC3    C1 6321   2.741   3.153   0.852  0.2936 -0.3783 -0.1801
  424TMC3    C2 6322   2.778   3.154   0.983 -0.3416 -0.5032 -0.4264
  424TMC3    C3 6323   2.678   3.155   1.072 -0.0970  0.5495 -1.0476
  424TMC3    C4 6324   2.614   3.166   0.812  0.2463  0.1790 -0.3649
  424TMC3    C5 6325   2.518   3.167   0.908  0.3607  0.5774  0.9526
  424TMC3    C6 6326   2.549   3.173   1.040 -0.3445  0.0478 -0.5941
  424TMC3     C 6327   2.850   3.187   0.761  0.9523 -0.2336  0.2220
  424TMC3     O 6328   2.941   3.254   0.806  0.0925 -0.1543  0.1788
  424TMC3     H 6329   2.883   3.144   1.005 -1.1514 -1.1636  3.0278
  424TMC3    H1 6330   2.589   3.187   0.708  0.3966 -0.6419 -0.5677
  424TMC3    H2 6331   2.480   3.191   1.122 -0.8705 -1.5064 -0.7077
  424TMC3    C7 6332   2.397   3.239   0.870  0.3070  0.6760 -0.5370
  424TMC3    C8 6333   2.694   3.090   1.202  0.4215  0.0285  0.3143
  424TMC3    O1 6334   2.385   3.278   0.755 -0.1277 -0.1280  0.4511
  424TMC3    O2 6335   2.599   3.027   1.248 -0.0863 -0.0630 -0.6296
  425MPD2     C 6336   1.406   2.570  17.260 -0.0718  0.2158 -0.2853
  425MPD2    C1 6337   1.362   2.451  17.213  0.7162  0.6051 -0.6192
  425MPD2    C2 6338   1.228   2.425  17.229  0.8307  0.0752  0.5144
  425MPD2    C3 6339   1.131   2.523  17.258  0.7777  0.1136 -1.1153
  425MPD2    C4 6340   1.176   2.645  17.293  0.7551 -0.1954 -0.1150
  425MPD2    C5 6341   1.314   2.663  17.298  0.2183 -0.0578  0.7158
  425MPD2     H 6342   1.186   2.326  17.216 -1.9088  1.1540  1.1733
  425MPD2    H1 6343   1.118   2.733  17.320 -0.9963 -1.7252  1.1221
  425MPD2    H2 6344   1.510   2.599  17.271  0.2287  0.0641 -2.7724
  425MPD2    H3 6345   1.358   2.760  17.321  0.2392  0.3288 -1.0075
  425MPD2     N 6346   0.998   2.484  17.260  0.2345 -0.0619  0.9600
  425MPD2    H5 6347   0.976   2.396  17.213 -1.6451 -0.1149  1.9139
  425MPD2    N1 6348   1.459   2.355  17.184  0.5209  0.4501  0.5236
  425MPD2    H7 6349   1.556   2.384  17.189  0.1418  1.7950 -0.0029
  426TMC3    C1 6350   1.555   2.153  17.113 -0.0535 -0.0149  0.6525
  426TMC3    C2 6351   1.551   2.063  17.011  0.0564 -0.9060 -0.7552
  426TMC3    C3 6352   1.643   1.964  17.007  1.2115  0.4407 -0.2839
  426TMC3    C4 6353   1.632   2.135  17.225 -0.6250  0.2653  0.8068
  426TMC3    C5 6354   1.722   2.029  17.220 -0.3010  0.8188  0.2481
  426TMC3    C6 6355   1.732   1.945  17.108  0.0715  0.7824  0.6039
  426TMC3     C 6356   1.435   2.236  17.129  0.1729  0.3471 -0.8048
  426TMC3     O 6357   1.327   2.198  17.080 -0.5527 -0.0455  0.4513
  426TMC3     H 6358   1.503   2.091  16.918 -1.4607  2.0239  0.9202
  426TMC3    H1 6359   1.635   2.199  17.312 -2.4763  1.7952 -0.2709
  426TMC3    H2 6360   1.808   1.867  17.105 -0.5345  0.2071  0.2473
  426TMC3    C7 6361   1.831   2.022  17.313  0.1842  0.7969  0.3732
  426TMC3    C8 6362   1.622   1.851  16.920 -0.5665  0.9620 -0.3638
  426TMC3    O1 6363   1.944   1.988  17.283  0.5183 -0.0942  0.7711
  426TMC3    O2 6364   1.714   1.773  16.891 -0.0512  0.2051  0.3707
  427MPD2     C 6365   0.513   4.595  15.200 -0.0845 -0.2468 -0.5039
  427MPD2    C1 6366   0.522   4.466  15.147 -0.2720  0.0785  0.2883
  427MPD2    C2 6367   0.435   4.431  15.042 -0.7413  0.3330  0.0288
  427MPD2    C3 6368   0.337   4.518  14.995  0.0290 -0.4590 -0.5145
  427MPD2    C4 6369   0.327   4.636  15.059 -0.1823 -0.1619 -0.5335
  427MPD2    C5 6370   0.414   4.677  15.158  0.1798  0.0200  1.0495
  427MPD2     H 6371   0.448   4.328  15.012 -0.6452  0.7572 -1.4101
  427MPD2    H1 6372   0.254   4.713  15.041  0.7598  0.8346 -0.1067
  427MPD2    H2 6373   0.582   4.635  15.274  0.9894 -0.3490 -1.4614
  427MPD2    H3 6374   0.420   0.049  15.204 -1.3985  0.6949 -0.2041
  427MPD2     N 6375   0.230   4.485  14.908 -0.5554 -0.5615  0.3589
  427MPD2    H5 6376   0.163   4.561  14.903 -0.4878 -0.4949  0.4771
  427MPD2    N1 6377   0.627   4.382  15.181 -0.4443 -0.5258 -0.0002
  427MPD2    H7 6378   0.642   4.306  15.117  0.7884 -1.8682  1.8755
  428TMC3    C1 6379   0.799   4.277  15.319 -0.0006  0.1461  0.5040
  428TMC3    C2 6380   0.759   4.146  15.333 -1.0264 -0.5468  0.1270
  428TMC3    C3 6381   0.836   4.064  15.413  0.3152  0.4899 -0.6402
  428TMC3    C4 6382   0.912   4.320  15.384  0.1024  0.0933 -0.0824
  428TMC3    C5 6383   0.992   4.229  15.447  0.1454  0.0470 -0.7170
  428TMC3    C6 6384   0.958   4.102  15.470 -0.5557 -0.2796 -0.3843
  428TMC3     C 6385   0.707   4.386  15.294 -0.5083  0.6795  0.4612
  428TMC3     O 6386   0.695   4.462  15.388  0.6179  0.0806  0.3483
  428TMC3     H 6387   0.670   4.107  15.284 -0.3325 -2.1375  0.1694
  428TMC3    H1 6388   0.947   4.418  15.353 -0.2791  0.6673  1.2885
  428TMC3    H2 6389   1.023   4.038  15.530 -2.2804 -0.7885  0.9477
  428TMC3    C7 6390   1.119   4.268  15.499  0.0142 -0.4054  0.5154
  428TMC3    C8 6391   0.788   3.927  15.432 -0.1138 -0.6826 -0.8018
  428TMC3    O1 6392   1.165   4.220  15.605  0.2691  0.1068  0.0410
  428TMC3    O2 6393   0.728   3.875  15.334  0.6065 -0.4457 -0.2989
  429MPD2     C 6394   0.794   4.651   0.063 -0.2108 -0.1508  0.3136
  429MPD2    C1 6395   0.748   4.612  17.643  0.0194 -0.0840 -0.0497
  429MPD2    C2 6396   0.829   4.643  17.532  0.1482 -1.3548  0.0262
  429MPD2    C3 6397   0.948   4.705  17.549  0.0195 -0.4223 -0.4142
  429MPD2    C4 6398   0.992   0.016  17.677 -0.3017 -0.2741  0.3142
  429MPD2    C5 6399   0.920   4.703   0.076 -0.0657 -0.4542  0.2560
  429MPD2     H 6400   0.795   4.621  17.432 -0.8257 -0.1067  0.0873
  429MPD2    H1 6401   1.088   0.067  17.685  0.0835 -1.0259  0.5215
  429MPD2    H2 6402   0.733   4.642   0.152  2.2695  0.6061  2.0764
  429MPD2    H3 6403   0.957   4.716   0.177  2.0847  0.9942 -0.7149
  429MPD2     N 6404   1.013   0.032  17.434  0.3849 -0.5654 -0.6008
  429MPD2    H5 6405   0.964   0.029  17.345 -1.5138 -0.4384  0.4529
  429MPD2    N1 6406   0.613   4.555  17.622  0.2398  0.2089  0.1694
  429MPD2    H7 6407   0.591   4.527  17.527 -0.5837  0.2659  0.3407
  430TMC3    C1 6408   1.177   0.120  17.298  0.0126  0.2855  0.1455
  430TMC3    C2 6409   1.085   0.184  17.222  0.3843  0.0963 -0.4165
  430TMC3    C3 6410   1.128   0.257  17.113 -0.7605  0.0879  1.3005
  430TMC3    C4 6411   1.308   0.158  17.284 -0.2320  0.7463 -0.1934
  430TMC3    C5 6412   1.339   0.236  17.178  0.5406  0.1223 -0.5726
  430TMC3    C6 6413   1.256   0.296  17.097  0.1168 -0.2023  0.1022
  430TMC3     C 6414   1.142   0.072  17.430  0.2096 -0.9569 -0.1236
  430TMC3     O 6415   1.220   0.088  17.521  0.4217 -0.7212  0.3340
  430TMC3     H 6416   0.980   0.179  17.251  0.5390 -2.5487 -0.3055
  430TMC3    H1 6417   1.386   0.114  17.345  0.6078  0.4640 -1.4841
  430TMC3    H2 6418   1.283   0.361  17.015 -1.1433  2.3430  1.6833
  430TMC3    C7 6419   1.478   0.254  17.148  0.0509  0.5798  0.2693
  430TMC3    C8 6420   1.020   0.311  17.039 -0.3792 -0.3633  0.8049
  430TMC3    O1 6421   1.514   0.362  17.103  0.5392  0.1049 -0.2266
  430TMC3    O2 6422   0.923   0.239  17.034  0.1191 -0.3629  0.2771
  431MPD2     C 6423   2.654   0.330  12.311 -0.2891 -0.0931  0.1733
  431MPD2    C1 6424   2.610   0.240  12.412  0.4771 -0.2320 -0.0671
  431MPD2    C2 6425   2.524   0.142  12.367  0.7822 -0.3927 -0.2183
  431MPD2    C3 6426   2.500   0.121  12.235 -0.3100 -0.0136 -0.1639
  431MPD2    C4 6427   2.545   0.211  12.140  1.3569 -0.1179 -0.2139
  431MPD2    C5 6428   2.622   0.316  12.178  0.2190  0.2150 -0.2326
  431MPD2     H 6429   2.479   0.074  12.438  0.8172 -0.0687  0.1121
  431MPD2    H1 6430   2.545   0.191  12.034  2.7448  1.7970 -0.5830
  431MPD2    H2 6431   2.707   0.418  12.345 -1.9906  1.0596 -0.1817
  431MPD2    H3 6432   2.650   0.391  12.105  1.9274 -0.2889 -0.0795
  431MPD2     N 6433   2.436   0.006  12.181  0.5242  0.3741  0.1652
  431MPD2    H5 6434   2.423   0.007  12.080 -0.0216 -0.7330  0.2247
  431MPD2    N1 6435   2.635   0.243  12.555 -0.5191  0.6121  0.5885
  431MPD2    H7 6436   2.579   0.175  12.606  0.5524 -1.1031 -0.5132
  432TMC3    C1 6437   2.345   4.520  12.181  0.2805 -0.3027 -0.2302
  432TMC3    C2 6438   2.441   4.466  12.099 -0.0120  0.0747  1.0641
  432TMC3    C3 6439   2.437   4.334  12.076 -0.4605  0.1366 -0.1239
  432TMC3    C4 6440   2.255   4.437  12.239  0.2559 -0.3750  0.3699
  432TMC3    C5 6441   2.244   4.309  12.196  0.4058  0.0051  0.4600
  432TMC3    C6 6442   2.331   4.253  12.109  0.2700  0.9066  0.0433
  432TMC3     C 6443   2.386   4.628  12.256 -0.4970 -0.4642 -0.0389
  432TMC3     O 6444   2.379   4.611  12.377  0.1556  0.2209  0.5894
  432TMC3     H 6445   2.534   4.518  12.076  1.1208 -2.0107  0.9693
  432TMC3    H1 6446   2.177   4.474  12.304  0.2883 -1.4640  1.0266
  432TMC3    H2 6447   2.329   4.147  12.086  0.2862  0.6793  1.0671
  432TMC3    C7 6448   2.170   4.211  12.277 -0.0071  0.0424 -0.3110
  432TMC3    C8 6449   2.567   4.270  12.048  0.0731  0.7562  0.3790
  432TMC3    O1 6450   2.159   4.099  12.233  0.5523  0.2862 -0.0336
  432TMC3    O2 6451   2.652   4.342  11.999 -0.4037  0.1079  0.4028
  433MPD2     C 6452   1.036   2.973  10.765 -0.4133  0.4702  0.4093
  433MPD2    C1 6453   1.010   2.902  10.878  0.2430 -0.5647 -0.3452
  433MPD2    C2 6454   1.067   2.944  10.996 -0.1350  0.3495 -0.1272
  433MPD2    C3 6455   1.157   3.051  11.000 -0.2139 -0.1825  0.2874
  433MPD2    C4 6456   1.186   3.117  10.880  0.4821  0.1180  0.4870
  433MPD2    C5 6457   1.129   3.075  10.767 -0.2045  0.0095  0.6957
  433MPD2     H 6458   1.050   2.889  11.088  1.4967  0.2670  0.1261
  433MPD2    H1 6459   1.251   3.204  10.877 -0.5711  0.9715  2.3003
  433MPD2    H2 6460   0.992   2.946  10.669 -1.8107  1.9928  0.6243
  433MPD2    H3 6461   1.148   3.135  10.678  2.9961 -1.2409  0.5513
  433MPD2     N 6462   1.203   3.082  11.124  0.3128  0.7476  0.5971
  433MPD2    H5 6463   1.184   3.022  11.204 -0.5059 -1.3223 -1.1448
  433MPD2    N1 6464   0.927   2.789  10.875  0.1933  0.1966  0.0424
  433MPD2    H7 6465   0.903   2.755  10.783  1.4282  0.6877 -0.4541
  434TMC3    C1 6466   0.883   2.562  10.920  0.0662  0.7395 -0.1647
  434TMC3    C2 6467   0.950   2.470  10.994 -0.0884 -0.0131  0.3558
  434TMC3    C3 6468   1.004   2.369  10.929  0.1518  0.5637  0.2267
  434TMC3    C4 6469   0.850   2.548  10.787 -0.3610 -0.8744  0.3487
  434TMC3    C5 6470   0.903   2.437  10.729 -0.6186  0.4068  0.0652
  434TMC3    C6 6471   0.982   2.346  10.798  0.6736 -0.0516 -0.1480
  434TMC3     C 6472   0.921   2.691  10.972 -0.0695  0.9348 -0.3320
  434TMC3     O 6473   0.955   2.696  11.089 -0.0202  0.5977 -0.2191
  434TMC3     H 6474   0.984   2.483  11.096  1.0141 -0.6824  0.0797
  434TMC3    H1 6475   0.798   2.628  10.735 -0.3839 -1.1024  0.0184
  434TMC3    H2 6476   1.017   2.261  10.742  0.8607 -1.3762  1.9737
  434TMC3    C7 6477   0.861   2.416  10.588 -0.0252 -0.1588  0.4952
  434TMC3    C8 6478   1.115   2.306  10.998 -0.1123 -0.2418 -0.3521
  434TMC3    O1 6479   0.757   2.477  10.559  0.0114  0.3724 -0.1008
  434TMC3    O2 6480   1.118   2.305  11.120 -0.8412  0.0590 -0.0600
  435MPD2     C 6481   3.330   3.014  15.362  0.4284  0.2904 -0.4492
  435MPD2    C1 6482   3.308   3.030  15.499 -0.5145 -0.1613  0.3694
  435MPD2    C2 6483   3.409   2.994  15.591 -0.1494  0.4703  0.1311
  435MPD2    C3 6484   3.515   2.922  15.545  0.2855  0.2470 -0.3903
  435MPD2    C4 6485   3.533   2.909  15.408  0.0981  0.2933  0.0258
  435MPD2    C5 6486   3.451   2.966  15.321 -0.5294 -0.5039 -0.0811
  435MPD2     H 6487   3.394   3.012  15.697 -1.0913 -2.8479  0.5651
  435MPD2    H1 6488   3.622   2.864  15.367 -1.1283 -0.7717 -1.4338
  435MPD2    H2 6489   3.256   3.044  15.287  0.1277 -0.4517 -0.4532
  435MPD2    H3 6490   3.470   2.962  15.214  2.3600 -1.6566  0.4798
  435MPD2     N 6491   3.591   2.849  15.640 -0.4429 -1.0678  0.0380
  435MPD2    H5 6492   3.579   2.872  15.738  2.1102  1.9886 -0.3824
  435MPD2    N1 6493   3.198   3.087  15.557  0.1872 -0.4672 -0.1241
  435MPD2    H7 6494   3.207   3.101  15.657  0.9651  0.1519 -0.2751
  436TMC3    C1 6495   2.939   3.300  15.784 -0.0662 -0.5178 -0.9605
  436TMC3    C2 6496   3.025   3.237  15.699  0.8116  0.3242 -0.5446
  436TMC3    C3 6497   2.981   3.186  15.579  0.5560 -0.7247 -0.4110
  436TMC3    C4 6498   2.806   3.305  15.739 -0.0492  0.0467 -0.7204
  436TMC3    C5 6499   2.762   3.242  15.625 -0.0713 -0.8172 -0.2429
  436TMC3    C6 6500   2.851   3.189  15.535  0.2849 -0.0098  0.0026
  436TMC3     C 6501   2.979   3.399  15.877  0.1767  0.0240 -0.1776
  436TMC3     O 6502   3.099   3.429  15.872 -0.5610 -0.2323 -0.1226
  436TMC3     H 6503   3.130   3.240  15.722  0.6821 -1.4087  0.2758
  436TMC3    H1 6504   2.730   3.364  15.789  1.4180  2.2619 -1.1100
  436TMC3    H2 6505   2.812   3.133  15.451 -1.3138  2.0016 -0.5873
  436TMC3    C7 6506   2.617   3.218  15.614  0.0120 -0.3179 -0.7198
  436TMC3    C8 6507   3.078   3.118  15.495 -0.3614  0.1697 -0.0333
  436TMC3    O1 6508   2.574   3.160  15.512  0.1948  0.2465  0.0133
  436TMC3    O2 6509   3.047   3.105  15.377  0.0933 -0.0025  0.0343
  437TMC3    C1 6510   2.148   0.612  12.977  0.5476 -0.2552  0.0484
  437TMC3    C2 6511   2.015   0.639  12.974 -0.0925  0.0412 -0.7176
  437TMC3    C3 6512   1.971   0.722  12.876 -0.2968  0.2476 -0.0762
  437TMC3    C4 6513   2.237   0.675  12.899 -0.2393  0.5314 -0.0667
  437TMC3    C5 6514   2.186   0.742  12.792 -0.1673 -0.6156 -0.9242
  437TMC3    C6 6515   2.056   0.768  12.782 -0.0442 -0.1612  0.1363
  437TMC3     C 6516   2.201   0.529  13.089 -0.4133 -0.2128  0.1301
  437TMC3     O 6517   2.123   0.533  13.182  0.2817 -0.5141 -0.4264
  437TMC3     H 6518   1.952   0.611  13.057  0.9555  1.7012  0.6183
  437TMC3    H1 6519   2.343   0.663  12.917 -0.3186 -0.6544 -0.4343
  437TMC3    H2 6520   2.019   0.831  12.702  0.3625  0.7075  0.6411
  437TMC3    C7 6521   2.270   0.761  12.677  0.1249  0.5001 -0.2176
  437TMC3    C8 6522   1.841   0.790  12.906  0.2139 -0.4496 -0.6564
  437TMC3    O1 6523   2.217   0.773  12.564  0.3162 -0.1869  0.3972
  437TMC3    O2 6524   1.801   0.763  13.016  0.5653  0.1017 -0.2996
  438MPD2     C 6525   3.959   0.873  16.934  0.0300 -0.2379 -0.4316
  438MPD2    C1 6526   4.091   0.849  16.974  0.2695 -0.0586  0.0512
  438MPD2    C2 6527   4.115   0.791  17.101  0.6689  0.5745 -0.1425
  438MPD2    C3 6528   4.012   0.740  17.177 -0.5464 -0.8048  0.1600
  438MPD2    C4 6529   3.889   0.745  17.119  0.4110  0.7418 -0.1245
  438MPD2    C5 6530   3.865   0.796  16.997 -0.2815 -0.8788  0.8081
  438MPD2     H 6531   4.215   0.803  17.140  0.4074 -0.0292  0.6991
  438MPD2    H1 6532   3.811   0.701  17.178 -1.0497 -0.6123 -3.0919
  438MPD2    H2 6533   3.926   0.929  16.847 -0.4415  1.2972  0.7343
  438MPD2    H3 6534   3.767   0.797  16.951 -0.5004  0.5739  1.3081
  438MPD2     N 6535   4.017   0.682  17.303 -0.0312  0.5194  0.6063
  438MPD2    H5 6536   3.931   0.669  17.356 -0.1146 -1.9730 -0.1399
  438MPD2    N1 6537   4.203   0.900  16.898 -0.4505  0.0911  0.0476
  438MPD2    H7 6538   4.288   0.849  16.919 -0.3891  1.0538  2.1737
  439TMC3    C1 6539   4.315   1.004  16.724 -0.3386  0.6483  0.7570
  439TMC3    C2 6540   4.315   1.003  16.584 -0.0350  0.1809 -0.2487
  439TMC3    C3 6541   4.431   0.972  16.521  0.1953  0.2313  0.4140
  439TMC3    C4 6542   4.430   0.966  16.794 -0.9723  0.1788 -0.7365
  439TMC3    C5 6543   4.546   0.941  16.727 -0.2202  0.4941 -1.0666
  439TMC3    C6 6544   4.548   0.942  16.596  0.0170 -0.1584 -0.1683
  439TMC3     C 6545   4.194   0.992  16.796 -0.0100  0.2252 -0.5179
  439TMC3     O 6546   4.099   1.062  16.769  0.1342  0.4588 -0.3163
  439TMC3     H 6547   4.221   1.023  16.535 -0.6961  2.5755  1.9667
  439TMC3    H1 6548   4.443   0.980  16.901 -0.4933 -1.2468 -0.6149
  439TMC3    H2 6549   4.644   0.935  16.546 -1.1513 -0.9586 -2.3545
  439TMC3    C7 6550   4.620   0.835  16.786  0.0070 -0.2201 -0.3829
  439TMC3    C8 6551   4.420   0.868  16.425 -0.4274 -0.4907 -0.1571
  439TMC3    O1 6552   4.637   0.840  16.907  0.1790  0.8145 -0.2971
  439TMC3    O2 6553   4.516   0.785  16.431  0.0066  0.4940  0.0350
  440MPD2     C 6554   3.703   1.550  14.623  0.3413 -0.5687 -0.0614
  440MPD2    C1 6555   3.580   1.536  14.687  0.5104 -0.4037  0.3978
  440MPD2    C2 6556   3.581   1.463  14.803  1.0288 -0.0867 -0.0508
  440MPD2    C3 6557   3.696   1.426  14.866 -0.8979 -0.5189 -0.0286
  440MPD2    C4 6558   3.815   1.452  14.803 -0.4716 -0.5714  0.5580
  440MPD2    C5 6559   3.816   1.506  14.680 -0.6985  0.2406  0.2227
  440MPD2     H 6560   3.487   1.435  14.851  1.5476 -1.3095  0.2402
  440MPD2    H1 6561   3.910   1.430  14.849 -0.2948  1.2954  1.1001
  440MPD2    H2 6562   3.722   1.602  14.530  0.3802 -4.1691 -2.0641
  440MPD2    H3 6563   3.904   1.512  14.618  0.7098 -1.0388  2.1209
  440MPD2     N 6564   3.707   1.367  14.991 -0.0570  0.4271 -0.0659
  440MPD2    H5 6565   3.794   1.387  15.039 -0.1778 -0.2732  0.4479
  440MPD2    N1 6566   3.456   1.602  14.653  0.3120 -0.3130  0.0437
  440MPD2    H7 6567   3.378   1.563  14.705 -1.4079  1.4693 -1.1985
  441TMC3    C1 6568   3.622   1.310  15.188  0.2577 -0.0463 -1.4454
  441TMC3    C2 6569   3.677   1.417  15.255  0.4222 -0.1595 -0.2884
  441TMC3    C3 6570   3.625   1.444  15.376  0.3005  0.6578  0.5157
  441TMC3    C4 6571   3.532   1.222  15.248 -0.8179  0.0268 -0.1349
  441TMC3    C5 6572   3.490   1.250  15.375 -0.1216 -0.0998  0.3244
  441TMC3    C6 6573   3.532   1.366  15.436  0.4173  0.3713  0.5513
  441TMC3     C 6574   3.598   1.309  15.050  0.6401  0.3658 -0.4151
  441TMC3     O 6575   3.492   1.267  14.999 -0.0825 -0.9007 -0.0974
  441TMC3     H 6576   3.743   1.484  15.199 -1.2325  1.8600  0.1726
  441TMC3    H1 6577   3.498   1.137  15.192  1.1294 -2.3415  2.2680
  441TMC3    H2 6578   3.496   1.380  15.537 -0.8252  1.9601 -0.0943
  441TMC3    C7 6579   3.374   1.188  15.428  0.0728 -0.0855 -0.1039
  441TMC3    C8 6580   3.673   1.570  15.438  0.2859  0.5356  0.0601
  441TMC3    O1 6581   3.332   1.234  15.531  0.7820  0.2585 -0.8848
  441TMC3    O2 6582   3.792   1.602  15.434 -0.2289  0.5028  0.2900
  442MPD2     C 6583   1.347   2.268  16.316 -0.7154 -0.2991  1.4212
  442MPD2    C1 6584   1.229   2.219  16.378 -0.0507 -0.1516 -0.1036
  442MPD2    C2 6585   1.204   2.078  16.370 -0.7922 -1.3366 -0.7837
  442MPD2    C3 6586   1.298   1.993  16.316  0.2977  0.1192  0.2342
  442MPD2    C4 6587   1.421   2.044  16.278  0.4708  0.1403  1.2149
  442MPD2    C5 6588   1.442   2.178  16.283  0.2134  0.3402  0.3250
  442MPD2     H 6589   1.106   2.042  16.397 -0.4363 -2.8737 -1.5694
  442MPD2    H1 6590   1.498   1.974  16.247  0.8170 -0.1415  2.6979
  442MPD2    H2 6591   1.378   2.372  16.313  0.5193 -0.7233 -0.4473
  442MPD2    H3 6592   1.535   2.224  16.250  0.4399  1.3395  2.3713
  442MPD2     N 6593   1.286   1.855  16.300 -0.3265  0.3511  0.4523
  442MPD2    H5 6594   1.368   1.803  16.272 -0.6540 -0.8346  1.6151
  442MPD2    N1 6595   1.129   2.295  16.444  0.6887 -0.4612  0.7399
  442MPD2    H7 6596   1.047   2.243  16.474  1.5329 -2.4098 -0.3496
  443TMC3    C1 6597   1.020   2.483  16.535 -0.2437  0.2227 -0.1867
  443TMC3    C2 6598   0.969   2.595  16.477 -0.2127 -0.2467  0.1448
  443TMC3    C3 6599   0.838   2.621  16.496 -0.4212 -0.5557 -0.0968
  443TMC3    C4 6600   0.958   2.402  16.630 -0.1620 -0.0967 -0.6668
  443TMC3    C5 6601   0.827   2.439  16.655  0.0611 -0.6610  0.5188
  443TMC3    C6 6602   0.765   2.547  16.592  0.6136  0.2634 -0.3555
  443TMC3     C 6603   1.132   2.431  16.459  0.4356 -0.4458  0.7207
  443TMC3     O 6604   1.223   2.508  16.420  0.2261 -0.8535 -0.2275
  443TMC3     H 6605   1.017   2.653  16.400  0.3418 -0.9525 -0.0338
  443TMC3    H1 6606   1.001   2.306  16.657 -1.8959 -1.4297 -2.6310
  443TMC3    H2 6607   0.659   2.564  16.605  0.9765  3.3535 -1.3842
  443TMC3    C7 6608   0.749   2.358  16.740  0.2800  0.0713 -0.5121
  443TMC3    C8 6609   0.787   2.610  16.361  0.3213 -0.5414  0.4457
  443TMC3    O1 6610   0.783   2.240  16.747  0.5530  0.1865 -0.3707
  443TMC3    O2 6611   0.831   2.689  16.278 -0.0973 -0.2431 -0.0003
  444MPD2     C 6612   1.316   1.390  17.068 -0.2897 -0.2383  0.2036
  444MPD2    C1 6613   1.255   1.272  17.105  0.3610  0.5470  0.2499
  444MPD2    C2 6614   1.316   1.150  17.075  0.4186  0.4304 -0.5224
  444MPD2    C3 6615   1.434   1.144  17.009 -0.5312 -0.0431  0.0676
  444MPD2    C4 6616   1.485   1.261  16.962 -0.2982  1.0326  0.5058
  444MPD2    C5 6617   1.427   1.382  16.985 -0.3766 -0.1963 -0.5391
  444MPD2     H 6618   1.267   1.061  17.112 -0.8248  0.6541 -1.6342
  444MPD2    H1 6619   1.579   1.266  16.909  0.0897  0.3523  1.1433
  444MPD2    H2 6620   1.283   1.488  17.101 -1.6988 -0.0649 -1.7610
  444MPD2    H3 6621   1.471   1.475  16.950 -2.0691 -0.3965 -3.2065
  444MPD2     N 6622   1.487   1.013  16.984 -0.0404 -0.0194  0.0007
  444MPD2    H5 6623   1.426   0.934  17.003 -0.7304  0.8529  1.4566
  444MPD2    N1 6624   1.129   1.272  17.173  0.0746 -0.0844  0.1806
  444MPD2    H7 6625   1.075   1.186  17.177  0.1163 -0.1708 -0.9078
  445TMC3    C1 6626   1.635   0.845  16.902 -0.4007 -0.0068  0.2170
  445TMC3    C2 6627   1.535   0.748  16.904  0.7100  0.5906  0.2557
  445TMC3    C3 6628   1.576   0.610  16.888 -0.2760 -0.0361 -0.0225
  445TMC3    C4 6629   1.772   0.809  16.877 -0.2274 -0.7710 -0.3777
  445TMC3    C5 6630   1.802   0.677  16.864  0.5136 -1.1667 -0.8155
  445TMC3    C6 6631   1.711   0.577  16.885 -0.5018 -0.6017  0.1532
  445TMC3     C 6632   1.619   0.987  16.934  0.6212  0.0243  0.2141
  445TMC3     O 6633   1.707   1.067  16.897  0.4151 -0.0056  0.6606
  445TMC3     H 6634   1.427   0.759  16.901  0.5914 -0.4089  0.7312
  445TMC3    H1 6635   1.852   0.882  16.885 -1.9375  1.2252 -1.5670
  445TMC3    H2 6636   1.747   0.475  16.883 -0.9021 -0.7532  0.8893
  445TMC3    C7 6637   1.942   0.634  16.864 -0.3329 -0.2503  0.1594
  445TMC3    C8 6638   1.476   0.512  16.843  0.6244  0.0146  0.1797
  445TMC3    O1 6639   1.969   0.519  16.897  0.2531 -0.1227 -0.6063
  445TMC3    O2 6640   1.356   0.531  16.858  0.5541  0.1133 -1.1836
  446MPD2     C 6641   1.130   2.056  11.636  0.2957  0.5311  0.6709
  446MPD2    C1 6642   1.068   2.071  11.509  0.4885 -0.0697  1.0678
  446MPD2    C2 6643   1.122   2.161  11.421  0.1811 -0.2446  0.1528
  446MPD2    C3 6644   1.224   2.253  11.456 -0.0582 -1.0811  0.1994
  446MPD2    C4 6645   1.285   2.232  11.577  0.4176  0.0023 -0.1265
  446MPD2    C5 6646   1.246   2.131  11.656  0.5957  0.1787  0.1771
  446MPD2     H 6647   1.076   2.149  11.323 -0.3853 -1.8337  0.6088
  446MPD2    H1 6648   1.366   2.296  11.612  0.2256 -0.0675  0.4486
  446MPD2    H2 6649   1.098   2.005  11.726  1.5584 -1.2534  0.1076
  446MPD2    H3 6650   1.292   2.114  11.753  0.7633  0.5331  0.1595
  446MPD2     N 6651   1.264   2.355  11.361  0.3834  0.1286 -0.5733
  446MPD2    H5 6652   1.225   2.351  11.268  0.5807 -0.7865 -0.6201
  446MPD2    N1 6653   0.949   2.012  11.474  0.3530  0.2972  0.1994
  446MPD2    H7 6654   0.915   2.027  11.380 -1.3556  0.6830  0.8847
  447TMC3    C1 6655   1.400   2.536  11.277 -0.0440  1.1995  0.5399
  447TMC3    C2 6656   1.330   2.551  11.151  1.0097  0.6311 -0.2267
  447TMC3    C3 6657   1.389   2.634  11.057 -0.0544 -0.0831  0.0532
  447TMC3    C4 6658   1.527   2.586  11.291  0.2922 -0.6536 -0.0237
  447TMC3    C5 6659   1.584   2.659  11.191 -0.2198  0.3255  0.7085
  447TMC3    C6 6660   1.520   2.678  11.068 -0.4880 -0.4125 -0.4540
  447TMC3     C 6661   1.359   2.448  11.393  0.0220 -0.6738 -0.0009
  447TMC3     O 6662   1.421   2.460  11.496 -0.0587  0.1615 -0.2006
  447TMC3     H 6663   1.225   2.526  11.135  1.8744 -1.3772 -2.8576
  447TMC3    H1 6664   1.582   2.568  11.383 -1.7863 -1.3161  1.0806
  447TMC3    H2 6665   1.560   2.763  11.016 -1.0682  0.0051 -0.2135
  447TMC3    C7 6666   1.716   2.707  11.206 -0.0230 -0.0631  0.0020
  447TMC3    C8 6667   1.336   2.632  10.919 -0.4384 -0.0333 -0.2016
  447TMC3    O1 6668   1.791   2.702  11.111 -0.2156  0.1941 -1.1378
  447TMC3    O2 6669   1.221   2.609  10.902  0.4065 -0.0697 -0.5563
  448TMC3    C1 6670   4.493   2.636  16.475 -0.6906  0.4732  0.4803
  448TMC3    C2 6671   4.485   2.505  16.427  0.0860 -0.4321  0.0399
  448TMC3    C3 6672   4.580   2.408  16.466  0.2060 -0.3436 -0.3072
  448TMC3    C4 6673   4.595   2.660  16.566  0.1946 -0.0103  0.2390
  448TMC3    C5 6674   4.682   2.564  16.608 -0.7506  0.7140  0.7986
  448TMC3    C6 6675   4.676   2.442  16.557  0.6882 -0.0884  0.5592
  448TMC3     C 6676   4.388   2.724  16.457  0.0860  0.0955  0.7165
  448TMC3     O 6677   4.312   2.699  16.368  0.1819 -0.1105  0.0907
  448TMC3     H 6678   4.397   2.477  16.370  0.2944 -0.2243 -0.3777
  448TMC3    H1 6679   4.599   2.759  16.610 -0.2537 -0.6067  1.6088
  448TMC3    H2 6680   0.030   2.376  16.590  1.9869  1.5893  0.7563
  448TMC3    C7 6681   0.001   2.578  16.740  0.4053 -0.5315  0.2953
  448TMC3    C8 6682   4.567   2.271  16.436  0.5949 -0.7957  0.1487
  448TMC3    O1 6683   0.044   2.685  16.782 -0.0023  0.0206  0.0240
  448TMC3    O2 6684   4.663   2.204  16.476 -0.5785 -0.2905  0.2144
  449MPD2     C 6685   1.389   0.898  14.274  0.0390 -0.2041 -0.2803
  449MPD2    C1 6686   1.281   0.952  14.199 -0.9175 -0.0746 -0.3833
  449MPD2    C2 6687   1.155   0.905  14.216 -1.1942 -0.4869 -1.0012
  449MPD2    C3 6688   1.124   0.819  14.319  0.4489  0.2610  0.3074
  449MPD2    C4 6689   1.229   0.755  14.378 -1.1487 -0.3710 -0.3124
  449MPD2    C5 6690   1.363   0.796  14.360  0.2272  0.0857 -1.0331
  449MPD2     H 6691   1.071   0.952  14.166 -1.7631 -0.3515  0.0823
  449MPD2    H1 6692   1.218   0.668  14.443 -0.7644 -1.4752 -1.7358
  449MPD2    H2 6693   1.483   0.951  14.284 -0.8316  1.3641 -0.3929
  449MPD2    H3 6694   1.436   0.735  14.413  0.2093  0.5237 -0.5045
  449MPD2     N 6695   0.990   0.798  14.361 -0.2983  0.3548  0.2136
  449MPD2    H5 6696   0.913   0.838  14.310 -1.2085  1.8758  2.8119
  449MPD2    N1 6697   1.292   1.076  14.137 -0.2160 -0.1836  0.3680
  449MPD2    H7 6698   1.211   1.125  14.102  0.3216 -0.5845 -1.4353
  450TMC3    C1 6699   1.366   1.282  14.080 -0.0264 -0.2197  0.0313
  450TMC3    C2 6700   1.406   1.318  13.953  0.2572 -0.1755  1.3272
  450TMC3    C3 6701   1.313   1.376  13.869  0.3527 -0.4054  0.7403
  450TMC3    C4 6702   1.241   1.326  14.129 -0.3378 -0.0646 -0.6931
  450TMC3    C5 6703   1.149   1.378  14.039 -0.1673 -0.5289 -0.0465
  450TMC3    C6 6704   1.185   1.404  13.911 -0.4173 -0.2404 -0.1727
  450TMC3     C 6705   1.408   1.152  14.118 -0.8115 -0.1133 -0.1181
  450TMC3     O 6706   1.526   1.123  14.118 -0.0937 -0.2319  0.0525
  450TMC3     H 6707   1.510   1.309  13.924 -1.0310 -1.6015 -2.7628
  450TMC3    H1 6708   1.201   1.304  14.228 -1.0510  3.6430 -0.1508
  450TMC3    H2 6709   1.110   1.438  13.841  1.3963  1.7223 -1.1563
  450TMC3    C7 6710   1.029   1.302  14.061  0.0580  0.4888  0.2438
  450TMC3    C8 6711   1.345   1.409  13.730  0.0776  0.0847 -0.4965
  450TMC3    O1 6712   1.044   1.184  14.081  0.0019 -0.3845 -0.3481
  450TMC3    O2 6713   1.285   1.506  13.687 -1.0166  0.2653 -0.2584
  451MPD2     C 6714   1.552   4.107   1.696 -0.2328  0.2004 -0.1913
  451MPD2    C1 6715   1.591   4.087   1.564 -0.8959 -0.7815 -0.3212
  451MPD2    C2 6716   1.669   3.984   1.519 -0.2821  0.2040 -0.4328
  451MPD2    C3 6717   1.727   3.911   1.617  0.2583 -0.1420 -0.3078
  451MPD2    C4 6718   1.689   3.926   1.749  0.0477  0.3876 -0.5251
  451MPD2    C5 6719   1.602   4.017   1.785  0.1415 -0.0319 -0.4083
  451MPD2     H 6720   1.685   3.965   1.413 -1.0067  1.4709 -0.7641
  451MPD2    H1 6721   1.744   3.872   1.825 -0.6689 -0.3782 -0.5428
  451MPD2    H2 6722   1.483   4.184   1.731  1.1717  1.7873 -0.9019
  451MPD2    H3 6723   1.565   4.020   1.887 -0.1137  1.0425 -0.5295
  451MPD2     N 6724   1.829   3.816   1.584 -0.2334 -0.6237  0.3384
  451MPD2    H5 6725   1.864   3.758   1.661  0.7219 -0.3835  0.0862
  451MPD2    N1 6726   1.528   4.173   1.468  0.2694  0.2893 -0.2129
  451MPD2    H7 6727   1.469   4.249   1.501  0.9227  1.8830 -2.7386
  452TMC3    C1 6728   2.022   3.748   1.468  0.8195  0.6687 -0.3633
  452TMC3    C2 6729   2.050   3.646   1.560  0.2448 -0.1900 -0.2539
  452TMC3    C3 6730   2.180   3.618   1.583 -0.5327 -0.5205  0.4295
  452TMC3    C4 6731   2.121   3.798   1.395  0.0575 -0.0723 -0.1668
  452TMC3    C5 6732   2.251   3.765   1.415  0.1422 -0.3030  0.3483
  452TMC3    C6 6733   2.286   3.679   1.512  0.1775 -0.4936 -0.3324
  452TMC3     C 6734   1.899   3.820   1.465 -0.2749 -0.6659 -0.4549
  452TMC3     O 6735   1.885   3.887   1.361 -0.5128  0.1449  0.4586
  452TMC3     H 6736   1.962   3.599   1.602 -1.3889  1.1301 -2.2304
  452TMC3    H1 6737   2.095   3.875   1.323 -0.0055  0.3001  0.2558
  452TMC3    H2 6738   2.391   3.665   1.532 -0.0644  0.8656  1.8950
  452TMC3    C7 6739   2.347   3.850   1.358 -0.3027  0.2257  0.1608
  452TMC3    C8 6740   2.205   3.537   1.698 -0.6498  0.2863  0.7488
  452TMC3    O1 6741   2.317   3.955   1.304 -0.0503  0.2262 -0.1293
  452TMC3    O2 6742   2.109   3.461   1.732 -0.6533  0.0991  0.5436
  453TMC3    C1 6743   3.704   1.502  11.756 -0.1590  0.2291  0.4774
  453TMC3    C2 6744   3.691   1.398  11.839  0.6306 -0.3574 -0.0645
  453TMC3    C3 6745   3.604   1.301  11.801 -0.0561  0.1857  0.1119
  453TMC3    C4 6746   3.652   1.515  11.628  0.2281 -0.6696  0.2885
  453TMC3    C5 6747   3.558   1.417  11.597  0.1875  0.1627  0.4980
  453TMC3    C6 6748   3.542   1.309  11.682  0.0899  0.5070 -0.3762
  453TMC3     C 6749   3.803   1.603  11.802 -0.1485  0.0643 -0.7172
  453TMC3     O 6750   3.821   1.617  11.921 -0.0690 -0.3937 -0.2596
  453TMC3     H 6751   3.750   1.403  11.930  1.7787  1.0416 -0.8730
  453TMC3    H1 6752   3.662   1.602  11.564 -2.2448 -1.1547 -0.7563
  453TMC3    H2 6753   3.474   1.228  11.655  1.7987 -0.5333 -1.5536
  453TMC3    C7 6754   3.539   1.393  11.460 -0.2650  0.1548 -0.6091
  453TMC3    C8 6755   3.606   1.170  11.866  0.8227  0.6247  0.2589
  453TMC3    O1 6756   3.516   1.282  11.410  0.1553 -0.6476 -0.2138
  453TMC3    O2 6757   3.530   1.078  11.833 -0.4403 -0.4162 -0.3940
  454MPD2     C 6758   2.203   1.406  16.287  0.0476  0.3197  0.0322
  454MPD2    C1 6759   2.141   1.289  16.247 -0.0229 -0.2135 -0.7796
  454MPD2    C2 6760   2.052   1.228  16.334  0.2112  0.5774 -0.0912
  454MPD2    C3 6761   2.017   1.284  16.454 -0.4667 -0.2525 -0.2619
  454MPD2    C4 6762   2.069   1.404  16.489  0.6953 -0.4928  0.0731
  454MPD2    C5 6763   2.166   1.456  16.407  0.3274 -0.1258 -0.6423
  454MPD2     H 6764   2.015   1.132  16.300 -0.7729  0.5608  1.0477
  454MPD2    H1 6765   2.041   1.455  16.580  0.5171 -0.9613  0.2765
  454MPD2    H2 6766   2.271   1.457  16.220  0.1852 -1.1402 -0.9479
  454MPD2    H3 6767   2.214   1.550  16.434 -0.5930 -0.1290  0.9882
  454MPD2     N 6768   1.919   1.221  16.537 -0.1458  0.0114 -0.1985
  454MPD2    H5 6769   1.874   1.278  16.608 -0.7225 -1.0384  0.2702
  454MPD2    N1 6770   2.173   1.220  16.127 -0.1378 -0.4331  0.3281
  454MPD2    H7 6771   2.134   1.126  16.121 -0.4203 -0.1870 -1.7317
  455TMC3    C1 6772   1.729   1.093  16.578  0.7035  0.1472  0.0249
  455TMC3    C2 6773   1.653   1.202  16.588  0.3457  0.9141  0.2118
  455TMC3    C3 6774   1.519   1.186  16.594 -1.0522  0.6309  0.1839
  455TMC3    C4 6775   1.684   0.969  16.584 -0.5716 -0.5748 -0.5103
  455TMC3    C5 6776   1.546   0.960  16.587 -0.5033 -0.6877 -0.4379
  455TMC3    C6 6777   1.464   1.063  16.592  0.7114 -0.4058  0.0598
  455TMC3     C 6778   1.859   1.101  16.508 -0.0547  0.0577 -0.8869
  455TMC3     O 6779   1.865   1.019  16.421  0.8354  0.1018  0.0903
  455TMC3     H 6780   1.697   1.301  16.591  0.6857  0.7691  0.1049
  455TMC3    H1 6781   1.741   0.878  16.572  0.1388  0.0107 -1.5713
  455TMC3    H2 6782   1.357   1.048  16.584  1.0193 -2.5034 -0.1981
  455TMC3    C7 6783   1.483   0.842  16.539 -0.1478 -0.3295  0.4909
  455TMC3    C8 6784   1.431   1.298  16.600 -0.5280 -0.1776  0.3025
  455TMC3    O1 6785   1.389   0.788  16.596  0.2710 -0.0893  0.2846
  455TMC3    O2 6786   1.313   1.261  16.599  0.4006  0.0829 -0.4843
  456MPD2     C 6787   4.612   0.880  16.047 -0.2321 -0.9894  0.7405
  456MPD2    C1 6788   0.002   0.921  16.111 -0.0272  0.0640 -0.0459
  456MPD2    C2 6789   4.718   1.029  16.199  0.0454  0.6854  0.1799
  456MPD2    C3 6790   4.607   1.095  16.212 -0.3747  0.3563  0.3038
  456MPD2    C4 6791   4.493   1.064  16.143  0.1675 -0.1254  0.1844
  456MPD2    C5 6792   4.497   0.952  16.063  0.2168  0.5439 -0.0262
  456MPD2     H 6793   0.079   1.047  16.260  0.2174 -2.1303  0.7660
  456MPD2    H1 6794   4.398   1.112  16.162  0.1866 -0.1398  0.3153
  456MPD2    H2 6795   4.612   0.794  15.980 -0.1368 -1.7069  1.6676
  456MPD2    H3 6796   4.403   0.929  16.014  0.3793  1.5034 -0.7882
  456MPD2     N 6797   4.614   1.199  16.311 -0.4611  0.1200  0.3003
  456MPD2    H5 6798   4.704   1.208  16.358  0.6653  0.9543 -2.0261
  456MPD2    N1 6799   0.128   0.853  16.095  0.1603 -0.1477  0.7718
  456MPD2    H7 6800   0.199   0.879  16.162 -0.2001  2.0241  0.3108
  457TMC3    C1 6801   4.536   1.362  16.469  0.2433 -0.4049  0.3728
  457TMC3    C2 6802   4.509   1.490  16.452 -0.5095  0.2084  0.3689
  457TMC3    C3 6803   4.553   1.578  16.549  0.4349 -0.0962  0.2677
  457TMC3    C4 6804   4.579   1.313  16.588  0.0925  0.5240  0.5603
  457TMC3    C5 6805   4.610   1.402  16.688  0.3437  0.4867  0.3335
  457TMC3    C6 6806   4.600   1.538  16.671 -0.6745  0.5954  0.6239
  457TMC3     C 6807   4.508   1.279  16.356  0.4367 -0.0454 -0.5222
  457TMC3     O 6808   4.411   1.305  16.290  0.1202 -0.3552 -0.1954
  457TMC3     H 6809   4.492   1.536  16.355 -3.3548 -0.4704  0.5248
  457TMC3    H1 6810   4.582   1.205  16.596  1.0988  0.5080 -0.0531
  457TMC3    H2 6811   4.619   1.611  16.749  0.0745 -1.0247  1.9328
  457TMC3    C7 6812   4.637   1.339  16.818 -0.1855  0.0937  0.2085
  457TMC3    C8 6813   4.546   1.715  16.520 -0.3296  0.3580  0.1228
  457TMC3    O1 6814   4.672   1.219  16.827 -0.6271  0.2663  0.9837
  457TMC3    O2 6815   4.612   1.794  16.584  0.1859  0.1979 -0.0482
  458MPD2     C 6816   2.727   0.744  12.439  0.1244  0.3412  0.5714
  458MPD2    C1 6817   2.748   0.760  12.575 -0.7994  0.2884 -0.0135
  458MPD2    C2 6818   2.635   0.778  12.653  0.3233  0.5234 -0.6450
  458MPD2    C3 6819   2.504   0.775  12.607 -0.1721  0.2411 -0.1641
  458MPD2    C4 6820   2.489   0.770  12.469  0.2918  0.0049  0.8458
  458MPD2    C5 6821   2.599   0.755  12.390  0.1482 -0.9084 -0.5322
  458MPD2     H 6822   2.643   0.802  12.758 -2.1582  0.4119 -0.4354
  458MPD2    H1 6823   2.395   0.764  12.414  0.4450 -2.0733  0.8112
  458MPD2    H2 6824   2.809   0.724  12.371 -0.9296  0.0121 -0.5882
  458MPD2    H3 6825   2.589   0.749  12.282 -1.2396  2.2450 -0.5794
  458MPD2     N 6826   2.399   0.773  12.702 -0.0539 -0.1219  0.2482
  458MPD2    H5 6827   2.436   0.764  12.796  0.0293  0.4717  0.2779
  458MPD2    N1 6828   2.875   0.758  12.628  0.1317 -0.2272 -0.1156
  458MPD2    H7 6829   2.949   0.759  12.559 -0.5229  1.9688 -0.7914
  459TMC3    C1 6830   3.039   0.760  12.792 -0.1525 -0.1183 -0.6276
  459TMC3    C2 6831   3.115   0.837  12.712 -0.4176 -0.1675  0.2389
  459TMC3    C3 6832   3.247   0.849  12.746  0.1516  0.5074 -0.1189
  459TMC3    C4 6833   3.085   0.695  12.904  0.1125  0.3149 -0.5694
  459TMC3    C5 6834   3.213   0.719  12.942  0.0881  0.4495  0.2631
  459TMC3    C6 6835   3.299   0.791  12.863  0.3096 -0.1796 -0.2196
  459TMC3     C 6836   2.903   0.744  12.760  0.2940  0.3843 -0.1323
  459TMC3     O 6837   2.830   0.735  12.858  0.2174 -1.0242  0.3448
  459TMC3     H 6838   3.073   0.881  12.622 -2.5472 -2.3125  0.2044
  459TMC3    H1 6839   3.021   0.634  12.966  1.6298  0.0495  0.7522
  459TMC3    H2 6840   3.402   0.801  12.892  0.6466 -0.2400 -1.3762
  459TMC3    C7 6841   3.250   0.663  13.069  0.0008  0.1635  0.5029
  459TMC3    C8 6842   3.339   0.943  12.678  0.0706  0.5411 -0.5926
  459TMC3    O1 6843   3.178   0.573  13.107 -0.0687 -0.8272  0.5601
  459TMC3    O2 6844   3.446   0.960  12.730  0.0552  0.5580 -0.3370
  460MPD2     C 6845   1.562   2.653  10.613 -0.5983 -0.1724 -0.5072
  460MPD2    C1 6846   1.443   2.661  10.689  0.3950  0.9130  0.0750
  460MPD2    C2 6847   1.342   2.731  10.641  0.2712 -0.5101  0.6618
  460MPD2    C3 6848   1.348   2.788  10.512 -0.5347  0.2893 -0.1276
  460MPD2    C4 6849   1.469   2.793  10.442  0.3527  0.4648  0.6636
  460MPD2    C5 6850   1.573   2.717  10.498 -0.6226 -0.1108  0.1904
  460MPD2     H 6851   1.251   2.730  10.700 -0.5600  0.6539 -0.5872
  460MPD2    H1 6852   1.477   2.855  10.354  0.6653  1.2332  1.2296
  460MPD2    H2 6853   1.644   2.598  10.658 -0.4410  0.6344  0.1994
  460MPD2    H3 6854   1.673   2.706  10.456 -0.5271  0.4279  0.2841
  460MPD2     N 6855   1.228   2.839  10.460  0.4478  0.6279 -0.0155
  460MPD2    H5 6856   1.137   2.804  10.488 -0.6911  2.0535 -1.9194
  460MPD2    N1 6857   1.441   2.620  10.828 -0.4527  0.7289 -0.1075
  460MPD2    H7 6858   1.530   2.594  10.870 -0.6645 -1.7253 -1.1178
  461TMC3    C1 6859   1.072   2.946  10.326 -0.3977 -0.8831 -0.1725
  461TMC3    C2 6860   1.018   2.832  10.264  0.2054  0.8558  0.2994
  461TMC3    C3 6861   0.936   2.852  10.154  0.2237 -0.4132  0.2593
  461TMC3    C4 6862   1.034   3.073  10.285  0.0088  0.3896 -0.1690
  461TMC3    C5 6863   0.953   3.090  10.174 -0.1642 -0.0900 -0.1192
  461TMC3    C6 6864   0.902   2.979  10.111 -0.7518  0.3050  0.0524
  461TMC3     C 6865   1.209   2.940  10.368 -0.2439 -0.3075 -0.2216
  461TMC3     O 6866   1.291   3.013  10.309  0.6316  0.0390 -0.2230
  461TMC3     H 6867   1.066   2.735  10.274  1.0047  1.2691  0.4413
  461TMC3    H1 6868   1.072   3.159  10.339  1.0477  0.4367 -0.9674
  461TMC3    H2 6869   0.839   2.985  10.024 -0.9160 -0.1812  0.1355
  461TMC3    C7 6870   0.917   3.222  10.128  0.7990  0.5999  0.6154
  461TMC3    C8 6871   0.951   2.754  10.045  0.2107 -0.1931  0.2838
  461TMC3    O1 6872   0.827   3.222  10.045 -0.4600  0.6717  0.0026
  461TMC3    O2 6873   0.970   2.810   9.938 -0.1737  0.4155  0.1516
  462TMC3    C1 6874   1.547   4.060   0.227  0.7534 -0.2659  0.3612
  462TMC3    C2 6875   1.611   3.981   0.317  1.2405  0.4097 -0.4657
  462TMC3    C3 6876   1.549   3.864   0.356 -0.6491 -0.2599 -0.5604
  462TMC3    C4 6877   1.426   4.019   0.174  0.8250 -0.3856 -0.0435
  462TMC3    C5 6878   1.371   3.902   0.221  0.4735 -0.0705 -0.1573
  462TMC3    C6 6879   1.428   3.827   0.318  0.1011 -0.3161  0.3860
  462TMC3     C 6880   1.597   4.194   0.201  0.0206 -0.5847 -0.1020
  462TMC3     O 6881   1.536   4.248   0.107  0.0859 -0.0386 -0.1667
  462TMC3     H 6882   1.697   4.009   0.377  0.1514 -1.6665  2.0876
  462TMC3    H1 6883   1.375   4.074   0.096  1.0572 -0.1857 -0.0533
  462TMC3    H2 6884   1.390   3.726   0.329  1.1613 -0.6668  0.8663
  462TMC3    C7 6885   1.246   3.854   0.169  0.1320  0.1973 -0.0959
  462TMC3    C8 6886   1.638   3.751   0.394  0.3675  0.6597 -0.1388
  462TMC3    O1 6887   1.186   3.768   0.230 -0.1254  0.4127 -0.1002
  462TMC3    O2 6888   1.594   3.651   0.447 -0.0169  0.7799  0.4213
  463MPD2     C 6889   2.586   2.516   2.099 -0.4866  0.2935 -0.2694
  463MPD2    C1 6890   2.484   2.571   2.025  0.0199  0.2698  0.6815
  463MPD2    C2 6891   2.483   2.706   1.986  0.3179 -0.4948  0.3913
  463MPD2    C3 6892   2.592   2.786   2.010  0.1239  0.4161 -0.3039
  463MPD2    C4 6893   2.696   2.726   2.092  0.3027  0.3748 -0.2858
  463MPD2    C5 6894   2.688   2.599   2.134 -0.0685  0.5381 -0.7653
  463MPD2     H 6895   2.404   2.746   1.923 -0.6002  0.7334  2.3403
  463MPD2    H1 6896   2.790   2.775   2.116  0.7667 -1.4656  1.6959
  463MPD2    H2 6897   2.591   2.414   2.135 -1.0260  0.4302  0.1860
  463MPD2    H3 6898   2.747   2.572   2.220  0.3936 -1.8934 -1.8421
  463MPD2     N 6899   2.616   2.905   1.945  0.0019 -0.6069 -0.9809
  463MPD2    H5 6900   2.699   2.956   1.974 -1.3942 -0.1346  2.1660
  463MPD2    N1 6901   2.373   2.489   1.991 -0.1413 -0.6447  0.3976
  463MPD2    H7 6902   2.308   2.536   1.930 -0.1676 -0.3607  0.6410
  464TMC3    C1 6903   2.243   2.301   1.937  0.2351  0.1747  0.8413
  464TMC3    C2 6904   2.115   2.364   1.924  0.1096  0.1627  0.2833
  464TMC3    C3 6905   2.016   2.302   1.856  0.3865 -0.4297  0.3428
  464TMC3    C4 6906   2.277   2.192   1.868 -0.5931  1.2991  0.5910
  464TMC3    C5 6907   2.172   2.137   1.797  0.6257 -0.2943 -0.4044
  464TMC3    C6 6908   2.041   2.185   1.797 -0.3732 -0.0600  0.2873
  464TMC3     C 6909   2.354   2.354   2.015  0.3135 -0.1695  0.6199
  464TMC3     O 6910   2.436   2.275   2.062 -0.1107 -0.0752  0.3315
  464TMC3     H 6911   2.092   2.456   1.976  0.1981 -0.1352  0.8522
  464TMC3    H1 6912   2.367   2.135   1.890 -1.0307  0.1253 -0.6397
  464TMC3    H2 6913   1.961   2.148   1.734 -0.5047 -0.8264  0.9115
  464TMC3    C7 6914   2.191   2.006   1.735 -0.1042 -0.1029  0.5406
  464TMC3    C8 6915   1.900   2.388   1.822  0.4785 -0.0370  0.1230
  464TMC3    O1 6916   2.305   1.970   1.745  0.0256  0.0726 -0.0501
  464TMC3    O2 6917   1.928   2.505   1.814  0.7806  0.0262  0.8717
  465MPD2     C 6918   3.511   1.148  16.662  0.0000 -0.3150 -0.3017
  465MPD2    C1 6919   3.416   1.167  16.762  0.0392  0.0316  0.4218
  465MPD2    C2 6920   3.302   1.229  16.733 -0.6050  0.1729  1.2413
  465MPD2    C3 6921   3.281   1.278  16.604 -0.1978  0.0777  0.3220
  465MPD2    C4 6922   3.380   1.264  16.507 -0.1822 -0.4204  0.3950
  465MPD2    C5 6923   3.486   1.189  16.536 -0.1735 -0.0542  0.0125
  465MPD2     H 6924   3.224   1.231  16.808 -0.5299  0.1439  1.3203
  465MPD2    H1 6925   3.366   1.297  16.405  1.3248  0.2306  0.4023
  465MPD2    H2 6926   3.606   1.096  16.672  0.5928  0.3684 -2.3131
  465MPD2    H3 6927   3.559   1.169  16.458  0.5569  1.6911  0.2671
  465MPD2     N 6928   3.155   1.336  16.571  0.7175  0.6193 -0.0844
  465MPD2    H5 6929   3.099   1.357  16.653 -1.4219 -0.0619 -1.3808
  465MPD2    N1 6930   3.440   1.128  16.896  0.0002 -0.3178  0.0546
  465MPD2    H7 6931   3.365   1.155  16.960  0.1580 -4.8831  2.1810
  466TMC3    C1 6932   2.835   1.500  16.621 -0.3870 -0.3080 -0.2184
  466TMC3    C2 6933   2.817   1.627  16.574 -0.4676 -0.1778  0.0901
  466TMC3    C3 6934   2.902   1.665  16.474 -0.2867  0.5172  0.2721
  466TMC3    C4 6935   2.917   1.412  16.560 -0.8489 -0.0676  0.3227
  466TMC3    C5 6936   2.999   1.460  16.467 -0.3625 -0.3613  0.0471
  466TMC3    C6 6937   2.997   1.586  16.418  0.2829 -0.0851  0.0147
  466TMC3     C 6938   2.838   1.493  16.763 -0.1932  0.7065 -0.3634
  466TMC3     O 6939   2.934   1.441  16.814  0.3864  0.2533 -0.0320
  466TMC3     H 6940   2.740   1.697  16.605  0.8952  1.4471 -0.1832
  466TMC3    H1 6941   2.905   1.305  16.575  0.6495 -0.4700 -1.3523
  466TMC3    H2 6942   3.083   1.616  16.360 -1.1710  2.9328 -0.6010
  466TMC3    C7 6943   3.118   1.388  16.453  0.5392 -0.0154 -0.4539
  466TMC3    C8 6944   2.936   1.804  16.487 -0.4410 -0.3283  0.1377
  466TMC3    O1 6945   3.182   1.413  16.356 -0.2570  0.2237  0.2243
  466TMC3    O2 6946   2.885   1.867  16.577 -0.1813 -0.5179  0.0788
  467TMC3    C1 6947   0.057   4.702  13.721 -0.6693  0.6616 -0.0343
  467TMC3    C2 6948   0.106   0.041  13.609  0.2458 -0.7067  0.0953
  467TMC3    C3 6949   0.038   0.151  13.567 -0.1165 -0.0483  0.0992
  467TMC3    C4 6950   4.680   0.020  13.805  0.4176  0.4102  0.1327
  467TMC3    C5 6951   4.625   0.136  13.757  0.2496 -0.1816 -0.0644
  467TMC3    C6 6952   4.667   0.200  13.647 -0.1031  0.0230  0.5240
  467TMC3     C 6953   0.143   4.612  13.788  0.0294 -0.8270  0.1233
  467TMC3     O 6954   0.146   4.617  13.911 -0.5007  0.0195 -0.2677
  467TMC3     H 6955   0.203   0.011  13.570  0.3712 -0.7454  0.4285
  467TMC3    H1 6956   4.649   4.681  13.885  2.5156 -0.9406 -0.1500
  467TMC3    H2 6957   4.620   0.291  13.612  1.2259  1.1134  1.6126
  467TMC3    C7 6958   4.516   0.201  13.821 -0.1072 -0.8842  0.5132
  467TMC3    C8 6959   0.115   0.252  13.495  0.6013  0.4246 -0.1542
  467TMC3    O1 6960   4.509   0.322  13.807 -0.1584 -0.2550  0.2750
  467TMC3    O2 6961   0.124   0.361  13.545  0.5991  0.0206  0.0218
  468MPD2     C 6962   3.379   2.904  10.767 -0.5135 -0.1239  0.6702
  468MPD2    C1 6963   3.498   2.851  10.720 -0.1720 -0.4226 -0.1618
  468MPD2    C2 6964   3.511   2.715  10.701  0.3805  0.0531  0.6416
  468MPD2    C3 6965   3.402   2.628  10.725 -0.5961 -0.4834  0.7235
  468MPD2    C4 6966   3.289   2.681  10.774  0.1671  0.5526 -0.2044
  468MPD2    C5 6967   3.283   2.819  10.809 -0.1925 -0.5404 -0.4164
  468MPD2     H 6968   3.610   2.685  10.667 -0.2665  1.3113 -2.3726
  468MPD2    H1 6969   3.208   2.619  10.812  1.4764 -1.0454  0.0034
  468MPD2    H2 6970   3.365   3.010  10.784  1.2882  0.7872 -3.4854
  468MPD2    H3 6971   3.195   2.851  10.864  0.2183  0.7316 -0.5136
  468MPD2     N 6972   3.410   2.489  10.691 -0.0504 -0.0160 -0.2641
  468MPD2    H5 6973   3.329   2.434  10.717  0.8728 -0.9782  0.5417
  468MPD2    N1 6974   3.616   2.925  10.681 -0.4027 -0.7750  0.3204
  468MPD2    H7 6975   3.703   2.880  10.654  0.5385  1.5651 -0.5732
  469TMC3    C1 6976   3.763   3.096  10.650 -0.0920  0.0798 -0.1313
  469TMC3    C2 6977   3.864   3.023  10.711  0.8173  0.3222 -0.2812
  469TMC3    C3 6978   3.988   3.058  10.686 -0.5386 -0.3964  0.5269
  469TMC3    C4 6979   3.783   3.213  10.584  0.3601  0.4283  0.1387
  469TMC3    C5 6980   3.920   3.244  10.567  0.0430 -0.9071 -0.1350
  469TMC3    C6 6981   4.028   3.168  10.610 -0.3886  0.6496  0.0759
  469TMC3     C 6982   3.623   3.058  10.673  0.3854  0.2640 -0.8335
  469TMC3     O 6983   3.533   3.142  10.674  0.1939  0.0570  0.0100
  469TMC3     H 6984   3.841   2.934  10.768  0.0518  0.9755  0.4328
  469TMC3    H1 6985   3.702   3.270  10.541 -1.7597 -1.7263  1.2688
  469TMC3    H2 6986   4.128   3.197  10.582 -0.9963  0.9215 -1.8287
  469TMC3    C7 6987   3.954   3.383  10.523 -0.5152  0.2796 -0.3206
  469TMC3    C8 6988   4.071   3.037  10.805  0.0568 -0.0170  0.2310
  469TMC3    O1 6989   4.069   3.409  10.485  0.4218  0.1498  0.2963
  469TMC3    O2 6990   4.189   3.046  10.787  0.0323  0.2336 -0.1644
  470TMC3    C1 6991   4.659   3.196   1.064 -0.0780 -0.4513  0.8818
  470TMC3    C2 6992   0.045   3.275   1.067  0.4357  0.6443  0.1400
  470TMC3    C3 6993   0.040   3.374   1.162  0.6355  0.9846 -0.1589
  470TMC3    C4 6994   4.559   3.203   1.157  0.5534  0.1264  0.6680
  470TMC3    C5 6995   4.554   3.300   1.254 -0.2050 -0.1503 -0.7296
  470TMC3    C6 6996   4.663   3.391   1.254 -0.6058  0.3345 -0.3361
  470TMC3     C 6997   4.620   3.176   0.928 -1.1460 -0.7763 -0.0149
  470TMC3     O 6998   4.687   3.236   0.841  0.1348 -0.4215  0.0278
  470TMC3     H 6999   0.120   3.262   0.990 -0.0499  1.5762 -0.4912
  470TMC3    H1 7000   4.477   3.131   1.161  0.4977  0.0264 -2.4630
  470TMC3    H2 7001   4.660   3.476   1.321  0.9808 -0.0897  0.2923
  470TMC3    C7 7002   4.421   3.328   1.305 -0.1646 -0.1882 -0.4798
  470TMC3    C8 7003   0.138   3.477   1.166 -0.6060 -0.0614  0.3370
  470TMC3    O1 7004   4.333   3.311   1.227 -0.5057 -0.0238  0.2466
  470TMC3    O2 7005   0.118   3.573   1.234 -0.0523 -0.7093  0.0391
  471MPD2     C 7006   0.805   0.647  16.716 -0.3789  0.4143  0.4752
  471MPD2    C1 7007   0.841   0.518  16.695  0.6549  0.4262  0.1548
  471MPD2    C2 7008   0.909   0.443  16.794 -0.7948 -0.2380 -0.4151
  471MPD2    C3 7009   0.968   0.514  16.900  0.3902 -0.3177  1.0019
  471MPD2    C4 7010   0.945   0.648  16.921 -0.0819 -0.6071 -0.0071
  471MPD2    C5 7011   0.860   0.708  16.830  0.0723  0.9946  0.7885
  471MPD2     H 7012   0.936   0.338  16.790  1.4949  0.2781  0.8932
  471MPD2    H1 7013   0.992   0.705  17.001 -0.2980  0.9158 -0.9617
  471MPD2    H2 7014   0.742   0.707  16.651 -1.2752 -0.3905  0.6047
  471MPD2    H3 7015   0.840   0.812  16.851  1.2146  1.1922  0.8731
  471MPD2     N 7016   1.047   0.445  16.999 -0.5753  0.4851  0.3683
  471MPD2    H5 7017   1.123   0.480  17.057  0.8177  0.9647 -1.7843
  471MPD2    N1 7018   0.789   0.455  16.578  0.0157  0.1915 -0.2155
  471MPD2    H7 7019   0.714   0.503  16.528  0.5157  0.6651 -0.5151
  472TMC3    C1 7020   0.761   0.296  16.412  0.8444  0.1297 -0.0422
  472TMC3    C2 7021   0.637   0.255  16.448 -0.8329 -0.1390 -0.9717
  472TMC3    C3 7022   0.608   0.121  16.431 -0.1735 -0.8034 -0.6474
  472TMC3    C4 7023   0.836   0.220  16.328 -0.6146  0.1948  0.5430
  472TMC3    C5 7024   0.790   0.101  16.286  0.5147 -0.5411  1.4004
  472TMC3    C6 7025   0.680   0.048  16.335 -0.0345  0.3727  0.3413
  472TMC3     C 7026   0.832   0.332  16.528  0.4534 -0.2404  0.7755
  472TMC3     O 7027   0.943   0.279  16.546  0.0357 -0.2403 -0.3012
  472TMC3     H 7028   0.592   0.308  16.531 -0.6362 -1.2379 -0.1737
  472TMC3    H1 7029   0.942   0.241  16.314  0.1607 -1.8403  3.3262
  472TMC3    H2 7030   0.658   4.673  16.302  1.0529 -0.0448  0.8814
  472TMC3    C7 7031   0.906   0.014  16.265 -0.3370  0.0072 -0.2055
  472TMC3    C8 7032   0.592   0.057  16.561 -0.5954 -0.3193 -0.1372
  472TMC3    O1 7033   0.954   4.716  16.156 -0.1340  0.6027 -0.5591
  472TMC3    O2 7034   0.643   0.114  16.656  0.1753  0.0700  0.1651
  473MPD2     C 7035   1.186   2.788  14.009  0.6581 -0.3030  0.1536
  473MPD2    C1 7036   1.306   2.846  13.972 -0.5561  0.1815 -0.0185
  473MPD2    C2 7037   1.402   2.875  14.066  0.2231  0.0144 -0.2697
  473MPD2    C3 7038   1.370   2.860  14.197  0.0374  0.0703 -0.4817
  473MPD2    C4 7039   1.249   2.810  14.233  0.2874  0.0085  0.0421
  473MPD2    C5 7040   1.158   2.763  14.142  0.3059 -0.6036 -0.3639
  473MPD2     H 7041   1.491   2.920  14.022  1.2469 -2.6760 -0.9115
  473MPD2    H1 7042   1.225   2.798  14.338  0.3182 -1.7870 -0.1715
  473MPD2    H2 7043   1.111   2.756  13.936  0.1731  0.3056  0.3863
  473MPD2    H3 7044   1.062   2.724  14.173 -1.0446  1.8443 -1.4808
  473MPD2     N 7045   1.448   2.919  14.308  0.4674  0.9066  0.5590
  473MPD2    H5 7046   1.400   2.933  14.397  2.7272  1.8454  1.6171
  473MPD2    N1 7047   1.336   2.860  13.834 -0.0689  0.0564 -1.1719
  473MPD2    H7 7048   1.432   2.888  13.816 -0.0395 -0.3949 -1.7228
  474TMC3    C1 7049   1.613   3.036  14.423  0.2041 -0.3386 -0.1453
  474TMC3    C2 7050   1.516   3.125  14.466 -0.3697  0.5902  0.3087
  474TMC3    C3 7051   1.565   3.235  14.534 -0.2090 -0.2931  0.0756
  474TMC3    C4 7052   1.739   3.052  14.462  0.0507 -0.3800  0.1863
  474TMC3    C5 7053   1.780   3.153  14.545 -0.1993 -0.4085 -0.0701
  474TMC3    C6 7054   1.692   3.249  14.585  0.3556  0.4963  0.3775
  474TMC3     C 7055   1.579   2.960  14.306 -0.2707  0.4691 -0.1669
  474TMC3     O 7056   1.667   2.947  14.222  0.0527 -0.3825  0.4246
  474TMC3     H 7057   1.417   3.124  14.422 -0.2257 -1.1442  0.0153
  474TMC3    H1 7058   1.806   2.974  14.426 -0.9753 -0.0736 -2.4212
  474TMC3    H2 7059   1.712   3.326  14.659 -2.3410 -0.1322  1.7348
  474TMC3    C7 7060   1.908   3.141  14.609 -0.3403  0.0842  0.5273
  474TMC3    C8 7061   1.496   3.351  14.478 -0.1284  0.4094 -0.2680
  474TMC3    O1 7062   1.995   3.105  14.534  0.2578  0.6508  0.1158
  474TMC3    O2 7063   1.375   3.344  14.468  0.0015 -0.4540 -0.3970
  475MPD2     C 7064   0.427   0.187  10.042 -0.9508  0.3641 -0.8581
  475MPD2    C1 7065   0.324   0.278  10.024 -0.5259 -0.0745  0.0910
  475MPD2    C2 7066   0.209   0.254  10.098  0.3759  0.2849 -0.5569
  475MPD2    C3 7067   0.202   0.144  10.181 -0.2642  0.6227  0.1977
  475MPD2    C4 7068   0.306   0.054  10.198  0.1897 -0.6110 -0.6110
  475MPD2    C5 7069   0.420   0.080  10.134 -0.0245  0.0965 -0.5860
  475MPD2     H 7070   0.126   0.324  10.095 -0.2522 -0.4337  0.0622
  475MPD2    H1 7071   0.294   4.692  10.261  0.0545  0.5063  0.9100
  475MPD2    H2 7072   0.521   0.190   9.988  1.1735  0.0349  2.8378
  475MPD2    H3 7073   0.496   0.007  10.158 -0.0954  0.2152 -0.0057
  475MPD2     N 7074   0.072   0.124  10.244 -0.6987 -0.3532  0.0448
  475MPD2    H5 7075   0.006   0.198  10.224 -1.0725 -0.5180  0.7101
  475MPD2    N1 7076   0.351   0.373   9.925  0.3917  0.7345  0.9109
  475MPD2    H7 7077   0.442   0.368   9.881 -0.5884  0.7882 -1.1148
  476TMC3    C1 7078   0.320   0.570   9.812  0.0965 -0.1673 -0.4729
  476TMC3    C2 7079   0.231   0.631   9.732 -0.4414  0.1613  0.0865
  476TMC3    C3 7080   0.269   0.749   9.676  0.0156  0.2280  0.5189
  476TMC3    C4 7081   0.445   0.619   9.834 -0.3626 -0.0020  0.5528
  476TMC3    C5 7082   0.481   0.732   9.771 -0.1674 -0.4263  0.4150
  476TMC3    C6 7083   0.391   0.800   9.693  0.1989 -0.0401 -0.9831
  476TMC3     C 7084   0.259   0.468   9.885  0.4134 -0.0788 -0.3029
  476TMC3     O 7085   0.136   0.456   9.898  0.6241 -0.3874  0.3023
  476TMC3     H 7086   0.144   0.572   9.705  0.9317 -1.4454 -0.8240
  476TMC3    H1 7087   0.519   0.575   9.900 -0.0858  0.2075  0.3821
  476TMC3    H2 7088   0.426   0.892   9.647 -0.2273  0.9257  0.6105
  476TMC3    C7 7089   0.572   0.818   9.847  0.1068 -0.1040 -1.1289
  476TMC3    C8 7090   0.167   0.827   9.616 -0.3371 -0.4841 -0.3641
  476TMC3    O1 7091   0.630   0.902   9.782  0.3609  0.1080  0.5656
  476TMC3    O2 7092   0.196   0.918   9.536  0.3483 -0.7084 -0.0181
  477MPD2     C 7093   1.873   1.593  11.690  0.1081 -0.1365 -0.6132
  477MPD2    C1 7094   1.944   1.711  11.711 -0.1139 -0.6856 -0.4062
  477MPD2    C2 7095   2.053   1.713  11.798  0.4908  0.4471 -0.6464
  477MPD2    C3 7096   2.110   1.600  11.858  0.2852 -0.0029  0.0401
  477MPD2    C4 7097   2.039   1.483  11.832  0.2162 -0.5759  0.1391
  477MPD2    C5 7098   1.925   1.484  11.754  0.4468  0.0185 -0.1599
  477MPD2     H 7099   2.114   1.802  11.812 -0.3838  1.3592 -2.6184
  477MPD2    H1 7100   2.067   1.384  11.867 -1.4145 -1.7907 -2.0214
  477MPD2    H2 7101   1.777   1.584  11.640 -0.2066  1.1249 -0.2377
  477MPD2    H3 7102   1.857   1.400  11.748  0.8199 -0.3108  0.1930
  477MPD2     N 7103   2.223   1.607  11.934 -0.4924 -0.6021  0.3884
  477MPD2    H5 7104   2.260   1.701  11.946 -1.5488 -0.0101 -1.0111
  477MPD2    N1 7105   1.894   1.825  11.648  0.4083 -0.3029 -0.3814
  477MPD2    H7 7106   1.810   1.812  11.592 -1.9115  1.0905  2.8247
  478TMC3    C1 7107   1.833   2.052  11.629  0.6812 -0.3048 -0.0291
  478TMC3    C2 7108   1.786   2.150  11.706 -0.2350  0.7506  1.0750
  478TMC3    C3 7109   1.703   2.245  11.654  0.2825  0.1935 -0.0085
  478TMC3    C4 7110   1.803   2.037  11.502 -0.0571 -0.2392  0.1296
  478TMC3    C5 7111   1.710   2.131  11.452 -0.3350 -0.1900 -0.7545
  478TMC3    C6 7112   1.666   2.236  11.524  0.1751  0.2363 -0.3973
  478TMC3     C 7113   1.922   1.953  11.682 -0.2592  0.1032  0.1053
  478TMC3     O 7114   1.987   1.996  11.778 -0.3256 -0.2748  0.2636
  478TMC3     H 7115   1.813   2.154  11.811  2.8206  0.1117  0.3240
  478TMC3    H1 7116   1.843   1.957  11.442  1.5710  2.4035 -2.2986
  478TMC3    H2 7117   1.627   2.323  11.472  0.0299  0.2989 -0.1849
  478TMC3    C7 7118   1.672   2.109  11.311  1.0389 -0.0996 -0.1852
  478TMC3    C8 7119   1.719   2.380  11.726  0.0279  0.4970  0.2341
  478TMC3    O1 7120   1.736   2.027  11.245 -0.1797 -0.1565 -0.7079
  478TMC3    O2 7121   1.824   2.398  11.784 -0.2575  0.0837 -0.0980
  479MPD2     C 7122   1.352   4.505  15.332 -0.0475  0.1660 -0.3955
  479MPD2    C1 7123   1.300   4.430  15.438 -0.2820  0.9069 -0.0449
  479MPD2    C2 7124   1.359   4.435  15.565 -0.7202  0.5077  0.4022
  479MPD2    C3 7125   1.478   4.511  15.583  0.0906 -0.3275 -0.1274
  479MPD2    C4 7126   1.542   4.558  15.472  0.1324 -0.1358  0.5895
  479MPD2    C5 7127   1.475   4.568  15.351 -0.7567 -0.1510 -0.5399
  479MPD2     H 7128   1.316   4.377  15.647  1.9709 -0.3316  1.2183
  479MPD2    H1 7129   1.640   4.602  15.488 -0.1534  0.0622  1.8323
  479MPD2    H2 7130   1.311   4.501  15.232 -0.8321  1.1186 -0.1174
  479MPD2    H3 7131   1.522   4.620  15.269  0.2343  0.3862  0.3796
  479MPD2     N 7132   1.534   4.546  15.707  0.0050  0.3563 -0.0061
  479MPD2    H5 7133   1.628   4.584  15.708  0.1746 -0.0646 -0.2907
  479MPD2    N1 7134   1.180   4.356  15.412 -0.1584 -0.0647  0.2406
  479MPD2    H7 7135   1.134   4.368  15.323  2.2849  0.4244 -0.9727
  480TMC3    C1 7136   1.165   4.481  15.991 -0.6664  0.8659  1.4517
  480TMC3    C2 7137   1.080   4.547  15.908  0.0626 -0.3527  0.0955
  480TMC3    C3 7138   1.137   4.614  15.800  0.3733 -0.1154 -0.0906
  480TMC3    C4 7139   1.300   4.485  15.974 -0.2880  0.2053  0.3216
  480TMC3    C5 7140   1.353   4.551  15.862  0.0807 -0.0123 -0.0673
  480TMC3    C6 7141   1.274   4.622  15.779  0.0950 -0.5911 -0.1089
  480TMC3     C 7142   1.119   4.368  16.073 -0.3617  0.3166 -0.5162
  480TMC3     O 7143   1.202   4.282  16.116 -0.4730 -0.1561 -0.0953
  480TMC3     H 7144   0.974   4.548  15.926 -0.1421  1.0856 -1.1475
  480TMC3    H1 7145   1.362   4.419  16.033 -1.8146 -0.2681  1.4168
  480TMC3    H2 7146   1.326   4.675  15.700  1.4337 -0.6615  0.7177
  480TMC3    C7 7147   1.489   4.516  15.831 -0.2625 -0.2934 -0.2339
  480TMC3    C8 7148   1.048   4.636  15.689  0.3196  0.5062  0.5880
  480TMC3    O1 7149   1.567   4.489  15.921 -0.1759 -0.2656 -0.1730
  480TMC3    O2 7150   0.936   4.584  15.693 -0.2298 -0.0771  0.4489
  481MPD2     C 7151   3.074   4.071  14.455 -0.1287 -0.2118  0.4304
  481MPD2    C1 7152   2.943   4.032  14.483  0.4672  0.3685  0.0207
  481MPD2    C2 7153   2.911   4.017  14.617  0.1276 -0.3036 -0.2320
  481MPD2    C3 7154   2.999   4.041  14.724 -0.0816  0.0606 -0.4101
  481MPD2    C4 7155   3.127   4.067  14.695  0.5126  0.5122 -0.5416
  481MPD2    C5 7156   3.165   4.090  14.559 -0.3219  0.7846  0.6082
  481MPD2     H 7157   2.807   3.995  14.638  0.4975 -0.0807  1.8338
  481MPD2    H1 7158   3.202   4.088  14.770 -1.1838 -2.4096  1.9740
  481MPD2    H2 7159   3.114   4.086  14.356  0.7903 -1.4289  0.6111
  481MPD2    H3 7160   3.268   4.113  14.531  0.0446 -2.9006 -1.1028
  481MPD2     N 7161   2.971   4.042  14.863  0.6192  0.0730  0.3109
  481MPD2    H5 7162   3.044   4.072  14.926  0.6000 -1.5922  1.1399
  481MPD2    N1 7163   2.857   4.024  14.376 -0.8147 -0.1429 -0.3317
  481MPD2    H7 7164   2.896   4.051  14.286  2.0210  0.6092  1.1464
  482TMC3    C1 7165   2.654   4.015  14.263 -0.2085  0.2092 -0.3764
  482TMC3    C2 7166   2.523   3.973  14.257  0.3363  0.2900  0.0687
  482TMC3    C3 7167   2.443   4.016  14.161  0.8923 -0.6807  0.0163
  482TMC3    C4 7168   2.711   4.095  14.168  0.1002 -0.0318  0.8873
  482TMC3    C5 7169   2.625   4.134  14.065  0.2501 -0.6052  0.3657
  482TMC3    C6 7170   2.488   4.094  14.061  0.3065  0.2912  0.1959
  482TMC3     C 7171   2.726   3.980  14.379 -0.0840  0.1851  0.4325
  482TMC3     O 7172   2.667   3.923  14.469  0.2420  0.3512  0.6919
  482TMC3     H 7173   2.489   3.914  14.341  2.3950  0.7615  1.2185
  482TMC3    H1 7174   2.814   4.126  14.157 -0.3762  0.9193 -0.8894
  482TMC3    H2 7175   2.414   4.130  13.990  0.1268 -0.6670 -0.1033
  482TMC3    C7 7176   2.687   4.197  13.951  0.0512 -0.8398 -0.5789
  482TMC3    C8 7177   2.318   3.944  14.156 -0.1158  0.4527 -0.0384
  482TMC3    O1 7178   2.799   4.241  13.974 -0.6763 -0.2823  0.0980
  482TMC3    O2 7179   2.302   3.843  14.225 -0.4122  0.1077 -0.7293
  483TMC3    C1 7180   4.650   2.708   0.585 -0.2308  0.1654 -0.0313
  483TMC3    C2 7181   4.684   2.824   0.523  0.3543  0.1258 -0.0120
  483TMC3    C3 7182   0.040   2.915   0.594 -0.0017 -0.2130  0.3880
  483TMC3    C4 7183   4.707   2.667   0.698  0.0238 -0.0425  0.6093
  483TMC3    C5 7184   0.067   2.755   0.755 -0.0494  0.0261 -0.1992
  483TMC3    C6 7185   0.090   2.888   0.714  0.3684  0.2446 -0.1092
  483TMC3     C 7186   4.571   2.623   0.504 -0.2152 -0.3560  1.0963
  483TMC3     O 7187   4.468   2.666   0.451 -0.4961  0.1355 -0.0402
  483TMC3     H 7188   4.635   2.848   0.430 -0.0215 -0.0508  0.1391
  483TMC3    H1 7189   4.668   2.576   0.741  0.0727  0.4063  1.6096
  483TMC3    H2 7190   0.172   2.943   0.759  1.5661 -1.5233 -0.1280
  483TMC3    C7 7191   0.146   2.692   0.860 -0.9592 -0.4182  0.3170
  483TMC3    C8 7192   0.092   3.030   0.520 -0.2658  0.8360 -0.3729
  483TMC3    O1 7193   0.119   2.576   0.882  0.7526 -0.2554 -0.3131
  483TMC3    O2 7194   0.120   3.008   0.401  0.5320 -0.8439  0.2749
  484MPD2     C 7195   3.309   1.063  12.339  0.8157  0.4849  0.2186
  484MPD2    C1 7196   3.364   1.061  12.460 -0.2204 -0.2360  0.4518
  484MPD2    C2 7197   3.486   1.129  12.483  0.7102 -0.2830  0.0575
  484MPD2    C3 7198   3.548   1.194  12.381 -0.0220  0.1571  0.1270
  484MPD2    C4 7199   3.482   1.209  12.258 -0.2348  0.1074 -0.1894
  484MPD2    C5 7200   3.370   1.135  12.239  0.8529  0.6695  0.8378
  484MPD2     H 7201   3.527   1.132  12.583 -1.8220  1.5707  1.0275
  484MPD2    H1 7202   3.523   1.268  12.176  1.5439  0.9743  1.3070
  484MPD2    H2 7203   3.218   1.011  12.311 -0.0323  2.5548 -0.8066
  484MPD2    H3 7204   3.311   1.151  12.150  0.1102 -2.3392  0.7963
  484MPD2     N 7205   3.681   1.243  12.384 -0.4898  0.0027  0.2154
  484MPD2    H5 7206   3.707   1.300  12.305  1.6060 -0.0411  0.8672
  484MPD2    N1 7207   3.299   0.976  12.552 -0.4628 -0.0231  0.1569
  484MPD2    H7 7208   3.215   0.931  12.516  0.9035 -1.9340 -0.6883
  485TMC3    C1 7209   3.902   1.281  12.487 -0.2788 -0.3069 -0.3565
  485TMC3    C2 7210   4.007   1.211  12.542 -0.5599  0.4414  0.2710
  485TMC3    C3 7211   4.142   1.244  12.515 -0.1495 -0.1836 -0.0375
  485TMC3    C4 7212   3.924   1.368  12.382 -0.3832 -0.1647  0.9681
  485TMC3    C5 7213   4.053   1.382  12.339 -0.5720  0.0246 -0.3832
  485TMC3    C6 7214   4.154   1.329  12.412 -0.0863  0.3865 -0.0169
  485TMC3     C 7215   3.766   1.222  12.497 -0.8365 -0.9460 -0.7284
  485TMC3     O 7216   3.756   1.127  12.572 -0.2691  0.1328 -0.3673
  485TMC3     H 7217   3.993   1.135  12.618  2.9115 -0.2618  0.2081
  485TMC3    H1 7218   3.840   1.426  12.344  1.3114  1.6145  0.0014
  485TMC3    H2 7219   4.255   1.348  12.379 -0.5310  1.1577 -0.9536
  485TMC3    C7 7220   4.059   1.369  12.193 -0.4689 -0.3452  0.1263
  485TMC3    C8 7221   4.229   1.131  12.496 -0.2659  0.7685  0.4556
  485TMC3    O1 7222   3.971   1.427  12.125 -0.5553 -0.0825 -0.1668
  485TMC3    O2 7223   4.278   1.116  12.388  0.6695 -0.0760 -0.1885
  486MPD2     C 7224   0.835   4.574  12.938  0.7548 -0.0306 -0.6464
  486MPD2    C1 7225   0.709   4.532  12.893  0.1384  0.0117 -0.3987
  486MPD2    C2 7226   0.630   4.624  12.831 -0.5278  0.1399 -0.3166
  486MPD2    C3 7227   0.663   0.031  12.826 -0.5706 -0.2882 -0.8718
  486MPD2    C4 7228   0.787   0.076  12.871  0.8792  0.3849 -0.0570
  486MPD2    C5 7229   0.877   4.704  12.905  0.0298 -0.7066 -0.1345
  486MPD2     H 7230   0.532   4.598  12.795 -1.0483  1.0606  0.4278
  486MPD2    H1 7231   0.822   0.178  12.876 -1.8986  1.3038  0.4916
  486MPD2    H2 7232   0.896   4.499  12.985 -0.3896 -0.7366 -0.2890
  486MPD2    H3 7233   0.974   0.001  12.948  1.4863 -2.5096 -2.3976
  486MPD2     N 7234   0.564   0.122  12.783 -0.1416  0.0071 -0.2045
  486MPD2    H5 7235   0.472   0.084  12.761 -1.0606  3.0918 -1.5900
  486MPD2    N1 7236   0.674   4.402  12.920 -0.0603  0.4238  0.0097
  486MPD2    H7 7237   0.752   4.338  12.930 -1.2656 -1.2629 -1.4950
  487TMC3    C1 7238   0.538   4.210  12.930  0.4766 -0.0759 -0.4087
  487TMC3    C2 7239   0.428   4.149  12.869  0.0180  0.4194  0.2349
  487TMC3    C3 7240   0.426   4.011  12.871 -0.8301 -0.6707 -0.6244
  487TMC3    C4 7241   0.627   4.144  13.001  0.2335  0.1895 -0.5402
  487TMC3    C5 7242   0.616   4.005  12.997  0.8470 -0.0113  0.3483
  487TMC3    C6 7243   0.520   3.938  12.930  0.1888 -0.1034 -0.2639
  487TMC3     C 7244   0.552   4.351  12.906 -0.4888 -0.5774 -0.1266
  487TMC3     O 7245   0.449   4.404  12.861 -0.1854  0.5872  0.6499
  487TMC3     H 7246   0.344   4.199  12.822 -0.9081  0.4741  1.9837
  487TMC3    H1 7247   0.698   4.196  13.064 -0.1236 -0.0731  0.0818
  487TMC3    H2 7248   0.555   3.850  12.877  2.2767 -0.2869  1.3893
  487TMC3    C7 7249   0.638   3.946  13.132 -0.6045 -0.3122  0.3813
  487TMC3    C8 7250   0.299   3.957  12.899 -0.5869 -0.1354 -0.3903
  487TMC3    O1 7251   0.662   4.032  13.219 -0.3026 -1.0246 -0.1384
  487TMC3    O2 7252   0.202   4.032  12.899 -0.2618  0.1353  0.1922
  488MPD2     C 7253   0.588   1.327  16.537 -0.3328 -0.2701  0.0814
  488MPD2    C1 7254   0.596   1.468  16.542 -0.1071  0.6905 -0.1415
  488MPD2    C2 7255   0.586   1.531  16.666  0.6750 -0.6260  0.9977
  488MPD2    C3 7256   0.544   1.461  16.775 -0.6822  0.9577 -0.5128
  488MPD2    C4 7257   0.529   1.328  16.776  0.2548  0.0778 -0.5630
  488MPD2    C5 7258   0.556   1.261  16.656  0.1718  0.6294  0.0514
  488MPD2     H 7259   0.610   1.636  16.672  0.5852 -0.5817  0.5746
  488MPD2    H1 7260   0.504   1.269  16.864  2.1959  0.4371  0.2469
  488MPD2    H2 7261   0.601   1.273  16.444  1.2433 -0.3365  0.3359
  488MPD2    H3 7262   0.553   1.153  16.665 -2.2868  0.5453 -1.8072
  488MPD2     N 7263   0.519   1.533  16.895  0.0953 -0.0766 -0.4705
  488MPD2    H5 7264   0.542   1.631  16.881  0.3062  0.0239  0.5881
  488MPD2    N1 7265   0.638   1.551  16.434  0.4100 -0.3440  0.7559
  488MPD2    H7 7266   0.663   1.648  16.452 -2.0154  0.5917 -0.8210
  489TMC3    C1 7267   0.499   1.594  17.121  0.6721  0.1428  1.0356
  489TMC3    C2 7268   0.550   1.710  17.086  0.9738 -0.0499 -0.2079
  489TMC3    C3 7269   0.512   1.824  17.145 -0.4163  0.3272  0.5430
  489TMC3    C4 7270   0.414   1.593  17.233 -0.4329  0.0791 -0.0093
  489TMC3    C5 7271   0.380   1.713  17.296  0.2097  0.3706  0.1890
  489TMC3    C6 7272   0.427   1.833  17.250  0.1171  0.4557 -0.0281
  489TMC3     C 7273   0.483   1.490  17.022  0.2095  0.4343  0.0488
  489TMC3     O 7274   0.477   1.377  17.069  0.1529  0.2152  0.2859
  489TMC3     H 7275   0.618   1.724  17.002 -0.8611 -0.2428 -1.7134
  489TMC3    H1 7276   0.370   1.498  17.260 -1.6929  0.3475 -1.0859
  489TMC3    H2 7277   0.399   1.926  17.299  1.4693  1.4098 -1.0850
  489TMC3    C7 7278   0.285   1.707  17.406 -1.0172  0.4105 -0.0936
  489TMC3    C8 7279   0.545   1.951  17.073 -1.2019  0.3152  0.1024
  489TMC3    O1 7280   0.229   1.810  17.433  0.2559  0.1264 -0.1481
  489TMC3    O2 7281   0.641   1.945  16.993 -0.3460 -0.1530  0.5906
  490MPD2     C 7282   1.413   0.643  17.292  0.5889  0.8796 -0.1933
  490MPD2    C1 7283   1.339   0.749  17.336 -0.1722 -0.0203  0.0896
  490MPD2    C2 7284   1.399   0.870  17.343 -0.1251  0.1768  0.0021
  490MPD2    C3 7285   1.526   0.881  17.304  0.6160  0.0998  0.1433
  490MPD2    C4 7286   1.607   0.770  17.265  0.3703  0.5728 -0.7363
  490MPD2    C5 7287   1.541   0.652  17.254 -0.4654 -0.0305 -0.5389
  490MPD2     H 7288   1.338   0.952  17.378 -0.9989  0.9367 -3.3008
  490MPD2    H1 7289   1.711   0.780  17.234  0.3613 -0.5094 -1.1075
  490MPD2    H2 7290   1.379   0.543  17.266 -0.5441  0.5523  2.5662
  490MPD2    H3 7291   1.595   0.562  17.228 -2.4728 -1.5951  0.6784
  490MPD2     N 7292   1.590   1.013  17.300  0.7559  0.2422  0.6937
  490MPD2    H5 7293   1.683   1.014  17.261  0.1907 -0.0242 -0.6664
  490MPD2    N1 7294   1.210   0.733  17.381  0.0405 -0.0931  0.2034
  490MPD2    H7 7295   1.170   0.792  17.453  2.4829 -0.4593  1.8701
  491TMC3    C1 7296   1.003   0.611  17.392  0.0699  0.1402  0.9557
  491TMC3    C2 7297   1.008   0.588  17.523 -0.7345 -0.0843  0.3613
  491TMC3    C3 7298   0.904   0.522  17.580  0.3576  0.3447 -0.2015
  491TMC3    C4 7299   0.908   0.556  17.310 -0.0358  0.1420  0.7060
  491TMC3    C5 7300   0.804   0.491  17.369 -0.6306 -0.2382  0.0287
  491TMC3    C6 7301   0.796   0.475  17.507  0.0891 -0.3593 -0.0192
  491TMC3     C 7302   1.128   0.646  17.319 -0.8382  0.2040  0.6392
  491TMC3     O 7303   1.150   0.591  17.212 -0.4310 -0.3361 -0.2831
  491TMC3     H 7304   1.089   0.616  17.589 -0.2475 -1.5118  0.3678
  491TMC3    H1 7305   0.911   0.556  17.201  0.6904  0.1340  0.7258
  491TMC3    H2 7306   0.723   0.414  17.557  0.7443 -0.7536  0.4541
  491TMC3    C7 7307   0.730   0.400  17.292 -0.0308  0.8334 -0.6793
  491TMC3    C8 7308   0.916   0.480   0.015 -0.0070  0.6608  0.2073
  491TMC3    O1 7309   0.683   0.307  17.359  0.0755 -0.5161  0.4726
  491TMC3    O2 7310   0.811   0.476   0.079  0.3375 -0.6118 -0.2855
  492MPD2     C 7311   2.034   0.805  11.345 -0.0250  0.4482  0.8257
  492MPD2    C1 7312   1.934   0.729  11.304  0.1124  0.5910  0.0740
  492MPD2    C2 7313   1.872   0.646  11.394  0.0806 -0.2011 -0.0896
  492MPD2    C3 7314   1.889   0.665  11.528 -0.1602 -1.0797 -0.4129
  492MPD2    C4 7315   1.991   0.751  11.566 -0.0040 -0.1804  0.7052
  492MPD2    C5 7316   2.069   0.820  11.473  0.0451 -0.2420 -0.6856
  492MPD2     H 7317   1.804   0.567  11.365  0.3529  0.3115 -2.1172
  492MPD2    H1 7318   2.033   0.752  11.665  3.2941  0.4645 -0.7167
  492MPD2    H2 7319   2.088   0.859  11.267 -0.2496 -1.9913 -1.0145
  492MPD2    H3 7320   2.153   0.875  11.513 -1.8479  1.1126  1.4575
  492MPD2     N 7321   1.823   0.600  11.631  0.8767  0.7051 -0.6241
  492MPD2    H5 7322   1.845   0.619  11.729  0.9599 -1.2782 -0.2683
  492MPD2    N1 7323   1.908   0.734  11.165  0.0583  0.1741  0.4009
  492MPD2    H7 7324   1.966   0.798  11.112 -2.7144 -0.5012 -3.4798
  493TMC3    C1 7325   1.808   0.681  10.961 -0.1585  0.0509  0.0964
  493TMC3    C2 7326   1.896   0.766  10.900  0.0258 -0.0025  0.2030
  493TMC3    C3 7327   1.869   0.806  10.769  0.3417  0.5288  0.3601
  493TMC3    C4 7328   1.701   0.635  10.892 -0.3482  0.9130 -0.2758
  493TMC3    C5 7329   1.680   0.660  10.759  0.3456  0.0072 -0.2814
  493TMC3    C6 7330   1.759   0.756  10.703  0.3277  0.8275 -0.0273
  493TMC3     C 7331   1.803   0.676  11.105 -0.0251 -0.1855 -0.1482
  493TMC3     O 7332   1.711   0.622  11.161  0.2943 -0.5537 -0.1860
  493TMC3     H 7333   1.979   0.807  10.957  1.8338 -0.4934 -2.0796
  493TMC3    H1 7334   1.631   0.576  10.951  1.9332 -1.6774 -0.1694
  493TMC3    H2 7335   1.748   0.786  10.599  2.1826 -2.7598 -1.2530
  493TMC3    C7 7336   1.553   0.619  10.696  0.7354 -0.5572 -0.2813
  493TMC3    C8 7337   1.983   0.859  10.700 -0.4274  0.5616  0.6963
  493TMC3    O1 7338   1.526   0.682  10.598  0.2071 -0.6902 -0.1901
  493TMC3    O2 7339   2.089   0.838  10.757 -0.0917  0.4506  0.1952
  494TMC3    C1 7340   2.079   2.993   0.807  0.1753 -0.2579  0.3268
  494TMC3    C2 7341   2.121   2.865   0.833 -0.3413 -0.3369 -0.0041
  494TMC3    C3 7342   2.201   2.819   0.739 -0.2990  0.2523  0.1201
  494TMC3    C4 7343   2.108   3.066   0.695 -0.2492  0.3159 -0.1474
  494TMC3    C5 7344   2.181   3.013   0.601  0.2246  0.9008  0.2987
  494TMC3    C6 7345   2.234   2.889   0.623  0.0191  0.1315 -0.4859
  494TMC3     C 7346   1.996   3.055   0.907  0.2574  0.7706 -0.2127
  494TMC3     O 7347   1.988   3.003   1.016 -0.5064 -0.3479 -0.0676
  494TMC3     H 7348   2.090   2.818   0.926  0.4794 -0.8654 -0.0023
  494TMC3    H1 7349   2.086   3.172   0.694  0.4647  0.4621 -1.2435
  494TMC3    H2 7350   2.310   2.840   0.563  0.6853 -0.3432  0.7476
  494TMC3    C7 7351   2.246   3.107   0.513 -0.0674  0.2196 -0.3313
  494TMC3    C8 7352   2.232   2.678   0.757 -0.4368 -0.9885 -0.3952
  494TMC3    O1 7353   2.198   3.218   0.505 -0.2289 -0.2177 -0.0865
  494TMC3    O2 7354   2.217   2.628   0.872  0.0701  0.1857 -0.4830
  495TMC3    C1 7355   1.575   0.083  14.913  1.1087  0.0700 -0.8014
  495TMC3    C2 7356   1.491   0.074  14.801  0.1508 -0.0774 -0.4958
  495TMC3    C3 7357   1.364   0.121  14.799  0.1199  0.0103  0.5868
  495TMC3    C4 7358   1.529   0.148  15.027  0.8190  0.7477  0.1696
  495TMC3    C5 7359   1.402   0.193  15.028  0.0088 -0.7971  0.7754
  495TMC3    C6 7360   1.329   0.195  14.911  0.7727 -0.5154 -0.4123
  495TMC3     C 7361   1.612   4.668  14.943 -0.1135 -0.7847  0.2762
  495TMC3     O 7362   1.531   4.599  15.002 -0.0295 -0.8153 -0.0248
  495TMC3     H 7363   1.517   0.006  14.721 -1.0340  0.6954 -1.5225
  495TMC3    H1 7364   1.572   0.136  15.125  1.5583 -0.4070 -0.3024
  495TMC3    H2 7365   1.226   0.226  14.924  0.1013 -1.7459 -2.7588
  495TMC3    C7 7366   1.332   0.177  15.155 -0.2182  0.4298  0.3781
  495TMC3    C8 7367   1.255   0.052  14.727 -0.5025  0.4389 -0.4219
  495TMC3    O1 7368   1.380   0.210  15.263 -0.2243 -0.2056  0.1692
  495TMC3    O2 7369   1.141   0.082  14.759 -0.3119  0.1864 -0.3716
  496MPD2     C 7370   3.746   0.028  15.932 -0.0464  0.1840 -0.3504
  496MPD2    C1 7371   3.631   4.707  15.873 -0.5741 -0.2807  0.2974
  496MPD2    C2 7372   3.509   0.021  15.924 -0.7848  0.3001  0.0633
  496MPD2    C3 7373   3.501   0.103  16.042 -0.6159  0.8018 -1.1693
  496MPD2    C4 7374   3.615   0.148  16.098 -0.2399 -0.0526  0.5982
  496MPD2    C5 7375   3.734   0.114  16.038 -0.1681  0.2742 -0.0482
  496MPD2     H 7376   3.415   4.701  15.895 -1.1044  1.3421 -0.5589
  496MPD2    H1 7377   3.610   0.216  16.183  2.0617  1.6599 -0.6507
  496MPD2    H2 7378   3.848   0.002  15.906  0.4738  2.2511 -0.3666
  496MPD2    H3 7379   3.822   0.155  16.087  0.7057 -1.1940 -0.4155
  496MPD2     N 7380   3.371   0.140  16.093 -0.4363  0.0758  0.1686
  496MPD2    H5 7381   3.370   0.191  16.180  1.1478 -0.4263  0.4916
  496MPD2    N1 7382   3.636   4.609  15.768 -0.1827 -0.2751  0.6350
  496MPD2    H7 7383   3.549   4.557  15.766  0.4199 -1.2159 -0.6993
  497TMC3    C1 7384   3.146   0.165  16.122  1.2407 -0.2909  0.5179
  497TMC3    C2 7385   3.020   0.179  16.058  0.8100  0.7777 -0.0760
  497TMC3    C3 7386   2.907   0.131  16.120  0.2233  0.4578  0.2198
  497TMC3    C4 7387   3.158   0.147  16.257  0.5120  0.2875 -0.7762
  497TMC3    C5 7388   3.034   0.125  16.318 -0.1669  0.1543  0.2556
  497TMC3    C6 7389   2.912   0.107  16.256  0.1983 -0.3530 -0.4624
  497TMC3     C 7390   3.252   0.125  16.031 -0.0898  0.6544 -1.2470
  497TMC3     O 7391   3.237   0.098  15.916 -0.0878  0.0593 -0.1847
  497TMC3     H 7392   3.026   0.212  15.955 -2.0834  1.3872 -0.0393
  497TMC3    H1 7393   3.247   0.118  16.311 -0.0444 -1.7082 -0.8963
  497TMC3    H2 7394   2.828   0.067  16.312 -0.2596  1.5063  0.1929
  497TMC3    C7 7395   3.027   0.146  16.463  0.1397  0.0047  0.3379
  497TMC3    C8 7396   2.806   0.062  16.038  0.3264 -0.6133 -0.1806
  497TMC3    O1 7397   2.910   0.132  16.503  0.5352 -0.0929  0.0117
  497TMC3    O2 7398   2.698   0.030  16.091 -0.3989  0.5176 -0.0214
  498MPD2     C 7399   2.908   0.334   9.551 -0.5449 -0.1969  0.3170
  498MPD2    C1 7400   2.993   0.253   9.627  0.6937  0.0378 -0.7253
  498MPD2    C2 7401   2.938   0.155   9.702 -0.1220 -0.5571  0.2285
  498MPD2    C3 7402   2.800   0.143   9.716 -0.3849  0.0056  0.3131
  498MPD2    C4 7403   2.722   0.233   9.656  0.0431  0.1653 -0.6376
  498MPD2    C5 7404   2.772   0.330   9.576  0.3716  0.3168 -0.0747
  498MPD2     H 7405   3.005   0.111   9.776 -0.0360  0.6708  0.8754
  498MPD2    H1 7406   2.614   0.225   9.650  0.2143 -1.4093 -1.5325
  498MPD2    H2 7407   2.941   0.421   9.496 -0.3682  0.1754  0.9997
  498MPD2    H3 7408   2.709   0.393   9.514 -0.5368  0.1309  0.6516
  498MPD2     N 7409   2.752   0.036   9.795  0.1427 -0.3401  0.6700
  498MPD2    H5 7410   2.830   4.700   9.816 -0.7564 -1.4851  0.5705
  498MPD2    N1 7411   3.130   0.262   9.630  0.0159  0.2104 -0.0515
  498MPD2    H7 7412   3.182   0.181   9.662  0.4032  1.0124  1.3234
  499TMC3    C1 7413   3.340   0.358   9.618  0.2853  0.0970  0.3122
  499TMC3    C2 7414   3.394   0.255   9.695 -0.7254  0.0727  0.0970
  499TMC3    C3 7415   3.528   0.237   9.697  0.0908  1.1290  0.4007
  499TMC3    C4 7416   3.427   0.440   9.548  0.2626 -0.5134  0.2251
  499TMC3    C5 7417   3.557   0.418   9.555 -0.8396 -0.1483 -0.2802
  499TMC3    C6 7418   3.614   0.319   9.626  1.1126 -0.4496  0.0197
  499TMC3     C 7419   3.199   0.373   9.587  0.6833 -0.5500  0.5596
  499TMC3     O 7420   3.154   0.480   9.547 -0.0107  0.0292 -0.6143
  499TMC3     H 7421   3.326   0.205   9.763  1.3519 -1.7092  0.8934
  499TMC3    H1 7422   3.378   0.513   9.484  2.6848  1.1564  0.3071
  499TMC3    H2 7423   3.723   0.313   9.628  1.0255 -2.2664 -0.2501
  499TMC3    C7 7424   3.652   0.505   9.490 -1.0153 -0.3674 -0.7922
  499TMC3    C8 7425   3.591   0.140   9.782  0.0805 -0.9043  0.0999
  499TMC3    O1 7426   3.760   0.460   9.452  0.6827 -0.5634  0.0779
  499TMC3    O2 7427   3.714   0.136   9.775  0.5726  0.4322  0.2408
  500MPD2     C 7428   0.893   1.484  10.309 -0.5160 -0.4181 -0.2282
  500MPD2    C1 7429   0.948   1.469  10.183 -0.0112 -0.1431  0.1906
  500MPD2    C2 7430   0.864   1.426  10.080 -1.0767 -0.2423  0.3596
  500MPD2    C3 7431   0.728   1.404  10.106  0.4088  0.3001 -0.0271
  500MPD2    C4 7432   0.677   1.420  10.236  0.3449  0.9827 -0.2913
  500MPD2    C5 7433   0.759   1.463  10.335 -0.3919  0.5990  0.4695
  500MPD2     H 7434   0.910   1.421   9.981  0.6192 -0.3856  1.1481
  500MPD2    H1 7435   0.583   1.381  10.272  0.3785  0.4861 -0.7325
  500MPD2    H2 7436   0.952   1.536  10.383 -0.6470 -0.4763 -0.0830
  500MPD2    H3 7437   0.716   1.492  10.430  0.8747 -0.0221  1.2214
  500MPD2     N 7438   0.634   1.364  10.005 -0.3968  0.0086  0.0980
  500MPD2    H5 7439   0.544   1.340  10.044  0.0715 -0.1901  1.0571
  500MPD2    N1 7440   1.080   1.523  10.150  0.3639 -0.0980 -0.3197
  500MPD2    H7 7441   1.098   1.542  10.052 -2.4949 -0.2865 -0.8863
  501TMC3    C1 7442   1.258   1.655  10.210 -0.0173  0.3611  0.5969
  501TMC3    C2 7443   1.201   1.772  10.155 -0.0279  0.5184 -0.3762
  501TMC3    C3 7444   1.274   1.887  10.168  0.3890 -0.1401 -0.4666
  501TMC3    C4 7445   1.373   1.659  10.277 -0.2133  0.6076 -0.4238
  501TMC3    C5 7446   1.449   1.774  10.275  0.6460  0.1789 -0.5300
  501TMC3    C6 7447   1.398   1.888  10.219 -0.6798 -0.4276  0.3447
  501TMC3     C 7448   1.172   1.549  10.244 -0.2796 -0.7479  0.7181
  501TMC3     O 7449   1.175   1.483  10.346  0.5342 -1.0278  0.2687
  501TMC3     H 7450   1.096   1.773  10.130 -0.2482 -0.0330  0.5028
  501TMC3    H1 7451   1.392   1.572  10.338 -3.4311 -1.1489 -1.9070
  501TMC3    H2 7452   1.461   1.975  10.206 -0.0857 -1.1503 -1.5865
  501TMC3    C7 7453   1.550   1.781  10.382  0.5012 -0.2614 -0.0811
  501TMC3    C8 7454   1.202   2.003  10.224  0.2717  0.5624 -0.4246
  501TMC3    O1 7455   1.580   1.675  10.440 -0.9925 -0.2010 -0.1288
  501TMC3    O2 7456   1.266   2.064  10.313  0.2528 -0.2880  0.3144
  502TMC3    C1 7457   0.621   0.480  15.530  0.3452 -0.1579  0.1765
  502TMC3    C2 7458   0.681   0.566  15.444 -0.0015  0.7033  0.0433
  502TMC3    C3 7459   0.628   0.574  15.314  0.3331  0.1557  0.5722
  502TMC3    C4 7460   0.517   0.400  15.481  0.2994  0.3566 -0.1970
  502TMC3    C5 7461   0.464   0.421  15.352  0.3187 -0.8581 -0.2878
  502TMC3    C6 7462   0.518   0.507  15.265 -0.3669 -0.1826 -0.0910
  502TMC3     C 7463   0.641   0.494  15.675  0.0516 -0.0200 -0.5488
  502TMC3     O 7464   0.747   0.535  15.715  0.1046  0.1108 -0.0835
  502TMC3     H 7465   0.763   0.632  15.472 -0.9389  0.8768  2.3768
  502TMC3    H1 7466   0.482   0.325  15.552 -0.4970  1.6775  0.8135
  502TMC3    H2 7467   0.484   0.518  15.162  0.6367 -0.2807 -0.4416
  502TMC3    C7 7468   0.348   0.344  15.328  0.2950 -0.1734 -0.0080
  502TMC3    C8 7469   0.684   0.674  15.220 -0.7929 -0.3931 -0.3066
  502TMC3    O1 7470   0.337   0.234  15.375  0.2203 -0.4790  0.0490
  502TMC3    O2 7471   0.615   0.705  15.124  0.0401  0.4042  0.2969
  503MPD2     C 7472   2.246   1.522  16.785  0.4688 -0.5362 -0.2533
  503MPD2    C1 7473   2.290   1.571  16.905 -0.7798  0.4674 -0.1348
  503MPD2    C2 7474   2.385   1.507  16.972 -0.7162 -0.6319  0.1553
  503MPD2    C3 7475   2.445   1.392  16.921  0.6171 -0.4308 -0.3796
  503MPD2    C4 7476   2.405   1.347  16.791  0.6088  0.5213 -0.3773
  503MPD2    C5 7477   2.310   1.413  16.724  0.8927 -0.2399  0.2135
  503MPD2     H 7478   2.427   1.547  17.064  0.9060 -1.2433 -0.3115
  503MPD2    H1 7479   2.445   1.263  16.735  0.0248  0.7403 -1.1346
  503MPD2    H2 7480   2.170   1.574  16.727  0.1105 -0.0040  0.6969
  503MPD2    H3 7481   2.286   1.382  16.623  0.0323 -0.1528  0.3925
  503MPD2     N 7482   2.547   1.324  16.990 -0.3639 -0.5063 -0.7408
  503MPD2    H5 7483   2.566   1.357  17.084  0.1189 -1.3677 -0.5368
  503MPD2    N1 7484   2.238   1.689  16.966 -0.3229  0.1373 -0.0381
  503MPD2    H7 7485   2.261   1.704  17.063  2.2130 -3.0522 -0.1562
  504TMC3    C1 7486   2.723   1.199  17.041 -0.2757 -0.0418 -0.8667
  504TMC3    C2 7487   2.666   1.171  17.163  0.4664  0.5616 -0.4715
  504TMC3    C3 7488   2.758   1.138  17.271  0.4119 -0.4384  0.7520
  504TMC3    C4 7489   2.847   1.175  17.012 -1.1209  0.6971 -0.4258
  504TMC3    C5 7490   2.937   1.136  17.106  0.1448  0.3397  0.4863
  504TMC3    C6 7491   2.892   1.120  17.240 -0.3170 -0.4057  0.4567
  504TMC3     C 7492   2.633   1.233  16.933  0.4179 -0.4339 -0.3016
  504TMC3     O 7493   2.652   1.204  16.816  0.3477  0.1431  0.3440
  504TMC3     H 7494   2.558   1.177  17.177  0.1703  0.3526 -2.6689
  504TMC3    H1 7495   2.878   1.177  16.908  0.8740 -1.8734  0.0962
  504TMC3    H2 7496   2.950   1.105  17.330 -0.0849  0.0857  0.3915
  504TMC3    C7 7497   3.048   1.052  17.062 -0.0908  0.0474  0.8048
  504TMC3    C8 7498   2.702   1.077  17.386  0.2178 -0.5514  1.1591
  504TMC3    O1 7499   3.086   1.080  16.950 -0.4178 -0.1216  0.3298
  504TMC3    O2 7500   2.773   1.073  17.485 -0.1361  0.3352 -0.4508
  505MPD2     C 7501   2.383   4.203  11.225 -0.4041  0.7433 -0.4654
  505MPD2    C1 7502   2.496   4.164  11.160  0.7976 -0.2178  0.3727
  505MPD2    C2 7503   2.603   4.252  11.146 -0.2195 -0.4757  0.0894
  505MPD2    C3 7504   2.597   4.384  11.196 -0.3892  0.4484  0.2010
  505MPD2    C4 7505   2.485   4.425  11.263  0.2789  0.0072 -0.2675
  505MPD2    C5 7506   2.389   4.331  11.285  0.2478 -0.4771 -0.0550
  505MPD2     H 7507   2.689   4.222  11.087 -0.3944 -1.7514  0.4806
  505MPD2    H1 7508   2.474   4.529  11.292  0.5147 -0.3956  1.2685
  505MPD2    H2 7509   2.292   4.145  11.235  0.3734 -0.3061  0.4546
  505MPD2    H3 7510   2.308   4.350  11.355  0.9593  0.4825  0.5038
  505MPD2     N 7511   2.700   4.471  11.163  0.2990 -0.2468  0.5827
  505MPD2    H5 7512   2.686   4.570  11.180 -0.9239 -0.2230 -0.5309
  505MPD2    N1 7513   2.493   4.035  11.108 -0.1801  0.3970 -0.4417
  505MPD2    H7 7514   2.404   3.986  11.112 -0.1071  0.3564  0.9525
  506TMC3    C1 7515   2.566   3.859  10.982 -0.1852 -0.4741  0.0876
  506TMC3    C2 7516   2.462   3.891  10.890 -0.6074  0.3271  0.4715
  506TMC3    C3 7517   2.490   3.887  10.762  0.0610  0.0208  0.4375
  506TMC3    C4 7518   2.683   3.804  10.931  0.3888 -0.0966 -0.3376
  506TMC3    C5 7519   2.704   3.794  10.797  0.5471  0.9204 -0.2424
  506TMC3    C6 7520   2.602   3.837  10.710 -0.0021  0.6850 -0.4673
  506TMC3     C 7521   2.598   3.983  11.045  0.0081 -1.0420  0.2020
  506TMC3     O 7522   2.718   3.996  11.052 -0.3045  0.5479  0.0756
  506TMC3     H 7523   2.371   3.942  10.920 -0.5000 -0.7948  2.7019
  506TMC3    H1 7524   2.748   3.760  11.007 -0.2536 -0.7547 -0.1740
  506TMC3    H2 7525   2.616   3.830  10.603 -1.8987 -0.4011 -0.6476
  506TMC3    C7 7526   2.832   3.833  10.752 -0.3341  0.3049 -0.8518
  506TMC3    C8 7527   2.381   3.912  10.668  0.3872  0.5118  0.0878
  506TMC3    O1 7528   2.860   3.816  10.632  0.1024 -0.1643 -0.2614
  506TMC3    O2 7529   2.263   3.878  10.691 -0.4127 -0.0674  0.4622
  507TMC3    C1 7530   3.930   1.025  14.653  0.1350 -0.2748  0.3163
  507TMC3    C2 7531   3.895   0.897  14.633 -0.4302  0.3790  0.3790
  507TMC3    C3 7532   3.879   0.855  14.503 -0.2209  0.2606  0.2129
  507TMC3    C4 7533   3.959   1.113  14.546 -0.1769  0.7053  0.3556
  507TMC3    C5 7534   3.946   1.069  14.416 -0.1006 -0.3391  0.3720
  507TMC3    C6 7535   3.906   0.937  14.394  0.2926 -0.4990 -0.7520
  507TMC3     C 7536   3.942   1.085  14.781  0.4524 -0.2432  0.1072
  507TMC3     O 7537   4.022   1.181  14.788  0.5805 -0.3573  0.1030
  507TMC3     H 7538   3.879   0.830  14.716  1.8887 -1.2719 -0.5212
  507TMC3    H1 7539   3.991   1.216  14.559  0.4654  0.5493  0.0212
  507TMC3    H2 7540   3.894   0.894  14.295 -0.2066 -0.5826 -0.6569
  507TMC3    C7 7541   3.872   1.156  14.321  0.3363  0.0252 -0.1271
  507TMC3    C8 7542   3.743   0.806  14.497 -0.2898 -1.3119 -0.4653
  507TMC3    O1 7543   3.792   1.098  14.248  0.4435 -0.3147 -0.5170
  507TMC3    O2 7544   3.709   0.734  14.586 -0.9342  0.3976 -0.1735
  508MPD2     C 7545   4.242   3.402  15.939 -0.0422  0.0038 -0.0229
  508MPD2    C1 7546   4.372   3.374  15.935 -0.3570  0.5649  0.2828
  508MPD2    C2 7547   4.425   3.352  15.812 -0.3687  0.1018 -0.2732
  508MPD2    C3 7548   4.354   3.343  15.697  0.1563 -0.3059  0.2319
  508MPD2    C4 7549   4.220   3.357  15.711  0.4433 -0.0799  0.0312
  508MPD2    C5 7550   4.165   3.386  15.830  0.0698  0.6356  0.1223
  508MPD2     H 7551   4.531   3.330  15.802 -0.1652  0.8491  0.2174
  508MPD2    H1 7552   4.153   3.348  15.626 -0.9241 -0.5252  1.1523
  508MPD2    H2 7553   4.191   3.427  16.031 -2.5689 -1.8621 -0.9128
  508MPD2    H3 7554   4.062   3.413  15.851 -0.1269 -0.0019 -0.0311
  508MPD2     N 7555   4.417   3.331  15.572  0.4512 -0.1802 -0.4530
  508MPD2    H5 7556   4.518   3.329  15.579  0.2283  3.5784  3.2606
  508MPD2    N1 7557   4.446   3.368  16.054 -0.4353  0.3666  0.0560
  508MPD2    H7 7558   4.395   3.399  16.136  1.7889  1.0020  1.1994
  509TMC3    C1 7559   4.465   3.483  15.144 -0.2512 -0.3203 -0.3352
  509TMC3    C2 7560   4.595   3.514  15.160  0.0214 -0.1572 -0.3189
  509TMC3    C3 7561   4.653   3.440  15.262 -0.4012 -0.4250  0.1643
  509TMC3    C4 7562   4.391   3.398  15.220  0.5157  0.7950 -0.1970
  509TMC3    C5 7563   4.448   3.338  15.331 -0.0790  0.1836  0.7701
  509TMC3    C6 7564   4.584   3.360  15.351  0.4805 -0.6755 -0.1551
  509TMC3     C 7565   4.373   3.558  15.050  0.1179  0.4018 -1.0971
  509TMC3     O 7566   4.251   3.545  15.061  0.0295  0.5927 -0.2394
  509TMC3     H 7567   4.655   3.565  15.086 -2.1271  1.1231 -1.1560
  509TMC3    H1 7568   4.286   3.384  15.199  1.1480 -2.4022 -1.1667
  509TMC3    H2 7569   4.639   3.317  15.434 -1.7424 -1.2826  0.9727
  509TMC3    C7 7570   4.358   3.321  15.442 -0.1648 -0.1076 -0.3825
  509TMC3    C8 7571   0.056   3.483  15.310  0.1954 -0.3140  0.0525
  509TMC3    O1 7572   4.240   3.309  15.407 -0.0303 -1.2037 -0.2149
  509TMC3    O2 7573   0.118   3.397  15.370  0.5537  0.5113  0.5059
  510MPD2     C 7574   2.978   0.473  14.712  0.3790 -0.1105 -0.5484
  510MPD2    C1 7575   3.019   0.350  14.759  0.6044  0.7088 -0.2317
  510MPD2    C2 7576   3.124   0.294  14.692 -0.8173 -1.0850 -0.4915
  510MPD2    C3 7577   3.178   0.349  14.576  0.2866  0.0340  0.5653
  510MPD2    C4 7578   3.143   0.472  14.536  0.1067  0.4863 -1.0910
  510MPD2    C5 7579   3.043   0.527  14.600  0.1017  0.1003 -0.0698
  510MPD2     H 7580   3.161   0.197  14.723  0.2959  0.4612  2.8874
  510MPD2    H1 7581   3.176   0.519  14.444 -0.9245  1.0138 -1.2045
  510MPD2    H2 7582   2.903   0.536  14.758  0.5350  0.4201 -1.0148
  510MPD2    H3 7583   3.013   0.624  14.562  0.9141  0.5124  0.3258
  510MPD2     N 7584   3.265   0.267  14.506 -0.2186  0.4068  0.4813
  510MPD2    H5 7585   3.275   0.174  14.546  1.6356  0.0828 -0.7521
  510MPD2    N1 7586   2.951   0.282  14.864  0.5636 -0.0739  0.3236
  510MPD2    H7 7587   2.979   0.184  14.864  3.2306  0.6871 -1.1400
  511TMC3    C1 7588   2.780   0.227  15.004 -0.6431 -0.2198 -0.2117
  511TMC3    C2 7589   2.700   0.251  15.114 -0.7364  0.4431  0.5327
  511TMC3    C3 7590   2.617   0.160  15.158  0.7241  0.4742  0.3192
  511TMC3    C4 7591   2.769   0.113  14.932  0.0721  0.6884 -0.2203
  511TMC3    C5 7592   2.672   0.024  14.979 -0.0190  0.8718 -0.3562
  511TMC3    C6 7593   2.597   0.044  15.092  0.2785  0.0831 -0.4536
  511TMC3     C 7594   2.856   0.333  14.951  0.1515  0.1006 -0.0148
  511TMC3     O 7595   2.830   0.450  14.980 -0.6003  0.2384  0.4979
  511TMC3     H 7596   2.716   0.342  15.171 -0.1082  1.6669 -1.5994
  511TMC3    H1 7597   2.828   0.082  14.847 -0.8495 -1.3384 -0.1256
  511TMC3    H2 7598   2.524   4.697  15.125  2.3756 -1.9796 -0.3440
  511TMC3    C7 7599   2.608   4.662  14.880  0.2078 -0.4366 -1.0012
  511TMC3    C8 7600   2.544   0.184  15.279 -0.5719 -0.7495  0.5069
  511TMC3    O1 7601   2.627   4.685  14.759  0.0837  0.5988  0.1658
  511TMC3    O2 7602   2.517   0.302  15.309 -1.1742  0.6051  0.4269
  512TMC3    C1 7603   1.178   4.428  13.401 -0.7321 -0.0200 -0.0526
  512TMC3    C2 7604   1.257   4.384  13.500  0.4395  0.0483  0.0058
  512TMC3    C3 7605   1.350   4.284  13.471  0.6486  0.7518 -0.3934
  512TMC3    C4 7606   1.184   4.363  13.276 -0.3322  0.3515  0.7254
  512TMC3    C5 7607   1.273   4.267  13.258  0.7572  0.3031 -0.4637
  512TMC3    C6 7608   1.365   4.221  13.350 -0.5842  1.1240 -0.7485
  512TMC3     C 7609   1.054   4.488  13.445 -0.3980 -0.3347  0.0927
  512TMC3     O 7610   1.023   4.477  13.561  0.1228 -0.1538 -0.3121
  512TMC3     H 7611   1.252   4.431  13.598  0.3317 -1.1586  0.5819
  512TMC3    H1 7612   1.106   4.378  13.202 -0.6335 -1.4400  0.6788
  512TMC3    H2 7613   1.444   4.150  13.330 -0.0453  1.4629  0.2174
  512TMC3    C7 7614   1.236   4.186  13.136 -0.3839 -0.1272 -0.5268
  512TMC3    C8 7615   1.457   4.259  13.567  0.0386  0.0345 -0.4678
  512TMC3    O1 7616   1.139   4.227  13.071 -0.4640 -0.0384  0.1819
  512TMC3    O2 7617   1.504   4.145  13.572  0.3926 -0.0339  0.2920
  513MPD2     C 7618   2.996   4.112  13.725 -0.8846  0.6331  0.2474
  513MPD2    C1 7619   2.955   4.051  13.609  0.5017 -0.4053 -0.9257
  513MPD2    C2 7620   3.049   4.020  13.511  0.0460 -0.3460 -0.0619
  513MPD2    C3 7621   3.183   4.064  13.527 -0.2537 -0.1751 -0.5960
  513MPD2    C4 7622   3.216   4.135  13.640  0.4382 -0.0786  0.4222
  513MPD2    C5 7623   3.126   4.157  13.736  0.3526  0.2680  0.7181
  513MPD2     H 7624   3.025   3.958  13.425 -2.0367  2.4731 -1.5090
  513MPD2    H1 7625   3.319   4.162  13.660 -0.0113  0.7688  1.6299
  513MPD2    H2 7626   2.930   4.118  13.810  1.5774  2.2341  2.0293
  513MPD2    H3 7627   3.157   4.202  13.829  0.3511 -0.6830  1.1753
  513MPD2     N 7628   3.272   4.039  13.416  0.4649  0.1394  0.3400
  513MPD2    H5 7629   3.229   3.993  13.337  1.0991 -0.9850  0.6577
  513MPD2    N1 7630   2.823   4.007  13.618  0.0837  0.8061  0.2743
  513MPD2    H7 7631   2.772   4.029  13.703  0.0927 -0.9715  0.7440
  514TMC3    C1 7632   2.646   3.875  13.547  0.2987  0.2379 -0.3540
  514TMC3    C2 7633   2.540   3.912  13.474  0.1167  0.6449  0.5798
  514TMC3    C3 7634   2.472   3.817  13.409  0.5389  0.0551 -0.2855
  514TMC3    C4 7635   2.674   3.739  13.557  0.7199 -0.4941  0.5095
  514TMC3    C5 7636   2.601   3.647  13.492  0.1346  0.3876 -0.5644
  514TMC3    C6 7637   2.498   3.682  13.414 -0.2852  0.1760  0.0632
  514TMC3     C 7638   2.757   3.949  13.516 -0.1570  0.1429  0.1605
  514TMC3     O 7639   2.800   3.938  13.400  0.0253 -0.4326  0.5494
  514TMC3     H 7640   2.534   4.017  13.445 -0.6152  0.5713  0.4530
  514TMC3    H1 7641   2.768   3.710  13.603 -0.0701 -0.8418  1.9077
  514TMC3    H2 7642   2.455   3.609  13.346  0.6737 -1.1119  0.8259
  514TMC3    C7 7643   2.682   3.560  13.417  0.5399  0.1830  0.2914
  514TMC3    C8 7644   2.406   3.847  13.281 -0.3296 -0.1255  0.0354
  514TMC3    O1 7645   2.655   3.439  13.420  0.0079  0.3207  0.0025
  514TMC3    O2 7646   2.294   3.797  13.283 -0.6797  0.1686 -0.1045
  515MPD2     C 7647   1.476   1.303  15.143 -0.9847 -0.6409 -0.2832
  515MPD2    C1 7648   1.413   1.361  15.032  0.1025  0.2227 -0.1378
  515MPD2    C2 7649   1.351   1.488  15.039  0.0982  1.0538  0.9520
  515MPD2    C3 7650   1.363   1.555  15.163  0.0438  0.8471  0.7605
  515MPD2    C4 7651   1.413   1.486  15.275 -0.3004  0.2102 -0.0634
  515MPD2    C5 7652   1.463   1.359  15.267 -0.4506 -0.8611  0.1875
  515MPD2     H 7653   1.299   1.525  14.952  0.2243 -0.0209  0.4251
  515MPD2    H1 7654   1.401   1.531  15.373 -0.6510 -0.9520  0.4295
  515MPD2    H2 7655   1.529   1.208  15.141  1.5304  0.7967 -2.1459
  515MPD2    H3 7656   1.501   1.317  15.360 -0.4196 -1.3556 -0.0517
  515MPD2     N 7657   1.314   1.690  15.183  0.1280 -0.2426 -0.7646
  515MPD2    H5 7658   1.325   1.726  15.277  0.8035  0.2978 -1.0523
  515MPD2    N1 7659   1.391   1.294  14.906  0.4016  0.1009  0.1037
  515MPD2    H7 7660   1.328   1.340  14.842  1.5825  1.3267 -0.1826
  516TMC3    C1 7661   1.384   1.100  14.770 -0.4926 -0.1941 -0.5642
  516TMC3    C2 7662   1.282   1.162  14.710  0.2652  0.1129 -0.4899
  516TMC3    C3 7663   1.167   1.094  14.677 -0.8445 -0.2710  0.7592
  516TMC3    C4 7664   1.378   0.973  14.801 -0.8545  0.5333  0.1670
  516TMC3    C5 7665   1.259   0.905  14.781 -0.7916  0.1978  0.4277
  516TMC3    C6 7666   1.148   0.969  14.729  0.5727  0.0219 -0.4448
  516TMC3     C 7667   1.448   1.172  14.879 -0.3693  0.2133  0.2056
  516TMC3     O 7668   1.546   1.124  14.935  0.0566  0.1100  0.4076
  516TMC3     H 7669   1.303   1.258  14.665  1.4638 -0.3697 -0.9490
  516TMC3    H1 7670   1.456   0.929  14.862 -0.7868 -0.2417 -0.4739
  516TMC3    H2 7671   1.052   0.919  14.718  0.8876 -0.1907 -2.3368
  516TMC3    C7 7672   1.245   0.786  14.866 -0.4208  0.4867  0.1494
  516TMC3    C8 7673   1.057   1.168  14.619  0.3880  0.1175  0.4829
  516TMC3    O1 7674   1.311   0.773  14.969  0.0775 -0.0284  0.2401
  516TMC3    O2 7675   0.958   1.099  14.586  0.3690 -0.2279  0.0061
  517MPD2     C 7676   0.225   2.774  17.465  0.2364 -0.5090  0.6455
  517MPD2    C1 7677   0.362   2.794  17.465 -0.3668 -0.1173  1.1130
  517MPD2    C2 7678   0.416   2.908  17.501  0.4094 -0.7116 -0.7548
  517MPD2    C3 7679   0.330   3.010  17.545  0.3395 -0.3902 -0.5347
  517MPD2    C4 7680   0.193   2.983  17.562  0.2543  0.5722  0.5643
  517MPD2    C5 7681   0.139   2.869  17.511 -0.1068 -0.0161 -0.1652
  517MPD2     H 7682   0.522   2.926  17.489  0.3994 -0.1014  0.0921
  517MPD2    H1 7683   0.119   3.051  17.603 -1.0191 -0.4351 -0.0672
  517MPD2    H2 7684   0.185   2.683  17.422 -2.3629  0.6210  0.7102
  517MPD2    H3 7685   0.033   2.849  17.506 -0.2484  0.9905 -1.0964
  517MPD2     N 7686   0.387   3.132  17.582  0.6178  0.3816 -0.0064
  517MPD2    H5 7687   0.332   3.210  17.617  1.0026  0.5973  0.1203
  517MPD2    N1 7688   0.449   2.694  17.426  0.3159  0.1823 -0.2049
  517MPD2    H7 7689   0.549   2.713  17.426  0.1442  1.0286  1.5910
  518TMC3    C1 7690   0.550   2.488  17.368  0.1433 -0.1889  0.2507
  518TMC3    C2 7691   0.546   2.355  17.364 -0.2771 -0.2363 -0.7819
  518TMC3    C3 7692   0.660   2.291  17.327  0.4445  0.4352  0.4390
  518TMC3    C4 7693   0.673   2.553  17.351  0.5450 -0.0898  0.1348
  518TMC3    C5 7694   0.781   2.487  17.306  0.7713 -0.0173  0.4672
  518TMC3    C6 7695   0.782   2.349  17.309  0.2881 -0.2339  0.5015
  518TMC3     C 7696   0.429   2.561  17.409 -0.0060  0.1922  0.2019
  518TMC3     O 7697   0.321   2.501  17.415  0.7672  0.2628 -0.0776
  518TMC3     H 7698   0.457   2.299  17.392  0.3479 -0.4779  0.7231
  518TMC3    H1 7699   0.679   2.661  17.340 -1.6342  0.0829  0.5990
  518TMC3    H2 7700   0.874   2.294  17.292  1.5560  1.7837  0.8445
  518TMC3    C7 7701   0.904   2.555  17.327 -0.1152  0.6727 -0.1973
  518TMC3    C8 7702   0.679   2.145  17.358  0.2805  0.1185  0.7514
  518TMC3    O1 7703   0.912   2.661  17.387  0.3396 -0.5030  0.1905
  518TMC3    O2 7704   0.768   2.090  17.302  0.3773  0.3708  0.0749
  519MPD2     C 7705   2.920   1.503  13.625 -0.8580  0.2916 -0.1333
  519MPD2    C1 7706   2.852   1.465  13.738  0.4760 -0.4157 -0.0712
  519MPD2    C2 7707   2.875   1.332  13.787 -0.4094 -0.6272  0.0976
  519MPD2    C3 7708   2.966   1.247  13.732  0.5491 -0.6047  1.3137
  519MPD2    C4 7709   3.029   1.286  13.617 -0.4985  0.9307  0.1147
  519MPD2    C5 7710   3.003   1.414  13.564  0.6392  0.9166 -0.1667
  519MPD2     H 7711   2.826   1.299  13.877  0.6305 -1.4571  0.3543
  519MPD2    H1 7712   3.103   1.223  13.570 -1.5546 -1.6378  1.8967
  519MPD2    H2 7713   2.927   1.607  13.595  1.9807 -0.0445 -0.6326
  519MPD2    H3 7714   3.063   1.458  13.485 -0.1362  1.6846 -0.3232
  519MPD2     N 7715   3.009   1.125  13.788 -0.4980 -0.4432  0.5498
  519MPD2    H5 7716   3.091   1.088  13.741 -2.0097 -2.0743 -0.8003
  519MPD2    N1 7717   2.762   1.555  13.797 -0.8204 -0.3192 -0.3445
  519MPD2    H7 7718   2.762   1.650  13.763  0.4492  0.3321  1.4810
  520TMC3    C1 7719   3.001   0.931  13.930 -0.5514 -0.1311  0.5131
  520TMC3    C2 7720   2.901   0.845  13.976  0.3454  0.0784 -0.4827
  520TMC3    C3 7721   2.939   0.736  14.050  0.2024  0.0546 -0.3332
  520TMC3    C4 7722   3.135   0.903  13.957 -0.1446 -0.0154  0.2641
  520TMC3    C5 7723   3.167   0.789  14.034  0.1410 -0.7041  0.9157
  520TMC3    C6 7724   3.068   0.707  14.085  0.3610  1.0132  0.3469
  520TMC3     C 7725   2.948   1.061  13.889  0.3464  0.6640 -0.1884
  520TMC3     O 7726   2.843   1.083  13.947  0.1570  0.1920  0.3258
  520TMC3     H 7727   2.799   0.874  13.954 -0.4319 -1.7361  0.7611
  520TMC3    H1 7728   3.214   0.973  13.937 -0.4037 -0.0156 -0.7352
  520TMC3    H2 7729   3.085   0.613  14.137 -2.0253 -0.7957 -2.1186
  520TMC3    C7 7730   3.305   0.742  14.047  1.1999 -0.0428 -0.3732
  520TMC3    C8 7731   2.833   0.666  14.120 -0.7837  0.0697 -0.4301
  520TMC3    O1 7732   3.325   0.641  14.112  0.6604  0.0187  0.1971
  520TMC3    O2 7733   2.846   0.599  14.227  0.1097 -0.0265  0.2204
  521MPD2     C 7734   3.561   4.340  17.490 -0.2697 -0.3218 -0.2695
  521MPD2    C1 7735   3.516   4.219  17.451 -0.5115  0.1277 -0.6545
  521MPD2    C2 7736   3.590   4.139  17.365  0.2537  0.8090 -0.7088
  521MPD2    C3 7737   3.714   4.185  17.324  0.0495  0.1762  0.6560
  521MPD2    C4 7738   3.757   4.307  17.367 -0.8972  0.3168 -0.0416
  521MPD2    C5 7739   3.686   4.380  17.448 -0.3211  0.3077 -0.2527
  521MPD2     H 7740   3.562   4.044  17.322  0.0542  1.1795 -1.4008
  521MPD2    H1 7741   3.857   4.341  17.345 -0.6647 -1.5718 -1.9871
  521MPD2    H2 7742   3.502   4.406  17.552  2.2002  0.0114  1.6740
  521MPD2    H3 7743   3.734   4.474  17.471 -1.5365  1.0246 -0.6624
  521MPD2     N 7744   3.784   4.117  17.230 -0.1024 -0.3847  0.4426
  521MPD2    H5 7745   3.734   4.040  17.186  0.3157 -0.3585 -0.0737
  521MPD2    N1 7746   3.385   4.176  17.489 -0.9755 -0.1619 -0.2476
  521MPD2    H7 7747   3.334   4.216  17.567  1.3797  0.3189  1.0331
  522TMC3    C1 7748   3.969   4.070  17.074  0.8663  0.0767  0.0212
  522TMC3    C2 7749   4.102   4.063  17.055  0.9835 -0.5671  0.4455
  522TMC3    C3 7750   4.157   4.016  16.940 -0.0774  0.0854  0.3612
  522TMC3    C4 7751   3.879   4.038  16.978 -0.0975 -0.0577  0.0904
  522TMC3    C5 7752   3.935   3.981  16.865 -0.5243 -0.4845 -0.4094
  522TMC3    C6 7753   4.066   3.976  16.842 -0.0799 -0.4939  0.0188
  522TMC3     C 7754   3.922   4.139  17.194 -0.6405 -0.0662 -0.3753
  522TMC3     O 7755   4.006   4.192  17.268 -0.0443  0.7308 -0.0334
  522TMC3     H 7756   4.158   4.094  17.143  0.3152  2.4308 -0.2040
  522TMC3    H1 7757   3.773   4.059  16.981 -0.3043 -1.0397 -0.1291
  522TMC3    H2 7758   4.093   3.913  16.757  1.2249  1.8299 -1.2852
  522TMC3    C7 7759   3.853   3.971  16.746  0.4455  0.7301 -0.2401
  522TMC3    C8 7760   4.285   3.947  16.957  1.2258 -0.1030  0.2085
  522TMC3    O1 7761   3.890   3.900  16.653  0.3142 -0.2109  0.6010
  522TMC3    O2 7762   4.340   3.966  17.065 -0.4718  0.0542  0.0600
  523MPD2     C 7763   1.058   3.552  10.194  0.0141  0.2976 -0.2141
  523MPD2    C1 7764   0.962   3.459  10.151  0.5353 -1.2001 -0.3422
  523MPD2    C2 7765   0.853   3.509  10.076  0.0935  0.3718  0.6862
  523MPD2    C3 7766   0.832   3.644  10.044  0.4779 -0.2895  0.3835
  523MPD2    C4 7767   0.915   3.732  10.105 -0.1281  0.8828 -0.0055
  523MPD2    C5 7768   1.023   3.679  10.174  0.0738  0.2321 -0.4446
  523MPD2     H 7769   0.771   3.443  10.050  1.3680 -1.6515  1.7890
  523MPD2    H1 7770   0.896   3.837  10.126 -0.5102  1.2220 -2.0162
  523MPD2    H2 7771   1.137   3.528  10.264 -1.3761 -0.7908  0.9710
  523MPD2    H3 7772   1.087   3.751  10.223 -0.2179  0.2770 -0.1229
  523MPD2     N 7773   0.730   3.692   9.948 -1.2008  1.0334 -0.3221
  523MPD2    H5 7774   0.746   3.789   9.925  0.8538  0.6252 -0.6214
  523MPD2    N1 7775   0.986   3.325  10.182  0.0754  0.2713  0.4872
  523MPD2    H7 7776   1.066   3.300  10.239 -0.7676 -0.8522  1.2017
  524TMC3    C1 7777   0.563   3.684   9.789  0.7114 -0.4133 -0.2809
  524TMC3    C2 7778   0.522   3.605   9.689  0.1328  0.6475 -0.3563
  524TMC3    C3 7779   0.439   3.670   9.603 -0.5356  0.4457  0.9508
  524TMC3    C4 7780   0.530   3.809   9.814  0.6958  0.5306 -0.4951
  524TMC3    C5 7781   0.436   3.861   9.727 -0.2196 -0.1204 -0.4958
  524TMC3    C6 7782   0.389   3.793   9.626 -1.2809  0.4558  0.0073
  524TMC3     C 7783   0.648   3.610   9.883  1.0068  0.2487  0.1288
  524TMC3     O 7784   0.632   3.488   9.892  0.6968 -0.6015 -0.5041
  524TMC3     H 7785   0.525   3.497   9.698 -0.9398  0.6600  0.1826
  524TMC3    H1 7786   0.574   3.863   9.897 -1.4572  1.9658 -0.2892
  524TMC3    H2 7787   0.305   3.822   9.564 -2.0169  0.9736  1.2464
  524TMC3    C7 7788   0.371   3.981   9.778  0.3227 -0.5977  0.4001
  524TMC3    C8 7789   0.380   3.581   9.497 -0.3319 -0.1580  0.1613
  524TMC3    O1 7790   0.417   4.039   9.875  0.0408 -0.1709  0.2448
  524TMC3    O2 7791   0.269   3.619   9.457  0.0686  0.7084  0.0442
  525MPD2     C 7792   4.270   0.828  14.475 -0.7519 -0.1237 -0.5140
  525MPD2    C1 7793   4.334   0.860  14.598  0.8518 -0.0438  0.1892
  525MPD2    C2 7794   4.352   0.993  14.626 -0.1555  0.3617  0.3975
  525MPD2    C3 7795   4.301   1.087  14.543  0.2788  0.1756 -0.1751
  525MPD2    C4 7796   4.249   1.052  14.423 -0.2614  0.1022  0.3214
  525MPD2    C5 7797   4.233   0.926  14.385  0.3497  0.0697  0.1078
  525MPD2     H 7798   4.383   1.023  14.725 -0.3105  0.4866  0.4082
  525MPD2    H1 7799   4.227   1.129  14.350 -0.4405 -0.6494 -0.4234
  525MPD2    H2 7800   4.264   0.726  14.437 -0.8624  0.2658 -1.5628
  525MPD2    H3 7801   4.209   0.906  14.281  0.2493 -2.4222  0.6082
  525MPD2     N 7802   4.323   1.218  14.589 -0.0206 -0.3949 -0.0913
  525MPD2    H5 7803   4.374   1.229  14.676 -3.9122  2.1831  1.8567
  525MPD2    N1 7804   4.393   0.766  14.680  0.1468 -0.4001  0.5036
  525MPD2    H7 7805   4.456   0.791  14.755 -0.6013 -0.1336  1.0409
  526TMC3    C1 7806   4.417   0.556  14.789 -0.5593  0.5100 -0.1924
  526TMC3    C2 7807   4.358   0.439  14.825 -0.4399  1.0362 -0.3504
  526TMC3    C3 7808   4.431   0.346  14.886  0.0549  0.3361 -0.1222
  526TMC3    C4 7809   4.551   0.586  14.813  0.0600  0.0622 -0.4194
  526TMC3    C5 7810   4.627   0.483  14.861  0.3614 -0.0615 -0.0757
  526TMC3    C6 7811   4.567   0.364  14.903  0.1080 -0.1742 -0.0171
  526TMC3     C 7812   4.342   0.638  14.688  0.0783 -0.4106 -1.0845
  526TMC3     O 7813   4.234   0.595  14.645  0.4356  0.1105  0.4029
  526TMC3     H 7814   4.253   0.422  14.801 -0.8274  1.9713  0.7048
  526TMC3    H1 7815   4.602   0.671  14.771  0.9914  0.1567  0.9200
  526TMC3    H2 7816   4.623   0.280  14.941  0.4855 -0.4916 -1.2478
  526TMC3    C7 7817   0.043   0.499  14.850 -0.3384 -0.2030  0.1208
  526TMC3    C8 7818   4.378   0.219  14.927 -0.0700  0.3746  0.8180
  526TMC3    O1 7819   0.096   0.606  14.879  0.1843 -0.3188 -0.2282
  526TMC3    O2 7820   4.449   0.122  14.914 -0.7679 -1.1876 -0.1510
  527MPD2     C 7821   1.988   3.531   0.985 -0.3287  0.5874  0.2895
  527MPD2    C1 7822   2.012   3.455   1.099 -0.5322  0.4980  0.0179
  527MPD2    C2 7823   2.124   3.369   1.084 -0.1863  0.2692  0.4231
  527MPD2    C3 7824   2.204   3.360   0.974 -1.2131 -0.5708 -0.6771
  527MPD2    C4 7825   2.173   3.436   0.866  0.1894 -0.0123  0.1209
  527MPD2    C5 7826   2.071   3.527   0.877 -0.3549  0.4249 -0.5978
  527MPD2     H 7827   2.152   3.303   1.166  1.9184  0.2902 -0.2904
  527MPD2    H1 7828   2.236   3.442   0.779  1.9699 -1.9276  1.2673
  527MPD2    H2 7829   1.918   3.614   0.978 -1.7733 -0.5749  0.7163
  527MPD2    H3 7830   2.044   3.593   0.794  1.3810 -0.1970 -1.6661
  527MPD2     N 7831   2.308   3.267   0.970 -0.1434 -0.3102 -0.0664
  527MPD2    H5 7832   2.326   3.216   1.056  2.0182  2.6361  1.2498
  527MPD2    N1 7833   1.933   3.454   1.211 -0.0705  0.0305 -0.1645
  527MPD2    H7 7834   1.963   3.393   1.286  0.9032  0.6171 -0.0762
  528TMC3    C1 7835   1.746   3.486   1.351  0.2463 -0.4905 -0.1970
  528TMC3    C2 7836   1.784   3.381   1.430  0.4901  0.3575 -0.8371
  528TMC3    C3 7837   1.718   3.365   1.552 -0.1604  0.1523  0.1641
  528TMC3    C4 7838   1.646   3.577   1.385 -0.5860 -0.3313  0.0505
  528TMC3    C5 7839   1.572   3.547   1.500 -0.0091  0.6022  0.4287
  528TMC3    C6 7840   1.617   3.447   1.585 -0.2801 -0.1167  0.3665
  528TMC3     C 7841   1.805   3.511   1.217  0.1406  0.2450 -0.0752
  528TMC3     O 7842   1.746   3.590   1.145  0.3137  0.0722 -0.5694
  528TMC3     H 7843   1.858   3.304   1.410  1.4818  0.8894  0.8200
  528TMC3    H1 7844   1.603   3.643   1.310 -1.4390  0.0698  0.8880
  528TMC3    H2 7845   1.568   3.444   1.682  0.1721  0.9798  0.6248
  528TMC3    C7 7846   1.475   3.644   1.558 -0.5752 -0.1016 -0.2821
  528TMC3    C8 7847   1.754   3.258   1.650 -1.1084  0.3156  0.0412
  528TMC3    O1 7848   1.448   3.641   1.676  0.2850 -0.5387  0.0269
  528TMC3    O2 7849   1.869   3.215   1.634  0.3364 -0.6550  0.0362
  529MPD2     C 7850   4.496   1.261  17.690  0.4865 -0.3791  0.0138
  529MPD2    C1 7851   4.488   1.373   0.068  0.5226 -0.7709  0.2847
  529MPD2    C2 7852   4.479   1.493  17.701  0.8080  0.4098 -0.1989
  529MPD2    C3 7853   4.483   1.493  17.560  0.5764 -0.3980 -0.3002
  529MPD2    C4 7854   4.482   1.381  17.488  0.2330  0.5180 -0.0481
  529MPD2    C5 7855   4.490   1.266  17.557 -0.2943  0.1376 -0.5079
  529MPD2     H 7856   4.451   1.582   0.050  0.3084  0.0517  0.1263
  529MPD2    H1 7857   4.498   1.380  17.381  2.7656 -1.0735  0.3547
  529MPD2    H2 7858   4.504   1.158   0.017  1.7088 -0.3255 -0.1174
  529MPD2    H3 7859   4.495   1.174  17.501  0.9302 -1.1122  1.6797
  529MPD2     N 7860   4.468   1.617  17.492  0.2055  0.0694  0.0749
  529MPD2    H5 7861   4.448   1.607  17.393  1.4421 -1.5922  0.0127
  529MPD2    N1 7862   4.482   1.359   0.212  0.0344 -0.1285  0.6831
  529MPD2    H7 7863   4.474   1.447   0.263  0.4842  0.0937  0.3775
  530TMC3    C1 7864   4.470   1.243   0.414 -0.2665 -0.6577  0.6429
  530TMC3    C2 7865   4.390   1.345   0.464  0.0515 -0.4278  0.0617
  530TMC3    C3 7866   4.360   1.332   0.593 -0.3371  0.7768  0.0801
  530TMC3    C4 7867   4.514   1.140   0.484 -0.1989  0.0375  0.3965
  530TMC3    C5 7868   4.475   1.128   0.617 -1.0292  0.7055  0.2811
  530TMC3    C6 7869   4.387   1.218   0.670  0.4260  0.2442 -0.7504
  530TMC3     C 7870   4.521   1.246   0.276 -0.0715  0.7731 -0.1331
  530TMC3     O 7871   4.582   1.145   0.237  0.1455 -0.0285  0.1958
  530TMC3     H 7872   4.345   1.427   0.408 -0.4015 -0.7345 -0.0239
  530TMC3    H1 7873   4.576   1.063   0.440 -1.5395 -0.6188 -0.3501
  530TMC3    H2 7874   4.347   1.210   0.770  2.6518 -2.0511 -0.0467
  530TMC3    C7 7875   4.478   0.986   0.670  1.0066 -0.3247 -0.3091
  530TMC3    C8 7876   4.302   1.447   0.658 -0.2986 -0.2566  0.5100
  530TMC3    O1 7877   4.504   0.896   0.592  0.5647  0.3703 -0.3208
  530TMC3    O2 7878   4.221   1.500   0.587 -0.5406  0.3711  0.1121
  531MPD2     C 7879   3.094   3.472  13.098  0.1625 -0.6508 -0.0071
  531MPD2    C1 7880   3.094   3.608  13.144 -0.2965 -0.5862  0.0224
  531MPD2    C2 7881   2.984   3.650  13.222 -0.3110  0.4368  0.0494
  531MPD2    C3 7882   2.885   3.569  13.267  0.3276 -0.2329  0.3605
  531MPD2    C4 7883   2.892   3.435  13.226 -0.6514  0.1843  0.1374
  531MPD2    C5 7884   2.990   3.389  13.143  0.6922 -0.8944  0.0721
  531MPD2     H 7885   2.980   3.751  13.260  0.3497  0.3049  0.4544
  531MPD2    H1 7886   2.808   3.370  13.245 -0.0797 -0.8366 -0.8738
  531MPD2    H2 7887   3.159   3.422  13.028 -2.0266 -1.9940 -1.0409
  531MPD2    H3 7888   2.997   3.287  13.105  2.1663 -0.2769 -1.3350
  531MPD2     N 7889   2.785   3.623  13.344  0.0981 -0.1085 -0.1729
  531MPD2    H5 7890   2.804   3.718  13.372 -2.2811  0.6811 -1.2851
  531MPD2    N1 7891   3.208   3.692  13.122  0.4114  0.0561 -0.0908
  531MPD2    H7 7892   3.291   3.651  13.080  0.8135  3.0696 -2.2003
  532TMC3    C1 7893   3.347   3.884  13.147  0.3683  0.4246  0.2384
  532TMC3    C2 7894   3.350   4.015  13.197 -0.0959 -0.3738 -0.7068
  532TMC3    C3 7895   3.454   4.055  13.279  0.3072  0.4465  0.3667
  532TMC3    C4 7896   3.456   3.808  13.161 -0.8167  0.0649 -0.5088
  532TMC3    C5 7897   3.567   3.859  13.220  0.2993 -0.2126 -0.0917
  532TMC3    C6 7898   3.567   3.978  13.287  0.3103 -0.2243  0.1177
  532TMC3     C 7899   3.216   3.828  13.150  0.7566 -0.1211  0.2339
  532TMC3     O 7900   3.125   3.905  13.181  0.0527  0.2260 -0.4086
  532TMC3     H 7901   3.273   4.088  13.177  0.6081  0.0503 -1.8216
  532TMC3    H1 7902   3.473   3.731  13.086  1.5677  1.5271 -1.4431
  532TMC3    H2 7903   3.655   4.000  13.347  0.7838 -0.9620 -0.2988
  532TMC3    C7 7904   3.692   3.781  13.213  0.1348  0.7275  0.0464
  532TMC3    C8 7905   3.397   4.090  13.403 -0.3919  0.2365  0.4546
  532TMC3    O1 7906   3.799   3.837  13.204 -0.1712 -0.2220 -0.0785
  532TMC3    O2 7907   3.467   4.149  13.484  0.1828  0.0164 -0.7707
  533TMC3    C1 7908   4.330   1.437  14.616  0.3224  0.1245  0.6267
  533TMC3    C2 7909   4.465   1.435  14.616  0.0745  0.7538 -0.2969
  533TMC3    C3 7910   4.529   1.503  14.708  1.3267 -0.7668 -0.5125
  533TMC3    C4 7911   4.253   1.496  14.711 -0.0219  0.5905  0.0639
  533TMC3    C5 7912   4.325   1.553  14.814  0.0865 -0.3438  0.4802
  533TMC3    C6 7913   4.460   1.569  14.807 -0.6279 -0.1181 -0.0605
  533TMC3     C 7914   4.268   1.333  14.535 -0.2742  0.0547 -0.5391
  533TMC3     O 7915   4.181   1.353  14.454 -0.1021  0.1877 -0.4585
  533TMC3     H 7916   4.510   1.387  14.530  0.2991  0.1137  0.1686
  533TMC3    H1 7917   4.144   1.500  14.716 -0.0402 -1.0888  1.0073
  533TMC3    H2 7918   4.517   1.616  14.887  0.6347  0.5090 -1.3229
  533TMC3    C7 7919   4.265   1.511  14.946 -0.0693 -0.1237 -0.2555
  533TMC3    C8 7920   4.653   1.442  14.748 -0.2939 -0.3069  0.5415
  533TMC3    O1 7921   4.167   1.443  14.937  0.3782 -0.1020 -0.2762
  533TMC3    O2 7922   4.722   1.501  14.825  0.2277 -0.0265  0.5493
  534MPD2     C 7923   2.209   1.749   1.568 -0.4173 -0.1153  0.1173
  534MPD2    C1 7924   2.096   1.839   1.571  0.6472 -0.4812  0.1037
  534MPD2    C2 7925   1.989   1.815   1.496 -0.1929 -0.5888  0.2021
  534MPD2    C3 7926   1.986   1.708   1.406 -0.2638 -0.2588  0.2027
  534MPD2    C4 7927   2.100   1.631   1.389 -0.4248 -0.1769  0.2478
  534MPD2    C5 7928   2.207   1.651   1.475  0.1006 -1.1846 -0.2275
  534MPD2     H 7929   1.914   1.892   1.509 -0.0938 -0.4096 -0.2855
  534MPD2    H1 7930   2.092   1.542   1.328 -1.1920 -0.8143  1.2762
  534MPD2    H2 7931   2.291   1.771   1.636 -0.8223  2.2006 -0.1348
  534MPD2    H3 7932   2.289   1.580   1.478 -0.2161 -1.4992  0.8220
  534MPD2     N 7933   1.878   1.682   1.311  0.2443  0.3194  0.0391
  534MPD2    H5 7934   1.899   1.639   1.221 -0.5994  1.0884 -0.5289
  534MPD2    N1 7935   2.090   1.954   1.655  0.4771 -0.1240  0.0326
  534MPD2    H7 7936   2.002   2.000   1.635  0.4986  0.7616  1.9884
  535TMC3    C1 7937   1.686   1.768   1.182  0.0096 -0.3306  0.1427
  535TMC3    C2 7938   1.569   1.821   1.221 -0.3744  0.2396 -0.6366
  535TMC3    C3 7939   1.513   1.920   1.150  0.1987  0.4736 -0.3811
  535TMC3    C4 7940   1.753   1.816   1.072 -0.1613  0.5071  0.5121
  535TMC3    C5 7941   1.700   1.912   0.999  0.1161 -0.6218 -0.1234
  535TMC3    C6 7942   1.582   1.969   1.035  0.1378 -0.3637 -0.5392
  535TMC3     C 7943   1.763   1.754   1.310  0.8364 -0.5556  0.0573
  535TMC3     O 7944   1.709   1.786   1.415 -0.1668 -0.5756  0.2332
  535TMC3     H 7945   1.500   1.786   1.297  0.5806  0.3392  0.2825
  535TMC3    H1 7946   1.860   1.800   1.061  0.0397  1.8097  0.5508
  535TMC3    H2 7947   1.520   2.028   0.968  0.5372  1.3295  0.5879
  535TMC3    C7 7948   1.776   1.965   0.890 -0.8062 -0.3093 -0.3694
  535TMC3    C8 7949   1.385   1.979   1.205 -0.8638 -0.4381  0.4083
  535TMC3    O1 7950   1.852   1.887   0.834  0.3563 -0.1589 -0.2827
  535TMC3    O2 7951   1.323   1.923   1.293  0.3230 -0.3896 -0.4217
  536MPD2     C 7952   4.453   4.715  16.868 -0.1720 -0.1051 -0.8362
  536MPD2    C1 7953   4.571   4.693  16.810 -0.2567  0.1564 -0.5335
  536MPD2    C2 7954   4.590   4.726  16.671 -0.1308  0.5326 -0.0532
  536MPD2    C3 7955   4.488   0.067  16.607 -0.0013 -0.2854  0.5944
  536MPD2    C4 7956   4.378   0.090  16.675  0.0280 -0.2707  0.1740
  536MPD2    C5 7957   4.358   0.043  16.798  0.2030 -0.1203  0.1073
  536MPD2     H 7958   4.685   4.720  16.619 -0.9838 -0.4119 -1.4906
  536MPD2    H1 7959   4.305   0.151  16.623 -0.2075 -0.6285  0.0859
  536MPD2    H2 7960   4.440   4.681  16.970  2.7235  1.7852  0.1365
  536MPD2    H3 7961   4.266   0.057  16.853  0.6991 -0.3387  0.9891
  536MPD2     N 7962   4.507   0.120  16.479  0.1466  0.4281  0.8076
  536MPD2    H5 7963   4.431   0.184  16.456 -0.1738  0.1526  1.0994
  536MPD2    N1 7964   4.667   4.613  16.887 -0.0834  0.0967 -0.6811
  536MPD2    H7 7965   4.635   4.589  16.980 -0.8929 -2.0526 -1.5110
  537TMC3    C1 7966   0.145   4.526  16.940 -0.4936 -0.1396 -0.0963
  537TMC3    C2 7967   0.254   4.607  16.958  0.0654  0.1298 -0.4696
  537TMC3    C3 7968   0.280   4.650  17.085  0.2746  0.5224  0.0983
  537TMC3    C4 7969   0.082   4.461  17.054 -0.0227  0.2271  0.2995
  537TMC3    C5 7970   0.130   4.496  17.175 -0.0177  0.6852 -0.6247
  537TMC3    C6 7971   0.219   4.595  17.194 -0.2762  0.7261  0.1160
  537TMC3     C 7972   0.065   4.575  16.836 -0.1641  0.4943 -0.4926
  537TMC3     O 7973   0.125   4.624  16.739  0.3841  0.2196  0.0416
  537TMC3     H 7974   0.302   4.651  16.871  2.0843  1.3997  1.2954
  537TMC3    H1 7975   0.001   4.391  17.043  0.7012 -0.1276 -2.6795
  537TMC3    H2 7976   0.261   4.621  17.291  0.3686  0.0935  0.0117
  537TMC3    C7 7977   0.064   4.456  17.298  0.3244  0.7023 -0.0478
  537TMC3    C8 7978   0.396   0.012  17.090  0.5346  0.2916  0.0168
  537TMC3    O1 7979   0.059   4.551  17.375 -0.1454  0.8419  0.2922
  537TMC3    O2 7980   0.471   0.012  17.191 -0.3736  0.0933  0.5736
  538TMC3    C1 7981   1.704   3.017  10.986  0.2073  0.5553  0.0171
  538TMC3    C2 7982   1.790   2.936  10.920  0.4133 -0.0158  0.1709
  538TMC3    C3 7983   1.765   2.905  10.792 -0.0615 -0.0789 -0.0008
  538TMC3    C4 7984   1.596   3.074  10.918 -0.6958 -0.1690  0.7246
  538TMC3    C5 7985   1.584   3.058  10.784  0.4134 -1.2861 -0.3179
  538TMC3    C6 7986   1.664   2.969  10.719 -0.2590 -0.0392 -0.2337
  538TMC3     C 7987   1.720   3.062  11.128  0.1455 -0.3797 -0.1169
  538TMC3     O 7988   1.625   3.113  11.183  0.1713  0.2834  0.3731
  538TMC3     H 7989   1.873   2.885  10.967 -0.9645 -2.2675  0.1543
  538TMC3    H1 7990   1.530   3.149  10.960 -0.3113 -1.0726  2.9413
  538TMC3    H2 7991   1.657   2.958  10.612  0.9168 -0.8699 -0.2238
  538TMC3    C7 7992   1.519   3.164  10.713 -0.9814 -0.0780 -0.2535
  538TMC3    C8 7993   1.877   2.870  10.707  0.1427 -0.4204 -0.3226
  538TMC3    O1 7994   1.452   3.137  10.610 -0.1137 -0.1564  0.0021
  538TMC3    O2 7995   1.851   2.789  10.623  0.0740  0.4088  0.1374
  539MPD2     C 7996   1.686   2.642  11.864  0.0450 -0.6483 -0.4951
  539MPD2    C1 7997   1.613   2.599  11.755  0.5202  0.5066  0.4701
  539MPD2    C2 7998   1.537   2.692  11.686  0.5427 -0.1314  0.0445
  539MPD2    C3 7999   1.541   2.825  11.729 -0.3864  0.5714 -0.0276
  539MPD2    C4 8000   1.606   2.858  11.843  0.5474 -0.6842 -0.6923
  539MPD2    C5 8001   1.679   2.770  11.916  0.0771  0.9590 -0.5085
  539MPD2     H 8002   1.484   2.657  11.598  0.3998  2.7260 -1.0110
  539MPD2    H1 8003   1.612   2.951  11.898  1.5468  0.2327 -2.3705
  539MPD2    H2 8004   1.740   2.571  11.925  2.2061  1.0409 -0.4675
  539MPD2    H3 8005   1.741   2.798  12.000 -1.0345  0.5604  0.4418
  539MPD2     N 8006   1.473   2.923  11.657  0.6316  0.3748 -0.8229
  539MPD2    H5 8007   1.461   3.015  11.698  1.6182 -0.0213  0.3509
  539MPD2    N1 8008   1.611   2.468  11.702 -0.1852 -0.7169 -0.3003
  539MPD2    H7 8009   1.541   2.451  11.630 -1.5734  3.0268  0.1678
  540TMC3    C1 8010   1.361   3.036  11.477 -0.4261 -0.1991 -0.0262
  540TMC3    C2 8011   1.364   3.052  11.343  0.3666  0.5654 -0.1698
  540TMC3    C3 8012   1.334   3.178  11.290 -0.0519  1.1919 -0.8029
  540TMC3    C4 8013   1.337   3.141  11.556  0.8108 -0.3639 -0.9319
  540TMC3    C5 8014   1.311   3.267  11.506 -0.0448 -0.2979  0.1879
  540TMC3    C6 8015   1.311   3.290  11.370  0.4906  0.1297  0.3099
  540TMC3     C 8016   1.431   2.915  11.530 -0.7660 -0.1615 -0.0048
  540TMC3     O 8017   1.455   2.825  11.452 -0.1028 -0.4362 -1.1626
  540TMC3     H 8018   1.395   2.969  11.281  1.3534  1.7252 -1.2462
  540TMC3    H1 8019   1.332   3.120  11.663  2.7687  2.7956 -0.1995
  540TMC3    H2 8020   1.281   3.384  11.324  0.8451 -0.4133 -1.0227
  540TMC3    C7 8021   1.229   3.353  11.589  0.1335 -0.1779 -0.3891
  540TMC3    C8 8022   1.281   3.192  11.156 -0.1224 -0.1883  0.0335
  540TMC3    O1 8023   1.156   3.288  11.663 -0.2650 -0.5388  0.3077
  540TMC3    O2 8024   1.303   3.299  11.097 -0.2663  0.0043  0.1465
  541MPD2     C 8025   0.300   4.103  13.417 -0.4279 -0.6156 -0.3509
  541MPD2    C1 8026   0.172   4.156  13.408 -0.0538  0.3940  0.4997
  541MPD2    C2 8027   0.153   4.256  13.314  0.5288  1.0086 -0.3066
  541MPD2    C3 8028   0.250   4.297  13.226 -0.3320 -0.1940  0.5891
  541MPD2    C4 8029   0.379   4.250  13.247 -0.4107  0.0041  0.2147
  541MPD2    C5 8030   0.397   4.151  13.343 -0.6080  0.6155  0.3068
  541MPD2     H 8031   0.053   4.297  13.304  0.5844  1.2555  0.1889
  541MPD2    H1 8032   0.461   4.281  13.184 -0.9930 -0.1380 -0.6105
  541MPD2    H2 8033   0.332   4.026  13.485 -0.8825  0.6849  1.3299
  541MPD2    H3 8034   0.498   4.115  13.356 -0.7311  0.3437  0.5064
  541MPD2     N 8035   0.228   4.373  13.108  0.1314  0.7004  0.2794
  541MPD2    H5 8036   0.298   4.377  13.036 -1.8994  1.8480 -1.6302
  541MPD2    N1 8037   0.076   4.103  13.499  0.2973 -0.0687  0.3821
  541MPD2    H7 8038   0.109   4.025  13.555  2.4696  0.5231 -0.0644
  542TMC3    C1 8039   0.103   4.508  12.951 -0.3681 -0.4529 -0.8917
  542TMC3    C2 8040   0.151   4.438  12.845  0.6595  0.1510  1.0626
  542TMC3    C3 8041   0.102   4.472  12.718  0.1302  0.2909 -0.4146
  542TMC3    C4 8042   0.004   4.601  12.934 -0.1955  0.4926  0.1435
  542TMC3    C5 8043   4.681   4.627  12.808  0.8089  0.0522 -0.7976
  542TMC3    C6 8044   0.000   4.556  12.699 -0.5630 -0.2632 -0.0293
  542TMC3     C 8045   0.112   4.445  13.085 -0.0505  0.3055 -0.0270
  542TMC3     O 8046   0.034   4.474  13.173  0.1954 -0.1265  0.2795
  542TMC3     H 8047   0.223   4.359  12.859 -1.0034 -1.7216 -1.0442
  542TMC3    H1 8048   4.688   4.636  13.028 -1.8300  2.7710 -1.4550
  542TMC3    H2 8049   4.682   4.582  12.603  1.2136 -4.5283 -2.0317
  542TMC3    C7 8050   4.590   0.011  12.798  0.9046  0.3481 -0.2601
  542TMC3    C8 8051   0.136   4.397  12.601 -0.2257  0.0698  0.3839
  542TMC3    O1 8052   4.591   0.102  12.879 -0.2218 -0.1435 -0.1533
  542TMC3    O2 8053   0.049   4.379  12.517  0.0762  0.3386 -0.4540
  543TMC3    C1 8054   4.119   0.617  17.498  0.3755 -0.2465  0.2944
  543TMC3    C2 8055   4.176   0.492  17.529 -0.3170 -0.4003 -0.3137
  543TMC3    C3 8056   4.132   0.434  17.644  0.6366  0.2279 -0.1916
  543TMC3    C4 8057   4.014   0.663  17.573  0.8034 -0.0378 -0.2180
  543TMC3    C5 8058   3.989   0.604  17.689 -0.1387  0.3931 -0.5859
  543TMC3    C6 8059   4.043   0.488   0.020 -0.2402  0.0346  0.1074
  543TMC3     C 8060   4.139   0.661  17.365  0.1506  0.9338  0.1726
  543TMC3     O 8061   4.249   0.674  17.316  0.0401  0.2503  0.5444
  543TMC3     H 8062   4.256   0.456  17.465 -0.4460  0.8042 -1.1438
  543TMC3    H1 8063   3.976   0.761  17.548  1.5952 -0.0904 -1.6499
  543TMC3    H2 8064   4.020   0.451   0.119  0.6637 -0.1589  0.2425
  543TMC3    C7 8065   3.885   0.649   0.066 -0.3203 -0.1164 -0.2613
  543TMC3    C8 8066   4.147   0.293  17.649  0.6447  0.1254  0.2052
  543TMC3    O1 8067   3.903   0.652   0.186  0.4597 -1.1279  0.0294
  543TMC3    O2 8068   4.212   0.254  17.554 -0.1793 -0.1010 -0.1064
  544MPD2     C 8069   3.931   4.561  17.664  0.1099  0.5774 -0.1428
  544MPD2    C1 8070   4.065   4.594  17.631  0.2678 -0.2320 -0.0525
  544MPD2    C2 8071   4.108   4.723  17.659  0.1600 -0.4198  0.3992
  544MPD2    C3 8072   4.023   0.093   0.009 -0.2826  0.4717  0.5766
  544MPD2    C4 8073   3.902   0.047   0.058 -0.0603 -0.2310 -0.5180
  544MPD2    C5 8074   3.853   4.648   0.034 -0.2665  0.4190 -0.1919
  544MPD2     H 8075   4.214   0.018  17.650 -0.3184  1.4948 -0.7846
  544MPD2    H1 8076   3.843   0.119   0.113  2.0209  0.8562  0.2649
  544MPD2    H2 8077   3.900   4.459  17.645  2.7363 -0.1638 -0.4243
  544MPD2    H3 8078   3.750   4.628   0.060  0.4750  0.6676  2.9188
  544MPD2     N 8079   4.054   0.233   0.022  0.1544  0.8194  0.6370
  544MPD2    H5 8080   3.997   0.285   0.088 -1.3323  3.1471 -2.4553
  544MPD2    N1 8081   4.147   4.490  17.579 -0.2862 -0.0256 -0.4033
  544MPD2    H7 8082   4.099   4.402  17.562 -0.2008 -0.3125  0.8272
  545TMC3    C1 8083   4.320   4.390  17.461 -0.5385 -0.5842  0.1676
  545TMC3    C2 8084   4.377   4.415  17.333 -0.0301  0.0601  0.3661
  545TMC3    C3 8085   4.392   4.308  17.250  0.0887  0.1201 -0.3295
  545TMC3    C4 8086   4.301   4.269  17.516  0.2661  0.5372 -0.5685
  545TMC3    C5 8087   4.323   4.163  17.429  0.6098  0.1727 -0.0663
  545TMC3    C6 8088   4.357   4.179  17.292  0.1930 -0.0077 -0.5818
  545TMC3     C 8089   4.260   4.512  17.513 -0.8526  0.9389 -0.2731
  545TMC3     O 8090   4.308   4.623  17.489 -0.2736  0.0195 -0.4759
  545TMC3     H 8091   4.381   4.519  17.302  0.4836 -0.3287 -0.8786
  545TMC3    H1 8092   4.239   4.262  17.605 -1.0621  1.0892 -1.4460
  545TMC3    H2 8093   4.385   4.088  17.241  0.7852  0.2416 -0.6949
  545TMC3    C7 8094   4.263   4.033  17.457  0.2373  1.5848  0.1780
  545TMC3    C8 8095   4.447   4.339  17.117  0.1328  0.5221 -0.3148
  545TMC3    O1 8096   4.216   3.964  17.370  0.1598 -0.4685  0.3574
  545TMC3    O2 8097   4.485   4.453  17.088 -0.0812 -0.5188  0.5467
  546MPD2     C 8098   0.605   0.711  17.671  0.1882  0.3506  0.3062
  546MPD2    C1 8099   0.575   0.716  17.539 -0.7285 -0.3928 -0.1504
  546MPD2    C2 8100   0.620   0.831  17.469  0.8534  0.3205  0.1212
  546MPD2    C3 8101   0.678   0.936  17.534  0.6689  0.2208  0.1215
  546MPD2    C4 8102   0.712   0.923  17.670  0.0318 -0.1717  0.1386
  546MPD2    C5 8103   0.683   0.804   0.026  0.8594  0.8777 -0.4872
  546MPD2     H 8104   0.586   0.840  17.366 -1.3837  0.3492  0.8611
  546MPD2    H1 8105   0.755   1.004   0.022  0.8974 -1.0479  0.7078
  546MPD2    H2 8106   0.597   0.614   0.012  2.6940  0.8275  1.7473
  546MPD2    H3 8107   0.713   0.786   0.128  0.0860  0.9068 -0.2559
  546MPD2     N 8108   0.714   1.054  17.471  0.3455 -0.0741  0.2450
  546MPD2    H5 8109   0.735   1.134  17.529 -0.2003  1.8322 -2.1544
  546MPD2    N1 8110   0.489   0.614  17.491 -0.5221  0.0101  0.7804
  546MPD2    H7 8111   0.455   0.555  17.567 -2.1082 -0.2281 -0.1340
  547TMC3    C1 8112   0.355   0.476  17.349 -0.5641 -0.3490  0.3242
  547TMC3    C2 8113   0.260   0.475  17.245 -0.3711  0.1646  0.2685
  547TMC3    C3 8114   0.195   0.353  17.234 -0.0404 -0.2969  0.3823
  547TMC3    C4 8115   0.400   0.370  17.421  0.5380  0.8347  0.3450
  547TMC3    C5 8116   0.340   0.244  17.391  0.2949  0.4705  0.4000
  547TMC3    C6 8117   0.238   0.237  17.309  0.1612  0.2347  0.4699
  547TMC3     C 8118   0.431   0.602  17.368  0.3703  0.0485  0.0458
  547TMC3     O 8119   0.423   0.678  17.272 -0.1478  0.5468 -0.5915
  547TMC3     H 8120   0.241   0.559  17.180  1.3528  0.9905  0.8135
  547TMC3    H1 8121   0.493   0.373  17.477  0.5103 -1.1084  0.4938
  547TMC3    H2 8122   0.197   0.141  17.282 -0.6677  0.9012 -0.6492
  547TMC3    C7 8123   0.356   0.138  17.494 -0.7654  0.6190  0.0789
  547TMC3    C8 8124   0.146   0.323  17.091 -0.7540  0.5816  0.0786
  547TMC3    O1 8125   0.249   0.085  17.522 -0.4632  0.2914  0.3438
  547TMC3    O2 8126   0.123   0.208  17.057 -0.5654 -0.1854 -0.0041
  548MPD2     C 8127   0.782   1.645  12.267  0.1037 -0.5900 -0.2893
  548MPD2    C1 8128   0.766   1.538  12.348 -0.7180 -0.3387 -0.1795
  548MPD2    C2 8129   0.871   1.455  12.385  0.2710 -0.1682 -0.3577
  548MPD2    C3 8130   0.988   1.470  12.319 -0.0845 -0.4300 -0.7905
  548MPD2    C4 8131   1.006   1.579  12.233  0.0583 -0.6133  0.1574
  548MPD2    C5 8132   0.907   1.669  12.210 -0.3622 -0.4799  0.4757
  548MPD2     H 8133   0.847   1.368  12.445 -1.3052  0.7395  0.3310
  548MPD2    H1 8134   1.098   1.590  12.176 -0.2021 -0.2685 -0.1958
  548MPD2    H2 8135   0.701   1.716  12.251  1.1366  0.1421 -2.2096
  548MPD2    H3 8136   0.917   1.756  12.146 -0.0269  0.9663  2.5072
  548MPD2     N 8137   1.082   1.365  12.332  0.1022 -0.3125 -0.1076
  548MPD2    H5 8138   1.053   1.274  12.367 -1.3691  0.2600  0.1813
  548MPD2    N1 8139   0.632   1.525  12.398  0.2423 -0.0680 -0.4957
  548MPD2    H7 8140   0.566   1.594  12.362 -1.9932 -2.2111 -0.4871
  549TMC3    C1 8141   0.442   1.461  12.523  0.6249  0.0633 -0.0811
  549TMC3    C2 8142   0.384   1.579  12.491  0.1620 -0.8346 -0.5384
  549TMC3    C3 8143   0.258   1.596  12.542  0.6705 -0.0430 -0.4169
  549TMC3    C4 8144   0.375   1.362  12.590  0.1564  0.6239  1.0413
  549TMC3    C5 8145   0.242   1.380  12.627 -0.5288 -0.2706 -0.0757
  549TMC3    C6 8146   0.187   1.508  12.614  0.0606 -0.1840  0.9489
  549TMC3     C 8147   0.578   1.432  12.481  0.2575 -0.4080  0.2993
  549TMC3     O 8148   0.628   1.338  12.534 -0.4126 -0.6315  0.2786
  549TMC3     H 8149   0.432   1.651  12.425  1.4002 -0.4891  0.7281
  549TMC3    H1 8150   0.411   1.260  12.585  0.5044  0.8226 -0.7535
  549TMC3    H2 8151   0.093   1.529  12.664 -0.2359 -3.3682  1.7291
  549TMC3    C7 8152   0.149   1.267  12.630  0.4233 -0.5161  0.0012
  549TMC3    C8 8153   0.193   1.712  12.496 -1.0002 -0.4078 -0.1277
  549TMC3    O1 8154   0.031   1.299  12.652  0.1027  0.0031 -0.5795
  549TMC3    O2 8155   0.072   1.689  12.481  0.0348  0.2540  0.3092
  550TMC3    C1 8156   4.045   3.860  12.692 -0.0089 -0.2236 -0.5130
  550TMC3    C2 8157   4.062   3.977  12.764  0.1844 -0.3512 -0.6080
  550TMC3    C3 8158   3.979   4.005  12.869  0.4369 -0.0102 -0.4881
  550TMC3    C4 8159   3.956   3.764  12.736 -0.2226 -0.3175 -0.1736
  550TMC3    C5 8160   3.859   3.812  12.822  0.2609 -0.5667  0.0742
  550TMC3    C6 8161   3.869   3.925  12.888  0.4588 -0.3821 -0.7994
  550TMC3     C 8162   4.119   3.837  12.569  0.2052  0.1323  0.3565
  550TMC3     O 8163   4.227   3.896  12.559 -0.2340  0.5063 -0.3478
  550TMC3     H 8164   4.143   4.045  12.740  0.3919  0.3642  2.0292
  550TMC3    H1 8165   3.943   3.671  12.682 -1.1078 -0.1513 -0.2518
  550TMC3    H2 8166   3.788   3.950  12.956  0.1503 -0.6329 -1.0795
  550TMC3    C7 8167   3.738   3.736  12.840 -0.5541 -0.0186 -0.6985
  550TMC3    C8 8168   3.984   4.125  12.938  0.7746  0.5248  0.6317
  550TMC3    O1 8169   3.634   3.797  12.874 -0.1952 -0.6230 -0.2587
  550TMC3    O2 8170   4.044   4.217  12.891  0.3405  0.0092 -0.7741
  551TMC3    C1 8171   1.475   1.890  13.416 -0.6780  0.5616  0.0095
  551TMC3    C2 8172   1.590   1.909  13.348 -0.0878 -0.4169 -0.6302
  551TMC3    C3 8173   1.656   2.025  13.377  0.1737  0.0135  0.7126
  551TMC3    C4 8174   1.432   1.969  13.519  0.7853  0.4253  0.5595
  551TMC3    C5 8175   1.507   2.082  13.543  0.0791 -0.4489  0.2459
  551TMC3    C6 8176   1.617   2.117  13.473  0.4514  0.0523  0.4204
  551TMC3     C 8177   1.378   1.792  13.359 -0.3856 -0.0531  0.4447
  551TMC3     O 8178   1.400   1.778  13.237  0.0253 -1.0002 -0.0065
  551TMC3     H 8179   1.626   1.841  13.272  0.6457 -1.0515  0.2836
  551TMC3    H1 8180   1.332   1.958  13.559  1.2511 -3.4522  0.7247
  551TMC3    H2 8181   1.662   2.214  13.486  2.5039 -0.5818 -1.9100
  551TMC3    C7 8182   1.459   2.171  13.644  0.1595  0.4911  0.0245
  551TMC3    C8 8183   1.793   2.025  13.337 -0.0119 -0.1843  0.2777
  551TMC3    O1 8184   1.342   2.160  13.672 -0.0491 -0.0620  0.6789
  551TMC3    O2 8185   1.845   1.913  13.331  0.1871 -0.5363  0.1098
  552MPD2     C 8186   3.983   3.991  13.749 -0.5263 -0.4649 -0.1015
  552MPD2    C1 8187   3.977   3.861  13.795 -0.2939  0.9639  0.0957
  552MPD2    C2 8188   4.063   3.826  13.903 -0.5004  0.3112  0.4449
  552MPD2    C3 8189   4.152   3.920  13.950  0.7417  0.7198 -0.2090
  552MPD2    C4 8190   4.166   4.041  13.886 -1.0658 -0.1444 -0.0159
  552MPD2    C5 8191   4.080   4.076  13.788  0.6340  0.3183 -1.0304
  552MPD2     H 8192   4.065   3.724  13.940 -0.5226  1.7018  4.2890
  552MPD2    H1 8193   4.233   4.120  13.919  0.2557 -1.5598  0.6864
  552MPD2    H2 8194   3.927   4.023  13.662  0.2495 -0.2445 -0.5220
  552MPD2    H3 8195   4.081   4.175  13.745  1.6980 -0.4695 -2.7989
  552MPD2     N 8196   4.244   3.903  14.054 -0.3458 -0.4966 -0.3725
  552MPD2    H5 8197   4.293   3.984  14.091  0.6817 -0.4871 -1.7723
  552MPD2    N1 8198   3.891   3.762  13.737 -0.1907 -0.1986 -0.0565
  552MPD2    H7 8199   3.892   3.674  13.787  2.6651  0.3830  0.8821
  553TMC3    C1 8200   3.752   3.647  13.585 -0.0490 -0.5244 -0.7319
  553TMC3    C2 8201   3.622   3.648  13.550 -0.4223  0.2758  0.4886
  553TMC3    C3 8202   3.547   3.537  13.564 -0.6756  1.0336 -0.0274
  553TMC3    C4 8203   3.816   3.535  13.634  0.6413 -0.0121  0.0700
  553TMC3    C5 8204   3.736   3.419  13.643 -0.5616 -0.3635  0.3758
  553TMC3    C6 8205   3.599   3.423  13.606  0.1340  0.1942  0.2147
  553TMC3     C 8206   3.810   3.775  13.625  0.1454  0.2046  0.4572
  553TMC3     O 8207   3.766   3.875  13.566 -0.0812 -0.3435 -0.8617
  553TMC3     H 8208   3.570   3.735  13.512 -0.6222  1.1804  2.8279
  553TMC3    H1 8209   3.920   3.533  13.662  0.8147 -0.6668 -0.6344
  553TMC3    H2 8210   3.555   3.325  13.589 -1.8114  1.0849  0.1015
  553TMC3    C7 8211   3.790   3.288  13.673  0.0729  0.3085 -1.0857
  553TMC3    C8 8212   3.426   3.522  13.478  0.3147  0.4784 -0.1165
  553TMC3    O1 8213   3.731   3.186  13.632  0.1938  0.0105  0.4331
  553TMC3    O2 8214   3.438   3.564  13.365 -0.1204  0.1633  0.4869
  554TMC3    C1 8215   0.557   2.644  11.539 -0.3054  0.1123  0.3126
  554TMC3    C2 8216   0.513   2.558  11.440 -0.3792 -0.0483 -0.3224
  554TMC3    C3 8217   0.584   2.547  11.322  0.2097 -0.0563 -0.5501
  554TMC3    C4 8218   0.656   2.730  11.520  0.3035 -0.5407  0.0794
  554TMC3    C5 8219   0.715   2.730  11.397  0.7545 -0.0211 -0.2057
  554TMC3    C6 8220   0.689   2.635  11.304  0.1721 -0.5422  0.0322
  554TMC3     C 8221   0.527   2.612  11.671 -0.0401  0.0180  0.5909
  554TMC3     O 8222   0.408   2.591  11.702 -0.3248  0.0567 -0.4306
  554TMC3     H 8223   0.427   2.492  11.452  0.5360 -1.0378  0.8553
  554TMC3    H1 8224   0.678   2.820  11.578  0.8432 -0.0586 -0.8810
  554TMC3    H2 8225   0.755   2.633  11.218 -0.5892 -0.2064 -0.5627
  554TMC3    C7 8226   0.729   2.860  11.335 -0.6031 -0.3969  0.2683
  554TMC3    C8 8227   0.529   2.494  11.191 -0.2948 -0.8486  0.0248
  554TMC3    O1 8228   0.682   2.858  11.218  0.4845  0.3729  0.0103
  554TMC3    O2 8229   0.562   2.546  11.087 -0.0163  0.0471 -0.2643
  555TMC3    C1 8230   4.270   2.159  15.088 -0.0400  0.1260 -0.0147
  555TMC3    C2 8231   4.177   2.232  15.152  1.1510 -0.1397  0.2409
  555TMC3    C3 8232   4.182   2.239  15.287 -0.2070 -0.4048  0.3715
  555TMC3    C4 8233   4.360   2.090  15.164 -0.4467 -0.3739  0.1766
  555TMC3    C5 8234   4.354   2.089  15.303  0.5245 -0.6239 -0.4683
  555TMC3    C6 8235   4.265   2.167  15.372  0.3440 -0.0586 -0.3964
  555TMC3     C 8236   4.314   2.208  14.957  0.2643  0.0912 -0.6142
  555TMC3     O 8237   4.437   2.217  14.950 -0.7877 -0.0415 -0.2204
  555TMC3     H 8238   4.108   2.296  15.098 -0.7275 -1.3891  1.1667
  555TMC3    H1 8239   4.439   2.029  15.122 -2.2188 -1.5994 -1.3461
  555TMC3    H2 8240   4.262   2.169  15.480  0.6329 -0.8212 -0.3813
  555TMC3    C7 8241   4.422   1.977  15.367  0.5578  0.0992  0.1220
  555TMC3    C8 8242   4.137   2.358  15.349  0.6801 -0.2880 -0.0438
  555TMC3    O1 8243   4.443   1.875  15.305  0.0394  0.2247  0.0063
  555TMC3    O2 8244   4.041   2.409  15.288  0.7993 -0.1566 -1.0265
  556MPD2     C 8245   2.049   3.536  11.238 -0.4113 -0.0891  0.0876
  556MPD2    C1 8246   2.164   3.616  11.252  0.4352 -0.5121 -0.4711
  556MPD2    C2 8247   2.266   3.604  11.153 -0.0381  0.3195  0.0961
  556MPD2    C3 8248   2.245   3.531  11.041 -0.2478 -0.1214 -0.0251
  556MPD2    C4 8249   2.121   3.477  11.016  0.5690 -0.2219 -0.5028
  556MPD2    C5 8250   2.022   3.478  11.112  0.3219  0.5286 -0.2843
  556MPD2     H 8251   2.355   3.662  11.175  1.0774 -1.1105 -0.6806
  556MPD2    H1 8252   2.105   3.426  10.922 -0.0612  0.1263 -0.5864
  556MPD2    H2 8253   1.971   3.519  11.310  1.6662 -0.8084  2.1620
  556MPD2    H3 8254   1.925   3.431  11.116 -0.3817  2.2858  3.5064
  556MPD2     N 8255   2.345   3.530  10.941  0.7067 -0.1827 -0.3938
  556MPD2    H5 8256   2.421   3.598  10.948  1.2395 -0.8832  0.5849
  556MPD2    N1 8257   2.187   3.710  11.361  0.1373 -0.2580 -0.4376
  556MPD2    H7 8258   2.280   3.751  11.361  0.6089 -1.3168 -0.9244
  557TMC3    C1 8259   2.453   3.439  10.758  0.0965 -0.7069 -0.4796
  557TMC3    C2 8260   2.447   3.531  10.658  0.3472 -0.2186  0.5836
  557TMC3    C3 8261   2.491   3.500  10.533 -0.0823  0.2351  0.9281
  557TMC3    C4 8262   2.510   3.317  10.731 -0.4413  0.3954 -0.1361
  557TMC3    C5 8263   2.552   3.290  10.602  0.3074 -0.8029 -0.3023
  557TMC3    C6 8264   2.550   3.383  10.500  0.3061  0.1991  0.1332
  557TMC3     C 8265   2.346   3.427  10.850  0.3888 -0.4157  0.6718
  557TMC3     O 8266   2.287   3.321  10.846 -0.5764 -0.2278 -0.2620
  557TMC3     H 8267   2.383   3.617  10.677  2.6429  1.4421  0.7502
  557TMC3    H1 8268   2.540   3.255  10.815  2.8210  1.9765 -0.1326
  557TMC3    H2 8269   2.570   3.355  10.398 -0.2956  1.1520 -0.2460
  557TMC3    C7 8270   2.505   3.165  10.550  0.3473  0.0705  0.8429
  557TMC3    C8 8271   2.465   3.588  10.419 -0.3679  0.5266 -0.3685
  557TMC3    O1 8272   2.524   3.139  10.433  0.1030  0.6138 -0.1701
  557TMC3    O2 8273   2.447   3.704  10.446  0.0589  0.0359 -0.3119
  558TMC3    C1 8274   0.554   1.266   9.810 -0.0090 -0.7601 -0.5589
  558TMC3    C2 8275   0.487   1.178   9.889 -0.5903  0.9043 -0.4374
  558TMC3    C3 8276   0.373   1.125   9.837 -0.1555 -0.5322  0.9022
  558TMC3    C4 8277   0.520   1.291   9.680  0.4011  0.0946  0.1896
  558TMC3    C5 8278   0.411   1.231   9.628  0.1508 -0.3550  0.3749
  558TMC3    C6 8279   0.332   1.149   9.708  0.5045 -0.2490 -0.7711
  558TMC3     C 8280   0.661   1.336   9.875 -0.1081  0.5655  0.9325
  558TMC3     O 8281   0.760   1.357   9.806  0.3346 -0.2445 -0.3630
  558TMC3     H 8282   0.525   1.142   9.984 -1.7809 -0.7635 -0.5837
  558TMC3    H1 8283   0.574   1.366   9.623  0.1675 -0.2342 -0.4556
  558TMC3    H2 8284   0.243   1.103   9.667  1.8461 -0.3278 -3.5700
  558TMC3    C7 8285   0.362   1.275   9.502  0.4336  0.3744  0.0978
  558TMC3    C8 8286   0.283   1.049   9.922 -0.0079  0.3613  0.1384
  558TMC3    O1 8287   0.412   1.377   9.458 -0.2349  0.4481 -0.2695
  558TMC3    O2 8288   0.192   0.995   9.867 -0.0640 -0.3698  0.0928
  559MPD2     C 8289   0.349   1.978  10.709 -0.0113 -0.8652  0.0369
  559MPD2    C1 8290   0.258   1.953  10.807 -0.1730  0.3601  0.4538
  559MPD2    C2 8291   0.313   1.935  10.934  0.4409  0.9221  0.0839
  559MPD2    C3 8292   0.450   1.941  10.961  0.1872 -0.1914 -0.4047
  559MPD2    C4 8293   0.540   1.957  10.860  0.1244  0.0072 -0.7582
  559MPD2    C5 8294   0.488   1.981  10.738 -0.1084 -0.1461  0.6470
  559MPD2     H 8295   0.253   1.918  11.022  0.9064 -2.4704 -0.2448
  559MPD2    H1 8296   0.647   1.949  10.872  0.1097  1.7254  0.4344
  559MPD2    H2 8297   0.307   1.972  10.610  1.3275  1.1251 -0.6414
  559MPD2    H3 8298   0.553   1.991  10.651  2.1204 -0.5464  2.2648
  559MPD2     N 8299   0.495   1.915  11.096  0.3906  0.5815  0.7219
  559MPD2    H5 8300   0.422   1.909  11.167  1.6306  0.3218  1.9859
  559MPD2    N1 8301   0.120   1.945  10.766  0.3472  0.1888  0.3849
  559MPD2    H7 8302   0.095   1.964  10.669  1.1883  2.2592  0.5634
  560TMC3    C1 8303   0.634   1.859  11.282 -0.3158 -0.1530  1.3112
  560TMC3    C2 8304   0.555   1.760  11.331  0.1160 -0.3811 -1.1767
  560TMC3    C3 8305   0.582   1.717  11.458  0.3923  0.2260 -0.2016
  560TMC3    C4 8306   0.732   1.916  11.352 -0.4046 -0.5327 -0.4091
  560TMC3    C5 8307   0.760   1.867  11.482 -0.1969 -0.2095 -0.7598
  560TMC3    C6 8308   0.693   1.763  11.531 -0.5129 -0.0899  0.4738
  560TMC3     C 8309   0.623   1.911  11.150 -0.6209  0.1480 -0.6832
  560TMC3     O 8310   0.729   1.937  11.099 -0.0298 -0.0315  0.5487
  560TMC3     H 8311   0.481   1.715  11.264 -0.0215 -2.4107  0.3291
  560TMC3    H1 8312   0.754   2.014  11.312 -0.9784  1.2641  3.6074
  560TMC3    H2 8313   0.721   1.725  11.629  0.0495 -2.8385 -0.7508
  560TMC3    C7 8314   0.886   1.918  11.550  0.7910 -0.5995 -0.1065
  560TMC3    C8 8315   0.535   1.584  11.492  0.0660 -0.4076  0.2015
  560TMC3    O1 8316   0.923   1.867  11.655 -0.4189  0.1528  0.7827
  560TMC3    O2 8317   0.452   1.567  11.583 -0.0320  0.4822  0.4802
  561TMC3    C1 8318   3.191   1.325  11.181  0.5174 -0.0757 -0.0723
  561TMC3    C2 8319   3.196   1.267  11.301 -0.6173  0.5111  0.0896
  561TMC3    C3 8320   3.156   1.342  11.407 -0.3182 -0.4311  0.0896
  561TMC3    C4 8321   3.139   1.453  11.161  0.3090 -0.0760 -0.0989
  561TMC3    C5 8322   3.097   1.520  11.270  0.1034 -0.2641  0.0514
  561TMC3    C6 8323   3.100   1.462  11.389  0.0051 -0.1454 -0.1104
  561TMC3     C 8324   3.171   1.240  11.073  0.0387  0.3308 -0.7013
  561TMC3     O 8325   3.125   1.290  10.970  0.1031  0.0937 -0.2514
  561TMC3     H 8326   3.243   1.170  11.313 -1.6783  0.2064  1.7387
  561TMC3    H1 8327   3.114   1.490  11.062  0.5250  0.6159  0.1078
  561TMC3    H2 8328   3.069   1.524  11.473 -0.4388  1.5865 -1.5531
  561TMC3    C7 8329   3.065   1.662  11.254  0.3741 -1.1309  0.0962
  561TMC3    C8 8330   3.165   1.285  11.539 -0.9854  0.6251 -0.0017
  561TMC3    O1 8331   3.001   1.714  11.344 -0.1019 -0.4138 -0.2421
  561TMC3    O2 8332   3.237   1.191  11.560  0.3138  0.6722  0.5745
  562TMC3    C1 8333   4.361   2.969  16.147  0.3432  0.2192 -0.0833
  562TMC3    C2 8334   4.266   3.046  16.083  0.4325 -0.1724  0.0566
  562TMC3    C3 8335   4.188   2.981  15.988  0.6937  0.3179  0.3024
  562TMC3    C4 8336   4.388   2.839  16.107  0.7039  0.3936 -0.5304
  562TMC3    C5 8337   4.307   2.785  16.017  0.3777  0.0160 -0.4563
  562TMC3    C6 8338   4.202   2.849  15.954  0.8475 -0.0638 -0.2647
  562TMC3     C 8339   4.429   3.036  16.257 -0.1576  0.5504  0.6444
  562TMC3     O 8340   4.397   3.154  16.286  0.0304 -0.1604 -0.1545
  562TMC3     H 8341   4.233   3.146  16.107  0.3397  0.1539 -1.4532
  562TMC3    H1 8342   4.462   2.780  16.160 -0.2454 -0.9130 -0.6579
  562TMC3    H2 8343   4.140   2.807  15.875 -2.5287  3.3672  0.6020
  562TMC3    C7 8344   4.303   2.640  15.999  0.1602  0.4940  0.1888
  562TMC3    C8 8345   4.087   3.053  15.925  0.2400 -0.3521  0.8453
  562TMC3    O1 8346   4.208   2.599  15.931  0.5157 -0.1924 -0.3380
  562TMC3    O2 8347   3.993   3.072  16.001  0.4845 -0.3239  0.3132
  563MPD2     C 8348   1.899   4.442  15.785 -0.2731  0.5575  0.3637
  563MPD2    C1 8349   1.960   4.473  15.905  1.1493  0.4236 -0.6491
  563MPD2    C2 8350   2.091   4.425  15.925 -0.8113  0.2366  0.2514
  563MPD2    C3 8351   2.157   4.355  15.836 -0.3730  0.4323  0.4399
  563MPD2    C4 8352   2.099   4.328  15.714  0.1842 -0.1255 -0.2047
  563MPD2    C5 8353   1.964   4.355  15.698  0.2183 -0.1567  0.7074
  563MPD2     H 8354   2.141   4.437  16.020 -0.7454  1.0830  0.1137
  563MPD2    H1 8355   2.151   4.264  15.644 -0.8109  0.1752 -1.2318
  563MPD2    H2 8356   1.794   4.463  15.766 -0.2764  1.8708  1.9012
  563MPD2    H3 8357   1.913   4.325  15.608 -1.8490  1.5045  1.3258
  563MPD2     N 8358   2.283   4.307  15.880  0.3221 -0.6174 -0.3515
  563MPD2    H5 8359   2.306   4.346  15.971 -1.8585 -0.6246  0.2057
  563MPD2    N1 8360   1.884   4.525  16.009  0.2625  0.3449  0.3137
  563MPD2    H7 8361   1.784   4.539  16.002 -0.0192 -1.7439  0.1287
  564TMC3    C1 8362   1.846   4.572  16.231 -1.0682 -0.2305  0.0083
  564TMC3    C2 8363   1.716   4.537  16.210  0.4186 -0.0649  0.0864
  564TMC3    C3 8364   1.662   4.457  16.307  1.2371 -0.2728 -0.0161
  564TMC3    C4 8365   1.918   4.544  16.344 -0.5010  1.0718 -0.6284
  564TMC3    C5 8366   1.865   4.449  16.430 -0.2413 -0.1972 -0.4954
  564TMC3    C6 8367   1.732   4.419  16.422  0.6811 -0.1354  0.2623
  564TMC3     C 8368   1.935   4.588  16.117  0.0900 -0.0754 -0.2908
  564TMC3     O 8369   2.048   4.641  16.138  0.0874 -0.0962 -0.4744
  564TMC3     H 8370   1.654   4.564  16.125 -0.1215 -1.0090  0.1789
  564TMC3    H1 8371   2.027   4.537  16.343 -0.5769 -0.3707  0.8148
  564TMC3    H2 8372   1.685   4.358  16.498  1.2938  0.4466  1.1033
  564TMC3    C7 8373   1.938   4.322  16.439 -0.3293  0.5642 -0.4366
  564TMC3    C8 8374   1.589   4.350  16.269  0.5775 -0.0150 -0.7014
  564TMC3    O1 8375   1.919   4.245  16.535 -0.4231 -1.1075  0.1522
  564TMC3    O2 8376   1.526   4.290  16.353 -0.0939  0.3334  0.1538
  565TMC3    C1 8377   2.274   0.556  10.234 -0.3391 -0.8888 -0.2885
  565TMC3    C2 8378   2.280   0.450  10.321  0.7951 -0.3848 -0.3750
  565TMC3    C3 8379   2.183   0.346  10.299  0.3751 -0.1348  0.2321
  565TMC3    C4 8380   2.209   0.557  10.117  0.1966 -0.4612  0.2718
  565TMC3    C5 8381   2.118   0.452  10.092  0.6923 -0.3460  0.2223
  565TMC3    C6 8382   2.099   0.355  10.187  0.9814 -0.5759 -0.0933
  565TMC3     C 8383   2.399   0.632  10.227  0.1173  0.2906  0.1213
  565TMC3     O 8384   2.441   0.681  10.119 -0.2226  0.6742 -0.3730
  565TMC3     H 8385   2.360   0.439  10.393  0.3697  1.0978  0.3292
  565TMC3    H1 8386   2.210   0.648  10.058  0.0073 -0.5433  0.1408
  565TMC3    H2 8387   2.062   0.262  10.148  1.1358 -0.2414 -1.0231
  565TMC3    C7 8388   2.046   0.450   9.970  0.5941  0.6160  0.4592
  565TMC3    C8 8389   2.171   0.250  10.416  0.1784 -0.3621 -0.1960
  565TMC3    O1 8390   1.945   0.375   9.971  0.2213  0.5009 -0.1619
  565TMC3    O2 8391   2.262   0.228  10.496  0.3106  0.1624  0.1448
  566MPD2     C 8392   3.824   2.023  13.964 -0.5262 -0.5717  0.0248
  566MPD2    C1 8393   3.843   2.155  13.970 -1.3320 -0.3924 -0.3994
  566MPD2    C2 8394   3.808   2.246  13.871 -0.3724  0.5145 -0.6706
  566MPD2    C3 8395   3.758   2.192  13.754  0.5393 -0.5356 -0.2287
  566MPD2    C4 8396   3.733   2.062  13.746 -0.0303 -0.0864  0.1852
  566MPD2    C5 8397   3.767   1.977  13.849  0.2020 -0.1486 -0.0843
  566MPD2     H 8398   3.845   2.347  13.876 -0.8145  0.5311  2.1676
  566MPD2    H1 8399   3.691   2.009  13.662  1.4834 -0.0604 -0.5869
  566MPD2    H2 8400   3.859   1.946  14.031 -2.3136 -0.5893  0.9178
  566MPD2    H3 8401   3.760   1.871  13.829 -0.2359 -0.0395 -0.5183
  566MPD2     N 8402   3.742   2.265  13.637 -0.1363 -0.1399  0.0373
  566MPD2    H5 8403   3.719   2.214  13.552  1.6138  1.1070 -1.1584
  566MPD2    N1 8404   3.935   2.193  14.067 -0.8169  0.4403 -0.6073
  566MPD2    H7 8405   3.940   2.120  14.137  0.0954  0.5333 -0.5716
  567TMC3    C1 8406   4.096   2.333  14.191  0.1493  0.0133  0.3183
  567TMC3    C2 8407   4.159   2.452  14.180 -0.0637  0.4017 -0.0867
  567TMC3    C3 8408   4.291   2.463  14.215  0.0550 -0.0829 -0.4251
  567TMC3    C4 8409   4.165   2.223  14.248 -0.4898 -0.3236  0.0305
  567TMC3    C5 8410   4.287   2.242  14.296  0.2973 -0.1462  0.2815
  567TMC3    C6 8411   4.364   2.356  14.273  0.7611 -0.0854 -0.4458
  567TMC3     C 8412   4.000   2.315  14.078  0.7037  0.3172 -0.3258
  567TMC3     O 8413   3.991   2.413  14.006  0.2679 -0.2096  0.1421
  567TMC3     H 8414   4.116   2.549  14.161  0.4660  1.4188  3.8513
  567TMC3    H1 8415   4.136   2.118  14.242  0.0567 -0.5202  0.8409
  567TMC3    H2 8416   4.462   2.372  14.316 -0.0050  1.7632  0.6470
  567TMC3    C7 8417   4.345   2.139  14.382  0.0966 -0.0821 -0.9329
  567TMC3    C8 8418   4.363   2.582  14.178 -0.5067 -0.0892 -0.1375
  567TMC3    O1 8419   4.466   2.143  14.389 -0.6421 -0.7023 -0.1920
  567TMC3    O2 8420   4.317   2.639  14.080 -0.3906 -0.2562  0.1707
  568MPD2     C 8421   1.371   2.853  16.446  0.5413  0.2151 -0.9570
  568MPD2    C1 8422   1.376   2.921  16.559  0.4144  0.5040  0.2737
  568MPD2    C2 8423   1.417   3.054  16.559  0.3662 -0.3741 -0.0895
  568MPD2    C3 8424   1.443   3.112  16.440 -0.6182 -0.2047 -0.1794
  568MPD2    C4 8425   1.432   3.043  16.321  0.6610 -0.6933 -0.0666
  568MPD2    C5 8426   1.396   2.914  16.326 -0.3226 -0.3812 -0.0252
  568MPD2     H 8427   1.420   3.118  16.646 -0.3658 -2.2924  1.3524
  568MPD2    H1 8428   1.451   3.090  16.225 -2.3871  1.3425  0.3095
  568MPD2    H2 8429   1.344   2.748  16.448  0.5339  0.2126 -1.1301
  568MPD2    H3 8430   1.399   2.856  16.235  1.5539 -0.7082  0.2450
  568MPD2     N 8431   1.484   3.249  16.444 -0.2349  0.6071 -0.5117
  568MPD2    H5 8432   1.490   3.293  16.535 -2.9245 -0.5127  0.2215
  568MPD2    N1 8433   1.337   2.848  16.672  0.1556  0.4369 -0.0602
  568MPD2    H7 8434   1.317   2.751  16.648  0.0436  0.3151  0.5344
  569TMC3    C1 8435   1.571   3.456  16.376 -0.1621  0.3048 -0.1192
  569TMC3    C2 8436   1.526   3.523  16.489  0.3322  0.1177  0.7256
  569TMC3    C3 8437   1.576   3.643  16.519  0.5150  0.8739  0.2808
  569TMC3    C4 8438   1.667   3.517  16.294 -0.0350 -0.2726 -0.2930
  569TMC3    C5 8439   1.714   3.637  16.332  0.0583 -0.0567 -0.0222
  569TMC3    C6 8440   1.684   3.705  16.452  0.5885  0.2212 -0.6492
  569TMC3     C 8441   1.547   3.320  16.337  0.0771 -0.3200  0.0095
  569TMC3     O 8442   1.584   3.282  16.225  0.0760 -0.2050 -0.3050
  569TMC3     H 8443   1.437   3.490  16.542 -2.2672  3.1453 -1.7608
  569TMC3    H1 8444   1.707   3.469  16.205 -1.2764  2.3270 -2.2374
  569TMC3    H2 8445   1.738   3.795  16.479 -1.4634  0.8101  1.5831
  569TMC3    C7 8446   1.739   3.726  16.215  0.8342 -1.0509 -0.2690
  569TMC3    C8 8447   1.547   3.682  16.663 -0.2128 -0.7974  0.0661
  569TMC3    O1 8448   1.775   3.668  16.113 -0.0863  0.0268  0.4662
  569TMC3    O2 8449   1.495   3.602  16.736 -0.4416  0.6000 -0.1428
  570TMC3    C1 8450   0.745   1.605  16.233 -0.2079 -0.6763  0.4783
  570TMC3    C2 8451   0.839   1.555  16.146  0.6388  1.0575 -0.4113
  570TMC3    C3 8452   0.903   1.652  16.067  0.7208 -0.4686  0.1144
  570TMC3    C4 8453   0.715   1.735  16.257 -0.5786  0.0582  0.0578
  570TMC3    C5 8454   0.778   1.827  16.183  0.3388 -0.0526 -0.0209
  570TMC3    C6 8455   0.875   1.788  16.093  0.2396 -0.0641  0.8956
  570TMC3     C 8456   0.672   1.502  16.307  0.5821  0.1412 -0.0511
  570TMC3     O 8457   0.660   1.390  16.253 -0.1646 -0.1609  0.6848
  570TMC3     H 8458   0.857   1.448  16.143 -0.1639  0.8439  2.7512
  570TMC3    H1 8459   0.624   1.762  16.311 -2.0481 -0.9551 -1.9036
  570TMC3    H2 8460   0.931   1.871  16.050  0.5983 -0.2336  1.0334
  570TMC3    C7 8461   0.761   1.965  16.217 -0.8084  0.2329 -0.1572
  570TMC3    C8 8462   1.020   1.620  15.991 -0.4555 -0.7609 -0.2767
  570TMC3    O1 8463   0.713   1.992  16.326 -0.2346  0.4701  0.4666
  570TMC3    O2 8464   1.048   1.504  15.959 -0.8930  0.4051 -0.7146
  571MPD2     C 8465   3.948   3.688  17.100  0.1768  0.1653 -0.2075
  571MPD2    C1 8466   3.824   3.633  17.104 -0.3832  0.1967 -0.0997
  571MPD2    C2 8467   3.737   3.670  17.205  0.0308 -0.5049  0.2664
  571MPD2    C3 8468   3.779   3.763  17.303  0.2477  0.4161  0.0249
  571MPD2    C4 8469   3.906   3.806  17.300 -0.0089 -0.5695  0.7933
  571MPD2    C5 8470   3.990   3.777  17.197 -0.4373 -0.5741  0.3629
  571MPD2     H 8471   3.637   3.628  17.199 -0.6818  1.4848 -1.8007
  571MPD2    H1 8472   3.942   3.866  17.383 -1.3386  1.4317 -0.0765
  571MPD2    H2 8473   4.021   3.674  17.021 -0.7228  1.2478 -1.2111
  571MPD2    H3 8474   4.085   3.827  17.182 -1.7700  1.8846  0.1694
  571MPD2     N 8475   3.697   3.791  17.418 -0.2639  0.2885  0.0576
  571MPD2    H5 8476   3.720   3.863  17.485  0.7670  0.1164 -0.1102
  571MPD2    N1 8477   3.791   3.544  17.002  0.3621  0.4158 -0.2943
  571MPD2    H7 8478   3.857   3.526  16.927  0.6130  0.6393 -0.1264
  572TMC3    C1 8479   3.519   3.771  17.572 -0.2012  0.4497  0.3771
  572TMC3    C2 8480   3.388   3.724  17.597 -0.1091  0.0063  0.1141
  572TMC3    C3 8481   3.317   3.769  17.702 -0.7019  0.3225 -0.4191
  572TMC3    C4 8482   3.581   3.859  17.655  0.0027  0.6231 -0.4638
  572TMC3    C5 8483   3.503   3.905   0.049 -0.6030  0.3241  0.5617
  572TMC3    C6 8484   3.376   3.863   0.075  0.5328  0.3934 -0.1236
  572TMC3     C 8485   3.577   3.732  17.443  0.2282  0.3906  0.3643
  572TMC3     O 8486   3.525   3.632  17.392  0.0959 -0.0800 -0.6870
  572TMC3     H 8487   3.344   3.640  17.545  1.5761 -0.0621 -1.1811
  572TMC3    H1 8488   3.673   3.908  17.625 -0.5220  1.4155 -0.7769
  572TMC3    H2 8489   3.316   3.897   0.159 -1.9955 -0.2430 -1.6609
  572TMC3    C7 8490   3.523   4.042   0.104  0.3306 -0.0894  0.2918
  572TMC3    C8 8491   3.204   3.693   0.052  0.3465  0.5874  0.4082
  572TMC3    O1 8492   3.427   4.110   0.136 -0.2284  0.0653  0.4625
  572TMC3    O2 8493   3.143   3.630  17.674  0.3524  0.2838  0.0902
  573MPD2     C 8494   3.777   4.145   1.025  0.0607  0.3490 -0.5686
  573MPD2    C1 8495   3.895   4.106   1.080  0.5325 -0.4456 -0.2542
  573MPD2    C2 8496   3.987   4.033   0.997  0.0385 -0.5589 -0.1684
  573MPD2    C3 8497   3.945   3.991   0.875 -0.4662 -0.0583  0.5524
  573MPD2    C4 8498   3.816   4.027   0.825 -0.0616  0.9300  0.1871
  573MPD2    C5 8499   3.737   4.098   0.907  0.4846  0.2673  0.3766
  573MPD2     H 8500   4.089   4.019   1.030 -0.8378  0.6648  3.0572
  573MPD2    H1 8501   3.777   3.982   0.734 -0.0585  0.5640  0.3705
  573MPD2    H2 8502   3.713   4.210   1.083  0.2258 -0.9509  1.0724
  573MPD2    H3 8503   3.647   4.129   0.856 -1.2413 -2.1323  2.0332
  573MPD2     N 8504   4.029   3.916   0.791 -0.8803  0.4714 -0.4047
  573MPD2    H5 8505   4.003   3.910   0.693 -2.5266 -0.0515  0.0699
  573MPD2    N1 8506   3.940   4.153   1.204  0.3261  0.3196  0.0118
  573MPD2    H7 8507   3.877   4.212   1.257  0.9444  1.1469 -0.1774
  574TMC3    C1 8508   4.232   3.815   0.701 -0.4799 -0.1327 -0.3618
  574TMC3    C2 8509   4.166   3.752   0.597 -0.1598 -0.5673  0.6335
  574TMC3    C3 8510   4.249   3.711   0.500  0.1695  0.6593 -0.2538
  574TMC3    C4 8511   4.362   3.850   0.708  0.1819 -0.4148  0.4084
  574TMC3    C5 8512   4.435   3.808   0.603 -0.1444 -0.3952  0.0152
  574TMC3    C6 8513   4.383   3.740   0.499 -0.0986  0.4724 -0.2533
  574TMC3     C 8514   4.158   3.869   0.821  0.2331  0.1607  0.6239
  574TMC3     O 8515   4.221   3.871   0.924 -0.4703 -0.1840 -0.3660
  574TMC3     H 8516   4.060   3.732   0.598 -0.5404  1.4597  0.3663
  574TMC3    H1 8517   4.402   3.896   0.798  1.5566 -0.7585 -0.0339
  574TMC3    H2 8518   4.454   3.712   0.423 -0.8679 -0.3222 -0.6711
  574TMC3    C7 8519   4.582   3.814   0.620 -0.4975  0.3366 -0.3740
  574TMC3    C8 8520   4.181   3.676   0.378 -0.4154  0.6485  0.1765
  574TMC3    O1 8521   4.646   3.741   0.549  0.5576 -0.5878  0.3352
  574TMC3    O2 8522   4.091   3.597   0.386  0.3621  0.3186  0.0499
  575TMC3    C1 8523   2.410   0.093  11.234  0.0400 -0.2281  0.0584
  575TMC3    C2 8524   2.316   0.071  11.333 -0.0040  0.2997 -0.1235
  575TMC3    C3 8525   2.189   0.042  11.294 -0.1518  0.5477  0.3381
  575TMC3    C4 8526   2.374   0.104  11.098 -0.5257 -0.8723 -0.3116
  575TMC3    C5 8527   2.241   0.072  11.068 -0.8566  0.0856 -0.6639
  575TMC3    C6 8528   2.148   0.051  11.167  0.4079 -0.5994 -0.2320
  575TMC3     C 8529   2.551   0.096  11.277 -0.1953  0.7247  0.0047
  575TMC3     O 8530   2.579   0.039  11.381  0.0747 -0.0195  0.2542
  575TMC3     H 8531   2.346   0.054  11.436  1.0607  0.7140 -0.3599
  575TMC3    H1 8532   2.435   0.122  11.010  0.9318  0.4434  0.9642
  575TMC3    H2 8533   2.046   0.043  11.133 -0.0344 -0.3563  1.0224
  575TMC3    C7 8534   2.198   0.102  10.932  0.1571  0.1757 -0.0047
  575TMC3    C8 8535   2.114   4.681  11.384  0.0879  0.0720 -0.1298
  575TMC3    O1 8536   2.271   0.181  10.872 -0.0376 -0.4174 -0.4098
  575TMC3    O2 8537   2.134   4.706  11.502 -0.4251 -0.3148 -0.2163
  576MPD2     C 8538   2.268   1.658  12.631  0.0082 -0.1471 -0.1950
  576MPD2    C1 8539   2.277   1.751  12.534 -0.5751 -1.0529 -0.2162
  576MPD2    C2 8540   2.201   1.868  12.539 -0.0269  0.3713  1.2988
  576MPD2    C3 8541   2.117   1.892  12.652 -0.3915  0.6048  0.3963
  576MPD2    C4 8542   2.110   1.799  12.752 -0.1901 -0.2090  0.4817
  576MPD2    C5 8543   2.177   1.683  12.735  0.1316 -0.2508  0.4956
  576MPD2     H 8544   2.200   1.940  12.459 -0.6427  0.1329  1.0978
  576MPD2    H1 8545   2.050   1.809  12.842 -2.2826  2.4593 -1.1780
  576MPD2    H2 8546   2.324   1.565  12.637 -0.4783 -0.6753 -3.4747
  576MPD2    H3 8547   2.165   1.619  12.823 -1.2443  0.2185  0.6497
  576MPD2     N 8548   2.051   2.020  12.668  0.1946 -0.3255 -0.1156
  576MPD2    H5 8549   2.057   2.076  12.583 -1.7666  0.0158 -0.0320
  576MPD2    N1 8550   2.334   1.719  12.408  0.1176  0.8173  0.2753
  576MPD2    H7 8551   2.331   1.789  12.334 -0.6225  2.5972  1.9685
  577TMC3    C1 8552   2.484   1.622  12.264 -0.7994 -0.0945 -0.1519
  577TMC3    C2 8553   2.598   1.547  12.251 -0.1288 -0.4725  0.5452
  577TMC3    C3 8554   2.607   1.466  12.146 -0.0516 -0.5706  0.2086
  577TMC3    C4 8555   2.395   1.625  12.159  0.0561  0.0920 -0.4798
  577TMC3    C5 8556   2.418   1.541  12.049  0.0224 -0.1285  0.2580
  577TMC3    C6 8557   2.524   1.459  12.038 -0.0390 -0.0630  0.3853
  577TMC3     C 8558   2.417   1.616  12.387 -0.3151  0.0773 -0.3867
  577TMC3     O 8559   2.480   1.552  12.472  0.5144 -0.5022 -0.4465
  577TMC3     H 8560   2.668   1.540  12.334  0.4596  1.0701  0.1654
  577TMC3    H1 8561   2.297   1.671  12.166 -0.6763 -1.9054  2.4604
  577TMC3    H2 8562   2.537   1.398  11.949  1.4770  0.1538  0.4729
  577TMC3    C7 8563   2.299   1.502  11.976  0.4415 -0.5079  0.0726
  577TMC3    C8 8564   2.738   1.404  12.130 -0.9180 -0.2963  0.1158
  577TMC3    O1 8565   2.294   1.384  11.944 -0.0304 -0.1020 -0.6583
  577TMC3    O2 8566   2.802   1.393  12.232 -0.0183  0.4274 -0.2052
  578MPD2     C 8567   4.587   2.058   1.209  0.5514 -0.0916  0.0832
  578MPD2    C1 8568   4.670   1.962   1.169  0.3607  0.4261  0.1961
  578MPD2    C2 8569   0.076   1.964   1.206 -0.1488  0.7631 -1.1256
  578MPD2    C3 8570   0.126   2.066   1.282  0.2588  0.4713 -0.1909
  578MPD2    C4 8571   0.042   2.174   1.307  0.2280 -0.1621  0.2753
  578MPD2    C5 8572   4.632   2.167   1.274  0.5820  0.2478  0.5373
  578MPD2     H 8573   0.141   1.882   1.177 -0.6912  0.1101 -0.5001
  578MPD2    H1 8574   0.075   2.262   1.361  0.3688 -1.8284  2.9008
  578MPD2    H2 8575   4.481   2.047   1.186  0.4655 -2.1098  1.4266
  578MPD2    H3 8576   4.569   2.252   1.294 -0.2264 -0.7343  2.1640
  578MPD2     N 8577   0.257   2.061   1.323  0.4951 -0.2680  0.3674
  578MPD2    H5 8578   0.312   1.981   1.292 -0.5767 -0.4739 -1.0058
  578MPD2    N1 8579   4.625   1.874   1.060  0.6834  0.7601 -0.0048
  578MPD2    H7 8580   4.530   1.883   1.027  0.8789  0.7856 -0.5638
  579TMC3    C1 8581   0.463   2.119   1.417  0.5322 -0.0518  1.0319
  579TMC3    C2 8582   0.565   2.203   1.383 -0.6456  0.1219 -0.0666
  579TMC3    C3 8583   0.687   2.144   1.375  0.0888 -0.0576  0.1461
  579TMC3    C4 8584   0.475   1.987   1.426  0.1002 -0.4421  0.8733
  579TMC3    C5 8585   0.604   1.934   1.427  0.5240 -0.8032 -0.2054
  579TMC3    C6 8586   0.710   2.011   1.391  0.0056  0.4538 -1.0363
  579TMC3     C 8587   0.327   2.161   1.386 -0.1544 -0.5471  0.5913
  579TMC3     O 8588   0.305   2.280   1.403  0.1241 -0.2572 -0.3692
  579TMC3     H 8589   0.551   2.310   1.396 -3.0325  0.0013 -1.5345
  579TMC3    H1 8590   0.392   1.924   1.460  0.7860 -2.4268 -1.1307
  579TMC3    H2 8591   0.807   1.966   1.406  0.0192  1.2122  1.1373
  579TMC3    C7 8592   0.627   1.795   1.462 -0.6648  0.6055  0.2685
  579TMC3    C8 8593   0.780   2.229   1.308  0.4072  0.0400  0.2064
  579TMC3    O1 8594   0.740   1.758   1.503 -0.2390 -1.0116 -1.0839
  579TMC3    O2 8595   0.742   2.339   1.260 -0.2209 -0.6234  0.3905
  580TMC3    C1 8596   4.706   0.605  11.666  0.1568 -0.1931 -0.1086
  580TMC3    C2 8597   0.067   0.532  11.585  0.9505  0.4055  0.3731
  580TMC3    C3 8598   0.065   0.395  11.592 -0.3267 -0.1443 -0.1601
  580TMC3    C4 8599   4.622   0.533  11.752 -0.1874 -0.0615 -0.4049
  580TMC3    C5 8600   4.632   0.399  11.758  0.4558 -0.4821 -0.1086
  580TMC3    C6 8601   4.715   0.327  11.681  0.2120 -0.2326  0.5008
  580TMC3     C 8602   0.048   0.716  11.730  0.0897 -0.0699  0.1742
  580TMC3     O 8603   0.121   0.786  11.661 -0.0473 -0.3674 -0.2254
  580TMC3     H 8604   0.124   0.584  11.509 -0.9065  0.0906 -1.2180
  580TMC3    H1 8605   4.557   0.590  11.817 -1.1623 -0.8433 -0.6829
  580TMC3    H2 8606   4.721   0.219  11.687  0.5832 -0.3007 -1.1624
  580TMC3    C7 8607   4.647   0.362  11.897  0.1420 -0.2880 -0.3056
  580TMC3    C8 8608   0.153   0.324  11.510 -0.2381  0.2346  0.0102
  580TMC3    O1 8609   4.682   0.455  11.975  0.3356 -0.1363  0.3103
  580TMC3    O2 8610   0.134   0.202  11.491 -0.2297 -0.2748  0.5946
  581MPD2     C 8611   2.520   1.268  15.211  0.0402 -0.1995 -0.2408
  581MPD2    C1 8612   2.446   1.182  15.141  0.4916  0.7093  0.0138
  581MPD2    C2 8613   2.331   1.240  15.081 -0.2842  0.0503 -0.8158
  581MPD2    C3 8614   2.301   1.373  15.086 -0.0246 -0.1434 -0.1519
  581MPD2    C4 8615   2.389   1.456  15.154 -0.5479 -0.2147  0.0186
  581MPD2    C5 8616   2.493   1.401  15.216 -0.3459 -0.4923  0.2186
  581MPD2     H 8617   2.269   1.178  15.017 -2.1520  0.1887  0.8747
  581MPD2    H1 8618   2.371   1.562  15.168  2.3460  0.2706  0.1350
  581MPD2    H2 8619   2.609   1.227  15.257  0.5794  1.3070  0.0521
  581MPD2    H3 8620   2.566   1.466  15.263 -0.5219 -1.2755  1.5530
  581MPD2     N 8621   2.196   1.422  15.001 -0.2351 -0.3408  0.2243
  581MPD2    H5 8622   2.146   1.347  14.954  1.1281 -0.4689 -1.0337
  581MPD2    N1 8623   2.474   1.049  15.138 -0.2504  0.2452  0.2994
  581MPD2    H7 8624   2.560   1.016  15.182  1.2673  2.5662 -0.9394
  582TMC3    C1 8625   2.459   0.818  15.093  0.6149 -0.3566 -0.2157
  582TMC3    C2 8626   2.536   0.799  15.203  0.0863  0.2120 -0.5018
  582TMC3    C3 8627   2.512   0.682  15.273  0.2267  0.3184 -0.1506
  582TMC3    C4 8628   2.364   0.731  15.058  0.1269  0.2544 -0.6548
  582TMC3    C5 8629   2.332   0.626  15.138 -0.3030  0.1312  0.0904
  582TMC3    C6 8630   2.406   0.602  15.249 -0.8149  0.0438 -0.2567
  582TMC3     C 8631   2.410   0.951  15.069  0.1813 -0.2426 -0.6879
  582TMC3     O 8632   2.298   0.954  15.018 -0.1341 -0.5811  0.2208
  582TMC3     H 8633   2.623   0.860  15.223 -1.4353  2.2099 -0.0200
  582TMC3    H1 8634   2.334   0.729  14.954 -1.7023 -1.2948 -0.0975
  582TMC3    H2 8635   2.382   0.515  15.308  1.6470 -1.7177 -1.8561
  582TMC3    C7 8636   2.196   0.628  15.179 -0.2877  0.1066  0.1093
  582TMC3    C8 8637   2.578   0.677  15.401  0.2138 -0.3386  0.5132
  582TMC3    O1 8638   2.143   0.544  15.254  0.2764 -0.7507  0.2383
  582TMC3    O2 8639   2.651   0.769  15.427 -0.3889 -0.3740  0.1827
  583MPD2     C 8640   2.754   2.410  16.893 -0.2239  0.3012  0.2253
  583MPD2    C1 8641   2.735   2.521  16.820 -0.4464  0.4782 -0.6719
  583MPD2    C2 8642   2.677   2.635  16.882  0.3949  0.0205  0.6626
  583MPD2    C3 8643   2.646   2.630  17.018 -0.0325  0.1483  0.6691
  583MPD2    C4 8644   2.674   2.516  17.086 -0.1154  0.4015  0.1499
  583MPD2    C5 8645   2.731   2.405  17.026  0.4284  0.4351 -0.4242
  583MPD2     H 8646   2.661   2.730  16.832 -1.0776  1.1505  3.2738
  583MPD2    H1 8647   2.663   2.514  17.194  2.1771  0.5980  0.3755
  583MPD2    H2 8648   2.801   2.324  16.848 -1.1327 -0.2826  0.3864
  583MPD2    H3 8649   2.749   2.314  17.082 -1.3254  1.3592  1.6343
  583MPD2     N 8650   2.603   2.747  17.090 -0.6560 -0.3510 -0.2472
  583MPD2    H5 8651   2.589   2.827  17.029 -0.9869 -0.9627 -0.9774
  583MPD2    N1 8652   2.765   2.527  16.679 -0.6373  0.4939  0.2014
  583MPD2    H7 8653   2.748   2.611  16.625 -2.1839  0.6436  0.9304
  584TMC3    C1 8654   2.544   2.898  17.270 -0.1706  0.3407  0.4139
  584TMC3    C2 8655   2.584   3.008  17.197 -0.1401 -0.2686  0.4792
  584TMC3    C3 8656   2.582   3.134  17.259 -0.2192  0.3018  0.0106
  584TMC3    C4 8657   2.514   2.907  17.400 -0.1620  0.3329 -0.1901
  584TMC3    C5 8658   2.518   3.028  17.458 -0.4712  0.2643  0.2203
  584TMC3    C6 8659   2.539   3.143  17.389  0.3698 -0.9964 -0.7271
  584TMC3     C 8660   2.580   2.755  17.232 -0.1322  1.1771 -0.3048
  584TMC3     O 8661   2.599   2.672  17.320  0.1068  0.0265  0.6346
  584TMC3     H 8662   2.619   3.000  17.095 -0.7598  2.5962  0.0379
  584TMC3    H1 8663   2.486   2.819  17.457  1.0680 -0.6888 -1.1655
  584TMC3    H2 8664   2.563   3.233  17.444  0.0098 -0.9699 -0.6101
  584TMC3    C7 8665   2.475   3.025  17.599 -0.3042  0.1271  0.6766
  584TMC3    C8 8666   2.616   3.256  17.181  0.5434 -0.8063  0.2740
  584TMC3    O1 8667   2.426   2.924  17.640 -0.0555 -0.6967 -0.9288
  584TMC3    O2 8668   2.594   3.242  17.065  0.0918 -0.1896 -0.4187
  585MPD2     C 8669   1.743   1.666   0.280 -0.2599 -0.1661 -0.4929
  585MPD2    C1 8670   1.850   1.685   0.191 -0.3627  0.2176 -0.0125
  585MPD2    C2 8671   1.856   1.608   0.075  0.5795 -0.2641 -0.2155
  585MPD2    C3 8672   1.764   1.507   0.058 -0.0725 -0.1504  0.1337
  585MPD2    C4 8673   1.666   1.483   0.149 -0.2944  0.3728 -0.0674
  585MPD2    C5 8674   1.658   1.569   0.254 -0.0668 -0.1463 -0.2247
  585MPD2     H 8675   1.928   1.631  17.702  0.5351 -1.2877 -0.5544
  585MPD2    H1 8676   1.595   1.402   0.134 -0.1607 -0.2339  2.5263
  585MPD2    H2 8677   1.740   1.738   0.361  0.2980 -0.9709  0.2420
  585MPD2    H3 8678   1.575   1.552   0.321  1.1552 -0.2915  1.2648
  585MPD2     N 8679   1.761   1.434  17.646  0.2475 -0.4155 -0.0758
  585MPD2    H5 8680   1.674   1.385  17.630  0.4774 -0.3211 -1.6406
  585MPD2    N1 8681   1.938   1.790   0.218  0.3888  0.7098  0.5229
  585MPD2    H7 8682   1.932   1.839   0.307  0.3467  1.4656  0.1056
  586TMC3    C1 8683   1.792   1.365  17.429  0.1006  0.1929  0.3319
  586TMC3    C2 8684   1.870   1.335  17.325  0.4496 -0.6007  0.1792
  586TMC3    C3 8685   1.828   1.270  17.210  0.6065  0.6267 -0.3746
  586TMC3    C4 8686   1.663   1.317  17.427  0.0133  0.1850  0.4738
  586TMC3    C5 8687   1.618   1.246  17.317 -0.0481 -0.3171  0.0124
  586TMC3    C6 8688   1.704   1.223  17.214 -0.5745  0.7160  0.0329
  586TMC3     C 8689   1.853   1.423  17.547  0.2280 -0.0502  0.2823
  586TMC3     O 8690   1.957   1.492  17.538  0.0280  0.2921 -0.3251
  586TMC3     H 8691   1.965   1.387  17.330  0.8540 -1.2493 -0.6975
  586TMC3    H1 8692   1.598   1.324  17.514  0.7213 -0.1983  1.0355
  586TMC3    H2 8693   1.661   1.169  17.130 -2.7953  3.4443 -0.5692
  586TMC3    C7 8694   1.536   1.132  17.344 -0.0858 -0.4282  0.7542
  586TMC3    C8 8695   1.899   1.150  17.180  0.4664 -0.0676 -0.2310
  586TMC3    O1 8696   1.431   1.153  17.401 -0.1160  0.1684 -0.1788
  586TMC3    O2 8697   1.842   1.046  17.203  0.4527  0.3108  0.0654
  587TMC3    C1 8698   4.169   4.413  16.521 -0.0913 -0.0613  0.7178
  587TMC3    C2 8699   4.117   4.526  16.460  0.5732  0.1093 -0.4423
  587TMC3    C3 8700   4.091   4.521  16.324 -0.2003 -0.2386 -0.2153
  587TMC3    C4 8701   4.175   4.296  16.451  0.2827 -0.3430  0.1480
  587TMC3    C5 8702   4.153   4.301  16.314  0.8396  0.1205 -0.4394
  587TMC3    C6 8703   4.113   4.411  16.249 -0.0110 -0.5224  0.3526
  587TMC3     C 8704   4.160   4.395  16.664 -0.5979  0.5543  0.8273
  587TMC3     O 8705   4.201   4.286  16.712  0.2157  0.2911  0.3267
  587TMC3     H 8706   4.095   4.610  16.525  0.6320  0.8735 -1.4015
  587TMC3    H1 8707   4.206   4.211  16.511 -0.3205 -1.4659 -1.1421
  587TMC3    H2 8708   4.104   4.416  16.141 -1.4957 -0.1833  0.4894
  587TMC3    C7 8709   4.220   4.192  16.250 -0.0072 -0.0598  0.1868
  587TMC3    C8 8710   4.091   4.650  16.256  0.0735 -0.3991 -0.1534
  587TMC3    O1 8711   4.285   4.120  16.327 -0.3666  0.6792  0.0169
  587TMC3    O2 8712   4.109   4.641  16.135 -0.3809 -0.5915  0.2721
  588TMC3    C1 8713   1.467   2.600   9.785  0.0318  0.0140  0.4927
  588TMC3    C2 8714   1.443   2.462   9.774  0.4121 -0.4289 -0.1052
  588TMC3    C3 8715   1.550   2.381   9.807  0.7269 -0.8739 -0.0386
  588TMC3    C4 8716   1.581   2.656   9.835  0.5782 -0.3377  0.0800
  588TMC3    C5 8717   1.681   2.573   9.868  0.1044 -0.3076 -0.5684
  588TMC3    C6 8718   1.663   2.432   9.851 -0.2784 -0.1804 -0.2326
  588TMC3     C 8719   1.359   2.693   9.770  0.0961 -0.0826  0.0419
  588TMC3     O 8720   1.273   2.673   9.688 -0.0826  0.6664 -0.6430
  588TMC3     H 8721   1.342   2.424   9.776 -1.1048  3.6270  0.1464
  588TMC3    H1 8722   1.599   2.762   9.820  1.8858 -0.3684  1.4459
  588TMC3    H2 8723   1.739   2.364   9.890 -0.5519 -0.3416  0.0168
  588TMC3    C7 8724   1.790   2.617   9.962  0.3546 -0.2263 -0.0837
  588TMC3    C8 8725   1.520   2.240   9.813 -0.0533 -0.1313  0.0133
  588TMC3    O1 8726   1.866   2.533  10.015 -0.1494  0.6045 -0.1670
  588TMC3    O2 8727   1.419   2.209   9.758  0.0540  0.1377  0.0417
  589TMC3    C1 8728   0.270   4.336   1.159  0.1910  0.4363  0.2284
  589TMC3    C2 8729   0.384   4.385   1.208 -0.4136  0.3384  0.7025
  589TMC3    C3 8730   0.489   4.297   1.219 -0.5836  0.5311 -0.1004
  589TMC3    C4 8731   0.256   4.207   1.122  0.9236 -0.9033  0.1284
  589TMC3    C5 8732   0.369   4.126   1.116  0.5631  0.3848 -0.4795
  589TMC3    C6 8733   0.490   4.176   1.159 -0.8944 -0.0649 -0.6272
  589TMC3     C 8734   0.147   4.409   1.169 -0.0553 -0.3865 -0.0281
  589TMC3     O 8735   0.063   4.376   1.087  0.1433 -0.2366  0.4095
  589TMC3     H 8736   0.395   4.492   1.218 -0.6926  0.2883  1.5521
  589TMC3    H1 8737   0.164   4.173   1.074  1.5223  0.4899 -2.0057
  589TMC3    H2 8738   0.578   4.115   1.174 -0.1455  1.0302 -0.5039
  589TMC3    C7 8739   0.338   3.986   1.101 -0.5701 -0.2796 -0.2562
  589TMC3    C8 8740   0.624   4.350   1.248 -0.3431  0.3530 -0.0939
  589TMC3    O1 8741   0.217   3.950   1.116 -0.0543 -0.2058 -0.1061
  589TMC3    O2 8742   0.715   4.286   1.202  0.3351 -0.0765 -0.0346
  590MPD2     C 8743   0.408   3.124  16.656  0.4964 -0.5578  0.4016
  590MPD2    C1 8744   0.385   3.208  16.546 -0.5261  0.5011 -0.0923
  590MPD2    C2 8745   0.488   3.298  16.506  0.1652 -0.1772  0.3825
  590MPD2    C3 8746   0.610   3.301  16.575 -0.1076 -0.2962  0.2979
  590MPD2    C4 8747   0.641   3.195  16.659 -0.1346 -0.4574 -0.1023
  590MPD2    C5 8748   0.540   3.116  16.704 -0.5867 -0.4112  0.0405
  590MPD2     H 8749   0.460   3.387  16.450  0.4411 -0.8553 -0.8261
  590MPD2    H1 8750   0.740   3.165  16.693  0.1287  0.4602 -0.0441
  590MPD2    H2 8751   0.335   3.057  16.699  0.1384 -0.2264  0.3092
  590MPD2    H3 8752   0.572   3.035  16.769  1.6082  1.1022  0.8523
  590MPD2     N 8753   0.707   3.405  16.546  0.2433 -0.8806 -0.7696
  590MPD2    H5 8754   0.696   3.462  16.462  2.6702 -0.9748 -1.1468
  590MPD2    N1 8755   0.251   3.215  16.492  0.5025 -0.3829  0.4997
  590MPD2    H7 8756   0.181   3.155  16.534  0.8502 -0.3769  1.0939
  591TMC3    C1 8757   0.900   3.529  16.548 -0.8073  0.9674  0.5217
  591TMC3    C2 8758   1.029   3.508  16.523 -0.7266  0.1245  0.7961
  591TMC3    C3 8759   1.100   3.617  16.472 -0.1233 -0.2570  0.4566
  591TMC3    C4 8760   0.835   3.648  16.531  0.2365 -0.4825 -0.3413
  591TMC3    C5 8761   0.908   3.747  16.468  0.2017  0.4288 -0.2246
  591TMC3    C6 8762   1.039   3.741  16.450  0.0303  0.1439 -0.1958
  591TMC3     C 8763   0.833   3.411  16.595  0.7221 -0.5750 -1.2359
  591TMC3     O 8764   0.879   3.361  16.695 -0.1566 -0.1838  0.4261
  591TMC3     H 8765   1.084   3.417  16.546 -0.2926  0.8780  2.6683
  591TMC3    H1 8766   0.732   3.663  16.563  0.7434 -0.8613  1.4624
  591TMC3    H2 8767   1.099   3.817  16.403  0.4752 -0.5397 -0.7322
  591TMC3    C7 8768   0.839   3.869  16.428 -0.2187 -0.2706 -0.2658
  591TMC3    C8 8769   1.203   3.568  16.379  0.0445 -0.3638 -0.2775
  591TMC3    O1 8770   0.717   3.869  16.440  0.5832  0.7285  0.3391
  591TMC3    O2 8771   1.209   3.448  16.360  0.4732  0.3917  0.0457
  592MPD2     C 8772   1.284   0.468  11.462  0.0406 -0.0083  0.2649
  592MPD2    C1 8773   1.272   0.547  11.579  0.4455 -0.3618 -0.7113
  592MPD2    C2 8774   1.174   0.517  11.664  0.4447  0.3020 -1.0014
  592MPD2    C3 8775   1.083   0.409  11.646 -0.0549 -0.3260  0.0776
  592MPD2    C4 8776   1.106   0.327  11.537 -0.1313  0.4735  0.7656
  592MPD2    C5 8777   1.208   0.354  11.451  0.2530  0.7899  0.1688
  592MPD2     H 8778   1.149   0.586  11.744 -1.0719 -0.9305 -0.4090
  592MPD2    H1 8779   1.059   0.234  11.507 -0.5718  0.9523 -0.0576
  592MPD2    H2 8780   1.370   0.484  11.399 -0.5416  2.7201  0.1261
  592MPD2    H3 8781   1.241   0.295  11.366 -2.7899  0.6534 -0.9215
  592MPD2     N 8782   0.990   0.375  11.749  0.3126 -0.6111 -0.1368
  592MPD2    H5 8783   0.976   0.450  11.816 -0.3576  0.5818 -1.6060
  592MPD2    N1 8784   1.353   0.665  11.569 -0.0632 -0.5271  0.1115
  592MPD2    H7 8785   1.395   0.678  11.478  0.6243 -2.7600  0.1124
  593TMC3    C1 8786   1.456   0.861  11.659 -0.1841  0.6643 -0.2608
  593TMC3    C2 8787   1.474   0.939  11.774  0.3316 -0.3189  0.5491
  593TMC3    C3 8788   1.573   1.037  11.764  0.1734  0.3452 -0.1928
  593TMC3    C4 8789   1.544   0.866  11.551  0.5163  0.0147 -0.1277
  593TMC3    C5 8790   1.625   0.975  11.538 -0.7825 -0.3065  0.2718
  593TMC3    C6 8791   1.646   1.056  11.649  0.5074 -0.3854 -0.1332
  593TMC3     C 8792   1.380   0.739  11.678 -0.1576 -0.3492 -0.2897
  593TMC3     O 8793   1.371   0.708  11.795  0.4940 -0.4104  0.1840
  593TMC3     H 8794   1.420   0.942  11.868 -0.1471 -0.3936  0.2774
  593TMC3    H1 8795   1.547   0.800  11.465  1.1576  0.5068 -0.4863
  593TMC3    H2 8796   1.708   1.144  11.645 -0.7417  0.5524  1.5401
  593TMC3    C7 8797   1.698   1.014  11.414 -0.3451 -0.0748  0.1115
  593TMC3    C8 8798   1.586   1.142  11.868 -0.4196 -0.8323 -0.1558
  593TMC3    O1 8799   1.800   1.075  11.425 -0.2536 -0.1174 -0.0870
  593TMC3    O2 8800   1.486   1.181  11.928 -0.0137 -0.5290  0.2385
  594MPD2     C 8801   0.079   4.166  14.061 -0.1546 -0.5076 -0.1678
  594MPD2    C1 8802   0.058   4.118  14.190 -0.4735  0.4603 -0.0258
  594MPD2    C2 8803   0.141   4.166  14.292  0.4317  0.3346  0.6140
  594MPD2    C3 8804   0.246   4.248  14.250 -0.2819  0.6722  0.7673
  594MPD2    C4 8805   0.265   4.280  14.117 -0.4450  0.5414  0.6448
  594MPD2    C5 8806   0.191   4.230  14.016  0.2566  0.5700  0.2256
  594MPD2     H 8807   0.117   4.158  14.397 -0.1246  0.1685  0.4730
  594MPD2    H1 8808   0.342   4.350  14.086  0.6997 -1.4301 -0.9823
  594MPD2    H2 8809   0.020   4.114  13.986 -1.7237 -1.3545  1.6733
  594MPD2    H3 8810   0.208   4.251  13.911 -2.3514  1.6651  0.0261
  594MPD2     N 8811   0.317   4.308  14.360 -0.3373  0.0699  0.4313
  594MPD2    H5 8812   0.278   4.285  14.452 -2.1962 -1.7175 -0.7969
  594MPD2    N1 8813   4.675   4.032  14.222 -0.3741 -0.4205 -0.4036
  594MPD2    H7 8814   4.604   4.021  14.149 -0.8211  1.3026 -0.2287
  595TMC3    C1 8815   0.659   4.488  14.613 -0.1932 -0.4213 -0.0839
  595TMC3    C2 8816   0.616   4.410  14.509 -1.2533  0.1110 -0.2592
  595TMC3    C3 8817   0.480   4.419  14.483 -0.3566 -0.1535 -0.5502
  595TMC3    C4 8818   0.581   4.569  14.690 -1.0333 -0.4379  1.2851
  595TMC3    C5 8819   0.449   4.582  14.649  0.6180 -0.3416  0.0897
  595TMC3    C6 8820   0.393   4.508  14.551 -1.4975 -1.0762 -0.5374
  595TMC3     C 8821   0.807   4.489  14.643 -0.3672 -0.9336  0.2446
  595TMC3     O 8822   0.844   4.550  14.745  0.2092  0.1123 -0.3290
  595TMC3     H 8823   0.683   4.341  14.459 -4.0747 -3.2516  0.6180
  595TMC3    H1 8824   0.624   4.611  14.780  0.9889 -0.1400  0.1843
  595TMC3    H2 8825   0.286   4.507  14.530 -1.3479 -0.0558 -1.3744
  595TMC3    C7 8826   0.365   4.689  14.703 -0.0034  0.0549 -0.1593
  595TMC3    C8 8827   0.438   4.377  14.352  0.3788 -0.1433  0.3050
  595TMC3    O1 8828   0.247   4.675  14.681  0.0543 -0.2951 -0.1514
  595TMC3    O2 8829   0.530   4.369  14.268 -0.0879  0.5065 -0.1184
  596MPD2     C 8830   3.545   2.051  16.744  0.0895 -0.2962 -0.5613
  596MPD2    C1 8831   3.569   2.156  16.667  0.0358 -0.5706 -0.1936
  596MPD2    C2 8832   3.591   2.144  16.529 -0.4513  0.7293  0.1671
  596MPD2    C3 8833   3.567   2.025  16.463 -0.6677 -0.0128 -0.1961
  596MPD2    C4 8834   3.540   1.924  16.544 -0.1226 -0.0369 -0.1675
  596MPD2    C5 8835   3.531   1.933  16.678  0.8062  0.1875  0.2146
  596MPD2     H 8836   3.597   2.239  16.476 -1.7898  1.4396  1.2741
  596MPD2    H1 8837   3.526   1.824  16.503 -2.0658 -0.5610  1.7329
  596MPD2    H2 8838   3.521   2.055  16.850  1.3377  1.7380 -0.3585
  596MPD2    H3 8839   3.523   1.849  16.746 -0.7470 -0.5564 -0.8952
  596MPD2     N 8840   3.558   2.004  16.323  0.1606 -0.4926 -0.0103
  596MPD2    H5 8841   3.502   1.926  16.290  0.7177 -0.5781 -0.7410
  596MPD2    N1 8842   3.583   2.287  16.713  0.1781  0.0904  0.1939
  596MPD2    H7 8843   3.631   2.351  16.651  1.3569  0.4916  1.5163
  597TMC3    C1 8844   3.548   2.482  16.839 -0.4989 -0.9670  0.7317
  597TMC3    C2 8845   3.608   2.547  16.738 -0.4435  0.0127 -0.3067
  597TMC3    C3 8846   3.591   2.686  16.737 -0.1391 -0.1859 -0.1907
  597TMC3    C4 8847   3.474   2.544  16.934 -0.4982 -0.0386  0.3927
  597TMC3    C5 8848   3.453   2.676  16.927  0.0388  0.3447 -0.3569
  597TMC3    C6 8849   3.521   2.753  16.830 -0.2681  0.1036 -0.6489
  597TMC3     C 8850   3.531   2.338  16.827 -0.1846 -0.2313  0.1652
  597TMC3     O 8851   3.470   2.283  16.918  0.2432 -0.3489 -0.3701
  597TMC3     H 8852   3.683   2.497  16.678 -0.1330  2.0561 -1.6371
  597TMC3    H1 8853   3.423   2.484  17.009 -2.6320  2.0207  0.6117
  597TMC3    H2 8854   3.527   2.861  16.835 -1.5472  0.0784  1.1786
  597TMC3    C7 8855   3.361   2.735  17.021 -0.2196  0.7024  0.5399
  597TMC3    C8 8856   3.618   2.766  16.617  0.4195  0.5192 -0.3744
  597TMC3    O1 8857   3.323   2.669  17.118 -0.0115  0.1776 -0.1123
  597TMC3    O2 8858   3.583   2.886  16.617 -0.3257  0.5475  0.9704
  598TMC3    C1 8859   2.005   4.081  15.318 -0.1837  0.5482 -0.2287
  598TMC3    C2 8860   1.912   3.981  15.299  0.0985  0.0189  0.2749
  598TMC3    C3 8861   1.868   3.969  15.170 -0.1326 -0.0699 -0.1029
  598TMC3    C4 8862   2.032   4.171  15.214  0.5155  0.2061 -0.2122
  598TMC3    C5 8863   1.989   4.145  15.089  0.8267 -0.2038 -0.6525
  598TMC3    C6 8864   1.896   4.047  15.063  0.1368  0.1611  0.0479
  598TMC3     C 8865   2.085   4.102  15.440 -0.0757  0.0321 -0.8186
  598TMC3     O 8866   2.189   4.165  15.423 -0.6993 -0.1284  0.1360
  598TMC3     H 8867   1.872   3.910  15.372  2.2177 -2.5976 -1.1277
  598TMC3    H1 8868   2.095   4.253  15.246  1.6914 -0.1611 -1.6082
  598TMC3    H2 8869   1.865   4.031  14.960 -1.4630  0.2767  0.5023
  598TMC3    C7 8870   2.046   4.204  14.970  0.1881  0.6270 -0.3615
  598TMC3    C8 8871   1.776   3.858  15.140 -0.1503 -0.4349 -0.2202
  598TMC3    O1 8872   1.977   4.200  14.869 -0.8824 -0.0477 -0.1089
  598TMC3    O2 8873   1.730   3.795  15.235 -0.3547 -0.2111  0.1208
  599MPD2     C 8874   1.526   1.042  15.760  0.2161  0.2547  0.0940
  599MPD2    C1 8875   1.601   1.142  15.819  0.0811 -0.6902 -0.7666
  599MPD2    C2 8876   1.528   1.231  15.904 -0.6407 -0.1430 -0.7873
  599MPD2    C3 8877   1.399   1.208  15.935 -0.1174  0.3214 -0.0154
  599MPD2    C4 8878   1.331   1.107  15.876 -0.6592 -0.4248  0.0339
  599MPD2    C5 8879   1.394   1.029  15.779 -0.0732  0.2088 -0.2172
  599MPD2     H 8880   1.583   1.308  15.957  1.6703 -0.2026 -3.1191
  599MPD2    H1 8881   1.228   1.093  15.905 -1.2922  1.6114 -1.2673
  599MPD2    H2 8882   1.565   0.961  15.700 -1.3400 -0.1149 -0.4255
  599MPD2    H3 8883   1.343   0.940  15.746 -1.0956  1.6396 -2.5016
  599MPD2     N 8884   1.329   1.285  16.041 -0.0747  0.2323  0.1624
  599MPD2    H5 8885   1.229   1.271  16.053 -0.2172  1.9249  1.0366
  599MPD2    N1 8886   1.743   1.130  15.805  0.6121 -0.1862 -0.0348
  599MPD2    H7 8887   1.777   1.053  15.748  1.1356 -0.4134  0.5866
  600TMC3    C1 8888   1.289   1.450  16.197 -0.4697  0.6507 -0.0330
  600TMC3    C2 8889   1.193   1.367  16.247  0.6268  0.1001  0.3093
  600TMC3    C3 8890   1.107   1.420  16.337  0.1848  0.2456  0.4564
  600TMC3    C4 8891   1.292   1.582  16.221 -0.2105 -0.0534  0.4670
  600TMC3    C5 8892   1.196   1.642  16.311 -0.0547  0.1514  0.5034
  600TMC3    C6 8893   1.109   1.556  16.373  0.7044  1.2236 -0.8885
  600TMC3     C 8894   1.386   1.384  16.119 -0.4593 -0.1866 -0.3853
  600TMC3     O 8895   1.501   1.424  16.128  0.3625 -0.5348  0.2422
  600TMC3     H 8896   1.218   1.261  16.250  0.1012  0.0472  2.8758
  600TMC3    H1 8897   1.360   1.643  16.164 -0.5377 -0.5302 -0.4446
  600TMC3    H2 8898   1.033   1.591  16.442 -0.0128 -0.2983 -0.9163
  600TMC3    C7 8899   1.177   1.783  16.330  1.1097  0.2199 -0.5982
  600TMC3    C8 8900   1.026   1.326  16.412  0.1419 -0.3779  0.4742
  600TMC3    O1 8901   1.063   1.810  16.359 -0.2499  0.0570  0.2109
  600TMC3    O2 8902   0.972   1.368  16.513 -0.6258  0.2390 -0.1229
  601MPD2     C 8903   3.801   4.433   0.269 -0.6299  0.5176  0.0736
  601MPD2    C1 8904   3.671   4.423   0.254 -0.7857  0.1611 -0.1476
  601MPD2    C2 8905   3.626   4.302   0.209 -0.5138 -0.0716 -0.2384
  601MPD2    C3 8906   3.703   4.204   0.161  0.6974  0.8470  0.5076
  601MPD2    C4 8907   3.838   4.220   0.170 -0.0340 -0.0493 -0.0175
  601MPD2    C5 8908   3.886   4.339   0.223 -0.5687 -0.2692 -0.2412
  601MPD2     H 8909   3.518   4.294   0.209 -0.5460  0.5170 -2.3420
  601MPD2    H1 8910   3.902   4.145   0.125 -1.7135 -2.8685  2.3003
  601MPD2    H2 8911   3.850   4.517   0.318  0.5430 -0.1460  0.0342
  601MPD2    H3 8912   3.991   4.361   0.243 -1.2296  0.5349  2.3534
  601MPD2     N 8913   3.654   4.076   0.115  0.1385  0.0910 -0.5633
  601MPD2    H5 8914   3.726   4.010   0.090 -0.1904 -0.6079  0.3434
  601MPD2    N1 8915   3.582   4.531   0.267  0.6855 -0.3274 -0.2586
  601MPD2    H7 8916   3.483   4.509   0.266  0.7478 -0.6163 -0.0930
  602TMC3    C1 8917   3.477   0.011   0.263  0.2019 -0.2053  0.3863
  602TMC3    C2 8918   3.474   0.148   0.292 -0.4151 -0.3229  0.0822
  602TMC3    C3 8919   3.386   0.232   0.231  0.5282  0.2345  1.6825
  602TMC3    C4 8920   3.396   4.686   0.161  0.0757 -0.2284  0.4768
  602TMC3    C5 8921   3.310   0.044   0.096  0.3816  0.3204 -0.6458
  602TMC3    C6 8922   3.303   0.184   0.130  0.5896 -0.6249 -0.4114
  602TMC3     C 8923   3.602   4.668   0.286  0.2551  0.1537  0.1209
  602TMC3     O 8924   3.698   0.003   0.330 -0.3935  0.5464  0.2264
  602TMC3     H 8925   3.542   0.176   0.372  1.6936  0.1996 -1.9163
  602TMC3    H1 8926   3.390   4.579   0.142 -0.8160  0.1749 -1.5766
  602TMC3    H2 8927   3.237   0.246   0.071  3.3234  0.7998 -2.0131
  602TMC3    C7 8928   3.203   4.718   0.006  0.7039 -0.0417  0.7162
  602TMC3    C8 8929   3.365   0.364   0.288 -0.1408  0.5224  0.3680
  602TMC3    O1 8930   3.229   4.628  17.633  0.6302 -0.5266  0.6954
  602TMC3    O2 8931   3.413   0.378   0.402  0.2619 -0.3852 -0.4691
  603TMC3    C1 8932   1.657   0.110  11.489 -0.4458  0.3163  0.0725
  603TMC3    C2 8933   1.684   0.089  11.625 -0.4846  1.0056 -0.1817
  603TMC3    C3 8934   1.796   0.146  11.688 -0.0674  0.0005  0.2372
  603TMC3    C4 8935   1.745   0.177  11.414 -0.4803  0.4895  0.4990
  603TMC3    C5 8936   1.861   0.231  11.470  0.4484 -0.1679  0.4618
  603TMC3    C6 8937   1.884   0.219  11.606  0.0325 -0.3052  0.5175
  603TMC3     C 8938   1.552   0.045  11.422 -0.0140  0.1968 -0.7020
  603TMC3     O 8939   1.564   0.020  11.303 -0.6283 -0.4595  0.2788
  603TMC3     H 8940   1.620   0.021  11.680  0.7232  0.2094  0.2264
  603TMC3    H1 8941   1.721   0.205  11.312  0.8019 -2.6077 -0.6723
  603TMC3    H2 8942   1.989   0.223  11.631 -0.3304 -3.2481  2.5268
  603TMC3    C7 8943   1.962   0.294  11.392 -0.4864  0.1913 -0.0623
  603TMC3    C8 8944   1.816   0.119  11.827 -0.2599 -0.3881  0.0892
  603TMC3    O1 8945   2.043   0.357  11.455  0.5141  0.2477 -0.2637
  603TMC3    O2 8946   1.739   0.038  11.876  0.0448 -0.0217  0.5008
  604MPD2     C 8947   2.868   3.785  16.204  0.3395  0.2020  0.5536
  604MPD2    C1 8948   2.765   3.695  16.200  0.1068  0.3948  0.1643
  604MPD2    C2 8949   2.765   3.588  16.121 -0.3343  0.2345 -0.1847
  604MPD2    C3 8950   2.876   3.565  16.037 -0.7724 -0.0494 -0.1974
  604MPD2    C4 8951   2.977   3.659  16.039 -0.1938 -0.3237  0.1997
  604MPD2    C5 8952   2.976   3.760  16.131  0.0360  0.0950 -0.0904
  604MPD2     H 8953   2.691   3.509  16.127  1.4937 -1.1838  3.6493
  604MPD2    H1 8954   3.063   3.649  15.974  0.6986  0.0493  1.3214
  604MPD2    H2 8955   2.867   3.876  16.262 -2.8939  1.2944 -1.2438
  604MPD2    H3 8956   3.049   3.840  16.123  1.5941 -1.2706  0.6461
  604MPD2     N 8957   2.873   3.451  15.953 -0.3607 -0.3704 -0.0711
  604MPD2    H5 8958   2.791   3.392  15.954  1.0725 -2.3474  0.4299
  604MPD2    N1 8959   2.670   3.713  16.298 -0.3949 -0.0814  0.4517
  604MPD2    H7 8960   2.676   3.791  16.363  0.1638  1.2494 -1.1954
  605TMC3    C1 8961   2.496   3.679  16.453 -0.2923  0.0507  0.8351
  605TMC3    C2 8962   2.572   3.735  16.550  0.2755 -0.5854  0.6845
  605TMC3    C3 8963   2.515   3.796  16.660 -0.3441 -0.6077  0.3406
  605TMC3    C4 8964   2.355   3.677  16.459  0.3825  0.1069 -0.3378
  605TMC3    C5 8965   2.305   3.752  16.557  0.7176  0.0818  0.5828
  605TMC3    C6 8966   2.380   3.806  16.653 -0.1550 -0.2450 -1.1455
  605TMC3     C 8967   2.565   3.624  16.336 -0.0866  0.6088 -0.3877
  605TMC3     O 8968   2.519   3.529  16.274 -0.4942  0.8083  0.5877
  605TMC3     H 8969   2.679   3.715  16.554  0.5243 -0.2286 -3.9510
  605TMC3    H1 8970   2.303   3.619  16.384 -0.0305  1.1389 -0.8494
  605TMC3    H2 8971   2.329   3.862  16.731 -0.5932 -1.5067 -0.5218
  605TMC3    C7 8972   2.193   3.841  16.526 -0.0137  0.1980  0.2569
  605TMC3    C8 8973   2.598   3.904  16.711  0.4944  1.2512 -0.6693
  605TMC3    O1 8974   2.139   3.906  16.614  0.9652  0.1378  0.1283
  605TMC3    O2 8975   2.705   3.923  16.657  0.9791 -0.2093  0.4556
  606TMC3    C1 8976   3.878   1.327  16.623 -0.0427 -0.6595 -0.1474
  606TMC3    C2 8977   3.853   1.452  16.584 -0.2670 -0.8547 -0.5602
  606TMC3    C3 8978   3.826   1.551  16.674  0.4594 -0.3743 -0.4959
  606TMC3    C4 8979   3.866   1.290  16.752 -0.1305  0.2695  0.1302
  606TMC3    C5 8980   3.819   1.388  16.840 -0.1841 -0.5630 -0.1493
  606TMC3    C6 8981   3.790   1.517  16.804  0.5345 -0.1617  0.7075
  606TMC3     C 8982   3.868   1.225  16.518  0.7085 -1.0035  0.3992
  606TMC3     O 8983   3.824   1.258  16.412 -0.3585 -0.0527 -0.4699
  606TMC3     H 8984   3.872   1.490  16.484  0.2306  2.4196  0.7921
  606TMC3    H1 8985   3.883   1.189  16.787  0.7396  0.8938  1.5070
  606TMC3    H2 8986   3.757   1.585  16.882 -2.8920 -0.0051 -0.8660
  606TMC3    C7 8987   3.811   1.350  16.977  0.9699 -0.3511 -0.3954
  606TMC3    C8 8988   3.902   1.671  16.641 -0.0910  0.4864 -0.6928
  606TMC3    O1 8989   3.893   1.276  17.023 -0.8224 -0.4216 -0.5042
  606TMC3    O2 8990   3.929   1.703  16.523 -0.1643 -0.3888  0.1163
  607MPD2     C 8991   1.139   0.095  11.937 -0.0818  0.1520 -0.6183
  607MPD2    C1 8992   1.165   0.224  11.979 -0.2825 -0.3401  0.3485
  607MPD2    C2 8993   1.097   0.267  12.093 -0.1807 -0.5288 -0.6464
  607MPD2    C3 8994   0.997   0.198  12.153 -0.4513  0.2943  0.2972
  607MPD2    C4 8995   0.959   0.079  12.095  0.0526 -0.2512 -0.6060
  607MPD2    C5 8996   1.037   0.025  11.997  0.7867 -0.4275 -0.0423
  607MPD2     H 8997   1.128   0.360  12.138 -2.7893  0.5049 -1.0187
  607MPD2    H1 8998   0.882   0.020  12.144  0.6795  0.1129  0.8084
  607MPD2    H2 8999   1.203   0.031  11.877  0.3294 -0.8060  0.8548
  607MPD2    H3 9000   1.017   4.646  11.984 -1.9131  0.2634 -1.5147
  607MPD2     N 9001   0.939   0.262  12.259 -0.1243 -0.0400  0.0950
  607MPD2    H5 9002   0.980   0.353  12.277 -0.4646 -0.4350  2.7870
  607MPD2    N1 9003   1.283   0.292  11.930 -0.9033 -0.2651 -0.4780
  607MPD2    H7 9004   1.301   0.382  11.975 -0.0468 -0.3003 -0.7562
  608TMC3    C1 9005   1.479   0.363  11.841  0.7642  0.3078  0.1260
  608TMC3    C2 9006   1.518   0.412  11.963  0.2799 -1.0620  0.2718
  608TMC3    C3 9007   1.602   0.520  11.965 -0.1577  0.1126  0.2914
  608TMC3    C4 9008   1.543   0.394  11.729  1.4353  1.0866  0.3117
  608TMC3    C5 9009   1.643   0.492  11.735 -0.5674 -0.1555  0.5344
  608TMC3    C6 9010   1.673   0.557  11.854  0.0237  0.8673  0.4203
  608TMC3     C 9011   1.374   0.263  11.834 -0.0419 -0.6116 -0.3039
  608TMC3     O 9012   1.379   0.175  11.749  0.5661 -0.3064  0.5647
  608TMC3     H 9013   1.466   0.392  12.057 -0.4716  0.7900  0.2491
  608TMC3    H1 9014   1.511   0.358  11.632 -1.7345 -1.0766  2.1508
  608TMC3    H2 9015   1.721   0.654  11.855  0.5178  0.6450 -1.2472
  608TMC3    C7 9016   1.707   0.524  11.610 -0.2477 -0.5053  0.4113
  608TMC3    C8 9017   1.625   0.590  12.093  0.3864  0.4553  0.1954
  608TMC3    O1 9018   1.660   0.474  11.510 -0.1472 -0.0232 -0.4641
  608TMC3    O2 9019   1.741   0.611  12.129  0.0145 -0.1091 -0.0116
  609TMC3    C1 9020   3.807   3.942   9.597  0.1536  0.1309 -0.4689
  609TMC3    C2 9021   3.756   4.007   9.488  0.3661  0.1328  0.9118
  609TMC3    C3 9022   3.803   3.981   9.362  0.7207 -0.4902  0.3343
  609TMC3    C4 9023   3.905   3.843   9.583  0.5273  0.6912  0.6701
  609TMC3    C5 9024   3.953   3.834   9.456  1.1766  0.0162 -0.2726
  609TMC3    C6 9025   3.899   3.896   9.349  0.0004  0.4485  0.1568
  609TMC3     C 9026   3.754   3.942   9.734  0.1987  0.9625  0.6178
  609TMC3     O 9027   3.781   3.850   9.814  0.1502 -0.1077  0.2466
  609TMC3     H 9028   3.668   4.068   9.503  0.9234  1.2835 -0.4839
  609TMC3    H1 9029   3.945   3.789   9.667  0.0454 -2.4330 -1.1049
  609TMC3    H2 9030   3.960   3.891   9.260 -0.9884 -0.1367 -0.4967
  609TMC3    C7 9031   4.079   3.761   9.442  0.1838 -0.9347 -0.1238
  609TMC3    C8 9032   3.778   4.075   9.256  0.6854  0.0950 -0.4771
  609TMC3    O1 9033   4.151   3.767   9.539 -0.3197  0.2018 -0.3566
  609TMC3    O2 9034   3.806   4.036   9.141  0.3409  0.0268 -0.1407
  610TMC3    C1 9035   1.556   0.477  12.955 -0.3877  0.3351 -0.1437
  610TMC3    C2 9036   1.546   0.469  12.818 -0.0054  0.3448 -0.3541
  610TMC3    C3 9037   1.662   0.421  12.756  0.0489  0.1584  0.2334
  610TMC3    C4 9038   1.667   0.443  13.029 -1.7410  0.7606 -0.1536
  610TMC3    C5 9039   1.774   0.402  12.960 -0.7735 -0.2906  0.4346
  610TMC3    C6 9040   1.767   0.388  12.826 -0.0134  0.4774 -0.3126
  610TMC3     C 9041   1.445   0.548  13.020 -0.5206  0.2628  0.5912
  610TMC3     O 9042   1.336   0.556  12.963  0.0606 -0.3071  0.4196
  610TMC3     H 9043   1.460   0.504  12.764 -1.4873 -1.4062  0.8800
  610TMC3    H1 9044   1.679   0.449  13.136 -1.2227 -1.2936 -0.0918
  610TMC3    H2 9045   1.855   0.348  12.776  0.6611 -0.0116  1.2756
  610TMC3    C7 9046   1.852   0.304  13.031  0.5033 -0.3031 -0.3142
  610TMC3    C8 9047   1.672   0.373  12.615  0.6102  0.0667  0.0081
  610TMC3    O1 9048   1.890   0.213  12.961 -0.3161  0.5745 -0.0366
  610TMC3    O2 9049   1.782   0.346  12.566 -0.4771  0.6815 -0.2639
  611MPD2     C 9050   1.261   4.565  10.463 -0.1669 -1.0574 -0.5393
  611MPD2    C1 9051   1.197   4.684  10.422  0.0990 -0.0373  0.1873
  611MPD2    C2 9052   1.271   0.075  10.422  0.0308 -0.1060 -0.4791
  611MPD2    C3 9053   1.397   0.074  10.475 -0.2400 -0.3670  0.2812
  611MPD2    C4 9054   1.456   4.684  10.523  0.8999 -0.0589  0.1545
  611MPD2    C5 9055   1.388   4.569  10.504 -0.7200  0.5819 -0.1492
  611MPD2     H 9056   1.231   0.158  10.365 -0.4571  0.0306  0.0685
  611MPD2    H1 9057   1.556   4.691  10.564  0.4031  3.1221  0.8799
  611MPD2    H2 9058   1.213   4.468  10.460  1.3188 -1.7776 -1.0043
  611MPD2    H3 9059   1.432   4.478  10.543  1.0970  1.6047  0.2292
  611MPD2     N 9060   1.477   0.188  10.457  0.2299  0.1150 -0.0571
  611MPD2    H5 9061   1.451   0.261  10.391 -0.0390 -1.3679 -1.6055
  611MPD2    N1 9062   1.067   4.669  10.372  0.4928  0.9098 -0.1712
  611MPD2    H7 9063   1.029   4.575  10.379  4.1432 -0.5263  0.7948
  612TMC3    C1 9064   1.671   0.319  10.517  0.2855 -0.3528  0.1096
  612TMC3    C2 9065   1.780   0.321  10.599 -0.6322 -0.9146  0.4139
  612TMC3    C3 9066   1.878   0.415  10.570  0.8009  0.4123  0.0796
  612TMC3    C4 9067   1.665   0.393  10.402  0.0111  0.3084  0.4280
  612TMC3    C5 9068   1.762   0.486  10.375 -0.0854 -0.5767 -0.3562
  612TMC3    C6 9069   1.867   0.493  10.462  0.9279 -0.6343 -0.5681
  612TMC3     C 9070   1.582   0.210  10.544 -0.4376 -0.1727 -0.7681
  612TMC3     O 9071   1.605   0.169  10.655  0.1835 -0.2868  0.4159
  612TMC3     H 9072   1.804   0.245  10.673  2.1874  1.4941  1.9615
  612TMC3    H1 9073   1.585   0.397  10.328 -1.1737 -3.6011  1.4563
  612TMC3    H2 9074   1.950   0.563  10.450 -0.0725  0.4577 -1.0605
  612TMC3    C7 9075   1.774   0.555  10.248 -0.4983 -0.1675 -0.1250
  612TMC3    C8 9076   1.980   0.446  10.670  0.0853  0.5552  0.5995
  612TMC3    O1 9077   1.706   0.503  10.159  0.6401 -0.9590 -0.0148
  612TMC3    O2 9078   2.085   0.505  10.639 -0.3345 -0.2154 -0.2963
  613MPD2     C 9079   0.364   2.989  16.272 -0.2205 -0.6978 -0.0034
  613MPD2    C1 9080   0.262   2.920  16.204  0.1975  0.0061  0.1867
  613MPD2    C2 9081   0.250   2.777  16.221 -0.3879  0.0920  0.0934
  613MPD2    C3 9082   0.329   2.711  16.313 -0.4102  0.3422 -0.4159
  613MPD2    C4 9083   0.427   2.783  16.374  0.4638  0.7093 -0.6325
  613MPD2    C5 9084   0.438   2.917  16.353 -0.4754 -0.4403  0.1611
  613MPD2     H 9085   0.177   2.723  16.162 -0.4356 -0.2770  0.4855
  613MPD2    H1 9086   0.507   2.741  16.434 -0.7736  0.4519  0.8310
  613MPD2    H2 9087   0.383   3.093  16.251 -0.6180 -0.9710 -1.7131
  613MPD2    H3 9088   0.526   2.966  16.394 -2.5245  2.2388  1.3366
  613MPD2     N 9089   0.334   2.566  16.332  0.0189  0.5559  0.1169
  613MPD2    H5 9090   0.415   2.528  16.381 -0.2743 -2.3490 -1.6689
  613MPD2    N1 9091   0.191   2.993  16.104  0.4585  0.9644 -0.5800
  613MPD2    H7 9092   0.239   3.072  16.062  0.5634  0.4558 -1.4306
  614TMC3    C1 9093   0.049   2.987  15.914  0.8579  0.4401 -0.4592
  614TMC3    C2 9094   0.151   2.972  15.829  0.1251 -0.3016 -0.7590
  614TMC3    C3 9095   0.132   2.913  15.707  0.5107 -0.2089 -0.3346
  614TMC3    C4 9096   4.646   2.960  15.881 -0.6998  0.2173  0.1360
  614TMC3    C5 9097   4.625   2.901  15.756 -0.6146 -0.1949  0.1268
  614TMC3    C6 9098   4.726   2.879  15.675  0.0061 -0.0214  0.2176
  614TMC3     C 9099   0.069   2.953  16.052 -0.5216  0.7167 -0.1291
  614TMC3     O 9100   4.716   2.872  16.098 -0.0316  0.2689  0.0817
  614TMC3     H 9101   0.249   3.008  15.857  0.2611 -0.9524 -0.3924
  614TMC3    H1 9102   4.564   2.975  15.949 -0.0458  1.8331  0.5591
  614TMC3    H2 9103   4.707   2.856  15.571 -0.5852  0.4987  0.2055
  614TMC3    C7 9104   4.490   2.902  15.701 -0.0753 -0.8669 -0.5931
  614TMC3    C8 9105   0.239   2.821  15.677 -0.6674 -1.0231  0.2423
  614TMC3    O1 9106   4.417   2.999  15.724  0.2139  0.0133 -0.4202
  614TMC3    O2 9107   0.339   2.816  15.750 -0.0602 -0.0729  0.5378
  615MPD2     C 9108   3.955   3.444  15.422  0.3863 -0.2612 -0.5171
  615MPD2    C1 9109   3.903   3.500  15.539  0.8048  0.8124  0.4185
  615MPD2    C2 9110   3.772   3.467  15.569 -0.4044 -0.1378  0.2717
  615MPD2    C3 9111   3.687   3.404  15.480  0.3685  0.4575  0.7053
  615MPD2    C4 9112   3.739   3.357  15.363 -0.2070 -0.2278 -0.4343
  615MPD2    C5 9113   3.876   3.369  15.335  0.1057 -0.3059  0.2517
  615MPD2     H 9114   3.732   3.498  15.666 -1.1362 -0.8280  0.1867
  615MPD2    H1 9115   3.672   3.313  15.289  0.5659  0.3841 -1.5089
  615MPD2    H2 9116   4.059   3.453  15.391  0.7866 -1.4809  0.4449
  615MPD2    H3 9117   3.919   3.328  15.244 -3.1000 -3.9126  0.3650
  615MPD2     N 9118   3.550   3.383  15.486  0.5789 -0.4003  0.6050
  615MPD2    H5 9119   3.510   3.350  15.399  2.0601  1.7338 -0.8614
  615MPD2    N1 9120   3.972   3.590  15.626  0.6721  0.1878  0.4256
  615MPD2    H7 9121   3.930   3.617  15.714 -2.1457  2.3963 -1.6119
  616TMC3    C1 9122   4.147   3.715  15.707  1.2010 -0.3810  0.8088
  616TMC3    C2 9123   4.275   3.680  15.734  0.3680 -0.0206 -0.0988
  616TMC3    C3 9124   4.335   3.732  15.845  0.0115  0.7049  0.4770
  616TMC3    C4 9125   4.067   3.788  15.786  0.1590 -0.0730  0.1744
  616TMC3    C5 9126   4.129   3.825  15.905 -0.3213  0.6192  0.9758
  616TMC3    C6 9127   4.264   3.806  15.938 -0.5764 -0.1465 -0.2552
  616TMC3     C 9128   4.093   3.647  15.591 -0.3332 -0.3897 -0.2147
  616TMC3     O 9129   4.169   3.632  15.494  0.3192  0.8191 -0.0892
  616TMC3     H 9130   4.318   3.605  15.669 -0.4343 -0.5347 -0.0394
  616TMC3    H1 9131   3.963   3.801  15.757  0.4659  0.9736 -0.4541
  616TMC3    H2 9132   4.297   3.838  16.036  0.7146 -0.1753 -0.6838
  616TMC3    C7 9133   4.063   3.923  15.986  0.4508 -0.0818  0.7497
  616TMC3    C8 9134   4.473   3.698  15.871  0.9734 -0.5109  0.0411
  616TMC3    O1 9135   4.092   3.920  16.104  0.3174 -0.3846  0.7826
  616TMC3    O2 9136   4.540   3.666  15.773  0.4913 -0.0100 -0.1499
  617MPD2     C 9137   2.563   2.292  13.500 -0.4269 -0.0750 -0.0767
  617MPD2    C1 9138   2.523   2.223  13.619 -0.3701 -0.3389  0.3298
  617MPD2    C2 9139   2.395   2.170  13.634  0.4897  0.2798  0.4069
  617MPD2    C3 9140   2.299   2.194  13.538 -0.1558 -0.2832 -0.5080
  617MPD2    C4 9141   2.338   2.270  13.423 -0.0094 -0.1768  0.1620
  617MPD2    C5 9142   2.466   2.315  13.409 -0.5913  0.5003  0.6612
  617MPD2     H 9143   2.371   2.105  13.717  2.2925 -1.0868 -0.1376
  617MPD2    H1 9144   2.268   2.293  13.344 -0.7387 -1.4864  0.4161
  617MPD2    H2 9145   2.662   2.332  13.482 -0.9438  0.3823 -1.7985
  617MPD2    H3 9146   2.501   2.365  13.319  1.0842 -1.5025  0.2031
  617MPD2     N 9147   2.165   2.145  13.552  0.4918  0.2498  0.0709
  617MPD2    H5 9148   2.102   2.152  13.473  1.4110  2.3243 -0.4760
  617MPD2    N1 9149   2.632   2.209  13.715  0.1616 -0.2121 -0.3128
  617MPD2    H7 9150   2.710   2.272  13.702  0.5826 -0.6044  0.3173
  618TMC3    C1 9151   2.774   2.110  13.884 -0.3117  0.4260  0.3230
  618TMC3    C2 9152   2.829   1.987  13.879  0.1416  0.2196  0.3186
  618TMC3    C3 9153   2.961   1.964  13.835 -0.0113 -0.1635 -0.4053
  618TMC3    C4 9154   2.853   2.213  13.837 -0.2136  0.5678  0.8941
  618TMC3    C5 9155   2.978   2.190  13.786 -0.2223 -0.6840  0.6767
  618TMC3    C6 9156   3.033   2.063  13.782  0.2505  0.0041 -0.5570
  618TMC3     C 9157   2.639   2.121  13.820  0.5290  0.5781  0.5456
  618TMC3     O 9158   2.573   2.022  13.837 -0.1525 -0.3736  0.3616
  618TMC3     H 9159   2.763   1.910  13.918 -0.1350  0.1995 -0.1754
  618TMC3    H1 9160   2.809   2.311  13.826  0.7324  0.8806 -0.0972
  618TMC3    H2 9161   3.133   2.044  13.745  0.4351 -0.3915  0.1393
  618TMC3    C7 9162   3.011   2.285  13.686 -0.3946 -0.4541 -0.1816
  618TMC3    C8 9163   3.012   1.831  13.852  0.0088  0.9464  0.4123
  618TMC3    O1 9164   2.922   2.355  13.633  0.0621  0.3091 -0.1583
  618TMC3    O2 9165   2.958   1.772  13.948 -0.1252  0.1083 -0.3158
  619MPD2     C 9166   3.436   2.599  13.536  0.5787  0.7489 -0.1404
  619MPD2    C1 9167   3.432   2.737  13.515 -0.0500  0.0290  0.6307
  619MPD2    C2 9168   3.371   2.824  13.604 -0.9521 -0.7258  0.7182
  619MPD2    C3 9169   3.309   2.762  13.714 -0.8052  0.6196  0.1278
  619MPD2    C4 9170   3.322   2.628  13.731 -0.2083 -0.2812 -0.4795
  619MPD2    C5 9171   3.398   2.544  13.654  0.6351  0.8219 -0.1162
  619MPD2     H 9172   3.368   2.930  13.580 -0.3343 -0.7374  0.6078
  619MPD2    H1 9173   3.271   2.583  13.815  0.8734  0.0670  0.3684
  619MPD2    H2 9174   3.464   2.543  13.447  0.9766 -0.0736  0.4941
  619MPD2    H3 9175   3.410   2.437  13.670 -0.8692  0.6835  0.1312
  619MPD2     N 9176   3.229   2.838  13.805 -0.3292 -0.1079  0.2316
  619MPD2    H5 9177   3.174   2.787  13.874  0.0489 -0.6060  0.1676
  619MPD2    N1 9178   3.473   2.799  13.390 -0.4457 -0.2929 -0.2157
  619MPD2    H7 9179   3.465   2.900  13.385 -0.5237 -0.3479 -1.2027
  620TMC3    C1 9180   3.514   2.836  13.166  0.2149 -0.1503  0.1792
  620TMC3    C2 9181   3.392   2.906  13.152 -0.0322  0.3175 -0.2126
  620TMC3    C3 9182   3.392   3.019  13.069 -0.2381 -0.1190 -0.4667
  620TMC3    C4 9183   3.634   2.880  13.117  0.1213  0.1138  0.2777
  620TMC3    C5 9184   3.627   2.991  13.037 -0.0273  0.0283  0.8971
  620TMC3    C6 9185   3.505   3.045  13.006 -0.4377 -0.2833  0.4216
  620TMC3     C 9186   3.532   2.746  13.282 -0.2962  0.0221  0.2130
  620TMC3     O 9187   3.600   2.645  13.264 -0.2565 -0.1175 -0.7842
  620TMC3     H 9188   3.317   2.876  13.224 -0.6591  3.1942  0.3310
  620TMC3    H1 9189   3.733   2.836  13.125  0.2652  0.0492 -1.9012
  620TMC3    H2 9190   3.508   3.136  12.947  2.7680  0.2970  1.5025
  620TMC3    C7 9191   3.747   3.078  13.044  0.2595 -0.2603 -0.7927
  620TMC3    C8 9192   3.348   3.143  13.128  0.0168 -0.2864 -0.8996
  620TMC3    O1 9193   3.852   3.029  13.009 -0.5822  0.2089  0.0986
  620TMC3    O2 9194   3.429   3.232  13.135 -0.9473  0.1718  0.2801
  621MPD2     C 9195   3.863   3.087   9.640 -0.1067  0.1372 -0.0379
  621MPD2    C1 9196   3.796   3.168   9.719  0.3792 -0.2496 -0.0905
  621MPD2    C2 9197   3.860   3.205   9.842  0.2653 -0.5909  0.6841
  621MPD2    C3 9198   3.971   3.149   9.882  0.8063  0.3656  0.0971
  621MPD2    C4 9199   4.037   3.063   9.796  0.2379  0.7126 -1.0831
  621MPD2    C5 9200   3.981   3.039   9.672  0.9235  0.3655 -0.4244
  621MPD2     H 9201   3.813   3.282   9.902  1.1697 -1.1962  2.1574
  621MPD2    H1 9202   4.137   3.025   9.815  0.3503  0.8192 -1.4511
  621MPD2    H2 9203   3.819   3.055   9.546 -0.3047 -2.8677  1.0770
  621MPD2    H3 9204   4.032   2.972   9.603  0.4037 -1.7707  1.2774
  621MPD2     N 9205   4.048   3.208   9.990  0.0708 -0.1808  0.4597
  621MPD2    H5 9206   4.000   3.290  10.026  0.7886 -0.0602  1.1346
  621MPD2    N1 9207   3.663   3.203   9.697  0.7740 -0.0243  0.2068
  621MPD2    H7 9208   3.607   3.220   9.779 -0.8957 -2.4076 -0.4483
  622TMC3    C1 9209   3.476   3.250   9.564 -0.6546  0.2639 -0.6284
  622TMC3    C2 9210   3.394   3.186   9.653  0.2960 -0.0255 -0.2183
  622TMC3    C3 9211   3.270   3.251   9.664 -0.7186  0.0520  0.3382
  622TMC3    C4 9212   3.437   3.344   9.472  0.5525 -0.0265  0.3613
  622TMC3    C5 9213   3.315   3.401   9.501  0.2496 -0.2173 -0.6485
  622TMC3    C6 9214   3.229   3.360   9.595 -0.0787  0.2317  1.1703
  622TMC3     C 9215   3.616   3.214   9.567 -0.4304  0.3522 -0.0785
  622TMC3     O 9216   3.679   3.227   9.462  0.3625  0.4392 -0.3710
  622TMC3     H 9217   3.423   3.097   9.708 -0.1055 -0.2236 -0.3257
  622TMC3    H1 9218   3.511   3.388   9.407 -1.3918 -1.1183 -2.5597
  622TMC3    H2 9219   3.128   3.398   9.597  0.3196  1.3493  0.0598
  622TMC3    C7 9220   3.272   3.501   9.407  0.0497 -0.5311 -0.1419
  622TMC3    C8 9221   3.171   3.180   9.746 -0.1364 -0.2187 -0.5079
  622TMC3    O1 9222   3.318   3.483   9.290  0.1928  0.1256  0.4889
  622TMC3    O2 9223   3.072   3.244   9.776  0.6775 -0.1121  0.1531
  623MPD2     C 9224   2.987   4.401  15.911 -1.0232 -0.1585  0.2272
  623MPD2    C1 9225   2.908   4.331  15.999  0.4846  0.3041 -0.6228
  623MPD2    C2 9226   2.924   4.353  16.134  0.1867  0.3508 -0.0184
  623MPD2    C3 9227   3.022   4.439  16.189 -1.3486 -0.5996 -0.0357
  623MPD2    C4 9228   3.097   4.508  16.100 -0.0120  0.1024  0.4919
  623MPD2    C5 9229   3.088   4.484  15.960 -0.1718 -0.3704  0.3549
  623MPD2     H 9230   2.859   4.299  16.201  1.1547 -0.6946  0.0739
  623MPD2    H1 9231   3.165   4.588  16.129 -1.5094  1.0663  1.3515
  623MPD2    H2 9232   2.978   4.391  15.803  3.4806 -0.5447 -0.1067
  623MPD2    H3 9233   3.150   4.543  15.894  1.1545 -0.4171  1.5511
  623MPD2     N 9234   3.031   4.467  16.327  0.6063  0.1877 -0.0515
  623MPD2    H5 9235   2.955   4.436  16.387  0.5149  2.6343  1.1000
  623MPD2    N1 9236   2.816   4.232  15.956 -0.5931  0.5850 -0.4906
  623MPD2    H7 9237   2.783   4.234  15.860  1.5234  1.8897 -1.1710
  624TMC3    C1 9238   3.243   4.462  16.716  0.6416 -0.0181  0.1179
  624TMC3    C2 9239   3.124   4.467  16.789  0.0270 -0.4471 -0.4980
  624TMC3    C3 9240   3.013   4.513  16.722  0.6040 -0.6148 -0.0342
  624TMC3    C4 9241   3.251   4.516  16.590 -0.1043  0.7837 -0.2171
  624TMC3    C5 9242   3.131   4.547  16.531 -0.5166 -0.3774 -0.3016
  624TMC3    C6 9243   3.011   4.549  16.595  0.3702 -0.0010  0.5427
  624TMC3     C 9244   3.325   4.347  16.729 -0.2613 -0.4236  0.3224
  624TMC3     O 9245   3.353   4.306  16.840 -0.0102  0.2956  0.6065
  624TMC3     H 9246   3.119   4.423  16.889  1.8659  0.4986  0.0192
  624TMC3    H1 9247   3.344   4.527  16.534 -0.2834 -0.3451 -0.7374
  624TMC3    H2 9248   2.923   4.582  16.541  1.3686  1.6107 -0.0814
  624TMC3    C7 9249   3.136   4.533  16.389  0.5326  0.7396 -0.0477
  624TMC3    C8 9250   2.882   4.474  16.786  0.0965 -0.2771 -0.3693
  624TMC3    O1 9251   3.245   4.569  16.344  0.9442 -0.1730  0.0980
  624TMC3    O2 9252   2.827   4.564  16.850  0.0260  0.4851 -0.1293
  625MPD2     C 9253   2.595   0.643   0.957 -0.5630 -0.4511 -0.1395
  625MPD2    C1 9254   2.677   0.695   0.862 -0.2565  0.3534 -0.6756
  625MPD2    C2 9255   2.814   0.667   0.872 -0.2823 -0.4441  0.3820
  625MPD2    C3 9256   2.869   0.595   0.971  0.1056  0.5134 -0.5585
  625MPD2    C4 9257   2.787   0.552   1.073 -0.1408  0.2897 -0.2061
  625MPD2    C5 9258   2.647   0.566   1.061  1.1697 -0.4444  0.5289
  625MPD2     H 9259   2.875   0.687   0.785  1.0387  3.4323  2.2288
  625MPD2    H1 9260   2.826   0.504   1.162  3.2914  0.5762 -1.5355
  625MPD2    H2 9261   2.491   0.669   0.971 -0.2751  1.8514 -2.1853
  625MPD2    H3 9262   2.581   0.524   1.136  1.0529  0.0895  0.7233
  625MPD2     N 9263   3.008   0.584   0.965  0.0125  0.2993 -0.3122
  625MPD2    H5 9264   3.056   0.638   0.894 -1.2212 -0.4978 -1.7559
  625MPD2    N1 9265   2.628   0.771   0.758 -0.2438 -0.3853 -0.2191
  625MPD2    H7 9266   2.530   0.797   0.767 -0.1309  0.0311 -0.2060
  626TMC3    C1 9267   2.625   0.907   0.568  0.3699  0.0148  0.0433
  626TMC3    C2 9268   2.660   0.908   0.433  0.0622 -0.1287 -0.7354
  626TMC3    C3 9269   2.558   0.929   0.342 -0.0696  0.3190 -0.8595
  626TMC3    C4 9270   2.505   0.950   0.610 -0.4349 -0.5981 -0.4855
  626TMC3    C5 9271   2.400   0.971   0.519 -0.6633 -0.8085  0.1257
  626TMC3    C6 9272   2.426   0.952   0.379  0.1671  0.2829 -0.8768
  626TMC3     C 9273   2.703   0.820   0.649  0.8723  0.5094 -0.3267
  626TMC3     O 9274   2.813   0.784   0.605  0.9506 -0.6901  0.0154
  626TMC3     H 9275   2.765   0.893   0.413 -0.0111 -0.9476 -0.5001
  626TMC3    H1 9276   2.483   0.986   0.710  2.4277  1.3137 -0.5687
  626TMC3    H2 9277   2.357   1.007   0.316 -1.9089 -1.0711  0.2091
  626TMC3    C7 9278   2.276   1.046   0.546 -0.5841 -0.0272  0.1393
  626TMC3    C8 9279   2.584   0.909   0.202 -0.2822 -0.1891  0.5873
  626TMC3    O1 9280   2.204   1.066   0.448  0.9061  0.4691 -0.2800
  626TMC3    O2 9281   2.702   0.909   0.171  0.1465 -0.5077 -0.4187
  627MPD2     C 9282   1.672   1.204  14.548 -0.2042  0.5737 -0.3093
  627MPD2    C1 9283   1.769   1.197  14.640 -0.2217 -0.0279 -0.1771
  627MPD2    C2 9284   1.793   1.078  14.700  0.2955  0.9823 -1.0624
  627MPD2    C3 9285   1.708   0.973  14.679 -0.0959 -0.3052 -0.7838
  627MPD2    C4 9286   1.611   0.977  14.582  0.5603  0.3400 -0.2343
  627MPD2    C5 9287   1.602   1.095  14.511  0.3348 -0.2713  0.1613
  627MPD2     H 9288   1.877   1.070  14.769 -1.1064 -1.3061  0.4023
  627MPD2    H1 9289   1.545   0.893  14.563  2.1323 -1.2735  1.3364
  627MPD2    H2 9290   1.641   1.298  14.504 -1.6268  0.8680  1.3388
  627MPD2    H3 9291   1.529   1.109  14.433  2.0545  0.7270 -1.2820
  627MPD2     N 9292   1.749   0.858  14.745  0.4089  0.1023  0.1645
  627MPD2    H5 9293   1.844   0.860  14.781  1.4837  1.1833 -2.7702
  627MPD2    N1 9294   1.861   1.301  14.668 -0.4980 -0.7095 -0.4237
  627MPD2    H7 9295   1.938   1.277  14.730 -2.1018 -1.3526  1.2824
  628TMC3    C1 9296   1.960   1.508  14.675 -0.0587  0.1911 -0.0760
  628TMC3    C2 9297   2.025   1.473  14.795 -0.0185 -0.2103  0.7779
  628TMC3    C3 9298   2.100   1.580  14.843  0.0178  0.6167 -0.2956
  628TMC3    C4 9299   1.999   1.607  14.590  0.3686  0.1053 -0.2182
  628TMC3    C5 9300   2.098   1.690  14.636 -0.4819  0.5778 -0.0713
  628TMC3    C6 9301   2.138   1.687  14.764 -0.6619 -0.3729 -0.0027
  628TMC3     C 9302   1.851   1.430  14.625 -0.2572 -0.0121 -0.4737
  628TMC3     O 9303   1.762   1.484  14.565 -0.2323 -0.0835  0.3279
  628TMC3     H 9304   1.988   1.395  14.860 -1.0863 -1.3276 -1.1624
  628TMC3    H1 9305   1.946   1.609  14.495  0.9374  2.1940 -0.4990
  628TMC3    H2 9306   2.228   1.739  14.795 -0.2980 -0.1112 -1.5088
  628TMC3    C7 9307   2.178   1.764  14.538 -0.0526 -0.3426  0.0849
  628TMC3    C8 9308   2.181   1.556  14.961  0.0135  0.2037 -0.1277
  628TMC3    O1 9309   2.295   1.798  14.570  0.0761  0.0765  0.6645
  628TMC3    O2 9310   2.246   1.658  15.003  1.1515 -0.4158  0.4733
  629MPD2     C 9311   0.154   3.616  16.158  0.3442  0.5623 -1.0163
  629MPD2    C1 9312   0.078   3.713  16.220  0.4729  0.0687 -0.3425
  629MPD2    C2 9313   4.675   3.741  16.163 -0.2081 -0.2583 -0.0315
  629MPD2    C3 9314   4.641   3.681  16.048  0.3081  0.6871  0.1482
  629MPD2    C4 9315   4.723   3.597  15.987 -0.8059  0.2590 -0.3049
  629MPD2    C5 9316   0.112   3.558  16.043 -0.2474 -0.3052  0.4242
  629MPD2     H 9317   4.606   3.798  16.224  1.8535  1.8695  0.2861
  629MPD2    H1 9318   4.700   3.547  15.894 -1.6450  1.4324 -0.7361
  629MPD2    H2 9319   0.248   3.585  16.202 -1.1522 -2.6686 -0.0734
  629MPD2    H3 9320   0.180   3.489  15.993  0.0552  0.0269  0.3776
  629MPD2     N 9321   4.515   3.708  15.999  0.1878 -0.2024  0.5667
  629MPD2    H5 9322   4.450   3.751  16.065  0.4288 -1.1899  1.4558
  629MPD2    N1 9323   0.117   3.770  16.337  0.2710 -0.3684 -0.0018
  629MPD2    H7 9324   0.189   3.726  16.395  0.4602 -0.7760 -0.5425
  630TMC3    C1 9325   0.122   3.934  16.497  0.0326 -0.2936 -0.7164
  630TMC3    C2 9326   0.134   4.067  16.520  0.2138 -0.3545  0.2583
  630TMC3    C3 9327   0.167   4.114  16.640 -0.2163  0.1480 -0.2218
  630TMC3    C4 9328   0.139   3.844  16.594  0.3529  0.2168  0.0729
  630TMC3    C5 9329   0.172   3.893  16.717  0.5992  0.1941  0.1622
  630TMC3    C6 9330   0.188   4.030  16.742 -0.6294 -0.3538 -0.2860
  630TMC3     C 9331   0.074   3.897  16.368 -0.6845  0.1324 -0.8203
  630TMC3     O 9332   0.015   3.977  16.297 -0.1726  0.1454 -0.1215
  630TMC3     H 9333   0.102   4.131  16.439 -1.9443  1.0248  2.2015
  630TMC3    H1 9334   0.097   3.744  16.584  0.4123  0.4285 -2.3474
  630TMC3    H2 9335   0.191   4.066  16.844  2.1098  0.5201 -0.6651
  630TMC3    C7 9336   0.146   3.807  16.836  0.6616 -0.6901  0.0275
  630TMC3    C8 9337   0.227   4.244  16.650  0.1752  0.3793 -0.2274
  630TMC3    O1 9338   0.121   3.864  16.941 -0.0280 -0.0632 -0.2734
  630TMC3    O2 9339   0.198   4.312  16.556 -0.3389 -0.0975 -0.0438
  631MPD2     C 9340   3.244   4.151  15.741 -0.4865  0.0892  0.3121
  631MPD2    C1 9341   3.348   4.101  15.664  0.6401  0.3540 -0.3880
  631MPD2    C2 9342   3.328   3.980  15.602 -0.2603 -0.5729  0.1305
  631MPD2    C3 9343   3.211   3.909  15.625 -0.1118 -0.3910 -0.3670
  631MPD2    C4 9344   3.109   3.960  15.708 -0.3259  0.3767 -0.6623
  631MPD2    C5 9345   3.126   4.084  15.763  0.2947 -0.1183  0.1819
  631MPD2     H 9346   3.403   3.937  15.537 -1.8689 -2.0333 -0.7477
  631MPD2    H1 9347   3.023   3.903  15.742  0.8241  1.0651  3.4317
  631MPD2    H2 9348   3.259   4.246  15.791 -2.3208 -0.2561  1.5269
  631MPD2    H3 9349   3.063   4.121  15.843 -0.2005 -1.4414  0.4004
  631MPD2     N 9350   3.203   3.768  15.584  0.3874  0.1926 -0.2362
  631MPD2    H5 9351   3.291   3.732  15.548  0.0227 -0.7205 -0.2082
  631MPD2    N1 9352   3.459   4.184  15.643  0.0984  0.6975 -0.8681
  631MPD2    H7 9353   3.465   4.274  15.689  0.7223  0.2321 -0.0544
  632TMC3    C1 9354   3.654   4.273  15.531  0.2061  0.3039 -0.1608
  632TMC3    C2 9355   3.650   4.376  15.623 -1.2328  0.2113  0.5212
  632TMC3    C3 9356   3.734   4.486  15.594 -0.2311 -0.2177  0.4211
  632TMC3    C4 9357   3.737   4.268  15.425 -0.5312  0.2130 -0.4743
  632TMC3    C5 9358   3.823   4.376  15.406  1.0443 -0.2706  0.4887
  632TMC3    C6 9359   3.824   4.487  15.486 -0.5140  0.4167 -1.1115
  632TMC3     C 9360   3.551   4.169  15.540 -0.4372  0.2028 -0.7536
  632TMC3     O 9361   3.549   4.089  15.448  0.6007  0.1456 -0.1918
  632TMC3     H 9362   3.603   4.362  15.719  0.7842  0.5915  1.5546
  632TMC3    H1 9363   3.729   4.181  15.360 -1.8453 -0.3912  0.5042
  632TMC3    H2 9364   3.892   4.572  15.477 -0.2996  0.0720 -2.6754
  632TMC3    C7 9365   3.916   4.374  15.295  0.8454 -0.3478  0.1978
  632TMC3    C8 9366   3.749   4.595  15.685 -0.3652  0.6254  0.4361
  632TMC3    O1 9367   3.939   4.486  15.247  0.0673  0.4208 -0.4350
  632TMC3    O2 9368   3.854   4.659  15.682  0.0275  0.0848 -0.3139
  633MPD2     C 9369   3.025   2.309  17.477  0.1167 -0.2244 -0.8888
  633MPD2    C1 9370   3.020   2.231  17.366  0.2251  0.8236 -0.3130
  633MPD2    C2 9371   3.016   2.095  17.379  0.0013  0.0374 -0.5375
  633MPD2    C3 9372   3.037   2.038  17.504  0.5547  0.2552  0.4473
  633MPD2    C4 9373   3.049   2.110  17.620 -0.0406 -0.4527  0.5667
  633MPD2    C5 9374   3.027   2.246  17.603 -0.4914 -0.8858 -0.3134
  633MPD2     H 9375   3.018   2.029  17.294 -1.4868 -1.4561  0.5733
  633MPD2    H1 9376   3.058   2.061   0.010 -0.2860 -1.4367  0.0829
  633MPD2    H2 9377   3.042   2.415  17.492 -1.4203 -0.1914  0.5195
  633MPD2    H3 9378   3.014   2.305  17.694 -1.1868 -0.6141 -0.5942
  633MPD2     N 9379   3.045   1.902  17.504 -0.6614 -0.0167  0.1832
  633MPD2    H5 9380   3.017   1.861  17.415  1.6783 -1.7437  0.2415
  633MPD2    N1 9381   3.026   2.277  17.229  0.2485  0.3808 -0.4655
  633MPD2    H7 9382   3.019   2.208  17.155  0.5337 -0.0431 -0.0940
  634TMC3    C1 9383   3.066   2.421  17.042 -0.2208 -0.5484 -0.3771
  634TMC3    C2 9384   3.125   2.313  16.979 -0.4158 -0.0018  0.1150
  634TMC3    C3 9385   3.171   2.344  16.854  0.2513  0.3073 -1.4309
  634TMC3    C4 9386   3.035   2.541  16.977 -0.3907  0.2656  0.0933
  634TMC3    C5 9387   3.087   2.556  16.851  0.0383 -0.2722 -0.1135
  634TMC3    C6 9388   3.156   2.459  16.793 -0.6791  0.1643 -0.1287
  634TMC3     C 9389   3.041   2.408  17.191 -0.4013 -0.4158 -0.6079
  634TMC3     O 9390   3.039   2.512  17.254 -0.0796  0.0133  0.0439
  634TMC3     H 9391   3.162   2.226  17.032 -0.0330  0.1368  0.0759
  634TMC3    H1 9392   2.981   2.615  17.033  1.1703  0.2163  1.6491
  634TMC3    H2 9393   3.202   2.478  16.696 -1.6611 -0.9565 -0.8138
  634TMC3    C7 9394   3.062   2.677  16.772  0.3333 -0.6112  0.0395
  634TMC3    C8 9395   3.167   2.224  16.770  0.2591 -0.1469 -0.2857
  634TMC3    O1 9396   3.113   2.698  16.662 -0.3588  0.3966  0.0835
  634TMC3    O2 9397   3.118   2.122  16.821 -0.1284  0.0688  0.4853
  635TMC3    C1 9398   3.701   3.355  16.901  0.2926  0.1892  0.7340
  635TMC3    C2 9399   3.707   3.220  16.943 -0.1304  0.3213 -0.2181
  635TMC3    C3 9400   3.719   3.129  16.837 -0.5077  0.4423  0.1924
  635TMC3    C4 9401   3.731   3.394  16.770  0.3450  0.4256 -0.3776
  635TMC3    C5 9402   3.733   3.296  16.676  0.2759  0.0143  0.7251
  635TMC3    C6 9403   3.738   3.162  16.711  0.1507  0.2453  0.2189
  635TMC3     C 9404   3.688   3.453  16.999  0.4864 -0.7454  0.4571
  635TMC3     O 9405   3.626   3.421  17.102 -0.1253 -0.2094  0.6929
  635TMC3     H 9406   3.693   3.184  17.044  0.8689 -2.2415 -1.0028
  635TMC3    H1 9407   3.735   3.499  16.744 -0.9503  0.4378 -0.5433
  635TMC3    H2 9408   3.740   3.086  16.634 -0.6422  0.1645  0.2730
  635TMC3    C7 9409   3.766   3.329  16.537  0.1204 -0.3484 -0.4678
  635TMC3    C8 9410   3.776   3.005  16.879 -0.2796  0.0535 -0.4994
  635TMC3    O1 9411   3.779   3.239  16.453 -0.1825  0.4113 -0.2266
  635TMC3    O2 9412   3.777   2.974  16.998 -0.8656  0.0672  0.0355
  636MPD2     C 9413   4.362   2.343  15.972  0.2958  0.3781 -0.5942
  636MPD2    C1 9414   4.441   2.437  16.037 -0.2018 -0.0324 -0.3154
  636MPD2    C2 9415   4.557   2.396  16.098  0.2253 -0.0202  0.1106
  636MPD2    C3 9416   4.605   2.271  16.081 -0.4616 -0.2886 -0.6320
  636MPD2    C4 9417   4.527   2.176  16.017 -0.2220  1.0806 -0.0984
  636MPD2    C5 9418   4.405   2.209  15.968 -0.3033 -0.6181 -0.0283
  636MPD2     H 9419   4.626   2.463  16.148  0.5035 -0.0755 -0.2016
  636MPD2    H1 9420   4.549   2.070  16.022  0.2414  1.1910  0.1999
  636MPD2    H2 9421   4.272   2.369  15.917  0.9482 -0.1763 -1.9250
  636MPD2    H3 9422   4.347   2.143  15.904  0.6494 -0.1006 -1.4206
  636MPD2     N 9423   0.016   2.252  16.106  0.5646 -0.2678 -0.4570
  636MPD2    H5 9424   0.062   2.331  16.150 -0.2773  1.9660 -3.5809
  636MPD2    N1 9425   4.418   2.578  16.044  0.1596  0.1265 -0.4617
  636MPD2    H7 9426   4.492   2.641  16.073  0.6569  0.2632 -2.0266
  637TMC3    C1 9427   0.220   2.168  16.140 -0.1025  0.0887  0.0168
  637TMC3    C2 9428   0.212   2.249  16.248  0.0374 -0.6164 -0.1828
  637TMC3    C3 9429   0.311   2.346  16.261  0.4019  0.5421 -0.3990
  637TMC3    C4 9430   0.317   2.187  16.046 -0.1857  0.0091 -0.5591
  637TMC3    C5 9431   0.404   2.293  16.052  0.0882 -0.3950 -0.4469
  637TMC3    C6 9432   0.408   2.367  16.166 -0.5893  0.4199 -0.2151
  637TMC3     C 9433   0.095   2.142  16.077  0.0323 -1.0747 -0.7218
  637TMC3     O 9434   0.076   2.048  16.001  0.3428 -0.0698  0.7252
  637TMC3     H 9435   0.134   2.234  16.322  0.3060 -1.0607  0.0086
  637TMC3    H1 9436   0.307   2.132  15.954 -1.0185  1.4676 -1.3320
  637TMC3    H2 9437   0.471   2.455  16.161  0.8498 -0.5312  0.8706
  637TMC3    C7 9438   0.401   2.384  15.938 -0.2183 -0.4296 -0.5724
  637TMC3    C8 9439   0.251   2.474  16.285  0.4083  0.5196 -0.2334
  637TMC3    O1 9440   0.401   2.504  15.963  0.5896  0.2042 -0.5772
  637TMC3    O2 9441   0.138   2.491  16.240 -0.3679  0.2655  0.2100
  638MPD2     C 9442   4.491   1.468  15.235 -0.1814 -0.1617  0.2524
  638MPD2    C1 9443   4.373   1.445  15.166 -0.2660  0.4317  0.3023
  638MPD2    C2 9444   4.308   1.323  15.173 -0.2802 -0.1408 -0.8686
  638MPD2    C3 9445   4.356   1.224  15.260 -0.4329 -0.2177 -0.7123
  638MPD2    C4 9446   4.468   1.257  15.338  0.4279  0.4081 -0.0805
  638MPD2    C5 9447   4.532   1.374  15.322  0.4162 -0.4594 -0.2403
  638MPD2     H 9448   4.231   1.301  15.100 -1.7438  1.0218  0.3287
  638MPD2    H1 9449   4.511   1.190  15.411 -1.0281  0.2819  0.6655
  638MPD2    H2 9450   4.550   1.559  15.229  1.0825 -1.0213 -0.2380
  638MPD2    H3 9451   4.608   1.394  15.397 -0.8561 -0.7565  1.1426
  638MPD2     N 9452   4.303   1.093  15.260 -0.5420 -0.4640  0.2995
  638MPD2    H5 9453   4.221   1.082  15.202 -2.0127  0.7116  2.1632
  638MPD2    N1 9454   4.357   1.525  15.051  0.5310  0.1543 -0.1688
  638MPD2    H7 9455   4.430   1.592  15.029 -0.5145  1.4125  0.1462
  639TMC3    C1 9456   4.304   0.862  15.262 -0.2102  0.4677  0.2084
  639TMC3    C2 9457   4.173   0.873  15.221  0.8390  0.4721 -0.5055
  639TMC3    C3 9458   4.105   0.759  15.189 -0.4540  0.4324 -0.5243
  639TMC3    C4 9459   4.360   0.737  15.285  0.4139  0.0138 -0.5494
  639TMC3    C5 9460   4.293   0.628  15.254  0.3009  0.3148  0.3051
  639TMC3    C6 9461   4.165   0.632  15.203  0.2846 -0.4203 -0.0019
  639TMC3     C 9462   4.374   0.981  15.300  0.2751 -0.9306  0.2042
  639TMC3     O 9463   4.489   0.971  15.337 -0.4676 -0.5043 -0.0177
  639TMC3     H 9464   4.120   0.962  15.189 -0.8614 -1.0007 -1.7920
  639TMC3    H1 9465   4.461   0.740  15.326  0.2345  2.8171 -0.2870
  639TMC3    H2 9466   4.117   0.541  15.167 -0.0842 -0.0784 -0.3691
  639TMC3    C7 9467   4.362   0.500  15.235  0.0622 -0.0163  0.2653
  639TMC3    C8 9468   4.024   0.760  15.071 -0.0690 -0.3877 -0.6151
  639TMC3    O1 9469   4.297   0.402  15.210 -0.6249 -0.3536  0.0128
  639TMC3    O2 9470   4.082   0.789  14.968  0.2439  0.1005 -0.3970
  640MPD2     C 9471   4.588   4.658   9.979  0.6206 -0.0714  0.4776
  640MPD2    C1 9472   4.454   4.619   9.975  0.0025 -0.1363 -0.1217
  640MPD2    C2 9473   4.362   4.720   9.963 -0.0323  0.6360  1.0259
  640MPD2    C3 9474   4.402   0.119   9.928 -0.6852  0.1478  0.6477
  640MPD2    C4 9475   4.536   0.154   9.927  0.0096  0.3441 -0.9805
  640MPD2    C5 9476   4.633   0.062   9.963 -0.9395 -0.4616  0.0916
  640MPD2     H 9477   4.256   4.700   9.950  0.4026 -1.1993  0.2724
  640MPD2    H1 9478   4.556   0.257   9.897  1.8051  0.5079  0.8096
  640MPD2    H2 9479   4.671   4.589   9.985  0.3399 -0.4652 -0.1806
  640MPD2    H3 9480   0.010   0.093   9.947 -0.4210 -1.1381  2.2552
  640MPD2     N 9481   4.320   0.229   9.886 -0.2713 -0.6529  0.3185
  640MPD2    H5 9482   4.361   0.319   9.863 -1.2952  0.5010  2.9897
  640MPD2    N1 9483   4.417   4.483   9.982  0.2963  0.2970  0.2600
  640MPD2    H7 9484   4.497   4.421   9.987 -1.5391 -2.1180 -0.4361
  641TMC3    C1 9485   4.285   4.304   9.910 -0.3230  0.1392 -0.0557
  641TMC3    C2 9486   4.384   4.207   9.929 -0.1103  0.1941 -0.2199
  641TMC3    C3 9487   4.414   4.125   9.824 -0.8854  0.6801 -0.1305
  641TMC3    C4 9488   4.221   4.306   9.788 -0.3732 -0.4757 -0.1800
  641TMC3    C5 9489   4.241   4.200   9.700  0.9585 -0.0308 -0.2909
  641TMC3    C6 9490   4.344   4.119   9.711 -0.5354  0.4515  0.3162
  641TMC3     C 9491   4.291   4.435   9.964  0.1719 -0.1197  0.4798
  641TMC3     O 9492   4.184   4.496   9.962  0.6502 -0.5141 -0.6130
  641TMC3     H 9493   4.442   4.186  10.018 -1.5709  0.3937  0.7880
  641TMC3    H1 9494   4.145   4.381   9.769  0.3125  0.7093  1.6621
  641TMC3    H2 9495   4.382   4.059   9.629  1.5224 -1.2923  2.5393
  641TMC3    C7 9496   4.176   4.217   9.573 -0.3054 -0.3581  0.0096
  641TMC3    C8 9497   4.500   4.007   9.840  0.0712 -0.1318 -0.6312
  641TMC3    O1 9498   4.083   4.297   9.573 -0.4468  0.0686  0.4974
  641TMC3    O2 9499   4.466   3.902   9.789  0.0442 -0.8890 -0.0527
  642TMC3    C1 9500   1.275   1.241  12.277 -0.1970  0.5034 -0.8262
  642TMC3    C2 9501   1.413   1.226  12.271 -1.1870  0.4483  0.4255
  642TMC3    C3 9502   1.457   1.097  12.239  0.2108  0.2611 -0.2551
  642TMC3    C4 9503   1.193   1.137  12.254 -0.4459 -0.2037 -0.0867
  642TMC3    C5 9504   1.241   1.015  12.224  0.6497 -0.3189  0.2135
  642TMC3    C6 9505   1.378   0.987  12.204 -0.1974 -0.1758  0.4463
  642TMC3     C 9506   1.217   1.372  12.289 -0.3099 -0.0015  0.5021
  642TMC3     O 9507   1.281   1.473  12.269  0.1410  0.9538  0.4241
  642TMC3     H 9508   1.484   1.308  12.286 -1.8992  0.3684  4.2298
  642TMC3    H1 9509   1.086   1.151  12.245 -0.3435 -0.1533 -1.2381
  642TMC3    H2 9510   1.416   0.885  12.196  0.0123 -0.0775  0.2100
  642TMC3    C7 9511   1.141   0.909  12.195  0.0178 -0.2894  0.3129
  642TMC3    C8 9512   1.600   1.072  12.224  0.1378 -0.3373  0.2944
  642TMC3    O1 9513   1.187   0.809  12.146 -0.8566  0.3125  0.2026
  642TMC3    O2 9514   1.635   0.969  12.177  0.4835  0.3856  0.1250
  643TMC3    C1 9515   0.051   0.338   0.577 -0.3833 -0.3912  0.2405
  643TMC3    C2 9516   4.688   0.301   0.477 -0.5131  0.3126 -0.4117
  643TMC3    C3 9517   4.715   0.183   0.406  0.2015 -0.7043  0.7139
  643TMC3    C4 9518   0.167   0.267   0.596 -0.1447  0.0010  0.6077
  643TMC3    C5 9519   0.191   0.159   0.516  0.1597 -0.3852 -0.2889
  643TMC3    C6 9520   0.093   0.106   0.437 -0.4450 -0.0957  0.5185
  643TMC3     C 9521   0.023   0.464   0.645 -0.2542  0.0858  0.5905
  643TMC3     O 9522   4.694   0.546   0.574  0.4720 -0.8067  0.0213
  643TMC3     H 9523   4.592   0.350   0.463  0.2346  1.9595  0.2964
  643TMC3    H1 9524   0.251   0.296   0.657 -1.3494  1.8081  1.4155
  643TMC3    H2 9525   0.115   0.010   0.392 -0.8790  0.7737 -1.5263
  643TMC3    C7 9526   0.313   0.174   0.448  0.3551 -0.0009  0.1927
  643TMC3    C8 9527   4.722   0.201   0.260 -0.3883  0.7448  0.7288
  643TMC3    O1 9528   0.401   0.231   0.511 -0.3853 -0.0913 -0.0046
  643TMC3    O2 9529   0.038   0.107   0.192  0.2407 -0.3917  0.1790
  644MPD2     C 9530   3.877   4.590   9.540  0.4697 -0.6436  0.2243
  644MPD2    C1 9531   3.942   4.616   9.422 -0.6088  0.0505 -0.3008
  644MPD2    C2 9532   3.883   4.711   9.339 -0.5664 -0.2710 -0.2921
  644MPD2    C3 9533   3.754   0.032   9.361 -0.3087  0.2893  0.0607
  644MPD2    C4 9534   3.684   4.710   9.469 -0.4925 -0.5523 -0.2482
  644MPD2    C5 9535   3.746   4.625   9.561 -0.4822  0.0975 -0.1843
  644MPD2     H 9536   3.925   0.023   9.246 -1.3081  0.3669 -0.3629
  644MPD2    H1 9537   3.583   0.023   9.478 -0.6065 -0.9721  0.2654
  644MPD2    H2 9538   3.937   4.535   9.611  0.5619 -2.4684 -1.2715
  644MPD2    H3 9539   3.705   4.610   9.660  1.1422 -1.6415  0.2276
  644MPD2     N 9540   3.710   0.130   9.264 -0.3618 -0.3066  0.3746
  644MPD2    H5 9541   3.773   0.160   9.190 -1.8741 -1.4844 -1.3711
  644MPD2    N1 9542   4.076   4.574   9.408  0.5864 -0.5277  0.3367
  644MPD2    H7 9543   4.107   4.514   9.484  0.7862 -2.2295 -1.0815
  645TMC3    C1 9544   3.578   0.310   9.176  0.4142 -0.2791 -0.3875
  645TMC3    C2 9545   3.452   0.369   9.173  0.8060  0.9807 -0.7096
  645TMC3    C3 9546   3.440   0.492   9.120 -0.3537  0.2377 -0.0467
  645TMC3    C4 9547   3.688   0.364   9.124 -0.2190 -0.0351  0.1567
  645TMC3    C5 9548   3.671   0.493   9.075 -0.1675 -0.1173 -0.5698
  645TMC3    C6 9549   3.550   0.555   9.072 -0.8055  0.3689 -0.6618
  645TMC3     C 9550   3.588   0.193   9.264  0.2253 -0.0259 -0.3533
  645TMC3     O 9551   3.493   0.166   9.339  0.1827 -0.3739  0.5882
  645TMC3     H 9552   3.374   0.330   9.238  0.8473 -0.5046 -1.5627
  645TMC3    H1 9553   3.787   0.319   9.123  0.1169  0.7040  0.8545
  645TMC3    H2 9554   3.537   0.660   9.051 -0.7341  0.4346 -0.3714
  645TMC3    C7 9555   3.791   0.547   9.012  0.7256 -0.3075  0.2658
  645TMC3    C8 9556   3.331   0.587   9.151 -0.3111 -0.3189 -0.1407
  645TMC3    O1 9557   3.900   0.496   9.041  0.0662 -0.4819 -0.1795
  645TMC3    O2 9558   3.356   0.704   9.160  0.6872 -0.6200 -0.8107
  646MPD2     C 9559   4.696   0.164  14.573 -0.3502  0.0633 -0.2340
  646MPD2    C1 9560   4.597   0.070  14.590  0.2613 -0.7271  0.0901
  646MPD2    C2 9561   4.473   0.107  14.556 -0.0915  0.7387  0.1344
  646MPD2    C3 9562   4.449   0.237  14.506  0.7377  0.6518  0.4828
  646MPD2    C4 9563   4.551   0.324  14.501 -1.0061  0.3053 -0.5682
  646MPD2    C5 9564   4.677   0.288  14.525 -0.1817  0.2878 -0.1000
  646MPD2     H 9565   4.395   0.032  14.555  0.0863  0.5025  3.7201
  646MPD2    H1 9566   4.542   0.424  14.460  2.9995  0.7083 -0.3960
  646MPD2    H2 9567   0.072   0.131  14.592 -0.4591 -0.3546 -0.3777
  646MPD2    H3 9568   0.027   0.365  14.518  0.0513 -0.0005 -0.7046
  646MPD2     N 9569   4.318   0.268  14.467 -0.0782  0.8391  0.0215
  646MPD2    H5 9570   4.247   0.199  14.485 -1.4646  2.0922 -0.6674
  646MPD2    N1 9571   4.634   4.659  14.621  0.6745  0.2614 -0.7728
  646MPD2    H7 9572   0.008   4.639  14.617  1.2562  2.3485  3.0978
  647TMC3    C1 9573   4.628   4.439  14.681 -0.4372  0.0637  0.0790
  647TMC3    C2 9574   4.562   4.312  14.678  0.1086 -0.1874 -0.0363
  647TMC3    C3 9575   4.645   4.210  14.708  0.0973 -0.4460  0.1157
  647TMC3    C4 9576   0.028   4.460  14.722 -0.2698  0.8977  0.3481
  647TMC3    C5 9577   0.103   4.352  14.755 -0.3011 -0.9412 -0.9306
  647TMC3    C6 9578   0.054   4.225  14.730 -0.1798  0.1143 -0.3506
  647TMC3     C 9579   4.549   4.550  14.633  0.3469  0.3865  0.5373
  647TMC3     O 9580   4.436   4.533  14.589  0.4332 -0.0265 -0.3851
  647TMC3     H 9581   4.459   4.310  14.643  0.5218  2.5467 -1.3917
  647TMC3    H1 9582   0.068   4.555  14.758  0.2529  0.4906  0.8331
  647TMC3    H2 9583   0.113   4.135  14.740 -1.8612 -0.8830  0.7906
  647TMC3    C7 9584   0.216   4.365  14.844  0.5774  0.2894  0.5009
  647TMC3    C8 9585   4.596   4.070  14.743 -0.0071  0.4908 -0.1998
  647TMC3    O1 9586   0.299   4.275  14.832  0.8080 -0.0729 -0.5497
  647TMC3    O2 9587   4.658   4.022  14.840 -0.5108 -0.1378 -0.1217
  648TMC3    C1 9588   3.526   2.079  16.097 -0.0745 -0.0566  0.0244
  648TMC3    C2 9589   3.517   1.953  16.046  0.4216 -0.1913  0.1346
  648TMC3    C3 9590   3.426   1.932  15.946 -0.9347  0.0207  0.2619
  648TMC3    C4 9591   3.457   2.180  16.045  0.0139 -0.3058 -0.3084
  648TMC3    C5 9592   3.365   2.158  15.942  0.1724  0.2243  0.3598
  648TMC3    C6 9593   3.352   2.030  15.897  0.9538 -0.3070 -0.6449
  648TMC3     C 9594   3.585   2.104  16.232 -0.1530 -0.1353  0.4364
  648TMC3     O 9595   3.651   2.207  16.240  0.0377 -0.1208  0.0670
  648TMC3     H 9596   3.577   1.873  16.088  1.9530  1.1815  0.5577
  648TMC3    H1 9597   3.452   2.280  16.087 -0.7968 -0.8966  0.9843
  648TMC3    H2 9598   3.273   2.005  15.827  0.9552 -0.5805 -0.5504
  648TMC3    C7 9599   3.312   2.261  15.862 -0.2044 -0.6288 -0.3088
  648TMC3    C8 9600   3.417   1.804  15.881 -0.5048  0.0208  0.1364
  648TMC3    O1 9601   3.280   2.237  15.744  0.0469  0.3647  0.2696
  648TMC3    O2 9602   3.316   1.786  15.809  0.6670  0.4594  0.3597
  649TMC3    C1 9603   2.210   3.402  13.068 -0.8970 -0.0870  0.2625
  649TMC3    C2 9604   2.321   3.371  12.990 -0.6959 -0.5931  0.5687
  649TMC3    C3 9605   2.430   3.322  13.066 -0.5218  0.2298  0.7960
  649TMC3    C4 9606   2.217   3.400  13.208  0.5257  0.0034  0.2676
  649TMC3    C5 9607   2.323   3.335  13.265 -0.6740 -0.3424 -0.5299
  649TMC3    C6 9608   2.432   3.295  13.199 -0.3968 -0.0250 -0.5677
  649TMC3     C 9609   2.107   3.480  13.010  0.3149 -0.6414 -0.5888
  649TMC3     O 9610   2.046   3.555  13.086 -0.1705  0.1067 -0.0362
  649TMC3     H 9611   2.335   3.406  12.889  0.3826  0.4061  1.0668
  649TMC3    H1 9612   2.130   3.429  13.267 -0.6649 -1.7798 -0.6047
  649TMC3    H2 9613   2.514   3.250  13.254  0.9012  1.7715 -1.0207
  649TMC3    C7 9614   2.321   3.304  13.400 -0.2650  0.6528 -0.0582
  649TMC3    C8 9615   2.545   3.272  12.987  0.4811  0.0022  1.1174
  649TMC3    O1 9616   2.297   3.399  13.471 -0.1842  0.7488  0.7987
  649TMC3    O2 9617   2.547   3.302  12.868  0.5341 -0.0226 -0.3605
  650TMC3    C1 9618   0.467   0.313  12.687  0.1486  0.7921 -0.7438
  650TMC3    C2 9619   0.445   0.454  12.697  0.6409 -0.5654 -0.0110
  650TMC3    C3 9620   0.342   0.499  12.616  0.5529 -0.0530 -0.0084
  650TMC3    C4 9621   0.400   0.232  12.599 -0.3704 -0.3990  0.1121
  650TMC3    C5 9622   0.306   0.294  12.520  0.1555 -0.3328 -0.7965
  650TMC3    C6 9623   0.275   0.423  12.524  0.1292 -0.5001  0.5796
  650TMC3     C 9624   0.578   0.253  12.760 -0.8920 -0.0483  0.1344
  650TMC3     O 9625   0.666   0.327  12.802 -0.2643  0.3841 -0.8303
  650TMC3     H 9626   0.497   0.516  12.769  0.0503 -0.7390  0.5671
  650TMC3    H1 9627   0.432   0.132  12.573  0.4882 -0.4908  1.5490
  650TMC3    H2 9628   0.212   0.465  12.447  0.8130 -0.5507 -0.0075
  650TMC3    C7 9629   0.207   0.203  12.458 -0.0792 -0.3325 -0.3908
  650TMC3    C8 9630   0.318   0.637  12.629 -0.0845 -0.3118  0.4282
  650TMC3    O1 9631   0.179   0.104  12.528 -0.1296  0.4406  0.4682
  650TMC3    O2 9632   0.420   0.707  12.645 -0.1485 -0.0042 -0.7387
  651MPD2     C 9633   3.914   1.921  10.347  0.6411 -0.3994  0.0760
  651MPD2    C1 9634   3.909   2.016  10.442 -0.4710  0.1914 -0.6299
  651MPD2    C2 9635   4.011   2.055  10.519  1.0143  0.8583  0.2558
  651MPD2    C3 9636   4.131   1.984  10.504  0.8119 -0.1836  0.3860
  651MPD2    C4 9637   4.134   1.872  10.419 -0.2488 -0.1743 -0.0311
  651MPD2    C5 9638   4.031   1.851  10.330 -0.2694  0.2550 -1.1558
  651MPD2     H 9639   3.999   2.129  10.598  0.5620 -0.2446  1.2140
  651MPD2    H1 9640   4.224   1.812  10.406  0.1956  0.4418  0.2230
  651MPD2    H2 9641   3.842   1.897  10.270 -1.7719 -0.6304  2.4016
  651MPD2    H3 9642   4.037   1.787  10.243  0.8991 -1.2212  0.0164
  651MPD2     N 9643   4.242   2.020  10.590 -0.2877  0.0895  0.1894
  651MPD2    H5 9644   4.223   2.095  10.655  0.5520 -1.2775  2.0283
  651MPD2    N1 9645   3.781   2.076  10.468 -0.0850  0.0328 -0.3934
  651MPD2    H7 9646   3.784   2.150  10.538 -0.9614  0.9062 -1.3015
  652TMC3    C1 9647   4.627   1.976  10.811 -0.7038  0.8648 -0.6020
  652TMC3    C2 9648   4.581   1.983  10.685 -0.2516 -0.3189 -0.9887
  652TMC3    C3 9649   4.459   2.039  10.675  0.2737 -0.5973 -0.4519
  652TMC3    C4 9650   4.563   2.037  10.915 -0.6785 -0.2591  0.1083
  652TMC3    C5 9651   4.447   2.100  10.896  0.7134  0.4633  0.3520
  652TMC3    C6 9652   4.403   2.117  10.771 -0.2439 -0.5215 -0.5060
  652TMC3     C 9653   0.018   1.912  10.855  0.4496 -0.3141 -0.4008
  652TMC3     O 9654   0.027   1.850  10.964 -0.1439 -0.0845 -0.2267
  652TMC3     H 9655   4.631   1.946  10.597  0.4091 -1.3074 -0.1963
  652TMC3    H1 9656   4.614   2.044  11.010 -1.6143 -0.5499  0.6287
  652TMC3    H2 9657   4.321   2.186  10.754  0.1751  0.3696  1.0656
  652TMC3    C7 9658   4.432   2.217  10.987 -0.1402 -0.2178 -0.1080
  652TMC3    C8 9659   4.372   1.974  10.578 -0.0241 -0.4566 -0.2740
  652TMC3    O1 9660   4.382   2.193  11.096 -0.0083 -0.1844  0.4459
  652TMC3    O2 9661   4.430   1.885  10.518  0.5375  0.0184 -0.3619
  653MPD2     C 9662   2.686   2.253  17.532 -1.2658  0.2425  0.8846
  653MPD2    C1 9663   2.638   2.363  17.464 -0.5204  0.5108 -0.5554
  653MPD2    C2 9664   2.536   2.347  17.371  0.0960  0.5985 -0.3252
  653MPD2    C3 9665   2.490   2.217  17.338 -0.2760  0.2830 -0.4686
  653MPD2    C4 9666   2.557   2.111  17.396 -0.4059  0.2051 -0.3055
  653MPD2    C5 9667   2.652   2.129  17.486 -0.0616  0.9642 -0.1566
  653MPD2     H 9668   2.489   2.437  17.334  0.0939  0.0126 -1.7513
  653MPD2    H1 9669   2.531   2.007  17.385  0.0406  0.0819 -0.2000
  653MPD2    H2 9670   2.762   2.265  17.608  1.1486  1.1548 -1.6472
  653MPD2    H3 9671   2.704   2.041  17.524 -1.5164  0.0951 -0.1977
  653MPD2     N 9672   2.371   2.207  17.257 -0.1917  0.1078 -0.7685
  653MPD2    H5 9673   2.341   2.293  17.212  2.7398  1.1423 -0.7333
  653MPD2    N1 9674   2.680   2.495  17.492 -0.5851  0.7504 -0.2204
  653MPD2    H7 9675   2.640   2.568  17.434  1.5006 -0.3451 -3.0515
  654TMC3    C1 9676   2.232   2.077  17.103  0.4812 -0.3876  0.1895
  654TMC3    C2 9677   2.129   2.158  17.070 -0.6179  0.8065  0.7476
  654TMC3    C3 9678   2.029   2.114  16.990 -0.6125  1.0880  0.4926
  654TMC3    C4 9679   2.234   1.950  17.057  0.3191  0.0246 -0.9314
  654TMC3    C5 9680   2.130   1.903  16.987  1.1030  0.0963  0.0902
  654TMC3    C6 9681   2.030   1.983  16.938 -0.0614  0.7760 -0.2634
  654TMC3     C 9682   2.308   2.088  17.228 -0.1856  0.4818 -0.3275
  654TMC3     O 9683   2.329   1.985  17.295 -0.0084  0.7735 -0.2476
  654TMC3     H 9684   2.118   2.259  17.108  0.4693  0.9953  0.5731
  654TMC3    H1 9685   2.318   1.889  17.087  1.1421  1.7333  0.2733
  654TMC3    H2 9686   1.944   1.939  16.888  0.3158  1.8084 -1.8179
  654TMC3    C7 9687   2.150   1.779  16.908 -0.5172  0.1604  0.2631
  654TMC3    C8 9688   1.941   2.213  16.932  0.4043  0.2619  0.3268
  654TMC3    O1 9689   2.085   1.763  16.806 -0.0352  0.7391  0.2261
  654TMC3    O2 9690   1.889   2.290  17.012  0.1690 -0.6463  0.0980
  655MPD2     C 9691   4.039   2.122  15.684  0.1465  0.0415  0.3038
  655MPD2    C1 9692   3.946   2.184  15.612  0.4496 -0.2684  0.2731
  655MPD2    C2 9693   3.903   2.125  15.490 -0.9325  0.2804 -0.8818
  655MPD2    C3 9694   3.958   2.004  15.446  0.0383 -0.0898 -0.3553
  655MPD2    C4 9695   4.053   1.942  15.524  0.0392 -0.1519  0.5279
  655MPD2    C5 9696   4.096   2.005  15.635 -0.3630  0.1065 -0.3979
  655MPD2     H 9697   3.812   2.160  15.442 -1.3936  0.4407  0.0961
  655MPD2    H1 9698   4.105   1.855  15.486  1.0418  0.4107  0.6072
  655MPD2    H2 9699   4.089   2.154  15.775  1.0754  0.6567 -0.4143
  655MPD2    H3 9700   4.176   1.962  15.694  0.4815  0.4689 -1.3034
  655MPD2     N 9701   3.913   1.929  15.336 -0.3421 -0.7826  0.0686
  655MPD2    H5 9702   3.969   1.847  15.314  1.9981  0.9674 -0.5078
  655MPD2    N1 9703   3.887   2.302  15.654 -0.3492  0.2132 -0.0158
  655MPD2    H7 9704   3.818   2.352  15.599  1.0645  1.7803 -0.3633
  656TMC3    C1 9705   3.819   2.472  15.809 -0.0975  0.8408  0.4552
  656TMC3    C2 9706   3.779   2.496  15.937 -0.5507  0.4542  0.1652
  656TMC3    C3 9707   3.709   2.615  15.954  0.5380 -0.0531 -0.3805
  656TMC3    C4 9708   3.797   2.563  15.709 -0.0794  0.3449  0.6910
  656TMC3    C5 9709   3.730   2.684  15.734 -0.2095 -0.0814 -0.5371
  656TMC3    C6 9710   3.694   2.719  15.858  0.8617  0.7045  0.2780
  656TMC3     C 9711   3.902   2.352  15.785 -0.5910 -0.0849 -0.3679
  656TMC3     O 9712   3.957   2.304  15.884  0.7177  0.3134 -0.2706
  656TMC3     H 9713   3.778   2.419  16.013 -4.2213 -0.9782 -1.3298
  656TMC3    H1 9714   3.837   2.548  15.609 -0.0203 -2.5207  1.1250
  656TMC3    H2 9715   3.628   2.803  15.879  0.0025  0.0934  0.0341
  656TMC3    C7 9716   3.688   2.750  15.614  0.1682 -0.1154  0.4815
  656TMC3    C8 9717   3.608   2.612  16.060  0.0603  0.1223  0.1240
  656TMC3    O1 9718   3.740   2.705  15.511 -0.2236 -0.1471 -0.6057
  656TMC3    O2 9719   3.563   2.502  16.087  0.5241 -0.0027 -0.1922
  657TMC3    C1 9720   3.314   1.742  14.517  0.3417 -0.2925  0.1273
  657TMC3    C2 9721   3.232   1.767  14.621  0.1063 -0.6889  0.3990
  657TMC3    C3 9722   3.129   1.857  14.605 -0.2656 -0.0471 -0.8463
  657TMC3    C4 9723   3.299   1.798  14.396  0.2187 -0.2331 -0.1180
  657TMC3    C5 9724   3.183   1.870  14.376 -0.2067 -0.3651  0.1803
  657TMC3    C6 9725   3.103   1.902  14.482 -0.2702 -0.9973  0.5527
  657TMC3     C 9726   3.447   1.695  14.550 -0.3574  0.6281  0.1908
  657TMC3     O 9727   3.539   1.748  14.489 -0.4753 -0.3719  0.2745
  657TMC3     H 9728   3.254   1.726  14.719  3.3760 -0.5070 -0.2778
  657TMC3    H1 9729   3.376   1.778  14.321  0.2611 -2.6353  0.5723
  657TMC3    H2 9730   3.013   1.952  14.446 -0.4131 -1.8208 -0.2222
  657TMC3    C7 9731   3.172   1.956  14.258  1.2179 -0.8596 -0.0616
  657TMC3    C8 9732   3.050   1.889  14.722  0.2096  0.3697 -0.1244
  657TMC3    O1 9733   3.104   2.054  14.270 -0.5902 -0.1554  0.0412
  657TMC3    O2 9734   3.060   1.825  14.823 -0.3919 -0.1647 -0.2621
  658MPD2     C 9735   4.329   1.880  14.821  0.7155  0.4277  0.0974
  658MPD2    C1 9736   4.198   1.901  14.777 -0.3624  0.0055  0.4583
  658MPD2    C2 9737   4.171   1.969  14.660 -0.0908 -0.0464 -0.2645
  658MPD2    C3 9738   4.283   2.008  14.579  0.0518  0.8178  0.2152
  658MPD2    C4 9739   4.410   1.973  14.620  1.3813 -0.5743 -0.7196
  658MPD2    C5 9740   4.429   1.911  14.737  0.2419  0.0834 -0.3181
  658MPD2     H 9741   4.068   1.994  14.638 -0.3528 -0.3596  0.6354
  658MPD2    H1 9742   4.494   1.986  14.552 -0.9167  3.0939 -2.9073
  658MPD2    H2 9743   4.348   1.840  14.920 -0.8502 -0.9332 -0.1651
  658MPD2    H3 9744   4.526   1.883  14.776  0.7887  0.1193 -1.6508
  658MPD2     N 9745   4.248   2.080  14.458 -0.2124 -0.1411 -0.4414
  658MPD2    H5 9746   4.149   2.084  14.435 -0.3737 -0.0587  0.2617
  658MPD2    N1 9747   4.097   1.852  14.867  0.6645  0.0832 -0.1560
  658MPD2    H7 9748   4.124   1.825  14.961  1.4245  1.6999  0.0941
  659TMC3    C1 9749   3.869   1.825  14.943  0.2327  0.7989 -0.5039
  659TMC3    C2 9750   3.903   1.840  15.075 -0.2707 -0.3068 -0.3706
  659TMC3    C3 9751   3.796   1.842  15.159 -0.1908  0.2841  0.3188
  659TMC3    C4 9752   3.736   1.803  14.901 -0.1925  0.1043 -0.6017
  659TMC3    C5 9753   3.637   1.788  14.993  0.0033  0.1796 -0.5588
  659TMC3    C6 9754   3.676   1.819  15.120  0.1864  0.5316  0.0360
  659TMC3     C 9755   3.966   1.830  14.832  0.1039 -0.0561 -0.9855
  659TMC3     O 9756   3.910   1.827  14.721  0.4513  0.2928  0.1903
  659TMC3     H 9757   4.003   1.870  15.104 -0.6896  1.7635 -1.0449
  659TMC3    H1 9758   3.717   1.768  14.800  3.5453 -3.0669 -0.2060
  659TMC3    H2 9759   3.599   1.825  15.196  1.1961  2.0751  0.9468
  659TMC3    C7 9760   3.503   1.822  14.961 -0.4096  0.3386  0.4241
  659TMC3    C8 9761   3.803   1.953  15.258 -0.2868  0.4493  0.0423
  659TMC3    O1 9762   3.410   1.772  15.023 -0.4918 -0.2664  0.0934
  659TMC3    O2 9763   3.715   2.038  15.261 -0.1556 -0.2337 -0.6179
  660MPD2     C 9764   2.579   1.013  12.876  0.3879  0.6029 -0.1411
  660MPD2    C1 9765   2.457   1.072  12.845  0.5499 -0.6054 -0.2515
  660MPD2    C2 9766   2.345   1.043  12.923 -0.0242 -0.1011  0.2103
  660MPD2    C3 9767   2.363   0.963  13.039 -0.6471 -0.0778  0.3505
  660MPD2    C4 9768   2.487   0.907  13.066 -0.3172  0.5691  0.4601
  660MPD2    C5 9769   2.590   0.929  12.984  0.1966  0.1273  0.9430
  660MPD2     H 9770   2.252   1.090  12.893 -0.1728 -0.3700  0.2562
  660MPD2    H1 9771   2.516   0.851  13.154 -0.3478 -0.4859 -0.2062
  660MPD2    H2 9772   2.668   1.022  12.815  1.8166  1.4845  2.0831
  660MPD2    H3 9773   2.685   0.878  12.995 -1.0828 -1.8727  2.5539
  660MPD2     N 9774   2.262   0.929  13.128 -0.0463  0.4203 -0.1578
  660MPD2    H5 9775   2.284   0.884  13.216  1.1227  0.5323 -0.3890
  660MPD2    N1 9776   2.456   1.146  12.724  0.1046 -0.3717  0.2418
  660MPD2    H7 9777   2.543   1.150  12.673 -0.4924 -2.1338 -0.9041
  661TMC3    C1 9778   2.367   1.250  12.536  0.6628 -0.1842  0.1274
  661TMC3    C2 9779   2.443   1.151  12.466 -0.4175  0.4878 -0.8502
  661TMC3    C3 9780   2.410   1.138  12.332  0.2441  0.2427 -0.1183
  661TMC3    C4 9781   2.260   1.315  12.480  0.5234 -0.5611 -0.2885
  661TMC3    C5 9782   2.226   1.279  12.352  0.4483 -0.2509 -0.3917
  661TMC3    C6 9783   2.308   1.207  12.270  0.0859 -0.7416  0.6506
  661TMC3     C 9784   2.345   1.213  12.671 -0.2453  0.5003 -0.7366
  661TMC3     O 9785   2.235   1.227  12.715  0.0419  0.2164 -0.5603
  661TMC3     H 9786   2.501   1.074  12.514 -2.7109 -0.7096 -0.0261
  661TMC3    H1 9787   2.201   1.382  12.543  0.5334 -0.2015 -0.6605
  661TMC3    H2 9788   2.286   1.182  12.167  1.5533  0.4444  0.0378
  661TMC3    C7 9789   2.107   1.346  12.309 -0.4206 -0.2099 -0.2588
  661TMC3    C8 9790   2.494   1.057  12.241  0.9285  0.0321  0.6532
  661TMC3    O1 9791   2.066   1.445  12.371  0.9193  0.0493 -0.2881
  661TMC3    O2 9792   2.445   1.023  12.135  0.2293  0.2132 -0.0317
  662MPD2     C 9793   2.328   0.887  17.067 -0.0418  0.4890  0.2037
  662MPD2    C1 9794   2.212   0.847  17.128 -0.3765  0.2462  0.5462
  662MPD2    C2 9795   2.106   0.940  17.149 -0.6059 -0.1813 -0.3381
  662MPD2    C3 9796   2.124   1.077  17.121  0.1711 -0.4107 -0.3569
  662MPD2    C4 9797   2.242   1.118  17.063  0.0750  0.0984  0.4876
  662MPD2    C5 9798   2.339   1.022  17.034  0.0594 -0.1919  0.1537
  662MPD2     H 9799   2.023   0.903  17.208  0.0214 -2.2246 -0.7355
  662MPD2    H1 9800   2.257   1.222  17.038  0.9176  0.1080  1.0323
  662MPD2    H2 9801   2.401   0.821  17.020 -0.5409 -0.5009  0.8194
  662MPD2    H3 9802   2.431   1.058  16.990 -0.7432  1.9033  0.1699
  662MPD2     N 9803   2.028   1.177  17.144  0.6291 -0.1770  0.3079
  662MPD2    H5 9804   2.055   1.273  17.129  0.0148 -0.1430 -0.5963
  662MPD2    N1 9805   2.196   0.714  17.171 -0.2085  0.3150 -0.8590
  662MPD2    H7 9806   2.104   0.686  17.203 -0.8332  0.3949 -2.5961
  663TMC3    C1 9807   2.262   0.509  17.250  0.2706  0.6222  0.2376
  663TMC3    C2 9808   2.129   0.475  17.220  0.6593  0.6531 -0.5162
  663TMC3    C3 9809   2.059   0.421  17.329  0.3246  0.1973  0.3822
  663TMC3    C4 9810   2.329   0.479  17.358 -0.4759 -0.3554 -0.3891
  663TMC3    C5 9811   2.260   0.402  17.448  0.4772  0.4452  0.7614
  663TMC3    C6 9812   2.127   0.378  17.448  0.5404 -0.3306  0.6320
  663TMC3     C 9813   2.305   0.629  17.183 -0.3110 -0.7121  0.2543
  663TMC3     O 9814   2.423   0.662  17.186 -0.2452  0.1007 -0.5133
  663TMC3     H 9815   2.067   0.517  17.142 -0.7064 -1.0696 -0.3606
  663TMC3    H1 9816   2.431   0.507  17.382 -1.3303  3.2826 -1.1545
  663TMC3    H2 9817   2.086   0.318  17.528 -0.4070 -1.1485 -0.4713
  663TMC3    C7 9818   2.337   0.332  17.545 -0.3370 -0.7116  0.0784
  663TMC3    C8 9819   1.950   0.518  17.359 -0.5080  0.2258 -0.4973
  663TMC3    O1 9820   2.425   0.390  17.607  0.0853 -0.0904  0.4108
  663TMC3    O2 9821   1.953   0.629  17.307 -0.0665  0.0414 -0.2637
  664MPD2     C 9822   4.157   3.305  17.695 -0.3213 -0.3329  0.4341
  664MPD2    C1 9823   4.263   3.332   0.065  0.3832 -0.5790 -0.3581
  664MPD2    C2 9824   4.248   3.313   0.200  0.6801 -0.1180  0.1345
  664MPD2    C3 9825   4.133   3.273   0.268  0.2523 -0.7819  0.1261
  664MPD2    C4 9826   4.023   3.247   0.188  0.8382  0.3390  0.0683
  664MPD2    C5 9827   4.036   3.271   0.049  1.1496  0.7182 -0.0134
  664MPD2     H 9828   4.339   3.330   0.256  0.5992 -0.2789  0.3134
  664MPD2    H1 9829   3.942   3.187   0.227  1.6039 -1.0175 -0.4394
  664MPD2    H2 9830   4.160   3.314  17.588 -0.7753  0.5041  0.4903
  664MPD2    H3 9831   3.964   3.232  17.684  1.1037  1.9401 -0.6343
  664MPD2     N 9832   4.135   3.267   0.410 -0.6503 -0.3509 -0.3083
  664MPD2    H5 9833   4.229   3.285   0.444 -1.2286  1.3312  0.4029
  664MPD2    N1 9834   4.377   3.396   0.015  0.0552  0.4011  0.4339
  664MPD2    H7 9835   4.445   3.429   0.084 -0.7868  1.5428  0.7078
  665TMC3    C1 9836   4.059   3.334   0.615 -0.2048 -0.5186 -0.5857
  665TMC3    C2 9837   3.962   3.403   0.675 -0.4819  0.9251 -0.5562
  665TMC3    C3 9838   4.002   3.475   0.786  0.6585  0.4400  0.9982
  665TMC3    C4 9839   4.186   3.336   0.657  0.0080 -0.5154 -0.4838
  665TMC3    C5 9840   4.228   3.415   0.760 -0.1002 -0.8688  0.1308
  665TMC3    C6 9841   4.130   3.486   0.834  0.4137 -0.0135  0.1754
  665TMC3     C 9842   4.026   3.278   0.487 -0.3090  0.1186  0.2317
  665TMC3     O 9843   3.905   3.281   0.463 -0.4072  0.0889 -0.2435
  665TMC3     H 9844   3.859   3.402   0.642 -0.4592  0.0529 -0.5904
  665TMC3    H1 9845   4.264   3.284   0.603  0.2460  0.8735 -1.4952
  665TMC3    H2 9846   4.142   3.561   0.911  0.2695  0.0713  0.1160
  665TMC3    C7 9847   4.362   3.471   0.750 -0.1705 -0.0922 -0.5038
  665TMC3    C8 9848   3.893   3.537   0.866 -0.9097  0.2680 -0.2473
  665TMC3    O1 9849   4.417   3.460   0.642  0.0113  0.6198 -0.6285
  665TMC3    O2 9850   3.912   3.570   0.986  0.4318  0.6009 -0.4149
  666TMC3    C1 9851   4.230   3.256  10.134 -0.2359  0.0775  0.3716
  666TMC3    C2 9852   4.325   3.192  10.204 -0.7292  0.6096 -0.3358
  666TMC3    C3 9853   4.425   3.274  10.255 -0.1123 -0.0556 -0.1266
  666TMC3    C4 9854   4.226   3.391  10.108  0.0427 -0.2859 -0.1729
  666TMC3    C5 9855   4.330   3.467  10.158  0.4045  0.5333 -0.9287
  666TMC3    C6 9856   4.420   3.410  10.239 -0.2421 -0.8518  0.1325
  666TMC3     C 9857   4.165   3.165  10.045  0.5024 -0.0391  0.1570
  666TMC3     O 9858   4.235   3.071  10.010 -0.6431 -0.3851  0.2389
  666TMC3     H 9859   4.332   3.084  10.211 -2.3328  0.4400 -1.4172
  666TMC3    H1 9860   4.144   3.427  10.047  1.0072  3.6981  0.8843
  666TMC3    H2 9861   4.501   3.475  10.269 -0.0242 -0.8477 -0.4587
  666TMC3    C7 9862   4.334   3.613  10.152 -0.2108 -0.0076  0.3609
  666TMC3    C8 9863   4.541   3.216  10.322 -0.2516  0.3017 -0.3389
  666TMC3    O1 9864   4.377   3.671  10.255 -0.2073  0.4044 -0.2090
  666TMC3    O2 9865   4.531   3.107  10.375 -0.1524  0.5300  0.2080
  667MPD2     C 9866   1.492   3.935  14.736  0.1805 -0.1674 -0.4072
  667MPD2    C1 9867   1.394   3.952  14.834 -0.3148  0.1470  0.2791
  667MPD2    C2 9868   1.274   3.877  14.825 -0.4908 -0.2917 -0.0516
  667MPD2    C3 9869   1.241   3.806  14.713  0.3629  0.6985 -0.9176
  667MPD2    C4 9870   1.338   3.779  14.622 -0.4271 -0.7794  0.3198
  667MPD2    C5 9871   1.456   3.846  14.633  0.2184  0.0144 -0.4413
  667MPD2     H 9872   1.197   3.895  14.900  0.6849  1.8571  0.6258
  667MPD2    H1 9873   1.318   3.716  14.535 -0.4379 -1.6011  0.9136
  667MPD2    H2 9874   1.593   3.974  14.742  0.4419 -1.1169  1.4088
  667MPD2    H3 9875   1.525   3.826  14.552 -0.8299 -1.2224 -1.0187
  667MPD2     N 9876   1.122   3.736  14.695  0.4138  0.3344 -0.4945
  667MPD2    H5 9877   1.122   3.683  14.608  1.9102 -0.8296  0.2272
  667MPD2    N1 9878   1.408   4.036  14.943  0.2012 -0.4675 -1.2107
  667MPD2    H7 9879   1.327   4.045  15.004 -0.0050  2.3545 -1.9025
  668TMC3    C1 9880   1.520   4.179  15.100  0.6566 -0.5729 -0.0752
  668TMC3    C2 9881   1.617   4.274  15.115 -0.7609  0.5611  0.5468
  668TMC3    C3 9882   1.646   4.313  15.242 -0.0954  0.2310 -0.6760
  668TMC3    C4 9883   1.470   4.114  15.211  0.0790 -0.2921 -0.2794
  668TMC3    C5 9884   1.503   4.148  15.337 -0.2008 -0.1914 -0.5199
  668TMC3    C6 9885   1.589   4.250  15.355 -0.5365  0.5814 -0.2384
  668TMC3     C 9886   1.524   4.108  14.973 -0.1870  0.0784 -0.3460
  668TMC3     O 9887   1.631   4.117  14.917 -0.1803  0.3848  0.3439
  668TMC3     H 9888   1.660   4.327  15.031  1.1849 -0.5234  0.8498
  668TMC3    H1 9889   1.410   4.027  15.186 -0.8492  0.0652  0.7429
  668TMC3    H2 9890   1.618   4.274  15.456  3.3243 -1.7010 -0.8082
  668TMC3    C7 9891   1.434   4.075  15.438 -0.2221  0.0223 -0.4941
  668TMC3    C8 9892   1.769   4.389  15.267  0.0013 -0.5356 -0.1629
  668TMC3    O1 9893   1.486   4.087  15.552  0.6566 -0.0189 -0.2136
  668TMC3    O2 9894   1.827   4.367  15.373 -0.1201  0.3874  0.1395
  669TMC3    C1 9895   4.436   3.687  14.426 -0.5712  0.1281 -0.2033
  669TMC3    C2 9896   4.345   3.687  14.323  0.5371  0.1122  0.1903
  669TMC3    C3 9897   4.356   3.784  14.229  0.5761  0.4108  0.3977
  669TMC3    C4 9898   4.527   3.789  14.439  0.0100 -0.2175 -0.9453
  669TMC3    C5 9899   4.532   3.885  14.342  0.2780 -0.1364  0.3723
  669TMC3    C6 9900   4.456   3.876  14.229 -0.4490  0.2084  0.2627
  669TMC3     C 9901   4.431   3.580  14.518  0.6198  0.0481 -0.5656
  669TMC3     O 9902   4.332   3.507  14.513  0.3063 -0.1020  0.2607
  669TMC3     H 9903   4.271   3.608  14.320  1.2819 -0.5337 -1.3138
  669TMC3    H1 9904   4.597   3.783  14.522  1.0679  2.1889 -1.6602
  669TMC3    H2 9905   4.452   3.958  14.157  2.3176 -1.0039 -1.2736
  669TMC3    C7 9906   4.645   3.974  14.343 -0.0656  0.8147 -0.3438
  669TMC3    C8 9907   4.266   3.777  14.119 -0.0650  1.0391 -0.0016
  669TMC3    O1 9908   4.714   3.977  14.446 -0.1921 -0.8820 -0.3901
  669TMC3    O2 9909   4.212   3.670  14.103  0.0520  0.1038  0.3166
  670MPD2     C 9910   2.298   1.844  13.276 -0.7223 -0.3881  0.2512
  670MPD2    C1 9911   2.400   1.908  13.326  0.4415 -0.4070 -0.3071
  670MPD2    C2 9912   2.421   1.903  13.460  0.6519 -0.2861  0.0836
  670MPD2    C3 9913   2.340   1.836  13.545 -0.2245 -0.0579  0.4361
  670MPD2    C4 9914   2.232   1.781  13.491 -0.2070 -0.3593  0.2389
  670MPD2    C5 9915   2.203   1.789  13.359 -0.5242  0.4776  1.2051
  670MPD2     H 9916   2.508   1.960  13.490 -0.9594  1.8003  0.8088
  670MPD2    H1 9917   2.172   1.714  13.551 -0.0334 -2.3202 -1.7678
  670MPD2    H2 9918   2.262   1.854  13.174  0.6983  0.1673 -0.1904
  670MPD2    H3 9919   2.120   1.732  13.320  2.5159 -2.9505 -0.2271
  670MPD2     N 9920   2.382   1.832  13.676 -0.0713  0.7445 -0.5676
  670MPD2    H5 9921   2.476   1.866  13.696  1.3799 -1.7081 -3.1534
  670MPD2    N1 9922   2.492   1.973  13.247 -0.5909 -0.2822 -0.1843
  670MPD2    H7 9923   2.569   2.019  13.295  0.5526  0.0886 -2.3723
  671TMC3    C1 9924   2.398   1.742  13.886 -0.4468 -0.4516 -0.1174
  671TMC3    C2 9925   2.530   1.707  13.855 -0.0403  0.2764  0.4895
  671TMC3    C3 9926   2.605   1.648  13.951 -0.0452 -0.0504  0.1772
  671TMC3    C4 9927   2.343   1.716  14.006  0.1621  0.6573 -1.0530
  671TMC3    C5 9928   2.427   1.659  14.098 -0.8261 -0.1329 -0.5513
  671TMC3    C6 9929   2.553   1.624  14.078  0.8708 -0.6389 -0.6007
  671TMC3     C 9930   2.311   1.779  13.778  0.3039  0.2838  0.8924
  671TMC3     O 9931   2.191   1.773  13.792 -0.3825 -0.2833 -0.0419
  671TMC3     H 9932   2.546   1.665  13.756 -0.2353  3.6187 -0.9362
  671TMC3    H1 9933   2.243   1.750  14.033  0.6651  0.0550  1.6101
  671TMC3    H2 9934   2.613   1.568  14.149 -0.2704  0.3553  1.1527
  671TMC3    C7 9935   2.359   1.571  14.194  0.0887  1.1503 -0.4944
  671TMC3    C8 9936   2.688   1.528  13.915  0.3665  1.3690 -0.3471
  671TMC3    O1 9937   2.431   1.532  14.285  0.3657 -0.1437  0.1622
  671TMC3    O2 9938   2.684   1.428  13.989 -0.0120 -0.2413 -0.5383
  672MPD2     C 9939   2.037   2.287   1.418  0.6230  0.3709  0.0702
  672MPD2    C1 9940   2.151   2.211   1.402 -0.2645  0.4778 -0.0483
  672MPD2    C2 9941   2.262   2.249   1.468  0.1360  0.0178 -0.5959
  672MPD2    C3 9942   2.268   2.361   1.547 -0.5676 -0.0302  0.1256
  672MPD2    C4 9943   2.151   2.438   1.556  0.3668 -0.1147  0.2302
  672MPD2    C5 9944   2.038   2.395   1.495  0.1980  0.3424 -0.6530
  672MPD2     H 9945   2.350   2.190   1.445 -0.5903 -2.1825  2.2634
  672MPD2    H1 9946   2.152   2.529   1.615  0.5829  0.3096 -0.4310
  672MPD2    H2 9947   1.944   2.260   1.370  1.0399 -1.1074  0.0886
  672MPD2    H3 9948   1.950   2.458   1.504  1.4712  1.5546  3.1208
  672MPD2     N 9949   2.385   2.412   1.609  0.0234 -0.2228 -0.1642
  672MPD2    H5 9950   2.363   2.504   1.648 -2.0761 -0.5078 -0.6410
  672MPD2    N1 9951   2.158   2.104   1.311  0.0205 -1.6940 -0.1518
  672MPD2    H7 9952   2.246   2.055   1.313  1.0921  0.2526  0.6191
  673TMC3    C1 9953   2.120   1.988   1.112  0.3493  0.3058  0.2457
  673TMC3    C2 9954   2.197   1.882   1.149  0.5214 -0.3924  0.1245
  673TMC3    C3 9955   2.257   1.812   1.049  0.5286  0.4203  0.2988
  673TMC3    C4 9956   2.111   2.040   0.984 -0.3431  0.3178 -0.0700
  673TMC3    C5 9957   2.181   1.970   0.892 -0.0412  0.3893  0.8268
  673TMC3    C6 9958   2.238   1.846   0.921  0.3741 -0.1380  0.4502
  673TMC3     C 9959   2.066   2.080   1.213 -0.1057  0.3641 -0.3894
  673TMC3     O 9960   1.957   2.125   1.187  0.4332 -0.1106  0.3610
  673TMC3     H 9961   2.211   1.854   1.253  1.5615 -1.2927 -0.2468
  673TMC3    H1 9962   2.065   2.139   0.978 -2.7265 -0.6814  2.0321
  673TMC3    H2 9963   2.305   1.788   0.859 -0.1503 -0.7014  0.4019
  673TMC3    C7 9964   2.237   2.031   0.778  0.9028 -0.6952  0.2979
  673TMC3    C8 9965   2.279   1.675   1.071 -0.3724 -0.4378  1.4721
  673TMC3    O1 9966   2.292   1.949   0.704 -0.2091  0.1958 -0.1551
  673TMC3    O2 9967   2.195   1.595   1.029  0.0806  0.1784 -0.1591
  674MPD2     C 9968   2.889   1.746   0.143 -0.2746 -0.5516 -0.7094
  674MPD2    C1 9969   2.790   1.691   0.059  0.1630 -0.4342 -0.3373
  674MPD2    C2 9970   2.673   1.762   0.044 -0.1955 -0.3236  0.4694
  674MPD2    C3 9971   2.658   1.883   0.107  0.3532 -0.5979  0.1714
  674MPD2    C4 9972   2.766   1.946   0.176  0.1294  0.0342 -0.0182
  674MPD2    C5 9973   2.877   1.871   0.201  0.0469 -0.5364  0.0908
  674MPD2     H 9974   2.588   1.720  17.698 -0.4429 -0.4151  0.9504
  674MPD2    H1 9975   2.756   2.044   0.221 -0.9065 -0.1174  0.0828
  674MPD2    H2 9976   2.972   1.680   0.167  0.2410  0.4666  0.2851
  674MPD2    H3 9977   2.962   1.915   0.252  0.4152 -2.1866  0.8864
  674MPD2     N 9978   2.526   1.939   0.114 -0.0422 -0.2229 -0.0657
  674MPD2    H5 9979   2.456   1.895   0.056 -1.1055  0.8024  0.4367
  674MPD2    N1 9980   2.810   1.561   0.017 -0.1891 -0.1363  0.3861
  674MPD2    H7 9981   2.887   1.506   0.055 -0.5995  0.3922  2.0077
  675TMC3    C1 9982   2.691   1.358  17.666  0.0241  0.3791  0.1755
  675TMC3    C2 9983   2.575   1.320  17.601 -0.8275  0.5363  0.3285
  675TMC3    C3 9984   2.476   1.269  17.687  0.1761  0.3922  0.0610
  675TMC3    C4 9985   2.720   1.329   0.091 -0.4643  0.6676 -0.4886
  675TMC3    C5 9986   2.626   1.269   0.164  0.5017  0.4538 -0.4591
  675TMC3    C6 9987   2.499   1.243   0.114 -0.0192 -0.1854  0.4568
  675TMC3     C 9988   2.723   1.498  17.632 -1.0466  0.0787 -0.2767
  675TMC3     O 9989   2.670   1.554  17.538 -0.5020  0.2361  0.2056
  675TMC3     H 9990   2.535   1.353  17.505 -1.5908 -2.4997 -0.3921
  675TMC3    H1 9991   2.808   1.349   0.152  0.7475 -1.5880 -1.5086
  675TMC3    H2 9992   2.429   1.201   0.185 -2.6840  0.4797 -1.7885
  675TMC3    C7 9993   2.651   1.265   0.306  0.1087 -0.1937  0.2482
  675TMC3    C8 9994   2.353   1.240  17.628  0.0533 -0.4812  0.1257
  675TMC3    O1 9995   2.762   1.241   0.345  0.4063 -0.6655 -0.6403
  675TMC3    O2 9996   2.344   1.243  17.507  0.1054 -0.4073  0.1589
  676MPD2     C 9997   0.177   4.712  11.255  0.2443  0.7103  0.0572
  676MPD2    C1 9998   0.196   4.618  11.352 -0.8203  0.4711  0.3469
  676MPD2    C2 9999   0.210   4.488  11.306  0.4631  0.5386 -1.0977
  676MPD2    C310000   0.222   4.455  11.171 -0.4499  0.2115  0.6250
  676MPD2    C410001   0.220   4.556  11.082 -0.0942 -0.5589  0.5313
  676MPD2    C510002   0.183   4.681  11.124 -1.0857  0.2932 -0.2070
  676MPD2     H10003   0.218   4.407  11.378 -1.5400  1.2626 -0.0573
  676MPD2    H110004   0.233   4.546  10.974  0.1455 -0.2194  0.5289
  676MPD2    H210005   0.159   0.091  11.273  2.0756  0.3797  3.7526
  676MPD2    H310006   0.169   0.035  11.053 -0.6720  1.4928  1.0738
  676MPD2     N10007   0.235   4.323  11.123  0.4584 -0.4207  0.1471
  676MPD2    H510008   0.243   4.325  11.021 -0.3613 -0.1292  0.0912
  676MPD2    N110009   0.212   4.655  11.486  0.1651  0.7617  0.5734
  676MPD2    H710010   0.188   0.025  11.508  0.9685  1.1109 -0.0774
  677TMC3    C110011   0.250   4.642  11.709 -0.1744 -0.3116  0.1609
  677TMC3    C210012   0.201   4.572  11.810 -0.3714 -0.4578 -0.3524
  677TMC3    C310013   0.190   4.646  11.926 -0.4310 -0.2956 -0.2906
  677TMC3    C410014   0.278   0.046  11.703 -0.1277 -0.7024  0.1592
  677TMC3    C510015   0.260   0.112  11.821 -0.3889  0.6460  0.2436
  677TMC3    C610016   0.210   0.053  11.930 -0.8537  0.6228 -0.3960
  677TMC3     C10017   0.243   4.568  11.589  0.3269 -0.1022  0.3012
  677TMC3     O10018   0.288   4.454  11.585  0.4028  0.3628  0.1900
  677TMC3     H10019   0.169   4.469  11.797 -0.7011 -0.3675 -0.2707
  677TMC3    H110020   0.338   0.086  11.622 -3.5975  0.7661 -1.6501
  677TMC3    H210021   0.204   0.111  12.022 -0.5282  2.7956 -1.7225
  677TMC3    C710022   0.307   0.250  11.841  0.2738 -0.2703  0.6353
  677TMC3    C810023   0.103   4.574  12.015 -0.3049  0.4635 -0.1628
  677TMC3    O110024   0.293   0.308  11.948  1.3288  0.4893  0.7294
  677TMC3    O210025   4.725   4.526  11.976  0.3071 -0.6069  0.1279
  678MPD2     C10026   0.954   4.710   1.405 -0.2135 -0.1023  0.6277
  678MPD2    C110027   0.974   4.585   1.354 -0.2411  0.6190  0.0913
  678MPD2    C210028   0.867   4.497   1.338 -0.8563 -0.8520  0.1892
  678MPD2    C310029   0.737   4.539   1.350 -0.1020 -0.2166 -0.0689
  678MPD2    C410030   0.716   4.657   1.413 -0.4983  0.5108 -0.4061
  678MPD2    C510031   0.822   0.011   1.443 -0.2067 -0.2987  0.6911
  678MPD2     H10032   0.894   4.404   1.289  4.9793  0.9647 -0.0388
  678MPD2    H110033   0.620   4.703   1.434  0.0958  1.9123 -0.8263
  678MPD2    H210034   1.036   0.051   1.429 -1.1963  1.4184 -0.2127
  678MPD2    H310035   0.798   0.108   1.484  2.3180  0.5380  0.1895
  678MPD2     N10036   0.623   4.467   1.314 -0.5277  0.5113 -0.3304
  678MPD2    H510037   0.534   4.514   1.327 -0.5541  0.9974 -2.3170
  678MPD2    N110038   1.107   4.553   1.328  0.0093 -0.5254 -0.4704
  678MPD2    H710039   1.167   4.634   1.313 -1.0190  0.2481 -0.3941
  679TMC3    C110040   1.494   4.295   1.276  0.4890  0.7247 -0.4736
  679TMC3    C210041   1.362   4.305   1.318  0.2285 -0.1008  0.3277
  679TMC3    C310042   1.288   4.418   1.274  0.3379 -0.2971  0.3120
  679TMC3    C410043   1.550   4.386   1.189 -0.7315  0.7481  0.7017
  679TMC3    C510044   1.475   4.494   1.153 -0.2195 -0.6231  0.6841
  679TMC3    C610045   1.350   4.520   1.205 -0.0380 -0.0199 -0.2643
  679TMC3     C10046   1.570   4.189   1.338  0.0232 -0.0368 -0.5659
  679TMC3     O10047   1.676   4.160   1.286  0.3291 -0.3718 -0.3198
  679TMC3     H10048   1.312   4.222   1.366  0.4412  0.7084  1.9567
  679TMC3    H110049   1.646   4.359   1.146 -0.3080  0.4497  1.8331
  679TMC3    H210050   1.293   4.604   1.167 -0.6039 -1.1044 -1.8277
  679TMC3    C710051   1.501   4.559   1.025  0.6656  0.4790  0.4160
  679TMC3    C810052   1.147   4.424   1.317  0.2080 -0.2028  0.5215
  679TMC3    O110053   1.397   4.574   0.948 -0.0434 -0.2716  0.5879
  679TMC3    O210054   1.090   4.318   1.342 -0.4306 -1.0697  0.3251
  680MPD2     C10055   1.856   3.833  13.959  0.5753  0.3206 -0.5514
  680MPD2    C110056   1.954   3.754  14.007  0.1804  0.4538 -0.7051
  680MPD2    C210057   2.073   3.808  14.048  1.1745 -0.2868  0.5535
  680MPD2    C310058   2.094   3.943  14.044  0.1108  0.2164 -0.1008
  680MPD2    C410059   1.992   4.023  13.999  0.1213  0.4926 -0.2074
  680MPD2    C510060   1.881   3.965  13.954 -0.3928  0.1984  0.4307
  680MPD2     H10061   2.149   3.747  14.094  2.1840  0.8588  0.4076
  680MPD2    H110062   2.007   4.130  13.996  2.1847  0.2399  1.2714
  680MPD2    H210063   1.759   3.792  13.932  1.2489 -0.0240 -2.4727
  680MPD2    H310064   1.804   4.026  13.908 -0.9686 -1.0605 -0.2778
  680MPD2     N10065   2.225   4.004  14.078  0.0374 -0.2235 -0.5470
  680MPD2    H510066   2.242   4.102  14.055  0.9157 -0.1100  0.5557
  680MPD2    N110067   1.948   3.614  14.028 -0.3123 -0.3605 -0.5852
  680MPD2    H710068   2.009   3.572  14.097  1.1605  0.2127 -1.5471
  681TMC3    C110069   1.852   3.412  14.054  0.3273  0.2877  0.0650
  681TMC3    C210070   1.860   3.431  14.187  0.0381 -0.0445 -0.5185
  681TMC3    C310071   1.959   3.370  14.268  0.6885 -0.2153  0.1861
  681TMC3    C410072   1.948   3.339  13.991  0.1154  0.3046  0.0442
  681TMC3    C510073   2.047   3.279  14.067  0.6257 -0.3778  0.4302
  681TMC3    C610074   2.052   3.285  14.208  0.4878  0.1113 -0.2819
  681TMC3     C10075   1.844   3.539  13.991  0.4974 -0.1182  0.6920
  681TMC3     O10076   1.779   3.560  13.892 -0.8881 -0.0479  0.4852
  681TMC3     H10077   1.787   3.503  14.221 -0.0904 -0.7076  0.6134
  681TMC3    H110078   1.938   3.336  13.883  0.0977 -0.8825  0.0843
  681TMC3    H210079   2.111   3.216  14.266 -0.0837  0.6065  0.8825
  681TMC3    C710080   2.147   3.205  14.009  0.9584  0.4113 -0.1084
  681TMC3    C810081   1.947   3.399  14.410 -0.0022 -0.1620 -0.2329
  681TMC3    O110082   2.227   3.140  14.077  0.0516 -0.2263  0.0331
  681TMC3    O210083   1.841   3.454  14.444  0.1582  0.4202 -0.0562
  682MPD2     C10084   4.010   0.108  10.686 -0.2641  0.0961  0.1702
  682MPD2    C110085   3.943   4.723  10.728  0.1461  0.1997 -0.6547
  682MPD2    C210086   3.870   0.008  10.840 -0.6805  0.5492 -0.6884
  682MPD2    C310087   3.866   0.128  10.913 -0.1215 -0.6805 -0.1050
  682MPD2    C410088   3.938   0.233  10.874  0.4637 -0.6435  0.5132
  682MPD2    C510089   4.011   0.229  10.757  0.0911  0.3420  0.1271
  682MPD2     H10090   3.806   4.651  10.866  4.4963 -2.9798  0.6790
  682MPD2    H110091   3.946   0.323  10.933  0.9260  0.1039 -0.6941
  682MPD2    H210092   4.066   0.104  10.593  1.5564  1.5312  1.2136
  682MPD2    H310093   4.054   0.322  10.721 -1.8690  0.4257 -1.9810
  682MPD2     N10094   3.793   0.142  11.031 -0.8669 -0.1608  0.3576
  682MPD2    H510095   3.811   0.222  11.091 -2.0975  0.6627 -0.3851
  682MPD2    N110096   3.953   4.596  10.663  0.0451  0.5922 -0.0782
  682MPD2    H710097   3.902   4.517  10.701  0.1364  0.9789  0.8492
  683TMC3    C110098   3.713   0.070  11.443  0.7816  0.2897  0.4577
  683TMC3    C210099   3.589   0.015  11.479  0.7889  0.0593 -0.3565
  683TMC3    C310100   3.495   4.712  11.385  0.4082 -0.5247  0.3504
  683TMC3    C410101   3.744   0.081  11.310  0.8936  0.6100 -0.0189
  683TMC3    C510102   3.648   0.055  11.211 -0.1700  0.3055 -0.2277
  683TMC3    C610103   3.525   0.002  11.249  0.2252 -0.4799  0.1208
  683TMC3     C10104   3.791   0.124  11.551  0.0125 -0.3718  0.2856
  683TMC3     O10105   3.861   0.223  11.531 -0.0813  0.3475 -0.3800
  683TMC3     H10106   3.563   0.022  11.585 -1.0589  3.4904 -1.0400
  683TMC3    H110107   3.838   0.125  11.281  0.9673 -0.1114 -0.8631
  683TMC3    H210108   3.464   4.696  11.165  1.4097 -1.9620 -0.1797
  683TMC3    C710109   3.686   0.060  11.067  0.0007  0.0056  0.6626
  683TMC3    C810110   3.404   4.615  11.422  0.8315  0.5355 -0.4936
  683TMC3    O110111   3.624   4.705  11.002 -0.1274 -0.0507 -0.6423
  683TMC3    O210112   3.310   4.602  11.346 -0.2932  0.0312 -0.3451
  684MPD2     C10113   2.337   4.201  16.520 -0.7165 -0.4078  0.1857
  684MPD2    C110114   2.372   4.283  16.418 -0.4228  0.3433 -0.7945
  684MPD2    C210115   2.363   4.417  16.433 -0.1367 -0.6144  0.0516
  684MPD2    C310116   2.311   4.482  16.549 -0.1391 -0.0566  0.1372
  684MPD2    C410117   2.289   4.394  16.657  0.1808  0.5127  0.0436
  684MPD2    C510118   2.291   4.258  16.635 -0.0596 -0.0441  0.2916
  684MPD2     H10119   2.389   4.478  16.347  1.1466 -1.9256 -0.4891
  684MPD2    H110120   2.269   4.433  16.756  1.3664  2.2064 -0.3718
  684MPD2    H210121   2.346   4.093  16.511 -2.3554 -0.4598 -0.7732
  684MPD2    H310122   2.248   4.196  16.713 -0.0568 -0.5405 -0.1072
  684MPD2     N10123   2.286   4.619  16.562  0.4272 -0.7975  0.3247
  684MPD2    H510124   2.253   4.651  16.653  0.0125 -0.0913 -0.0796
  684MPD2    N110125   2.418   4.225  16.294 -0.4246  0.9262  0.2699
  684MPD2    H710126   2.416   4.277  16.207  2.4699  1.9419  0.8006
  685TMC3    C110127   2.469   4.061  16.133  0.1043  0.1403 -0.3162
  685TMC3    C210128   2.402   4.148  16.048 -0.7058 -0.0963  0.6011
  685TMC3    C310129   2.460   4.174  15.928  0.2355 -0.5159  0.4988
  685TMC3    C410130   2.597   4.014  16.099 -0.2998  0.1727 -0.4252
  685TMC3    C510131   2.661   4.059  15.986  1.0232  0.1271 -0.2469
  685TMC3    C610132   2.587   4.129  15.892  0.0028 -0.5848 -0.8417
  685TMC3     C10133   2.454   4.091  16.278  0.4940 -0.3700 -0.1390
  685TMC3     O10134   2.492   4.005  16.357  0.2328 -0.5277  0.2437
  685TMC3     H10135   2.299   4.164  16.078 -1.4033 -0.1659 -1.7531
  685TMC3    H110136   2.652   3.973  16.183  0.1574  1.4572 -0.0900
  685TMC3    H210137   2.624   4.141  15.791 -1.0605 -0.0862 -1.1718
  685TMC3    C710138   2.781   4.126  16.030  0.3270 -0.0959 -0.5610
  685TMC3    C810139   2.375   4.228  15.822  0.0270  0.4405 -0.0402
  685TMC3    O110140   2.831   4.091  16.132 -0.2913 -0.5950  0.3713
  685TMC3    O210141   2.413   4.226  15.705  0.3223  0.3541 -0.0676
  686MPD2     C10142   3.629   3.514  15.097 -0.6255 -0.4834  0.2529
  686MPD2    C110143   3.547   3.566  15.197  0.7530  0.1139  0.1836
  686MPD2    C210144   3.416   3.517  15.210 -0.2340  0.5878 -0.1089
  686MPD2    C310145   3.370   3.413  15.136 -0.1198  0.7145  0.8670
  686MPD2    C410146   3.456   3.355  15.043  0.9913  1.1575  0.0494
  686MPD2    C510147   3.584   3.398  15.031 -0.1388  0.0769 -0.6800
  686MPD2     H10148   3.346   3.579  15.264 -1.5974 -1.1085  0.0819
  686MPD2    H110149   3.427   3.263  14.994  1.7713  1.0391 -0.1964
  686MPD2    H210150   3.730   3.554  15.091 -1.4359  1.9725  3.0125
  686MPD2    H310151   3.646   3.347  14.958 -0.6805  2.6524 -2.9521
  686MPD2     N10152   3.239   3.358  15.137 -0.3238 -0.9876  0.1352
  686MPD2    H510153   3.215   3.295  15.061 -2.4204 -1.9616  1.5894
  686MPD2    N110154   3.599   3.663  15.284 -0.4147  0.9902 -0.7465
  686MPD2    H710155   3.696   3.690  15.271  0.3748 -0.8417  1.2839
  687TMC3    C110156   3.176   3.424  15.367  0.8796  0.2240 -0.8269
  687TMC3    C210157   3.091   3.515  15.427 -0.3710 -0.1376  0.4614
  687TMC3    C310158   3.129   3.557  15.553  0.1979 -0.2879  0.4743
  687TMC3    C410159   3.286   3.374  15.427 -0.9041  0.7663  0.2479
  687TMC3    C510160   3.329   3.432  15.546  0.7345 -0.3601 -0.0489
  687TMC3    C610161   3.246   3.526  15.609 -0.4311  0.2282 -0.1458
  687TMC3     C10162   3.138   3.390  15.227  0.2199 -0.3535  0.1021
  687TMC3     O10163   3.016   3.369  15.215  0.1820  0.7108  0.5052
  687TMC3     H10164   3.016   3.570  15.372 -2.4225 -2.4693  0.9760
  687TMC3    H110165   3.356   3.305  15.381  1.2080  1.4242  2.4153
  687TMC3    H210166   3.280   3.572  15.701 -0.7779  0.2105 -0.0094
  687TMC3    C710167   3.467   3.427  15.587  1.0765 -0.2310 -0.0172
  687TMC3    C810168   3.090   3.690  15.586 -0.6272 -0.0643 -0.5564
  687TMC3    O110169   3.502   3.459  15.700 -0.0752 -0.6362  0.2348
  687TMC3    O210170   2.972   3.719  15.570  0.1309 -0.5326  0.0348
  688MPD2     C10171   2.995   3.085  17.153  1.0639  0.3050 -0.2185
  688MPD2    C110172   3.018   2.950  17.197 -0.2755  0.0186 -0.0051
  688MPD2    C210173   3.114   2.872  17.133  0.4034  0.0679  0.5104
  688MPD2    C310174   3.196   2.917  17.036  0.1345  0.0727 -0.0480
  688MPD2    C410175   3.171   3.047  16.994 -0.1902 -0.0599  0.0835
  688MPD2    C510176   3.074   3.125  17.051  0.0433  0.1465 -0.0649
  688MPD2     H10177   3.125   2.772  17.173  1.2235 -0.3215 -0.6736
  688MPD2    H110178   3.241   3.094  16.925  0.0310 -1.3030 -0.5375
  688MPD2    H210179   2.914   3.147  17.190  0.6064 -0.4733  0.0912
  688MPD2    H310180   3.047   3.222  17.011 -2.1718 -0.1478  0.7442
  688MPD2     N10181   3.305   2.848  16.969 -0.2288  0.5618  0.2805
  688MPD2    H510182   3.339   2.880  16.879 -0.1571 -1.8182 -0.5548
  688MPD2    N110183   2.960   2.893  17.310 -0.5969 -0.2928  0.1592
  688MPD2    H710184   3.003   2.808  17.345  1.8567  0.2921 -1.4595
  689TMC3    C110185   2.855   2.860  17.511 -0.1621  0.0297  0.1861
  689TMC3    C210186   2.856   2.923  17.636  0.9750 -0.8147  0.8736
  689TMC3    C310187   2.838   2.846   0.041 -0.2568 -0.0176  0.4441
  689TMC3    C410188   2.829   2.730  17.494  0.6921  0.7571 -0.1551
  689TMC3    C510189   2.795   2.662  17.607  0.4376 -0.0752 -0.1627
  689TMC3    C610190   2.803   2.715   0.027 -0.6224 -0.5965  0.2550
  689TMC3     C10191   2.880   2.950  17.401  0.3145  0.2065 -0.2582
  689TMC3     O10192   2.836   3.063  17.406  0.1511  0.6438 -0.4166
  689TMC3     H10193   2.887   3.027  17.641 -1.2807 -0.1226  0.3111
  689TMC3    H110194   2.827   2.683  17.396  1.7226 -1.3109  0.8233
  689TMC3    H210195   2.777   2.654   0.113  3.0409 -0.1902  1.6238
  689TMC3    C710196   2.753   2.525  17.605 -0.0452 -0.2862  0.3888
  689TMC3    C810197   2.836   2.909   0.172 -0.4011 -0.3723 -0.5003
  689TMC3    O110198   2.761   2.461   0.006  0.4796 -0.0469 -0.2395
  689TMC3    O210199   2.781   2.849   0.266 -0.1018  0.4541  0.2204
  690MPD2     C10200   0.468   4.709  15.813 -0.7614  0.7704 -0.2668
  690MPD2    C110201   0.526   4.677  15.693 -0.6059  0.3766 -0.4268
  690MPD2    C210202   0.650   0.010  15.654 -0.0700 -0.3054  0.5203
  690MPD2    C310203   0.709   0.100  15.743  0.4443 -0.2791  0.0589
  690MPD2    C410204   0.644   0.129  15.866 -0.5829  0.6798  0.3950
  690MPD2    C510205   0.525   0.074  15.894 -0.1095 -0.4053 -0.5911
  690MPD2     H10206   0.690   4.722  15.554 -0.8942 -0.1554  0.1681
  690MPD2    H110207   0.689   0.203  15.931 -1.6221  0.8284  0.9461
  690MPD2    H210208   0.373   4.674  15.851 -0.2087  0.7183  1.1043
  690MPD2    H310209   0.467   0.118  15.974  0.5948  1.0027 -0.8517
  690MPD2     N10210   0.819   0.172  15.693  0.2328 -0.7820 -0.6426
  690MPD2    H510211   0.852   0.153  15.599 -1.3906  1.4731 -1.6619
  690MPD2    N110212   0.452   4.596  15.595 -0.5585 -0.3530 -0.3667
  690MPD2    H710213   0.505   4.567  15.514  1.8097  0.6054  0.8391
  691TMC3    C110214   0.298   4.453  15.505 -0.0479  0.2746 -1.0195
  691TMC3    C210215   0.203   4.482  15.418  0.4250 -0.6621 -0.4913
  691TMC3    C310216   0.195   4.387  15.316 -0.0524 -0.7415  0.4225
  691TMC3    C410217   0.394   4.356  15.502 -0.4170 -0.5168 -0.3574
  691TMC3    C510218   0.375   4.264  15.398 -0.2204  0.1931  0.6679
  691TMC3    C610219   0.276   4.273  15.306  0.2877 -0.1926  0.0335
  691TMC3     C10220   0.318   4.550  15.610 -0.3556 -0.3752 -0.4479
  691TMC3     O10221   0.222   4.609  15.664  0.1749  0.6780 -0.0934
  691TMC3     H10222   0.149   4.575  15.417  1.6949  0.0403 -3.3075
  691TMC3    H110223   0.456   4.330  15.587 -0.6024  1.8404  0.5076
  691TMC3    H210224   0.277   4.214  15.215  0.7046  0.2007 -0.2152
  691TMC3    C710225   0.409   4.126  15.435  0.4384  0.3992  0.2596
  691TMC3    C810226   0.081   4.390  15.218 -0.4710 -0.0783 -0.2907
  691TMC3    O110227   0.502   4.104  15.512  0.6223  0.3439  0.0514
  691TMC3    O210228   0.089   4.319  15.122  0.5397  0.5067  0.0591
  692TMC3    C110229   1.973   1.176  15.830 -0.2541 -0.8595  0.0831
  692TMC3    C210230   2.073   1.257  15.850  0.3127  0.6014  0.4365
  692TMC3    C310231   2.185   1.208  15.906  0.1026 -0.4017  0.4365
  692TMC3    C410232   1.987   1.041  15.826  0.1964 -0.3672 -0.0814
  692TMC3    C510233   2.103   0.996  15.879 -0.3069 -0.2974 -0.3865
  692TMC3    C610234   2.198   1.076  15.947 -0.3190  0.2628 -0.1213
  692TMC3     C10235   1.837   1.223  15.850  0.2254 -0.8814  0.5678
  692TMC3     O10236   1.814   1.331  15.908 -0.1001 -0.0032 -0.2311
  692TMC3     H10237   2.055   1.361  15.875  2.2680  0.8920  0.6544
  692TMC3    H110238   1.907   0.968  15.816 -2.0463  2.0721  0.0824
  692TMC3    H210239   2.293   1.035  15.978 -0.0173 -0.9063 -2.6010
  692TMC3    C710240   2.131   0.862  15.860 -0.5918  0.0216 -0.3858
  692TMC3    C810241   2.219   1.286  16.019  0.2521  0.0352 -0.1337
  692TMC3    O110242   2.125   0.818  15.748  0.1185  0.5712 -0.9230
  692TMC3    O210243   2.247   1.405  15.997  0.2347 -0.1852 -0.0560
  693MPD2     C10244   1.372   3.653  10.703  0.4409  0.1153 -0.2319
  693MPD2    C110245   1.315   3.543  10.646  0.3275 -0.3406  0.6193
  693MPD2    C210246   1.379   3.419  10.656 -0.1181  0.3575 -0.9318
  693MPD2    C310247   1.497   3.412  10.728 -0.3090  0.2289  0.0433
  693MPD2    C410248   1.556   3.523  10.782  0.0449  0.1350  0.2149
  693MPD2    C510249   1.491   3.642  10.763  0.5078  0.0929  0.0809
  693MPD2     H10250   1.323   3.331  10.627  2.2828 -2.1192  1.9400
  693MPD2    H110251   1.652   3.524  10.832  0.6830  1.1269 -1.0394
  693MPD2    H210252   1.324   3.749  10.696  0.0120 -0.1039 -0.2864
  693MPD2    H310253   1.542   3.729  10.803  0.2573  0.0144  0.5787
  693MPD2     N10254   1.556   3.286  10.757  0.2242 -0.0256 -0.8275
  693MPD2    H510255   1.631   3.281  10.824  0.2377  0.3756 -0.8143
  693MPD2    N110256   1.177   3.547  10.612  0.5370 -0.0964 -0.1390
  693MPD2    H710257   1.126   3.623  10.656  0.3431 -0.5644  0.4435
  694TMC3    C110258   0.969   3.437  10.627  0.1847 -0.3224 -0.7469
  694TMC3    C210259   0.874   3.372  10.554 -0.5032 -0.1955 -0.1740
  694TMC3    C310260   0.794   3.286  10.625 -0.2730  0.2018  0.0446
  694TMC3    C410261   0.970   3.434  10.763 -0.3130  0.1448  0.7950
  694TMC3    C510262   0.877   3.358  10.829  0.1559  0.1134 -0.2652
  694TMC3    C610263   0.790   3.282  10.769 -0.7114  0.1650  0.0594
  694TMC3     C10264   1.100   3.444  10.563 -0.3841  0.0456  0.5879
  694TMC3     O10265   1.131   3.365  10.477  0.0434  0.0206 -0.2978
  694TMC3     H10266   0.899   3.362  10.449 -0.0563 -0.3865 -0.0510
  694TMC3    H110267   1.047   3.490  10.814  0.4415  0.4788 -0.7209
  694TMC3    H210268   0.722   3.216  10.824 -1.8375 -1.0323 -2.7732
  694TMC3    C710269   0.874   3.378  10.971 -0.4294 -0.2834 -0.2058
  694TMC3    C810270   0.722   3.182  10.555  0.7380  0.0674  0.5931
  694TMC3    O110271   0.929   3.478  11.013 -0.1044 -1.0926 -0.2810
  694TMC3    O210272   0.680   3.085  10.618 -0.1635 -0.1015  0.4445
  695MPD2     C10273   2.544   0.595  14.221 -0.6279  0.0537 -0.0066
  695MPD2    C110274   2.577   0.665  14.106  0.5380  0.0615  1.1270
  695MPD2    C210275   2.473   0.732  14.045 -0.2080  0.1070 -0.0424
  695MPD2    C310276   2.338   0.705  14.078  0.3301 -0.5049 -0.5554
  695MPD2    C410277   2.312   0.616  14.179 -0.2590 -0.0693  0.5378
  695MPD2    C510278   2.417   0.574  14.253  0.0817  0.2930 -0.5324
  695MPD2     H10279   2.500   0.807  13.971  0.9566  0.3441  0.6156
  695MPD2    H110280   2.212   0.582  14.204  0.0412  0.5442  2.5730
  695MPD2    H210281   2.626   0.553  14.280 -1.2867  2.6841  2.8085
  695MPD2    H310282   2.400   0.504  14.334  3.6992 -0.8650 -0.7903
  695MPD2     N10283   2.227   0.764  14.017  0.0966  0.2155 -0.0381
  695MPD2    H510284   2.136   0.736  14.053  1.2028 -2.2750  0.8721
  695MPD2    N110285   2.710   0.701  14.064 -0.2295  0.1292  0.2966
  695MPD2    H710286   2.715   0.737  13.970  2.2058 -0.8309  0.0544
  696TMC3    C110287   2.105   0.909  13.864  0.1967 -0.1541  0.6533
  696TMC3    C210288   2.010   0.941  13.951 -0.7470  0.2375  0.3288
  696TMC3    C310289   1.906   1.018  13.911 -0.1988  0.2083  0.2054
  696TMC3    C410290   2.093   0.945  13.735  0.2056  0.4628  0.7296
  696TMC3    C510291   1.979   1.012  13.686 -0.3811  0.1659 -0.0332
  696TMC3    C610292   1.880   1.043  13.779 -0.4801  0.7197  0.2882
  696TMC3     C10293   2.230   0.841  13.901  0.5002  0.2317 -0.5270
  696TMC3     O10294   2.328   0.863  13.832  0.0695 -0.5656  0.1432
  696TMC3     H10295   2.030   0.930  14.057  0.0476  0.4083  0.1940
  696TMC3    H110296   2.183   0.937  13.675 -0.2157 -3.0797  0.5711
  696TMC3    H210297   1.791   1.094  13.743 -0.4365 -0.5709 -1.6490
  696TMC3    C710298   1.997   1.103  13.577  0.2855 -0.4099  0.1401
  696TMC3    C810299   1.908   1.152  13.972 -0.0000 -0.2913  0.4826
  696TMC3    O110300   2.071   1.065  13.490 -0.2155  0.2952 -0.2314
  696TMC3    O210301   1.935   1.245  13.896  0.3879 -0.7593  0.5406
  697MPD2     C10302   1.628   2.828  15.966 -0.4133  0.2688  0.4231
  697MPD2    C110303   1.640   2.799  15.834  0.1414  0.4473  0.0486
  697MPD2    C210304   1.692   2.894  15.745 -0.0161 -0.4944  0.1260
  697MPD2    C310305   1.716   3.026  15.792 -0.8612  0.2774  0.2039
  697MPD2    C410306   1.694   3.050  15.921  0.3343 -0.2229  0.2198
  697MPD2    C510307   1.654   2.956  16.010 -0.3074 -0.0764 -0.5044
  697MPD2     H10308   1.708   2.862  15.643  2.4923  2.1640 -0.3032
  697MPD2    H110309   1.721   3.144  15.968  0.2595  1.1136 -2.3962
  697MPD2    H210310   1.586   2.758  16.036  1.3281 -0.2549  0.9504
  697MPD2    H310311   1.639   2.991  16.111 -2.3291  0.5206 -1.0005
  697MPD2     N10312   1.770   3.118  15.701 -0.3459 -0.0706 -0.4984
  697MPD2    H510313   1.779   3.096  15.603  1.5252 -1.6237  0.0273
  697MPD2    N110314   1.610   2.672  15.786  0.1543 -0.2642 -0.1667
  697MPD2    H710315   1.618   2.656  15.686  1.4344 -0.8943  0.0376
  698TMC3    C110316   1.876   3.312  15.613 -0.1189  0.1128 -0.3438
  698TMC3    C210317   1.974   3.409  15.642  0.1729  0.2195 -0.6964
  698TMC3    C310318   2.071   3.444  15.554  0.1515 -0.1259  0.0066
  698TMC3    C410319   1.879   3.258  15.487  0.2417  0.3637  0.2726
  698TMC3    C510320   1.986   3.292  15.400 -0.3468  0.2886  0.1779
  698TMC3    C610321   2.083   3.388  15.434  0.2948 -0.5125 -0.4270
  698TMC3     C10322   1.808   3.251  15.728 -0.1585  0.3880  0.5087
  698TMC3     O10323   1.798   3.310  15.831 -0.6308 -1.1215 -0.2558
  698TMC3     H10324   1.968   3.453  15.741  0.3704 -0.1952 -0.4986
  698TMC3    H110325   1.798   3.196  15.450 -0.6506  1.6394  0.1115
  698TMC3    H210326   2.157   3.416  15.359  2.0203 -1.8709  0.7692
  698TMC3    C710327   1.974   3.244  15.267  0.1037  0.0313  0.2327
  698TMC3    C810328   2.194   3.490  15.622 -0.3857 -0.7987 -0.1493
  698TMC3    O110329   1.859   3.212  15.231  0.2626 -0.4909 -0.2576
  698TMC3    O210330   2.200   3.466  15.742  0.7567  0.0961 -0.0698
  699TMC3    C110331   2.042   0.924  13.212  0.2494 -0.2278 -0.0732
  699TMC3    C210332   2.070   0.812  13.287 -0.1162 -0.4827  0.0711
  699TMC3    C310333   1.973   0.751  13.365 -0.4231  0.7825 -0.0301
  699TMC3    C410334   1.923   0.985  13.221  0.7803  0.0179 -0.2546
  699TMC3    C510335   1.826   0.927  13.304 -0.1713  0.3041  0.2287
  699TMC3    C610336   1.844   0.803  13.366  0.1363 -0.4767 -0.3326
  699TMC3     C10337   2.136   0.974  13.110  0.3907 -0.0767  0.1869
  699TMC3     O10338   2.081   1.039  13.023 -0.1013  0.2115  0.1617
  699TMC3     H10339   2.164   0.764  13.263 -0.4618 -1.7117  1.2314
  699TMC3    H110340   1.908   1.083  13.177 -0.7011  0.6809  1.7278
  699TMC3    H210341   1.766   0.743  13.410  1.0172 -0.2253  1.5770
  699TMC3    C710342   1.732   1.014  13.373 -0.2787  0.4790  0.6855
  699TMC3    C810343   2.009   0.656  13.470 -0.2938 -0.2882 -0.0149
  699TMC3    O110344   1.689   0.969  13.481  0.1619  0.4990  0.1978
  699TMC3    O210345   1.913   0.622  13.539 -0.3455 -0.4993 -0.2811
  700TMC3    C110346   0.493   3.543  16.996  0.2473  0.3743 -0.0305
  700TMC3    C210347   0.516   3.410  16.961 -0.0481 -0.2608  0.4727
  700TMC3    C310348   0.494   3.311  17.056  0.3626  0.5360  0.0871
  700TMC3    C410349   0.458   3.581  17.124  0.2654  0.5024 -0.4135
  700TMC3    C510350   0.423   3.477  17.211 -0.4902 -0.0895  0.0601
  700TMC3    C610351   0.445   3.343  17.177 -0.7851 -0.0273 -0.6176
  700TMC3     C10352   0.509   3.645  16.896 -0.3883  0.0123 -0.3272
  700TMC3     O10353   0.492   3.614  16.780 -0.0856 -0.0514  0.2878
  700TMC3     H10354   0.553   3.385  16.862  0.4194 -0.0951  0.6076
  700TMC3    H110355   0.407   3.676  17.128  3.7481  2.3801 -0.8830
  700TMC3    H210356   0.422   3.269  17.252 -1.8438 -2.1904 -3.0680
  700TMC3    C710357   0.355   3.507  17.336 -0.6716  0.0373  0.0416
  700TMC3    C810358   0.587   3.205  17.033  0.3140 -0.6565  0.0914
  700TMC3    O110359   0.276   3.426  17.384 -0.0420 -0.2595  0.5153
  700TMC3    O210360   0.703   3.237  17.007  0.1327 -0.1464 -0.3097
  701TMC3    C110361   0.941   2.018  15.659  0.1419  0.0858 -0.3029
  701TMC3    C210362   0.926   2.015  15.518  0.6983 -0.6805  0.3621
  701TMC3    C310363   0.963   2.126  15.452 -0.0823  0.6313  0.1062
  701TMC3    C410364   1.009   2.119  15.726  0.3991  0.1469 -0.0780
  701TMC3    C510365   1.064   2.218  15.650  0.5655  0.0859 -0.6197
  701TMC3    C610366   1.041   2.223  15.513 -0.0884  0.6099  0.3595
  701TMC3     C10367   0.867   1.925  15.736  0.3430  0.0860  0.7261
  701TMC3     O10368   0.828   1.976  15.840  0.4170 -0.0966  0.1670
  701TMC3     H10369   0.863   1.940  15.470  0.3619 -0.2929  0.1964
  701TMC3    H110370   1.032   2.104  15.830 -0.3450 -1.0747 -0.0810
  701TMC3    H210371   1.061   2.316  15.461 -3.1821  1.1427  0.0983
  701TMC3    C710372   1.124   2.336  15.703 -0.1527  0.2216  0.6382
  701TMC3    C810373   0.937   2.152  15.311  0.2256 -0.1969 -1.0469
  701TMC3    O110374   1.166   2.416  15.625 -0.3276 -0.4153 -0.1389
  701TMC3    O210375   0.970   2.264  15.263  0.1754 -0.6215 -1.0196
  702MPD2     C10376   0.568   3.979  10.568 -0.9298  0.1810  0.1345
  702MPD2    C110377   0.509   4.079  10.633  0.4511  0.2462  0.2588
  702MPD2    C210378   0.523   4.208  10.581  0.1846  0.8739  0.3809
  702MPD2    C310379   0.594   4.227  10.466 -0.6757 -0.1882 -0.1730
  702MPD2    C410380   0.648   4.121  10.395 -0.0549  0.7506  0.5142
  702MPD2    C510381   0.634   4.000  10.451 -1.1419 -0.5402 -0.0195
  702MPD2     H10382   0.498   4.295  10.642 -3.2022  0.3255 -0.2257
  702MPD2    H110383   0.710   4.134  10.307 -0.5604 -2.3867 -0.3011
  702MPD2    H210384   0.550   3.877  10.599 -0.8642  0.2421  0.3722
  702MPD2    H310385   0.678   3.912  10.407  1.0991  0.3913  0.3566
  702MPD2     N10386   0.617   4.363  10.429  0.3282  0.0209  0.0170
  702MPD2    H510387   0.577   4.428  10.496  1.0670  0.8449 -0.3460
  702MPD2    N110388   0.424   4.057  10.738 -0.2543 -0.4923 -0.4124
  702MPD2    H710389   0.371   4.135  10.775  0.1059 -0.9868  1.1703
  703TMC3    C110390   0.702   4.552  10.312  1.2169  0.0006 -0.8567
  703TMC3    C210391   0.605   4.620  10.387 -0.0719  1.1068  0.6110
  703TMC3    C310392   0.635   0.027  10.423  0.1559 -0.2919 -0.1247
  703TMC3    C410393   0.816   4.616  10.281 -0.4885  0.0464 -0.4313
  703TMC3    C510394   0.845   0.018  10.319 -0.0711 -0.1195 -0.2596
  703TMC3    C610395   0.750   0.093  10.392  0.0472 -0.0057 -0.4899
  703TMC3     C10396   0.699   4.406  10.329 -0.3287  0.1264 -0.4211
  703TMC3     O10397   0.759   4.338  10.248 -0.0208  1.0204  0.2623
  703TMC3     H10398   0.506   4.577  10.392  0.1491  0.5035 -0.2320
  703TMC3    H110399   0.899   4.569  10.228 -1.2999  0.4485 -2.0503
  703TMC3    H210400   0.777   0.189  10.434  3.0551 -1.1924  0.2535
  703TMC3    C710401   0.986   0.049  10.349  0.1538 -0.1232  0.0251
  703TMC3    C810402   0.528   0.125  10.458  0.5158  0.4254 -0.0163
  703TMC3    O110403   1.001   0.169  10.375 -0.0700 -0.4181 -0.1237
  703TMC3    O210404   0.551   0.249  10.444 -0.1877  0.3089 -0.0377
  704TMC3    C110405   2.866   2.597  11.945 -0.0812  0.1601 -0.3069
  704TMC3    C210406   2.999   2.572  11.930 -0.2955 -0.0271 -0.0955
  704TMC3    C310407   3.064   2.488  12.024  0.0578  0.4345 -0.2320
  704TMC3    C410408   2.790   2.524  12.027  0.9579  0.0901 -0.3257
  704TMC3    C510409   2.853   2.440  12.109 -1.0976  0.3037  0.6567
  704TMC3    C610410   2.991   2.414  12.113  0.0854  0.1376 -0.4512
  704TMC3     C10411   2.794   2.690  11.853 -0.6340 -1.2769 -0.2258
  704TMC3     O10412   2.675   2.680  11.845 -0.3461  0.5940 -0.6776
  704TMC3     H10413   3.061   2.631  11.864  0.8406 -1.4587 -0.3025
  704TMC3    H110414   2.683   2.537  12.035  0.7692 -0.3324 -2.1288
  704TMC3    H210415   3.036   2.362  12.197 -0.3421 -1.3807 -1.1463
  704TMC3    C710416   2.782   2.334  12.169  0.0544 -0.1677 -0.2370
  704TMC3    C810417   3.207   2.463  12.011 -0.4597 -0.5420 -0.1107
  704TMC3    O110418   2.665   2.362  12.184  0.9842  0.4766 -0.3616
  704TMC3    O210419   3.254   2.482  11.898  0.8821  0.2587 -0.1739
  705MPD2     C10420   2.429   0.663  16.743  0.2142  0.2960 -0.5207
  705MPD2    C110421   2.364   0.751  16.655  0.3969 -0.2078 -0.5009
  705MPD2    C210422   2.228   0.766  16.671 -0.2460  0.1234 -0.4744
  705MPD2    C310423   2.160   0.704  16.781  0.2054 -0.4786 -0.3937
  705MPD2    C410424   2.229   0.622  16.869 -0.7566  0.3474 -0.0775
  705MPD2    C510425   2.361   0.604  16.845 -0.2976  0.2788 -0.1189
  705MPD2     H10426   2.174   0.826  16.599  1.1790  3.1009  0.9480
  705MPD2    H110427   2.185   0.581  16.959 -1.2185 -0.8881 -0.8574
  705MPD2    H210428   2.534   0.642  16.733  0.2506  0.3683 -0.2996
  705MPD2    H310429   2.411   0.527  16.903  0.8991  0.8203 -0.4378
  705MPD2     N10430   2.017   0.725  16.800 -0.0911  0.6996 -0.0621
  705MPD2    H510431   1.970   0.802  16.754  1.3457  0.0550 -2.6157
  705MPD2    N110432   2.420   0.808  16.536  0.1385 -0.4235  0.2263
  705MPD2    H710433   2.362   0.868  16.478  0.4208  2.1775  2.6529
  706TMC3    C110434   2.593   0.761  16.132  0.2815 -0.3590  0.2182
  706TMC3    C210435   2.571   0.883  16.081 -0.3229 -0.1377 -0.1186
  706TMC3    C310436   2.547   0.980  16.170 -0.0012  0.7079 -0.0003
  706TMC3    C410437   2.598   0.735  16.266  0.5291 -0.1283  0.3338
  706TMC3    C510438   2.563   0.835  16.352 -0.1421  0.1634  0.5600
  706TMC3    C610439   2.533   0.959  16.305 -0.1869 -0.4297  1.0650
  706TMC3     C10440   2.638   0.647  16.046 -0.7192  0.5432  0.1006
  706TMC3     O10441   2.687   0.555  16.106  0.0489 -0.0473 -0.7145
  706TMC3     H10442   2.588   0.905  15.976  0.9391 -0.0602  0.1022
  706TMC3    H110443   2.608   0.632  16.299 -0.4371 -0.5051 -0.5615
  706TMC3    H210444   2.481   1.028  16.371  2.1295  0.6365  1.7745
  706TMC3    C710445   2.544   0.790  16.490  0.2848  0.7459 -0.3756
  706TMC3    C810446   2.541   1.118  16.128 -0.0296 -0.2952  0.7322
  706TMC3    O110447   2.623   0.707  16.524  0.5967  0.6019 -0.7147
  706TMC3    O210448   2.520   1.135  16.010 -0.0411 -0.6750  0.1169
  707TMC3    C110449   3.368   0.104   1.733  0.8266  0.0661 -0.1348
  707TMC3    C210450   3.285   0.015   1.797 -0.2617  0.1284  0.3372
  707TMC3    C310451   3.150   0.037   1.806 -0.0948  0.3096 -0.5799
  707TMC3    C410452   3.319   0.225   1.689 -0.1268  0.2413 -0.1536
  707TMC3    C510453   3.189   0.254   1.719  0.7780 -0.0766 -0.4716
  707TMC3    C610454   3.104   0.159   1.773 -0.1870 -0.6472  0.3492
  707TMC3     C10455   3.501   0.061   1.695  0.6365 -0.6633 -0.0453
  707TMC3     O10456   3.530   4.672   1.717 -0.2924  0.3224  0.0676
  707TMC3     H10457   3.328   4.653   1.844 -0.3467 -0.0908  0.0114
  707TMC3    H110458   3.387   0.309   1.693 -1.9630  1.7429 -0.5574
  707TMC3    H210459   3.001   0.185   1.795 -0.7325 -1.3333 -1.4056
  707TMC3    C710460   3.131   0.383   1.692 -0.2533 -0.2516 -0.3410
  707TMC3    C810461   3.056   4.657   1.779 -0.2295 -0.4537  0.6758
  707TMC3    O110462   3.021   0.398   1.741  0.6204  0.2035  0.2328
  707TMC3    O210463   2.936   4.677   1.763  0.2765 -0.1795  0.5559
  708MPD2     C10464   1.100   4.151  13.846  0.3751  0.1942  1.0674
  708MPD2    C110465   1.007   4.117  13.933  0.1720 -0.3189 -0.2397
  708MPD2    C210466   1.046   4.096  14.066 -0.2810  0.1758  0.2654
  708MPD2    C310467   1.178   4.098  14.104 -0.3580  0.9474  0.1514
  708MPD2    C410468   1.274   4.128  14.002 -0.0122  0.6821 -0.1970
  708MPD2    C510469   1.230   4.145  13.875  0.1196  0.6451 -0.0064
  708MPD2     H10470   0.967   4.098  14.141 -0.4596 -0.2628  0.0866
  708MPD2    H110471   1.377   4.148  14.027 -0.0848  2.6000 -1.4105
  708MPD2    H210472   1.077   4.163  13.741 -0.0263 -0.6204  1.0579
  708MPD2    H310473   1.307   4.180  13.806 -1.5424 -0.2757 -2.3376
  708MPD2     N10474   1.216   4.082  14.237  0.5823 -0.1555 -0.2004
  708MPD2    H510475   1.313   4.092  14.266  0.3445  2.1127 -0.2266
  708MPD2    N110476   0.875   4.120  13.884  0.0496 -0.0613 -0.4306
  708MPD2    H710477   0.871   4.135  13.784 -2.1669  1.5411 -0.1067
  709TMC3    C110478   0.636   4.095  13.893 -0.3602  0.6822  0.6735
  709TMC3    C210479   0.632   3.977  13.824  0.7916 -0.4742 -0.3726
  709TMC3    C310480   0.540   3.882  13.855 -0.1091  0.7256  0.2520
  709TMC3    C410481   0.537   4.109  13.984 -0.6942 -0.0673 -0.2072
  709TMC3    C510482   0.443   4.011  14.021 -0.0046 -0.0124 -0.0018
  709TMC3    C610483   0.441   3.894  13.951  0.0695 -0.0117  0.1671
  709TMC3     C10484   0.760   4.114  13.963  0.2913 -0.2640 -0.2939
  709TMC3     O10485   0.748   4.096  14.081  0.2735 -0.4674 -0.4946
  709TMC3     H10486   0.713   3.966  13.752  0.1559  0.7112 -1.2800
  709TMC3    H110487   0.536   4.197  14.048 -0.4868 -1.3338  1.5213
  709TMC3    H210488   0.385   3.803  13.973 -1.4908  0.6606 -1.0153
  709TMC3    C710489   0.411   3.995  14.159 -0.4129 -0.1781  0.0653
  709TMC3    C810490   0.504   3.789  13.749  0.2241 -0.3085  0.6838
  709TMC3    O110491   0.347   3.894  14.189 -0.2024 -0.2077 -0.3212
  709TMC3    O210492   0.400   3.725  13.758  0.3906  0.3069 -0.1981
  710TMC3    C110493   1.328   0.474   0.462 -0.0277 -0.3281 -0.5675
  710TMC3    C210494   1.413   0.504   0.355  0.4383  0.3901  0.3095
  710TMC3    C310495   1.509   0.410   0.322 -0.5712  0.2552  0.2167
  710TMC3    C410496   1.360   0.372   0.548  0.0382 -0.2979  0.4651
  710TMC3    C510497   1.466   0.283   0.516 -0.3326 -0.3352 -0.7480
  710TMC3    C610498   1.538   0.297   0.401 -0.8510 -0.3275 -0.2587
  710TMC3     C10499   1.235   0.573   0.512 -0.2869 -0.1432  0.2403
  710TMC3     O10500   1.198   0.569   0.628  0.0309  0.2184  0.5809
  710TMC3     H10501   1.401   0.596   0.299  1.0423 -1.2822 -2.5790
  710TMC3    H110502   1.304   0.352   0.639 -1.6370 -0.3628 -0.5653
  710TMC3    H210503   1.599   0.214   0.368  0.6350  0.8494 -0.4601
  710TMC3    C710504   1.486   0.170   0.607 -0.8751  0.3305  0.0097
  710TMC3    C810505   1.582   0.408   0.196 -0.0827  0.2057 -0.6375
  710TMC3    O110506   1.392   0.137   0.682 -0.2457 -0.2446 -0.6462
  710TMC3    O210507   1.649   0.312   0.169  0.3134 -0.9359 -0.0045
  711TMC3    C110508   1.275   1.912  15.142 -0.5891 -0.7674  0.0316
  711TMC3    C210509   1.271   1.921  15.275  0.5655 -0.1928 -0.4708
  711TMC3    C310510   1.371   1.985  15.343 -0.1375 -0.4344 -0.0848
  711TMC3    C410511   1.376   1.978  15.073 -0.0424 -0.3105 -0.2232
  711TMC3    C510512   1.474   2.038  15.144  0.4722 -0.0448 -0.2949
  711TMC3    C610513   1.473   2.052  15.282  0.3071 -0.4772 -0.0839
  711TMC3     C10514   1.266   1.775  15.087 -0.7681 -0.5798 -0.4057
  711TMC3     O10515   1.243   1.751  14.971  0.7215 -0.4068 -0.3750
  711TMC3     H10516   1.183   1.879  15.324 -1.2432 -0.1205 -3.6217
  711TMC3    H110517   1.385   1.977  14.965 -0.9297 -0.3878 -0.2994
  711TMC3    H210518   1.555   2.096  15.337 -2.1695  0.9200  2.4891
  711TMC3    C710519   1.606   2.028  15.097  0.1593 -0.2045  0.7371
  711TMC3    C810520   1.424   1.890  15.432  0.0528  0.5196  0.2970
  711TMC3    O110521   1.688   2.015  15.188 -0.4487 -0.0507  0.2126
  711TMC3    O210522   1.345   1.803  15.453 -0.2307  0.3120 -0.0324
  712MPD2     C10523   2.547   2.463  13.956  0.2596 -0.1133 -0.0832
  712MPD2    C110524   2.505   2.567  13.873 -1.0015  0.0357 -0.2837
  712MPD2    C210525   2.592   2.680  13.870 -0.1691  0.0296 -1.1483
  712MPD2    C310526   2.716   2.681  13.932  0.3479  0.6500 -0.2107
  712MPD2    C410527   2.750   2.573  14.008  0.2823  0.5435  0.4637
  712MPD2    C510528   2.657   2.472  14.029 -0.4136 -0.3021  0.0264
  712MPD2     H10529   2.568   2.767  13.811  2.0937  0.2037 -1.8026
  712MPD2    H110530   2.841   2.582  14.065  1.8634 -3.2992 -1.4206
  712MPD2    H210531   2.483   2.377  13.971 -0.0271  0.4240  1.8029
  712MPD2    H310532   2.681   2.393  14.099 -0.2250  1.3785  1.8704
  712MPD2     N10533   2.804   2.787  13.920 -0.1368 -0.9474  0.4998
  712MPD2    H510534   2.896   2.774  13.962 -1.0698  0.8212  3.1076
  712MPD2    N110535   2.401   2.549  13.779 -0.3737  0.6049  0.2055
  712MPD2    H710536   2.408   2.616  13.702 -1.4049  0.6330  0.1460
  713TMC3    C110537   2.879   3.002  13.853  0.1169 -0.0028  0.2629
  713TMC3    C210538   2.998   2.942  13.837  0.2054  0.6086 -1.1718
  713TMC3    C310539   3.107   3.014  13.870  0.1709 -0.1362  0.4927
  713TMC3    C410540   2.862   3.133  13.879 -0.2755  0.2715 -0.3993
  713TMC3    C510541   2.982   3.202  13.917 -0.3048 -0.3930  0.2472
  713TMC3    C610542   3.103   3.143  13.912 -0.5048  0.0649  0.3678
  713TMC3     C10543   2.767   2.908  13.864 -0.0441  0.3979 -0.2737
  713TMC3     O10544   2.660   2.965  13.833  0.3447 -0.5401  0.0962
  713TMC3     H10545   2.991   2.844  13.792  0.4557 -0.5156  1.2142
  713TMC3    H110546   2.760   3.166  13.895 -0.3676  0.0215 -0.4669
  713TMC3    H210547   3.191   3.204  13.925  0.0937 -0.5110 -1.0352
  713TMC3    C710548   2.983   3.351  13.933 -0.8824 -0.2816 -0.6374
  713TMC3    C810549   3.218   2.975  13.796 -0.2250  0.2914  0.3573
  713TMC3    O110550   3.086   3.398  13.975 -0.3673  0.0299 -0.6233
  713TMC3    O210551   3.306   3.053  13.773 -0.3815 -0.1374 -0.5847
  714MPD2     C10552   4.267   1.791   1.028  0.6745 -0.3196 -0.1849
  714MPD2    C110553   4.336   1.685   1.081 -0.2638 -0.7231  0.6181
  714MPD2    C210554   4.356   1.576   0.990  0.2055 -0.0662 -0.0623
  714MPD2    C310555   4.310   1.578   0.865 -0.2187 -0.2875 -0.1394
  714MPD2    C410556   4.224   1.680   0.821  0.3649  0.2351  0.6091
  714MPD2    C510557   4.209   1.788   0.902 -0.1667  0.2111  0.2610
  714MPD2     H10558   4.397   1.482   1.026  3.2105  0.9268 -0.9351
  714MPD2    H110559   4.187   1.672   0.720  0.4827  0.4777  0.5466
  714MPD2    H210560   4.262   1.883   1.085 -1.3030  0.5503 -1.7606
  714MPD2    H310561   4.158   1.874   0.861 -2.2118 -0.4015  1.5505
  714MPD2     N10562   4.343   1.469   0.786 -0.3699  0.3909  0.0926
  714MPD2    H510563   4.411   1.402   0.820 -2.1209 -0.1693  2.5169
  714MPD2    N110564   4.398   1.685   1.207  0.1639  0.6768  0.5222
  714MPD2    H710565   4.393   1.766   1.268 -0.7506  1.2331 -0.2909
  715TMC3    C110566   4.507   1.569   1.398  0.3760 -0.2008 -0.5609
  715TMC3    C210567   4.536   1.446   1.458  0.4204  0.2793 -0.0789
  715TMC3    C310568   4.642   1.447   1.546 -0.1513  0.3514 -0.1193
  715TMC3    C410569   4.572   1.682   1.427  0.3706  0.6053 -0.3016
  715TMC3    C510570   4.678   1.675   1.520 -0.6024  0.1778 -0.8694
  715TMC3    C610571   4.718   1.559   1.576 -0.6934  0.4613  0.0046
  715TMC3     C10572   4.431   1.563   1.272 -0.9973  0.2143 -0.1478
  715TMC3     O10573   4.389   1.455   1.241 -0.0979  0.9135  0.5596
  715TMC3     H10574   4.495   1.351   1.426  2.6545 -0.0298 -1.9939
  715TMC3    H110575   4.550   1.779   1.384  0.6154  0.3283 -1.0526
  715TMC3    H210576   0.062   1.562   1.658 -0.1361 -1.4672 -0.4212
  715TMC3    C710577   0.016   1.794   1.555  0.7135 -0.2050  0.5129
  715TMC3    C810578   4.695   1.326   1.603  0.0602 -0.1315  0.3827
  715TMC3    O110579   4.663   1.886   1.547  0.0249  0.4781  0.3443
  715TMC3    O210580   0.084   1.319   1.641 -0.2150  0.0342 -0.2000
  716MPD2     C10581   0.080   3.924  10.045 -0.0907 -0.5148 -0.1513
  716MPD2    C110582   4.709   3.921   9.950  0.0501 -0.0361 -1.1494
  716MPD2    C210583   4.720   3.816   9.862  0.5758 -0.1843 -0.7113
  716MPD2    C310584   0.090   3.717   9.858 -0.6216 -0.5756 -0.7826
  716MPD2    C410585   0.176   3.713   9.959 -0.3722  0.2322  0.3561
  716MPD2    C510586   0.176   3.820  10.050  0.1576  0.3672  0.4135
  716MPD2     H10587   4.665   3.819   9.768  1.3129 -0.9520 -1.1632
  716MPD2    H110588   0.246   3.632   9.974 -0.4733  0.7118  3.3356
  716MPD2    H210589   0.102   4.005  10.113 -2.3519  1.0473 -1.2773
  716MPD2    H310590   0.253   3.811  10.126 -0.4665  0.0258  1.0045
  716MPD2     N10591   0.078   3.612   9.764 -0.3510  0.0438 -0.1659
  716MPD2    H510592   0.007   3.625   9.693 -0.3267 -0.7823 -0.3441
  716MPD2    N110593   4.614   4.026   9.925  0.1734 -0.2004  0.6677
  716MPD2    H710594   4.614   4.105   9.989 -1.9342 -0.0595  0.4706
  717TMC3    C110595   0.102   3.407   9.658 -0.0859 -0.0680 -0.3120
  717TMC3    C210596   4.708   3.428   9.592 -0.3427 -0.0522 -0.7270
  717TMC3    C310597   4.669   3.330   9.505 -0.4850  0.4876 -0.6356
  717TMC3    C410598   0.189   3.305   9.640  0.2508 -0.6769 -1.1687
  717TMC3    C510599   0.155   3.210   9.554  0.1802 -1.1296  0.4416
  717TMC3    C610600   0.030   3.222   9.491 -0.1649  0.3964  0.3069
  717TMC3     C10601   0.149   3.492   9.765 -0.6369  0.0260 -0.7290
  717TMC3     O10602   0.238   3.446   9.838 -0.8235 -0.2153  0.0976
  717TMC3     H10603   4.640   3.510   9.614  0.5977  1.0072 -1.8008
  717TMC3    H110604   0.293   3.310   9.671  0.0308 -0.0051 -0.5702
  717TMC3    H210605   4.714   3.140   9.434  1.1866 -0.3726  0.4244
  717TMC3    C710606   0.221   3.080   9.546 -0.0260  0.2448  0.7224
  717TMC3    C810607   4.590   3.360   9.389  0.5863 -0.0877  0.2667
  717TMC3    O110608   0.175   2.993   9.469 -0.0310 -0.4632 -0.1224
  717TMC3    O210609   4.609   3.293   9.286 -0.1757 -0.4377 -0.3618
  718MPD2     C10610   4.329   2.878  12.531 -0.1483  0.0122  0.3228
  718MPD2    C110611   4.245   2.974  12.470 -0.6307 -0.0547 -0.5533
  718MPD2    C210612   4.126   3.002  12.529  0.2175 -0.3874  0.2545
  718MPD2    C310613   4.079   2.936  12.635 -0.6830  0.3195 -0.8238
  718MPD2    C410614   4.155   2.833  12.687  0.2677 -0.0721  0.1122
  718MPD2    C510615   4.280   2.802  12.636 -0.8107  0.4966  0.2341
  718MPD2     H10616   4.070   3.085  12.486  1.9870  1.4450  1.5015
  718MPD2    H110617   4.115   2.777  12.771  0.9020 -1.5602 -0.5693
  718MPD2    H210618   4.431   2.862  12.497 -0.2193 -1.3094  0.7360
  718MPD2    H310619   4.346   2.735  12.690 -0.2222  1.1291  0.2943
  718MPD2     N10620   3.949   2.969  12.666 -0.0596 -0.0953  0.6898
  718MPD2    H510621   3.908   3.056  12.632  1.4195  0.2598 -0.2110
  718MPD2    N110622   4.288   3.058  12.363  0.3487  0.0873  0.5052
  718MPD2    H710623   4.223   3.126  12.324 -0.1710 -1.7580 -1.8431
  719TMC3    C110624   4.411   3.147  12.181  0.4042  0.3797  0.3005
  719TMC3    C210625   4.290   3.209  12.146  0.1839  1.4085 -0.2242
  719TMC3    C310626   4.287   3.344  12.125  0.0007  0.3856 -0.1150
  719TMC3    C410627   4.524   3.226  12.202  0.1741  0.4718  0.3268
  719TMC3    C510628   4.520   3.360  12.184  0.0880 -0.6613 -0.1366
  719TMC3    C610629   4.403   3.424  12.148 -0.5418 -0.7058  0.2695
  719TMC3     C10630   4.390   3.027  12.277  0.2561 -0.1611  0.0317
  719TMC3     O10631   4.477   2.943  12.279 -0.1248 -0.2483  0.0825
  719TMC3     H10632   4.201   3.149  12.128  0.8130  0.1492  0.7949
  719TMC3    H110633   4.611   3.176  12.244  0.9295  1.1396 -0.4291
  719TMC3    H210634   4.401   3.528  12.116  1.0170 -0.6471  0.3679
  719TMC3    C710635   4.648   3.423  12.216  0.7857  0.2260 -0.1504
  719TMC3    C810636   4.174   3.375  12.209 -0.3248  0.1961 -0.1751
  719TMC3    O110637   0.028   3.367  12.200  0.1330  0.8150 -0.5584
  719TMC3    O210638   4.177   3.314  12.314 -0.1641 -0.2423  0.3443
  720MPD2     C10639   3.282   4.618  14.227 -0.1190 -0.1591  0.0760
  720MPD2    C110640   3.379   4.593  14.132  0.2290 -0.3164  0.3734
  720MPD2    C210641   3.501   4.537  14.165  0.4906  0.1860  0.5588
  720MPD2    C310642   3.530   4.505  14.297 -0.9713  0.4127  0.9686
  720MPD2    C410643   3.428   4.516  14.391  0.4846  0.3067  0.4811
  720MPD2    C510644   3.303   4.570  14.354 -0.3037  0.6056  0.0640
  720MPD2     H10645   3.573   4.521  14.085 -1.0766  2.0172 -1.1927
  720MPD2    H110646   3.454   4.499  14.495  0.5122  2.1049  0.7659
  720MPD2    H210647   3.188   4.666  14.201  0.1456  0.7563  0.8067
  720MPD2    H310648   3.221   4.599  14.418  0.8747  3.7418  0.1654
  720MPD2     N10649   3.663   4.474  14.320 -0.2607  0.6101  0.8301
  720MPD2    H510650   3.721   4.483  14.237 -1.1804 -3.0330 -0.1977
  720MPD2    N110651   3.378   4.646  14.005  0.4205  0.6697  0.0475
  720MPD2    H710652   3.450   4.614  13.941 -0.7085  2.6295 -2.2220
  721TMC3    C110653   3.869   4.430  14.427  0.1492  0.1259  0.3711
  721TMC3    C210654   3.924   4.381  14.542 -0.6103 -0.2353 -0.0730
  721TMC3    C310655   4.054   4.406  14.565  0.1549  0.2851  0.5794
  721TMC3    C410656   3.944   4.513  14.343  0.0714  0.2225  0.2036
  721TMC3    C510657   4.075   4.539  14.373  0.0408 -0.3028  0.3256
  721TMC3    C610658   4.132   4.480  14.481  0.2850 -0.5261  0.3960
  721TMC3     C10659   3.722   4.429  14.433 -0.0881 -0.0582  0.7053
  721TMC3     O10660   3.666   4.371  14.528  0.5926 -0.2309 -0.1906
  721TMC3     H10661   3.870   4.301  14.591  1.7047 -2.0320 -0.4314
  721TMC3    H110662   3.883   4.569  14.273 -1.8346 -1.8531  0.2211
  721TMC3    H210663   4.231   4.508  14.516  0.7119 -0.5430 -0.8082
  721TMC3    C710664   4.159   4.618  14.284  0.3231  0.5945  0.1042
  721TMC3    C810665   4.116   4.327  14.665  0.4842 -0.0628 -0.2665
  721TMC3    O110666   4.277   4.603  14.299 -0.2699  0.2628  0.3198
  721TMC3    O210667   4.227   4.280  14.638 -0.7058 -0.1913 -0.0670
  722MPD2     C10668   1.940   3.302  13.537  0.1037 -0.6466 -0.2770
  722MPD2    C110669   1.940   3.425  13.477  0.6658 -0.0978 -0.2336
  722MPD2    C210670   1.860   3.432  13.361  1.0278 -0.1784 -0.3734
  722MPD2    C310671   1.784   3.330  13.306  0.1966 -0.4963 -0.0294
  722MPD2    C410672   1.793   3.212  13.373 -0.2099 -0.2598 -0.4856
  722MPD2    C510673   1.872   3.198  13.486 -0.4257  0.0229  0.3162
  722MPD2     H10674   1.848   3.529  13.313  1.7829  1.4895  2.8590
  722MPD2    H110675   1.725   3.133  13.345  0.4288 -0.9663 -0.0547
  722MPD2    H210676   2.004   3.287  13.623 -1.3474 -1.8259  0.6043
  722MPD2    H310677   1.881   3.101  13.534 -0.1073 -0.0789  0.0589
  722MPD2     N10678   1.719   3.337  13.178  0.8190 -0.4377 -0.3561
  722MPD2    H510679   1.702   3.430  13.143  1.3937 -0.3352 -0.3690
  722MPD2    N110680   2.004   3.541  13.526 -0.7270 -0.2552  0.2393
  722MPD2    H710681   2.005   3.626  13.470  0.8139  0.1974  0.9495
  723TMC3    C110682   1.625   3.284  12.965 -0.5419  0.8204 -0.0243
  723TMC3    C210683   1.673   3.215  12.858 -0.0588  0.1045  0.5055
  723TMC3    C310684   1.669   3.277  12.737  0.2001 -0.2587 -0.4530
  723TMC3    C410685   1.572   3.413  12.953  0.5415  0.4896  0.3069
  723TMC3    C510686   1.561   3.467  12.827 -0.5653  0.2280  0.0843
  723TMC3    C610687   1.616   3.403  12.719  1.0969 -0.3826  0.0073
  723TMC3     C10688   1.678   3.231  13.090 -0.5007  0.3759  0.6821
  723TMC3     O10689   1.679   3.110  13.104  0.1927 -0.7322  0.3180
  723TMC3     H10690   1.727   3.122  12.875 -1.2558 -0.5541  0.7074
  723TMC3    H110691   1.527   3.453  13.043 -1.0623 -0.4403 -0.0746
  723TMC3    H210692   1.623   3.456  12.625 -1.1372 -0.0617  0.0203
  723TMC3    C710693   1.462   3.568  12.799 -0.4768 -0.0380  0.1594
  723TMC3    C810694   1.691   3.201  12.614  0.3335 -0.0051  0.1390
  723TMC3    O110695   1.399   3.545  12.700 -0.6789  0.2096 -0.6579
  723TMC3    O210696   1.713   3.278  12.523 -0.6705 -0.0385  0.3296
  724TMC3    C110697   1.310   1.911   9.375  0.4944  0.3019 -0.3356
  724TMC3    C210698   1.336   2.010   9.280  0.0597  0.1962 -0.2965
  724TMC3    C310699   1.466   2.056   9.259  0.0261  0.1742 -0.8973
  724TMC3    C410700   1.415   1.860   9.449  0.2634  0.5985  0.5000
  724TMC3    C510701   1.545   1.909   9.428  0.0778 -0.9677  0.0963
  724TMC3    C610702   1.571   2.014   9.336  0.2646  0.0600 -0.1782
  724TMC3     C10703   1.174   1.870   9.385 -0.1781 -0.3163 -0.2425
  724TMC3     O10704   1.085   1.955   9.356  0.2016 -0.4905  0.0131
  724TMC3     H10705   1.254   2.068   9.241  1.5777  1.9438 -0.8645
  724TMC3    H110706   1.391   1.781   9.520 -3.7394  0.2520 -1.2465
  724TMC3    H210707   1.673   2.037   9.307  0.9764 -2.0334  0.6534
  724TMC3    C710708   1.654   1.854   9.502  0.0523 -0.3793 -0.6185
  724TMC3    C810709   1.479   2.178   9.180  0.5463  0.3828 -0.3938
  724TMC3    O110710   1.759   1.919   9.494 -0.3543  0.7414 -0.0008
  724TMC3    O210711   1.392   2.198   9.097 -0.1105  0.0899  0.3590
  725TMC3    C110712   4.039   0.261  13.080  0.1348  0.0985  0.6164
  725TMC3    C210713   3.955   0.262  12.976 -0.0093  0.3214 -0.1688
  725TMC3    C310714   3.872   0.155  12.975  0.1145 -0.3916 -0.1973
  725TMC3    C410715   4.052   0.163  13.173  0.0662  0.5466 -0.9733
  725TMC3    C510716   3.959   0.062  13.167 -0.2185  0.7204 -0.3599
  725TMC3    C610717   3.866   0.061  13.072  1.2879 -0.1197 -0.1909
  725TMC3     C10718   4.146   0.361  13.080  0.3914 -0.4888 -0.7092
  725TMC3     O10719   4.112   0.472  13.039  0.1365  0.1075  0.1037
  725TMC3     H10720   3.966   0.343  12.905 -0.4488  1.4323  1.0345
  725TMC3    H110721   4.108   0.175  13.265  0.8092 -0.2405 -1.3252
  725TMC3    H210722   3.799   4.705  13.052  0.6633 -0.0705  1.7423
  725TMC3    C710723   3.971   4.686  13.265 -0.1078  0.5214 -0.4243
  725TMC3    C810724   3.743   0.157  12.906 -0.0473 -0.2589 -0.7288
  725TMC3    O110725   3.995   4.699  13.386 -0.2555  0.0332 -0.2535
  725TMC3    O210726   3.644   0.107  12.964 -0.2694 -0.6671  0.2733
  726MPD2     C10727   2.148   1.656  10.448 -0.1125  0.4412 -0.3790
  726MPD2    C110728   2.034   1.714  10.406  0.1236  0.1440 -0.1728
  726MPD2    C210729   1.910   1.656  10.437 -0.0902 -0.1868 -0.5307
  726MPD2    C310730   1.903   1.538  10.511 -0.1154  0.1973 -0.8648
  726MPD2    C410731   2.024   1.488  10.556  0.2502  0.4225  0.0155
  726MPD2    C510732   2.143   1.539  10.516  0.1690 -0.7882  0.0304
  726MPD2     H10733   1.819   1.704  10.404 -0.5171 -1.5197 -1.3175
  726MPD2    H110734   2.025   1.400  10.619 -0.2977 -1.3417 -2.4126
  726MPD2    H210735   2.244   1.701  10.425  0.1945 -0.0959 -0.1583
  726MPD2    H310736   2.236   1.488  10.539 -0.6128 -2.8031 -1.2108
  726MPD2     N10737   1.770   1.483  10.528 -0.2211 -0.2941  0.8084
  726MPD2    H510738   1.688   1.531  10.490  0.7002  0.6140 -0.0410
  726MPD2    N110739   2.034   1.845  10.346  0.0901  0.0569 -0.0062
  726MPD2    H710740   1.941   1.883  10.332 -0.6182 -1.9762 -0.6971
  727TMC3    C110741   2.072   2.059  10.294 -0.4730 -0.0708 -0.3303
  727TMC3    C210742   2.165   2.156  10.268 -0.2509 -0.6606 -0.0968
  727TMC3    C310743   2.112   2.282  10.242  0.2874  0.0407 -0.2157
  727TMC3    C410744   1.934   2.088  10.295 -0.1891  0.2324 -0.8924
  727TMC3    C510745   1.890   2.216  10.274  0.0132  0.6114  0.3132
  727TMC3    C610746   1.979   2.321  10.240 -0.2399 -0.7665  0.2202
  727TMC3     C10747   2.132   1.925  10.313  0.1730 -0.2351  0.6028
  727TMC3     O10748   2.248   1.917  10.345 -0.3418 -0.3434  0.5546
  727TMC3     H10749   2.268   2.123  10.268 -0.0171  0.0762  1.3770
  727TMC3    H110750   1.858   2.013  10.313  0.7595 -0.6750 -0.6492
  727TMC3    H210751   1.951   2.425  10.232  3.1897  0.0973 -0.6450
  727TMC3    C710752   1.755   2.233  10.224 -0.1264  0.6611  0.3902
  727TMC3    C810753   2.204   2.389  10.202  0.2417  0.0919  0.3678
  727TMC3    O110754   1.699   2.131  10.191  0.0335 -0.9246  0.4929
  727TMC3    O210755   2.166   2.507  10.202  0.1909  0.1971 -0.3945
  728TMC3    C110756   0.994   0.318  15.665  0.1554  0.3412 -0.8207
  728TMC3    C210757   1.123   0.335  15.705  0.3184 -0.1224 -0.5148
  728TMC3    C310758   1.213   0.349  15.607 -0.2631  0.2674 -0.2196
  728TMC3    C410759   0.959   0.336  15.532 -0.9339  0.4860  0.0235
  728TMC3    C510760   1.054   0.370  15.439  0.1713  0.6378  0.0913
  728TMC3    C610761   1.181   0.371  15.475  0.1437 -1.2133 -0.5066
  728TMC3     C10762   0.898   0.258  15.764  0.2202 -0.5664 -0.1295
  728TMC3     O10763   0.917   0.279  15.882  0.2991  0.1143  0.2570
  728TMC3     H10764   1.144   0.325  15.810  1.2009  2.3702 -0.4303
  728TMC3    H110765   0.857   0.312  15.502 -0.9076 -0.8692  1.0140
  728TMC3    H210766   1.260   0.382  15.403  2.3249 -1.0799  1.8986
  728TMC3    C710767   1.009   0.379  15.297 -0.0547  0.0414 -0.2909
  728TMC3    C810768   1.346   0.306  15.640  0.6626 -0.5964  0.2981
  728TMC3    O110769   0.899   0.335  15.271 -0.2232 -0.0053  0.1146
  728TMC3    O210770   1.369   0.331  15.757  0.2074  0.2136  0.2465
  729MPD2     C10771   2.630   1.701  16.981 -0.7323 -0.6688 -0.4765
  729MPD2    C110772   2.718   1.597  16.955 -0.2292 -0.3737 -0.1327
  729MPD2    C210773   2.790   1.541  17.056  0.8250 -0.4898 -0.6367
  729MPD2    C310774   2.755   1.565  17.186 -0.1632 -0.1638  0.2945
  729MPD2    C410775   2.656   1.657  17.208 -0.2347  0.6893  0.1279
  729MPD2    C510776   2.602   1.730  17.108 -0.3056  0.6652  0.8821
  729MPD2     H10777   2.865   1.468  17.029  0.0112 -1.7745  0.5886
  729MPD2    H110778   2.628   1.681  17.311 -1.6432  2.3659 -0.6394
  729MPD2    H210779   2.575   1.747  16.900 -0.6333  0.8929  0.3482
  729MPD2    H310780   2.525   1.805  17.124  0.9274  1.7941  1.5023
  729MPD2     N10781   2.830   1.520  17.299  0.0050  0.3377 -0.4154
  729MPD2    H510782   2.778   1.547  17.382  1.0447  1.3590 -0.0992
  729MPD2    N110783   2.731   1.560  16.818  0.1085  0.4038  0.3436
  729MPD2    H710784   2.670   1.606  16.751 -4.6489 -2.7992  2.4527
  730TMC3    C110785   3.024   1.504  17.424  0.6151  0.0441  0.2001
  730TMC3    C210786   3.135   1.432  17.444  0.6874  0.2914 -0.4748
  730TMC3    C310787   3.223   1.485  17.542  0.4012 -0.3865  0.2750
  730TMC3    C410788   3.009   1.628  17.477  0.1721  0.6078 -0.5208
  730TMC3    C510789   3.106   1.680  17.562  0.4171 -0.9465  0.2375
  730TMC3    C610790   3.206   1.602  17.613  0.0305 -0.8607  0.4269
  730TMC3     C10791   2.962   1.487  17.296 -0.1542  0.2106  0.0899
  730TMC3     O10792   3.038   1.442  17.208 -0.0249  0.4265 -0.3808
  730TMC3     H10793   3.148   1.339  17.391  1.4985 -1.0223  2.0277
  730TMC3    H110794   2.917   1.684  17.458  0.4901  0.3618 -2.7799
  730TMC3    H210795   3.286   1.644  17.673 -0.1025  2.9012 -2.0425
  730TMC3    C710796   3.094   1.822  17.605 -0.4091  0.4625 -0.2591
  730TMC3    C810797   3.357   1.427  17.532 -0.3356  0.5818 -0.0291
  730TMC3    O110798   3.163   1.856  17.700 -0.1086  0.0863 -0.1387
  730TMC3    O210799   3.422   1.440  17.636 -0.1872 -0.1693  0.3641
  731MPD2     C10800   2.447   3.708  12.794 -0.1148 -0.2021 -0.1113
  731MPD2    C110801   2.574   3.724  12.848  0.0971 -0.4257 -0.2162
  731MPD2    C210802   2.586   3.760  12.982 -0.4031  0.1107 -0.2114
  731MPD2    C310803   2.471   3.786  13.057  0.5044  0.0547  0.4541
  731MPD2    C410804   2.345   3.771  13.003  0.2560  0.4596  0.2180
  731MPD2    C510805   2.339   3.732  12.870 -0.4031 -0.1166 -0.9071
  731MPD2     H10806   2.687   3.761  13.021 -0.3628  3.2970 -0.4140
  731MPD2    H110807   2.255   3.793  13.058  0.5146 -0.2705  0.9344
  731MPD2    H210808   2.433   3.675  12.691  2.6522  3.0252 -1.5306
  731MPD2    H310809   2.243   3.733  12.820 -0.0903  3.2379 -1.4572
  731MPD2     N10810   2.500   3.830  13.185  0.0403 -0.9392  0.1321
  731MPD2    H510811   2.597   3.830  13.218  0.3145 -1.7526 -0.6948
  731MPD2    N110812   2.679   3.681  12.761  0.0937 -0.1879 -0.6480
  731MPD2    H710813   2.649   3.631  12.678 -0.4613  0.3913 -0.7959
  732TMC3    C110814   2.885   3.631  12.685  0.5197 -0.6950 -0.4660
  732TMC3    C210815   2.869   3.677  12.559  0.3363 -0.1862  0.3973
  732TMC3    C310816   2.964   3.654  12.458 -0.6327  0.2364 -0.6685
  732TMC3    C410817   2.990   3.551  12.716 -0.2612 -0.2797 -0.1323
  732TMC3    C510818   3.079   3.528  12.609  0.5124 -0.6457 -0.1799
  732TMC3    C610819   3.079   3.585  12.485  1.1605 -0.0049 -0.5715
  732TMC3     C10820   2.814   3.671  12.799 -0.3749 -0.3509 -0.1212
  732TMC3     O10821   2.874   3.732  12.887 -0.0233  0.5890 -0.0723
  732TMC3     H10822   2.779   3.735  12.542  1.2308  0.4711 -2.1011
  732TMC3    H110823   3.013   3.528  12.820  0.4546  0.4782 -0.1182
  732TMC3    H210824   3.148   3.557  12.407 -1.6553  0.1861 -3.1458
  732TMC3    C710825   3.197   3.443  12.632  0.0052 -0.2914 -0.1141
  732TMC3    C810826   2.950   3.722  12.330 -0.3877  0.2549  0.2089
  732TMC3    O110827   3.212   3.341  12.567 -0.6596  0.1696 -0.1541
  732TMC3    O210828   3.048   3.714  12.258 -0.1998 -0.2687  0.5058
  733TMC3    C110829   3.505   2.914  12.666 -0.2071  0.3248 -0.3782
  733TMC3    C210830   3.619   2.878  12.733 -0.3491  0.1085 -0.5257
  733TMC3    C310831   3.730   2.922  12.669 -0.0200 -0.4197  0.4226
  733TMC3    C410832   3.489   3.002  12.556 -0.2723 -0.1518 -0.4703
  733TMC3    C510833   3.607   3.030  12.494  0.5286 -0.3290  0.6177
  733TMC3    C610834   3.727   2.988  12.549 -0.7246 -0.5531  0.2249
  733TMC3     C10835   3.376   2.873  12.722  0.0870  0.1707  0.3374
  733TMC3     O10836   3.287   2.944  12.679 -0.2877 -0.2131  0.1441
  733TMC3     H10837   3.622   2.831  12.830 -0.0968  2.9621  0.8377
  733TMC3    H110838   3.398   3.024  12.501 -0.8873 -0.8030  0.2900
  733TMC3    H210839   3.813   2.981  12.483  0.0637  0.7605  1.1121
  733TMC3    C710840   3.599   3.108  12.371 -1.0220  0.2739  0.2648
  733TMC3    C810841   3.862   2.888  12.727 -0.1888  0.3898 -0.1799
  733TMC3    O110842   3.489   3.131  12.321  0.1204 -0.0669  0.1139
  733TMC3    O210843   3.881   2.792  12.803  0.5038  0.0540 -0.2416
  734MPD2     C10844   1.413   0.678  12.562  0.8907 -0.0702  0.1548
  734MPD2    C110845   1.309   0.630  12.479  0.1589  0.6437 -0.0043
  734MPD2    C210846   1.352   0.602  12.349 -0.4940  0.5778  0.7264
  734MPD2    C310847   1.481   0.631  12.300 -0.1035 -0.0006 -0.1497
  734MPD2    C410848   1.581   0.679  12.384  0.6386 -0.5930 -0.5318
  734MPD2    C510849   1.541   0.698  12.520 -0.1492 -0.6753  0.4468
  734MPD2     H10850   1.279   0.575  12.273  0.9487  0.2538 -0.5284
  734MPD2    H110851   1.682   0.702  12.352  0.8867 -0.2932  0.4889
  734MPD2    H210852   1.386   0.698  12.666 -1.1505 -0.0816 -0.3701
  734MPD2    H310853   1.607   0.739  12.596  0.5116 -1.0679  0.0797
  734MPD2     N10854   1.505   0.613  12.161  0.1934 -0.4272 -0.6784
  734MPD2    H510855   1.417   0.595  12.114  0.2101 -1.4033 -0.3270
  734MPD2    N110856   1.182   0.599  12.531  0.1680 -0.2593  0.4107
  734MPD2    H710857   1.153   0.619  12.626 -2.0437 -2.2913  0.1720
  735TMC3    C110858   0.985   0.469  12.536 -0.2097 -0.2331 -0.0778
  735TMC3    C210859   0.889   0.423  12.447  0.0726  1.0109  0.1561
  735TMC3    C310860   0.840   0.297  12.468  0.5665  0.5497  0.2195
  735TMC3    C410861   1.015   0.409  12.658 -0.0875 -0.0226 -0.6437
  735TMC3    C510862   0.965   0.285  12.676  0.2113 -0.2060  0.8479
  735TMC3    C610863   0.881   0.232  12.581  0.5066  0.0792  0.5171
  735TMC3     C10864   1.094   0.523  12.459  0.2731  0.0808 -0.3217
  735TMC3     O10865   1.089   0.486  12.339  0.2198 -0.2265 -0.1538
  735TMC3     H10866   0.874   0.465  12.348  0.4994 -0.2745 -0.4602
  735TMC3    H110867   1.090   0.454  12.723  0.2336 -2.0870  0.4163
  735TMC3    H210868   0.855   0.128  12.591  2.7236 -0.5071  0.0718
  735TMC3    C710869   1.081   0.203  12.698  0.8683 -0.5795  0.3274
  735TMC3    C810870   0.854   0.206  12.352  0.4079  0.0535 -0.9489
  735TMC3    O110871   1.101   0.109  12.622 -0.4170 -0.3007 -0.0621
  735TMC3    O210872   0.801   0.096  12.362  0.4656  0.2831 -0.4873
  736MPD2     C10873   1.314   0.230  12.981  0.3415  0.0849 -0.7291
  736MPD2    C110874   1.277   0.191  12.851  0.6631  0.9417  0.6117
  736MPD2    C210875   1.364   0.112  12.769 -0.0463  0.5917 -0.3926
  736MPD2    C310876   1.486   0.073  12.824 -0.4181 -0.2687  0.3467
  736MPD2    C410877   1.521   0.104  12.954  0.0909  0.2870  0.2463
  736MPD2    C510878   1.436   0.181  13.030 -1.0473  0.7131 -0.2706
  736MPD2     H10879   1.335   0.090  12.667  1.9139 -1.9072 -0.4000
  736MPD2    H110880   1.618   0.070  12.990 -0.1602 -0.2431  0.4278
  736MPD2    H210881   1.258   0.294  13.049  0.1290 -0.1464 -0.6886
  736MPD2    H310882   1.471   0.223  13.123  0.5819  1.4009 -1.1891
  736MPD2     N10883   1.568   4.720  12.749 -0.1930 -0.3786  0.5639
  736MPD2    H510884   1.659   4.706  12.791 -0.1699 -2.1078 -0.0808
  736MPD2    N110885   1.153   0.246  12.810  0.0503  0.8015 -0.6160
  736MPD2    H710886   1.112   0.312  12.876  2.0118 -1.2544  2.6492
  737TMC3    C110887   1.631   4.567  12.587  0.1439  0.7451 -0.4487
  737TMC3    C210888   1.743   4.643  12.568  0.0601  0.3019  0.6823
  737TMC3    C310889   1.842   4.586  12.499 -0.7292  0.1087  0.1473
  737TMC3    C410890   1.617   4.441  12.526 -0.2171  0.0529 -0.2850
  737TMC3    C510891   1.711   4.397  12.444  0.6080  0.5922  0.0486
  737TMC3    C610892   1.833   4.461  12.432 -0.0597 -0.0056 -0.4310
  737TMC3     C10893   1.523   4.640  12.652 -0.2249 -0.9053  0.0197
  737TMC3     O10894   1.411   4.590  12.646 -0.0335  0.4494 -0.4187
  737TMC3     H10895   1.760   0.011  12.619  2.1348 -0.0149  0.5558
  737TMC3    H110896   1.517   4.402  12.509 -0.6930  1.4261 -0.7097
  737TMC3    H210897   1.922   4.420  12.386  1.6637  1.7299  1.3517
  737TMC3    C710898   1.690   4.263  12.390 -0.7681  0.0812 -0.7170
  737TMC3    C810899   1.939   4.685  12.440  0.1461  0.2084 -0.1757
  737TMC3    O110900   1.601   4.203  12.450 -0.0421  0.0858  0.1781
  737TMC3    O210901   1.981   0.053  12.506 -0.2467 -0.3043 -0.5743
  738MPD2     C10902   2.466   3.579  15.707 -0.4140  0.8786  0.1147
  738MPD2    C110903   2.408   3.597  15.582  0.1903  0.3659  0.3728
  738MPD2    C210904   2.488   3.679  15.493  0.3824  0.1128  0.1303
  738MPD2    C310905   2.617   3.722  15.525  0.0856 -0.4994  0.4548
  738MPD2    C410906   2.665   3.699  15.648 -0.4739  0.1176 -0.2624
  738MPD2    C510907   2.586   3.634  15.740  0.2696  0.3627 -0.8146
  738MPD2     H10908   2.441   3.694  15.397 -0.0876  0.3324  0.3958
  738MPD2    H110909   2.757   3.745  15.683 -0.8823  0.2301  0.6684
  738MPD2    H210910   2.404   3.535  15.785 -2.0692  3.5915  0.3237
  738MPD2    H310911   2.610   3.641  15.846 -0.5442  1.3739 -0.6922
  738MPD2     N10912   2.705   3.786  15.437 -0.7824 -0.2663 -0.8192
  738MPD2    H510913   2.785   3.818  15.491 -0.0052 -0.0802 -2.0808
  738MPD2    N110914   2.283   3.554  15.536  0.2783 -0.1272 -0.5364
  738MPD2    H710915   2.258   3.565  15.439  3.0682  1.1907 -1.0760
  739TMC3    C110916   2.775   3.902  15.257 -0.2811  1.4631 -0.3526
  739TMC3    C210917   2.755   3.943  15.122 -0.1668  0.5457 -0.1976
  739TMC3    C310918   2.845   4.024  15.063  0.4325  0.4641  0.3561
  739TMC3    C410919   2.895   3.939  15.327  0.1820  0.3584 -0.3730
  739TMC3    C510920   2.978   4.025  15.263  0.3234  0.5336  0.2839
  739TMC3    C610921   2.957   4.074  15.134 -0.1951 -0.6699 -0.6572
  739TMC3     C10922   2.673   3.815  15.308  0.5274 -0.3430  0.0862
  739TMC3     O10923   2.583   3.779  15.236 -0.1166  0.2225 -0.0072
  739TMC3     H10924   2.671   3.911  15.062  0.0794  1.4295 -1.0217
  739TMC3    H110925   2.910   3.909  15.430 -1.4566 -0.5228 -0.3871
  739TMC3    H210926   3.007   4.162  15.094  1.8997 -0.9138  1.3989
  739TMC3    C710927   3.022   4.126  15.356 -0.0951  0.0765 -0.2086
  739TMC3    C810928   2.855   4.003  14.917  1.2497  0.1686  0.1214
  739TMC3    O110929   2.934   4.167  15.435 -0.2104  0.8606  0.4203
  739TMC3    O210930   2.753   3.959  14.867 -0.0825  0.2146 -0.0612
  740TMC3    C110931   3.434   0.183  14.388  0.3212  0.1970  0.8060
  740TMC3    C210932   3.485   0.133  14.502  0.4195 -0.5339  0.3124
  740TMC3    C310933   3.616   0.083  14.489  0.0696 -0.3257 -0.9889
  740TMC3    C410934   3.512   0.194  14.269 -0.3878 -0.0062  0.1273
  740TMC3    C510935   3.638   0.142  14.265  0.3500 -0.2196 -1.0862
  740TMC3    C610936   3.691   0.086  14.376  0.9912 -0.2041 -0.3977
  740TMC3     C10937   3.334   0.289  14.395  0.1569 -0.8589  0.0505
  740TMC3     O10938   3.330   0.382  14.315  0.3831  0.1798  0.0956
  740TMC3     H10939   3.427   0.123  14.593 -0.1448 -0.0069  0.0122
  740TMC3    H110940   3.458   0.244  14.189 -0.5286 -0.8614 -0.3141
  740TMC3    H210941   3.791   0.045  14.379  0.8797 -0.3846  1.1484
  740TMC3    C710942   3.691   0.101  14.141 -0.9330 -0.4930  0.3207
  740TMC3    C810943   3.670   0.013  14.605 -0.3991  0.6538  0.2370
  740TMC3    O110944   3.784   0.024  14.160 -0.3401 -0.3167 -0.3611
  740TMC3    O210945   3.780   4.682  14.599 -0.3298 -0.1115 -0.1100
  741TMC3    C110946   2.889   4.432  14.289 -0.2545  0.5959  0.3734
  741TMC3    C210947   2.752   4.423  14.284  0.0780  0.6360  0.1578
  741TMC3    C310948   2.689   4.393  14.404 -0.1765  0.5730 -0.4279
  741TMC3    C410949   2.967   4.411  14.401 -0.3642  0.0737 -0.3871
  741TMC3    C510950   2.895   4.394  14.515  0.4747  0.0359  0.2239
  741TMC3    C610951   2.760   4.390  14.523 -0.3013  1.2667  0.2362
  741TMC3     C10952   2.962   4.453  14.166 -0.1598  0.1067 -0.2485
  741TMC3     O10953   3.082   4.418  14.169 -0.0926  0.1735 -0.2212
  741TMC3     H10954   2.701   4.417  14.189  0.2566 -1.6819  0.1976
  741TMC3    H110955   3.075   4.400  14.406 -0.3971 -0.4532 -0.8384
  741TMC3    H210956   2.708   4.381  14.618 -0.0095  0.0433  0.2807
  741TMC3    C710957   2.982   4.415  14.632 -0.3222 -0.2976  0.3957
  741TMC3    C810958   2.556   4.345  14.395 -0.6751  0.2065 -0.1409
  741TMC3    O110959   3.090   4.472  14.615 -0.6985 -0.2120  0.2333
  741TMC3    O210960   2.493   4.376  14.291  0.3142  0.2641  0.0088
  742TMC3    C110961   2.170   2.837  15.460 -0.0039 -0.0286  0.4528
  742TMC3    C210962   2.094   2.848  15.354 -0.3141  0.0028  0.2300
  742TMC3    C310963   2.167   2.849  15.237  0.1078  0.1972 -0.7721
  742TMC3    C410964   2.300   2.879  15.471 -0.2734 -1.1933  0.0900
  742TMC3    C510965   2.374   2.889  15.355  0.1681 -0.8825  0.5055
  742TMC3    C610966   2.305   2.859  15.237  0.2947  0.7416 -0.8057
  742TMC3     C10967   2.102   2.802  15.581  0.4099 -0.2104 -0.3443
  742TMC3     O10968   1.985   2.826  15.587 -0.7863 -0.1977  0.0714
  742TMC3     H10969   1.997   2.799  15.354  0.4271 -1.4424  0.4847
  742TMC3    H110970   2.343   2.884  15.570 -0.0350  0.0245 -0.0788
  742TMC3    H210971   2.367   2.850  15.148 -0.5546  0.6575 -1.3804
  742TMC3    C710972   2.509   2.847  15.362  0.2887 -0.5368  0.2688
  742TMC3    C810973   2.106   2.807  15.109 -0.6161 -0.5780 -0.7906
  742TMC3    O110974   2.535   2.763  15.283 -0.3761  0.0308 -0.2260
  742TMC3    O210975   2.171   2.747  15.022  0.7508 -0.0422  0.2085
  743MPD2     C10976   3.787   4.266   1.907 -0.1161 -0.5055 -0.3550
  743MPD2    C110977   3.808   4.147   1.843 -0.2634 -0.1705 -0.1088
  743MPD2    C210978   3.903   4.052   1.883 -0.1589 -0.1768  0.0961
  743MPD2    C310979   3.973   4.083   1.996  0.0804  0.4215  0.9767
  743MPD2    C410980   3.960   4.206   2.061  0.0881  0.0834  0.1176
  743MPD2    C510981   3.868   4.297   2.011 -0.0480 -0.0944  0.3303
  743MPD2     H10982   3.917   3.952   1.845  1.4700  0.0838  0.0385
  743MPD2    H110983   4.023   4.222   2.148 -1.8573  2.1489  1.1244
  743MPD2    H210984   3.727   4.346   1.867  1.5949 -0.1542 -2.2187
  743MPD2    H310985   3.861   4.392   2.063  0.0473 -0.0872  0.3302
  743MPD2     N10986   4.055   3.977   2.028  0.2576 -0.4927 -0.5547
  743MPD2    H510987   4.060   3.896   1.967  1.6854 -1.5286  0.9279
  743MPD2    N110988   3.724   4.126   1.721  0.1094 -0.3524  0.0820
  743MPD2    H710989   3.656   4.196   1.694  2.8182  1.1350 -2.9558
  744TMC3    C110990   3.656   4.034   1.518  0.4363 -0.1750 -0.3790
  744TMC3    C210991   3.525   4.036   1.556 -1.0220  0.0885 -0.2962
  744TMC3    C310992   3.435   4.002   1.464  0.7721 -0.9421  0.2761
  744TMC3    C410993   3.696   3.983   1.398  0.8622 -0.4657 -0.1636
  744TMC3    C510994   3.597   3.940   1.322  0.1868  0.0698  0.4471
  744TMC3    C610995   3.466   3.948   1.345  0.3295 -0.3009  0.2957
  744TMC3     C10996   3.756   4.036   1.629  0.2983  0.5749  0.8408
  744TMC3     O10997   3.857   3.973   1.616 -0.1557  0.2216  0.1578
  744TMC3     H10998   3.493   4.051   1.659 -0.4585  0.9531 -0.2534
  744TMC3    H110999   3.800   3.971   1.370  1.0711 -0.5298  0.6394
  744TMC3    H211000   3.387   3.915   1.279  1.8331 -0.6106 -1.3718
  744TMC3    C711001   3.645   3.869   1.212 -0.9333  0.2189  0.3598
  744TMC3    C811002   3.295   4.035   1.484 -0.2745  0.0324  0.2545
  744TMC3    O111003   3.760   3.832   1.211 -0.8869  0.3475  0.7276
  744TMC3    O211004   3.202   3.969   1.438  0.4389 -0.1675  0.6260
  745TMC3    C111005   2.183   2.480  13.702  0.1446 -0.2211  0.1207
  745TMC3    C211006   2.071   2.511  13.765 -0.0229  0.4503 -0.0878
  745TMC3    C311007   2.013   2.630  13.737  0.3297 -0.3740  0.4012
  745TMC3    C411008   2.231   2.554  13.595 -0.2760 -0.2508 -0.0874
  745TMC3    C511009   2.163   2.668  13.554 -0.3397 -0.3042 -0.6278
  745TMC3    C611010   2.064   2.715  13.640 -0.0950 -0.6570  0.5572
  745TMC3     C11011   2.292   2.464  13.801  0.6234  0.2258 -0.6423
  745TMC3     O11012   2.258   2.417  13.910 -0.0934  0.6225 -0.5471
  745TMC3     H11013   2.038   2.456  13.852  1.1973 -0.3675 -0.1464
  745TMC3    H111014   2.309   2.516  13.532  1.2455  1.3474  0.8325
  745TMC3    H211015   2.010   2.808  13.625  0.1026 -1.0015 -2.2280
  745TMC3    C711016   2.201   2.740  13.430 -0.2496  0.0366  0.5027
  745TMC3    C811017   1.966   2.700  13.857  0.4345  0.5299  0.6650
  745TMC3    O111018   2.318   2.720  13.395 -0.8230  1.1293  0.0331
  745TMC3    O211019   1.898   2.797  13.833 -0.2673 -0.4911 -0.1071
  746TMC3    C111020   0.248   4.085  11.110  0.3127 -0.5025  0.5003
  746TMC3    C211021   0.318   4.084  10.990  0.6320  0.2095  0.4318
  746TMC3    C311022   0.330   3.961  10.930 -0.3209  0.5576 -0.7190
  746TMC3    C411023   0.185   3.977  11.161  0.1434 -0.0274 -0.8795
  746TMC3    C511024   0.197   3.862  11.085 -0.2507  0.7847  0.2270
  746TMC3    C611025   0.267   3.855  10.966  0.0607  0.2508 -0.0826
  746TMC3     C11026   0.235   4.204  11.195  0.1575  0.3073 -0.1591
  746TMC3     O11027   0.197   4.190  11.313  0.4404 -0.3001 -0.7424
  746TMC3     H11028   0.391   4.161  10.965 -0.1497  0.9236  0.3328
  746TMC3    H111029   0.129   3.984  11.254  2.5880  0.9264  0.5440
  746TMC3    H211030   0.247   3.773  10.899  1.6488  0.9053 -1.3471
  746TMC3    C711031   0.088   3.765  11.100  0.3201  0.2447  0.3465
  746TMC3    C811032   0.402   3.944  10.806 -0.2039  0.1063 -0.1497
  746TMC3    O111033   0.043   3.716  10.999  0.0578 -0.1761 -0.2388
  746TMC3    O211034   0.443   3.830  10.779 -0.2001  0.0140 -0.0030
  747TMC3    C111035   2.161   3.781  11.593  0.2484 -0.2149 -0.5204
  747TMC3    C211036   2.087   3.768  11.707 -1.0351  0.0583  0.7085
  747TMC3    C311037   2.118   3.843  11.813  0.8696 -0.1147 -0.3712
  747TMC3    C411038   2.264   3.869  11.585  0.5517  0.3315  0.1242
  747TMC3    C511039   2.285   3.949  11.697 -0.3911 -0.0444  0.2862
  747TMC3    C611040   2.215   3.935  11.812 -0.2343  0.4220  0.3554
  747TMC3     C11041   2.109   3.708  11.474 -0.1463  0.3667  0.4381
  747TMC3     O11042   2.001   3.655  11.491 -0.1065  0.2211  0.2300
  747TMC3     H11043   2.006   3.698  11.723 -1.7902  0.4432 -1.4369
  747TMC3    H111044   2.306   3.891  11.487  2.1571 -1.1266  0.4772
  747TMC3    H211045   2.241   4.008  11.888  0.8497 -0.5664  0.9251
  747TMC3    C711046   2.387   4.048  11.695  0.2929  0.8983 -0.8030
  747TMC3    C811047   2.043   3.821  11.933  0.1575 -0.2815  0.0281
  747TMC3    O111048   2.382   4.140  11.776  0.2963  0.0019  0.4322
  747TMC3    O211049   2.000   3.706  11.947  0.7109  0.5414 -0.1516
  748MPD2     C11050   3.346   0.580   1.935  0.2986  0.0403  1.0879
  748MPD2    C111051   3.391   0.454   1.964  0.4530 -1.2119  0.1651
  748MPD2    C211052   3.510   0.413   1.910  0.2557  0.2041 -0.2355
  748MPD2    C311053   3.577   0.485   1.816 -0.1525 -0.4953 -0.4866
  748MPD2    C411054   3.535   0.614   1.792  0.1267 -0.3908 -0.0852
  748MPD2    C511055   3.423   0.660   1.847 -0.3894 -0.1026  0.4752
  748MPD2     H11056   3.544   0.315   1.942 -0.9218  0.2221  1.0624
  748MPD2    H111057   3.598   0.684   1.739  2.0011 -1.7923  0.2953
  748MPD2    H211058   3.257   0.619   1.982  1.2274  1.6691  1.4913
  748MPD2    H311059   3.389   0.760   1.826  0.4614 -0.2031 -1.3501
  748MPD2     N11060   3.702   0.441   1.775 -0.3075 -0.0569  0.0573
  748MPD2    H511061   3.720   0.344   1.799  1.1244  0.6120  1.6864
  748MPD2    N111062   3.304   0.366   2.041 -0.5458  0.2304 -0.8107
  748MPD2    H711063   3.208   0.399   2.045 -0.5970 -0.0150  0.0559
  749TMC3    C111064   3.910   0.431   1.650  0.5130  0.2049  0.0270
  749TMC3    C211065   3.933   0.303   1.697  0.1755  0.2558 -0.1854
  749TMC3    C311066   4.047   0.244   1.659  0.1393  0.1749  0.1710
  749TMC3    C411067   4.001   0.504   1.574  0.1583  0.0693  0.7042
  749TMC3    C511068   4.120   0.439   1.548 -0.1104 -0.1126  0.3639
  749TMC3    C611069   4.142   0.307   1.590 -1.1957  0.8236  0.7728
  749TMC3     C11070   3.791   0.512   1.695  0.6019 -0.0971  1.0992
  749TMC3     O11071   3.781   0.615   1.633  1.0694  0.1431  0.0181
  749TMC3     H11072   3.859   0.242   1.747 -0.2892  2.7064  2.1725
  749TMC3    H111073   3.985   0.607   1.542  2.0422  0.2224  0.2375
  749TMC3    H211074   4.240   0.264   1.576 -1.6532 -0.1784  0.6520
  749TMC3    C711075   4.226   0.526   1.501  0.1967  0.3517 -0.4221
  749TMC3    C811076   4.081   0.116   1.722 -0.1740  0.4924  0.3338
  749TMC3    O111077   4.213   0.642   1.531 -0.0685 -0.3379  0.2773
  749TMC3    O211078   4.030   0.083   1.828 -0.1129 -0.4194 -0.0667
  750MPD2     C11079   0.891   1.158  11.385  0.1455 -0.4704  0.3514
  750MPD2    C111080   0.783   1.093  11.444 -0.9031  0.2870 -0.3247
  750MPD2    C211081   0.700   1.012  11.372 -0.7252  0.4422 -0.1084
  750MPD2    C311082   0.723   0.995  11.241  0.0711 -0.4408  0.4582
  750MPD2    C411083   0.814   1.077  11.176 -0.0254  0.3820  0.3273
  750MPD2    C511084   0.910   1.151  11.244  0.5809  0.6516 -0.2762
  750MPD2     H11085   0.618   0.951  11.410  0.0081 -0.5435 -0.1007
  750MPD2    H111086   0.828   1.070  11.069 -1.0505 -1.1697  0.3009
  750MPD2    H211087   0.955   1.227  11.439  2.8937 -2.9951  0.2859
  750MPD2    H311088   0.983   1.210  11.190  0.0586  2.0178  0.4976
  750MPD2     N11089   0.651   0.903  11.155  0.0673  0.0843 -0.3040
  750MPD2    H511090   0.680   0.893  11.059  1.3433  0.0163  0.0801
  750MPD2    N111091   0.758   1.122  11.577 -0.3752 -0.3255  1.2794
  750MPD2    H711092   0.823   1.183  11.624 -0.1759 -0.1854  0.8144
  751TMC3    C111093   0.465   0.767  11.098 -0.2222  0.4029 -0.5366
  751TMC3    C211094   0.337   0.738  11.128 -0.5715 -0.4095 -0.2665
  751TMC3    C311095   0.263   0.677  11.027  0.4208 -0.2282  0.5207
  751TMC3    C411096   0.529   0.708  10.988  0.2692  0.6412  0.1090
  751TMC3    C511097   0.447   0.661  10.890  0.1724 -0.5343  0.3720
  751TMC3    C611098   0.314   0.644  10.906 -0.2615 -0.1054  0.2302
  751TMC3     C11099   0.541   0.831  11.206  0.4769 -0.8113 -0.0491
  751TMC3     O11100   0.494   0.808  11.318  0.1333 -0.3303 -0.0459
  751TMC3     H11101   0.287   0.768  11.220  1.0350  2.4065 -0.2875
  751TMC3    H111102   0.632   0.732  10.967  0.3636 -0.2150 -0.4239
  751TMC3    H211103   0.245   0.618  10.827  0.7570 -0.9446 -0.3735
  751TMC3    C711104   0.510   0.622  10.761 -0.6696  0.3217  1.1414
  751TMC3    C811105   0.175   0.574  11.066 -0.1035 -0.4730  0.2981
  751TMC3    O111106   0.629   0.596  10.767 -0.2943  0.3653 -0.0833
  751TMC3    O211107   0.172   0.490  10.979 -0.1532  0.2287 -0.8455
  752TMC3    C111108   3.575   1.073  17.084 -0.1150  0.0971 -0.0773
  752TMC3    C211109   3.467   1.072  17.160 -0.9297  0.5502  0.2097
  752TMC3    C311110   3.482   1.051  17.293  0.6409 -0.1738 -0.6609
  752TMC3    C411111   3.702   1.049  17.130  0.3807  0.0242 -0.4804
  752TMC3    C511112   3.717   1.030  17.262  0.0942 -0.0799  0.6466
  752TMC3    C611113   3.605   1.026  17.346  0.4963 -0.0245 -0.4099
  752TMC3     C11114   3.569   1.088  16.938 -0.0280 -0.4160  0.8273
  752TMC3     O11115   3.659   1.041  16.876  0.0996  0.7486 -0.4349
  752TMC3     H11116   3.372   1.104  17.119 -1.4777 -2.6558 -0.9982
  752TMC3    H111117   3.786   1.058  17.062  0.5582 -1.3168 -0.4388
  752TMC3    H211118   3.616   1.022  17.454  2.0591  0.2421 -0.5567
  752TMC3    C711119   3.851   1.024  17.315 -0.0395 -0.1460  0.2909
  752TMC3    C811120   3.362   1.078  17.375  0.4230 -0.1987 -0.7301
  752TMC3    O111121   3.858   0.987  17.432  0.5315 -0.2329  0.0489
  752TMC3    O211122   3.265   1.120  17.313 -0.3461  0.3241 -0.6231
  753TMC3    C111123   1.436   2.899  13.409 -0.0857  0.8206 -0.1251
  753TMC3    C211124   1.392   2.908  13.538  0.4934  0.3451  0.2491
  753TMC3    C311125   1.340   2.796  13.598 -0.2034 -0.0320  0.5369
  753TMC3    C411126   1.437   2.778  13.341  0.1845  0.3979 -0.4196
  753TMC3    C511127   1.373   2.671  13.399  0.2141  0.1000 -0.2717
  753TMC3    C611128   1.333   2.679  13.529 -0.4293  0.4093  0.1926
  753TMC3     C11129   1.435   3.018  13.334 -0.2306 -0.3245 -0.6003
  753TMC3     O11130   1.417   3.006  13.215  0.4983  0.1661  0.2872
  753TMC3     H11131   1.404   2.999  13.596 -3.6474 -0.4859  2.3687
  753TMC3    H111132   1.484   2.777  13.244  0.6296 -0.2304 -0.2006
  753TMC3    H211133   1.305   2.592  13.587 -0.9067  0.3979 -0.0583
  753TMC3    C711134   1.378   2.544  13.325  0.2298  0.5411 -0.1857
  753TMC3    C811135   1.273   2.793  13.731 -0.8186  0.1740  0.2535
  753TMC3    O111136   1.466   2.539  13.237  0.1437 -0.0178 -0.1674
  753TMC3    O211137   1.171   2.720  13.725  0.4424 -0.2437  0.1600
  754MPD2     C11138   0.509   1.393  12.926  0.4737  0.7673 -0.9431
  754MPD2    C111139   0.499   1.255  12.926 -0.9355  0.7651  0.0335
  754MPD2    C211140   0.379   1.201  12.941  0.3520 -0.1484 -0.0609
  754MPD2    C311141   0.260   1.278  12.959 -0.1673 -0.0510  0.1453
  754MPD2    C411142   0.274   1.417  12.955 -0.2848  0.5426 -0.3520
  754MPD2    C511143   0.398   1.478  12.942 -0.4727  0.0563 -0.1443
  754MPD2     H11144   0.370   1.093  12.942 -1.3607 -0.0084 -0.0570
  754MPD2    H111145   0.187   1.478  12.977 -0.8769  0.1218 -1.5278
  754MPD2    H211146   0.609   1.433  12.913  0.6740  1.1530  1.8262
  754MPD2    H311147   0.404   1.585  12.922  0.7584 -0.3514 -2.0462
  754MPD2     N11148   0.133   1.226  12.981  0.1303  0.1742 -0.0667
  754MPD2    H511149   0.059   1.295  12.985 -1.1118 -1.0084 -2.9582
  754MPD2    N111150   0.624   1.192  12.938 -0.1564  0.2670 -0.3583
  754MPD2    H711151   0.708   1.241  12.911 -0.0860  0.2153 -0.2361
  755MPD2     C11152   4.273   1.707  13.310 -0.1135  0.0336  0.1701
  755MPD2    C111153   4.232   1.589  13.379 -0.1615 -0.5271 -0.5550
  755MPD2    C211154   4.296   1.470  13.338 -0.0360 -0.1581  0.5481
  755MPD2    C311155   4.396   1.468  13.245  0.3606  0.7927  0.2173
  755MPD2    C411156   4.436   1.586  13.184 -0.1523  0.0085 -0.3150
  755MPD2    C511157   4.372   1.700  13.215  0.2938  0.0180 -0.4729
  755MPD2     H11158   4.256   1.378  13.380  0.3876 -0.3936  0.4311
  755MPD2    H111159   4.511   1.600  13.107 -0.1311  1.0116 -0.1123
  755MPD2    H211160   4.223   1.802  13.320 -1.5522 -0.7004  0.0558
  755MPD2    H311161   4.386   1.791  13.158  0.8472 -0.4657 -1.1159
  755MPD2     N11162   4.458   1.346  13.199 -0.5177  0.6138 -0.1069
  755MPD2    H511163   4.531   1.357  13.130 -0.1736  1.7313  0.4282
  755MPD2    N111164   4.137   1.591  13.480 -0.0583 -0.1094  0.0355
  755MPD2    H711165   4.133   1.506  13.535 -0.1203 -0.5241 -0.6121
  756MPD2     C11166   0.167   1.362   9.295 -0.0597  0.3390 -0.2213
  756MPD2    C111167   0.172   1.233   9.350  1.0518 -0.0193  0.7549
  756MPD2    C211168   0.079   1.140   9.304 -0.0896 -0.3077  0.4926
  756MPD2    C311169   4.712   1.163   9.203  0.2843  0.3660  0.2155
  756MPD2    C411170   4.704   1.294   9.167  0.0758 -0.5980  0.1287
  756MPD2    C511171   0.059   1.391   9.213 -0.0237  0.4785  0.5057
  756MPD2     H11172   0.086   1.040   9.345 -0.9089 -0.1221  1.0940
  756MPD2    H111173   4.630   1.328   9.096 -1.2930 -1.5062  1.1243
  756MPD2    H211174   0.236   1.439   9.326 -0.4740  0.8480 -0.5656
  756MPD2    H311175   0.031   1.490   9.178 -2.5227 -0.7059 -0.8531
  756MPD2     N11176   4.609   1.066   9.173  0.3836 -0.4396 -0.2121
  756MPD2    H511177   4.617   0.981   9.228  2.2469 -1.0605 -1.4635
  756MPD2    N111178   0.260   1.197   9.456  0.4713 -0.3226  0.1802
  756MPD2    H711179   0.238   1.109   9.503  0.7461 -0.6458 -0.3006
  757MPD2     C11180   3.570   0.849   9.384  0.5802  0.4822 -0.6481
  757MPD2    C111181   3.651   0.739   9.407 -0.9010 -0.2821 -1.2400
  757MPD2    C211182   3.789   0.746   9.379  0.0074  0.3689 -0.2591
  757MPD2    C311183   3.840   0.855   9.308 -0.0011  0.0427 -0.1118
  757MPD2    C411184   3.753   0.956   9.283 -0.4605 -0.1762 -0.2619
  757MPD2    C511185   3.619   0.959   9.323  0.2481  0.0416  0.3096
  757MPD2     H11186   3.861   0.669   9.403  3.0253  2.9074 -1.3210
  757MPD2    H111187   3.797   1.038   9.227  2.0342 -1.6239 -0.4072
  757MPD2    H211188   3.466   0.856   9.414  0.5838 -0.9402 -0.2954
  757MPD2    H311189   3.560   1.048   9.306 -0.6949 -0.0799  2.8679
  757MPD2     N11190   3.979   0.850   9.273  0.3053  0.7894  0.3920
  757MPD2    H511191   4.020   0.757   9.281 -4.6056 -1.2838  1.3919
  757MPD2    N111192   3.588   0.629   9.468  0.1986 -0.2187  0.2978
  757MPD2    H711193   3.488   0.630   9.489 -0.0772  0.3629 -1.0282
  758MPD2     C11194   4.232   0.604  16.037 -0.6893 -0.1439 -0.2128
  758MPD2    C111195   4.309   0.565  16.140 -0.6281 -0.6189  0.3485
  758MPD2    C211196   4.329   0.654  16.248 -0.0617 -0.3578  0.5578
  758MPD2    C311197   4.285   0.785  16.243 -0.0170  0.1437 -0.1921
  758MPD2    C411198   4.212   0.824  16.136 -0.1312  0.3429  0.4693
  758MPD2    C511199   4.185   0.735  16.037  0.1155 -0.1759 -0.4040
  758MPD2     H11200   4.397   0.622  16.326  0.6382 -0.1981  0.0165
  758MPD2    H111201   4.165   0.921  16.126  0.0733  0.6313  2.3896
  758MPD2    H211202   4.211   0.532  15.958 -1.9998  0.9641 -0.8748
  758MPD2    H311203   4.118   0.765  15.957 -0.3117  0.9666  0.3839
  758MPD2     N11204   4.312   0.881  16.339 -0.4850  0.4354  0.0407
  758MPD2    H511205   4.258   0.967  16.333 -0.1666  0.5430 -1.1008
  758MPD2    N111206   4.374   0.437  16.152 -0.8600  0.6341  0.0805
  758MPD2    H711207   4.423   0.425  16.241 -3.5457  0.8228  1.5831
  759MPD2     C11208   3.757   2.947  10.246 -0.1909  0.2059 -0.2232
  759MPD2    C111209   3.627   2.949  10.297  0.1329 -0.6852  0.3712
  759MPD2    C211210   3.567   3.068  10.310  0.5831 -0.3108 -0.3177
  759MPD2    C311211   3.640   3.195  10.293  0.4203 -0.1542  0.2556
  759MPD2    C411212   3.767   3.182  10.250  0.4431  0.4168 -0.5023
  759MPD2    C511213   3.828   3.061  10.226  0.4559  0.4078 -0.0313
  759MPD2     H11214   3.464   3.074  10.341  1.0404 -1.3333  1.3838
  759MPD2    H111215   3.830   3.270  10.240 -0.9357  1.1840 -2.2935
  759MPD2    H211216   3.808   2.855  10.219 -1.7812 -0.8665  0.4070
  759MPD2    H311217   3.928   3.046  10.188  0.7782 -0.1539  1.0228
  759MPD2     N11218   3.579   3.322  10.335  0.5020 -0.2835 -0.9442
  759MPD2    H511219   3.489   3.318  10.383 -0.2389  0.6042 -2.2729
  759MPD2    N111220   3.548   2.839  10.321  0.3703  0.4527 -0.1711
  759MPD2    H711221   3.450   2.851  10.345  0.6822  1.8318  0.4493
  760MPD2     C11222   3.840   1.106  12.137 -0.9135  0.0307  0.0112
  760MPD2    C111223   3.762   1.065  12.031  0.0141  0.0684  0.3525
  760MPD2    C211224   3.759   0.935  11.989  0.0497  0.8325 -0.3626
  760MPD2    C311225   3.826   0.836  12.061 -0.1785 -0.4118 -0.0714
  760MPD2    C411226   3.907   0.875  12.167  0.7450 -0.0654 -0.5366
  760MPD2    C511227   3.913   1.011  12.201 -0.3433 -0.3195 -0.6016
  760MPD2     H11228   3.696   0.900  11.908  1.4419  2.0339 -1.9526
  760MPD2    H111229   3.987   0.815  12.210  0.5260 -0.8828 -1.2683
  760MPD2    H211230   3.850   1.209  12.169 -0.3889  0.0300 -0.1551
  760MPD2    H311231   3.982   1.047  12.276 -2.4468  1.0164  0.6831
  760MPD2     N11232   3.812   0.707  12.006 -0.1377  0.6354 -0.2336
  760MPD2    H511233   3.754   0.689  11.925 -1.3451  0.2618  0.7012
  760MPD2    N111234   3.697   1.174  11.965 -0.8043  0.2012  0.1990
  760MPD2    H711235   3.709   1.268  12.001 -2.0227  0.0440  0.9941
  761MPD2     C11236   4.533   0.339  11.325 -0.2095 -0.1489  0.3720
  761MPD2    C111237   4.624   0.291  11.237 -0.8898 -0.2751 -0.6793
  761MPD2    C211238   4.726   0.376  11.187  0.6874  0.0127  0.0632
  761MPD2    C311239   4.726   0.513  11.221  0.3861  0.0757 -0.2178
  761MPD2    C411240   4.634   0.555  11.318 -0.0596 -1.2053 -0.4556
  761MPD2    C511241   4.546   0.469  11.372 -0.1624  0.0346  0.8843
  761MPD2     H11242   0.076   0.337  11.121  0.9034  0.1563  0.2274
  761MPD2    H111243   4.644   0.660  11.342  0.3284 -0.6602 -2.9656
  761MPD2    H211244   4.468   0.265  11.370  0.6162 -0.8640  0.3982
  761MPD2    H311245   4.484   0.506  11.453 -1.6128 -0.9590  0.2244
  761MPD2     N11246   0.086   0.612  11.169 -0.2385  0.4552 -0.6891
  761MPD2    H511247   0.071   0.707  11.201  0.6623  0.7534 -1.1729
  761MPD2    N111248   4.603   0.177  11.167 -0.4597 -0.0539 -0.2981
  761MPD2    H711249   4.664   0.160  11.088  0.6965  2.6897  0.0261
  762MPD2     C11250   0.058   0.254  10.593 -0.1902 -0.1705 -0.2995
  762MPD2    C111251   0.094   0.137  10.661 -0.0825 -0.3235 -0.4026
  762MPD2    C211252   0.206   0.074  10.637 -0.5056 -0.2673 -0.4376
  762MPD2    C311253   0.295   0.130  10.546  0.5771  0.1613  0.2500
  762MPD2    C411254   0.265   0.252  10.485  0.4520  0.3939  0.4780
  762MPD2    C511255   0.141   0.312  10.505 -0.1195  0.3874 -0.0798
  762MPD2     H11256   0.238   4.710  10.687  1.7545 -0.0957 -1.5918
  762MPD2    H111257   0.330   0.308  10.419 -0.3438  1.6569  0.7664
  762MPD2    H211258   4.691   0.307  10.610  1.2141  1.7992  1.2127
  762MPD2    H311259   0.102   0.402  10.458 -1.2162 -0.2001 -0.3114
  762MPD2     N11260   0.420   0.068  10.522 -0.3766 -0.1035  0.4390
  762MPD2    H511261   0.444   4.717  10.583  0.5184 -0.9222 -0.9274
  762MPD2    N111262   4.720   0.082  10.742  0.2310  0.3466 -0.0866
  762MPD2    H711263   4.648   0.143  10.779  0.9934  1.9672 -1.2748
  763MPD2     C11264   1.630   0.418  16.295 -0.3996 -0.2060 -0.3024
  763MPD2    C111265   1.671   0.528  16.227 -0.3310  0.2277  0.0798
  763MPD2    C211266   1.654   0.655  16.276  0.5633 -0.0174 -0.6841
  763MPD2    C311267   1.570   0.674  16.382 -0.9734 -0.0560 -0.4284
  763MPD2    C411268   1.524   0.558  16.448 -0.2451 -0.3467 -0.2603
  763MPD2    C511269   1.560   0.436  16.406  0.1401  0.6454 -0.3664
  763MPD2     H11270   1.692   0.748  16.236  1.7482 -0.7578 -1.2584
  763MPD2    H111271   1.449   0.556  16.527  0.6545 -1.2470  0.5596
  763MPD2    H211272   1.646   0.318  16.258 -2.5376 -0.1876 -1.3117
  763MPD2    H311273   1.514   0.345  16.444  1.9700  0.4642  1.4009
  763MPD2     N11274   1.556   0.802  16.434  0.0400 -0.0048 -0.1732
  763MPD2    H511275   1.611   0.875  16.390  0.7382  0.4474  1.4235
  763MPD2    N111276   1.749   0.519  16.114  0.8176  0.2548 -0.3014
  763MPD2    H711277   1.766   0.605  16.062  3.2528  0.4770  0.8916
  764MPD2     C11278   0.021   2.560  17.048  0.5321  0.0362 -0.0702
  764MPD2    C111279   4.707   2.460  16.958 -0.2669  0.3268  0.1386
  764MPD2    C211280   4.662   2.341  17.019  0.2089 -0.5088 -0.1750
  764MPD2    C311281   4.647   2.326  17.159 -0.2977 -0.3002 -0.0265
  764MPD2    C411282   4.684   2.435  17.248 -1.3934  0.8050  0.3108
  764MPD2    C511283   0.023   2.542  17.191 -0.8416  0.3619 -0.5161
  764MPD2     H11284   4.619   2.259  16.963  2.5099 -3.6773  2.6891
  764MPD2    H111285   4.667   2.429  17.355 -2.7140 -0.2175  0.0279
  764MPD2    H211286   0.043   2.660  17.013 -0.5991 -0.8596 -3.3136
  764MPD2    H311287   0.040   2.631  17.251  0.3828 -0.7634  0.7915
  764MPD2     N11288   4.590   2.204  17.213 -0.2940  0.3458 -0.4990
  764MPD2    H511289   4.567   2.130  17.147  1.4115 -1.5247  0.9764
  764MPD2    N111290   4.703   2.468  16.815 -0.3082  0.0704  0.6137
  764MPD2    H711291   4.659   2.390  16.767 -0.8585  1.6727 -1.4749
  765MPD2     C11292   4.304   4.479  15.123 -0.8585  0.4137  0.3625
  765MPD2    C111293   4.346   4.546  15.241 -0.9284 -0.4633 -0.1287
  765MPD2    C211294   4.476   4.531  15.290 -0.1595  0.1679  0.2367
  765MPD2    C311295   4.573   4.464  15.221 -0.7071  0.3864  0.5903
  765MPD2    C411296   4.537   4.406  15.096  0.0634 -0.0966  0.0138
  765MPD2    C511297   4.405   4.413  15.054  0.2927  1.0929 -0.8537
  765MPD2     H11298   4.499   4.570  15.389 -1.3853 -1.7892  1.2767
  765MPD2    H111299   4.604   4.339  15.044  0.1744  0.9097 -1.1391
  765MPD2    H211300   4.205   4.484  15.079 -0.1363  0.3022 -1.2758
  765MPD2    H311301   4.388   4.362  14.959 -0.0863 -0.8002  0.2174
  765MPD2     N11302   4.700   4.445  15.277  0.0986 -0.7630  0.0142
  765MPD2    H511303   4.724   4.500  15.359  0.5138 -0.1359 -0.5255
  765MPD2    N111304   4.244   4.627  15.307 -0.6462 -0.4503 -0.3437
  765MPD2    H711305   4.152   4.621  15.264 -0.0804 -0.6318 -1.5346
  766MPD2     C11306   3.938   4.675  14.970 -0.1138 -0.6289  0.1283
  766MPD2    C111307   3.940   0.051  15.064 -0.9451  0.0967 -0.5048
  766MPD2    C211308   4.049   0.141  15.057 -0.5111 -0.0130  0.7292
  766MPD2    C311309   4.153   0.127  14.974  0.1357  0.3468  0.2664
  766MPD2    C411310   4.156   0.015  14.890 -0.3199  0.1118 -0.7156
  766MPD2    C511311   4.045   4.665  14.888  0.0645  0.6750  0.7362
  766MPD2     H11312   4.063   0.231  15.116  1.4177 -0.0107  0.2593
  766MPD2    H111313   4.234   4.718  14.819  0.1629 -1.5631  0.3453
  766MPD2    H211314   3.854   4.608  14.965 -0.5276 -0.2582  2.2581
  766MPD2    H311315   4.035   4.583  14.819  2.4136  0.8020  0.2457
  766MPD2     N11316   4.248   0.228  14.970  0.1695 -0.1841 -0.2382
  766MPD2    H511317   4.232   0.315  15.020  1.8952  0.6950 -1.2091
  766MPD2    N111318   3.827   0.063  15.147  0.3312  0.1384 -0.2497
  766MPD2    H711319   3.746   0.011  15.115  0.5487 -0.1304 -0.3569
  767MPD2     C11320   3.755   0.511  15.036 -0.0784  0.3919 -0.4510
  767MPD2    C111321   3.868   0.581  14.998 -0.1229  0.2936  0.2259
  767MPD2    C211322   3.931   0.551  14.875 -0.2503  0.1126  0.9955
  767MPD2    C311323   3.868   0.464  14.786 -0.2117 -0.5039 -0.2701
  767MPD2    C411324   3.759   0.395  14.834 -0.4798 -0.2920 -0.4343
  767MPD2    C511325   3.697   0.415  14.956  0.6151 -0.7063 -0.0628
  767MPD2     H11326   4.014   0.615  14.845 -0.3978 -0.1569  0.0271
  767MPD2    H111327   3.710   0.317  14.777  1.4543 -0.5256 -1.7940
  767MPD2    H211328   3.717   0.509  15.138 -2.1393 -0.3020 -1.2385
  767MPD2    H311329   3.613   0.359  14.995  0.8551  0.5548  2.2649
  767MPD2     N11330   3.919   0.444  14.658 -0.1778 -0.0868 -0.1713
  767MPD2    H511331   4.010   0.487  14.643 -1.7619  2.4946 -2.4197
  767MPD2    N111332   3.915   0.679  15.092  0.0725 -0.1132 -0.1144
  767MPD2    H711333   3.884   0.674  15.188  1.2685  1.2755  0.3498
  768MPD2     C11334   4.625   3.388  10.680 -0.0729 -0.2546 -0.6623
  768MPD2    C111335   4.584   3.357  10.813  0.1167  0.1189  0.4693
  768MPD2    C211336   4.677   3.344  10.905  0.0238 -0.2537  0.0581
  768MPD2    C311337   0.082   3.380  10.877  0.2942 -0.2667  0.3441
  768MPD2    C411338   0.122   3.414  10.755 -0.0626  0.1068 -0.1849
  768MPD2    C511339   0.034   3.413  10.653  0.0601  0.3534 -1.0304
  768MPD2     H11340   4.646   3.334  11.008  0.8233 -1.1849  0.2098
  768MPD2    H111341   0.228   3.430  10.741 -0.0772 -0.7620 -1.3436
  768MPD2    H211342   4.564   3.396  10.591 -3.2419 -0.9355  1.4511
  768MPD2    H311343   0.075   3.439  10.556  0.7630 -0.4422 -0.9466
  768MPD2     N11344   0.186   3.366  10.977 -0.0742  0.5870 -0.0668
  768MPD2    H511345   0.278   3.391  10.941  0.6501 -1.3405  0.4435
  768MPD2    N111346   4.451   3.331  10.854 -0.0939 -0.0888  0.2564
  768MPD2    H711347   4.433   3.308  10.951  0.0981 -0.4645  0.2035
  769MPD2     C11348   0.755   2.024  14.849  0.1489 -0.3548  0.2148
  769MPD2    C111349   0.786   1.903  14.919  0.6143  0.4680 -0.2374
  769MPD2    C211350   0.830   1.916  15.051 -0.0510 -0.2567  0.7375
  769MPD2    C311351   0.831   2.038  15.115  0.5125  0.1591 -0.0750
  769MPD2    C411352   0.788   2.154  15.051 -0.2777 -0.3437 -0.2560
  769MPD2    C511353   0.751   2.143  14.921  0.2215 -0.7843  0.0661
  769MPD2     H11354   0.854   1.827  15.108 -2.5005 -2.6701 -2.0228
  769MPD2    H111355   0.776   2.254  15.093 -2.6705 -0.2027 -1.2816
  769MPD2    H211356   0.736   2.025  14.742 -0.6576  0.4645  0.3623
  769MPD2    H311357   0.717   2.235  14.874  0.6175 -0.9401 -0.5287
  769MPD2     N11358   0.889   2.044  15.243 -0.3078 -0.0752  0.1497
  769MPD2    H511359   0.880   1.955  15.291 -2.5973  0.5781  0.9156
  769MPD2    N111360   0.781   1.782  14.840 -0.1704 -0.5576 -0.0077
  769MPD2    H711361   0.746   1.789  14.745 -1.8739 -2.7787  0.4523
  770MPD2     C11362   1.030   0.818  15.220 -0.3210  0.1667 -1.0888
  770MPD2    C111363   0.894   0.816  15.191 -0.7657  0.4719  0.0061
  770MPD2    C211364   0.835   0.906  15.110  0.4405  0.0851  0.1871
  770MPD2    C311365   0.913   1.002  15.050 -0.3086 -0.2493 -0.1998
  770MPD2    C411366   1.049   1.000  15.085 -0.0496  0.6545 -0.7689
  770MPD2    C511367   1.106   0.926  15.187  0.0386 -0.2001 -0.2815
  770MPD2     H11368   0.728   0.918  15.095  0.9271  3.5690 -0.5895
  770MPD2    H111369   1.121   1.064  15.034  1.3647 -2.1544 -2.3183
  770MPD2    H211370   1.071   0.736  15.278 -3.2646 -0.2019  0.4363
  770MPD2    H311371   1.210   0.943  15.210  0.0135  0.9300 -1.0018
  770MPD2     N11372   0.852   1.104  14.964 -0.6356 -0.2310  0.2768
  770MPD2    H511373   0.751   1.098  14.955 -0.8408  0.4886  1.9828
  770MPD2    N111374   0.816   0.709  15.249 -0.1001  0.0035 -0.2310
  770MPD2    H711375   0.857   0.651  15.321 -1.2956  1.5592  1.7048
  771MPD2     C11376   1.810   4.417  13.905 -0.0462  0.3894  0.2975
  771MPD2    C111377   1.727   4.525  13.877  0.2206  0.4805 -0.5439
  771MPD2    C211378   1.626   4.503  13.782 -0.0588 -0.2013  0.3617
  771MPD2    C311379   1.606   4.379  13.721  0.3614 -0.7744 -0.7186
  771MPD2    C411380   1.690   4.274  13.751 -0.5212  0.2864  0.1492
  771MPD2    C511381   1.793   4.300  13.837  0.0039 -0.6184 -0.7574
  771MPD2     H11382   1.562   4.586  13.756 -0.6573 -0.8181 -0.1617
  771MPD2    H111383   1.685   4.184  13.692  2.0048  0.0299  0.2957
  771MPD2    H211384   1.882   4.421  13.986 -0.6726 -1.1548  0.9366
  771MPD2    H311385   1.865   4.220  13.850  1.1147  0.5940  0.5287
  771MPD2     N11386   1.498   4.372  13.635  0.4546  0.2057 -0.1644
  771MPD2    H511387   1.443   4.454  13.610  0.2441  0.5488  1.3746
  771MPD2    N111388   1.747   4.649  13.934 -0.0313  0.6514  0.5812
  771MPD2    H711389   1.683   4.724  13.910  1.3113  1.6539  0.1373
  772MPD2     C11390   1.360   0.519  14.050  0.3511  0.1592  0.8646
  772MPD2    C111391   1.396   0.380  14.040  0.7256  0.2603  0.1959
  772MPD2    C211392   1.296   0.287  14.047 -0.8306  0.1910  0.4393
  772MPD2    C311393   1.170   0.317  14.076  1.1750  0.3893 -0.1590
  772MPD2    C411394   1.129   0.451  14.082  0.2276  0.4469 -0.0901
  772MPD2    C511395   1.226   0.549  14.072  0.6522  0.6143  0.5673
  772MPD2     H11396   1.328   0.184  14.051 -0.3273  0.3458  0.5520
  772MPD2    H111397   1.025   0.473  14.104 -0.3539 -1.2289 -1.1445
  772MPD2    H211398   1.421   0.609  14.055 -0.3077  0.7251 -1.2026
  772MPD2    H311399   1.199   0.654  14.080  0.9580  0.5074  3.2410
  772MPD2     N11400   1.074   0.233  14.122  0.3348  0.8895 -0.0677
  772MPD2    H511401   0.982   0.275  14.136 -0.5257 -1.4206  1.1135
  772MPD2    N111402   1.525   0.326  14.041  0.0338 -0.0121 -0.2915
  772MPD2    H711403   1.522   0.230  14.010 -0.3987  0.0457 -0.4262
  773MPD2     C11404   0.485   1.061   0.374 -0.3680 -0.1564 -0.2186
  773MPD2    C111405   0.484   0.942   0.294  0.0204 -0.1839 -0.6900
  773MPD2    C211406   0.510   0.821   0.363 -0.0278  0.1661 -0.1580
  773MPD2    C311407   0.544   0.821   0.496 -0.1010  0.3847 -0.1880
  773MPD2    C411408   0.548   0.939   0.564  0.1763 -0.5132  1.1211
  773MPD2    C511409   0.518   1.051   0.503  0.3780 -0.6704 -0.4365
  773MPD2     H11410   0.513   0.724   0.314 -0.1046 -0.0417  0.2506
  773MPD2    H111411   0.576   0.941   0.669 -0.6544 -0.7016  1.3438
  773MPD2    H211412   0.452   1.158   0.339 -1.4528 -1.6275 -3.3003
  773MPD2    H311413   0.522   1.135   0.571 -0.1224  0.9168 -2.3686
  773MPD2     N11414   0.587   0.704   0.559  0.3509 -0.2591 -0.1662
  773MPD2    H511415   0.599   0.621   0.501 -0.6056 -1.2280  1.0196
  773MPD2    N111416   0.442   0.938   0.161  0.1980  0.3458 -0.2642
  773MPD2    H711417   0.427   0.850   0.114 -1.5206  0.4459  0.0940
  774MPD2     C11418   0.313   0.176  13.187 -0.8841 -0.0672  0.3232
  774MPD2    C111419   0.279   0.249  13.300  0.9027 -0.2646 -0.3976
  774MPD2    C211420   0.338   0.369  13.322 -0.0646  0.7320  0.2242
  774MPD2    C311421   0.427   0.424  13.222  0.5124 -0.6668 -0.6158
  774MPD2    C411422   0.452   0.356  13.102 -0.2673  0.0559 -0.5655
  774MPD2    C511423   0.401   0.230  13.102 -0.2987 -0.1313 -0.5852
  774MPD2     H11424   0.311   0.425  13.411 -0.5114  2.5086 -1.0335
  774MPD2    H111425   0.511   0.397  13.021 -0.4428 -1.1300 -1.2912
  774MPD2    H211426   0.271   0.078  13.166 -2.0119  0.8042 -1.5217
  774MPD2    H311427   0.418   0.183  13.006 -2.1847 -1.5416 -0.2245
  774MPD2     N11428   0.452   0.561  13.227  0.3455 -0.6509  0.0463
  774MPD2    H511429   0.430   0.609  13.314  0.6746  0.4204 -0.4521
  774MPD2    N111430   0.183   0.189  13.385  0.0806 -0.0138  0.3680
  774MPD2    H711431   0.151   0.099  13.350  0.2100  0.1662 -0.2194
  775MPD2     C11432   1.298   1.616  15.890  0.3037  0.3555 -0.0056
  775MPD2    C111433   1.222   1.729  15.897  0.2302  1.2518 -0.2500
  775MPD2    C211434   1.280   1.850  15.868  0.8794  0.3383  0.5151
  775MPD2    C311435   1.411   1.852  15.831 -0.1209 -0.0897 -0.1316
  775MPD2    C411436   1.485   1.733  15.819  0.5546  0.1382 -0.1237
  775MPD2    C511437   1.427   1.614  15.854 -0.5259  0.0256 -0.5444
  775MPD2     H11438   1.220   1.940  15.878  2.3299  1.0468  2.8243
  775MPD2    H111439   1.591   1.736  15.799  0.3002  1.6646 -1.2349
  775MPD2    H211440   1.265   1.520  15.929  0.3872  0.7048  0.9233
  775MPD2    H311441   1.483   1.522  15.868 -0.8628  0.2123  1.9094
  775MPD2     N11442   1.487   1.979  15.810  0.1453 -0.1290  0.1018
  775MPD2    H511443   1.585   1.961  15.791  0.4260  0.9910  0.4833
  775MPD2    N111444   1.089   1.730  15.947  0.0259 -0.4852  0.1225
  775MPD2    H711445   1.041   1.819  15.950  2.1664  0.6593  0.4712
  776MPD2     C11446   0.353   1.624  12.131 -0.1675  0.0157 -0.1223
  776MPD2    C111447   0.473   1.620  12.066  0.8181 -0.4439  1.1021
  776MPD2    C211448   0.526   1.734  12.018  0.2485 -0.1165 -0.1220
  776MPD2    C311449   0.458   1.851  12.034  0.7123 -0.2809  0.0655
  776MPD2    C411450   0.338   1.862  12.100  0.5937 -0.1859 -0.0574
  776MPD2    C511451   0.289   1.747  12.152 -0.7592 -0.7029  0.2083
  776MPD2     H11452   0.619   1.738  11.963  0.2740  0.1882 -0.0575
  776MPD2    H111453   0.278   1.953  12.098  0.0376 -0.4887  2.9955
  776MPD2    H211454   0.309   1.536  12.176  1.9915  0.5786  3.0772
  776MPD2    H311455   0.190   1.749  12.195  0.0992 -1.9403  2.2427
  776MPD2     N11456   0.510   1.965  11.965 -0.1648 -0.3371  0.3906
  776MPD2    H511457   0.454   2.047  11.984  0.2705  0.2050 -0.6437
  776MPD2    N111458   0.525   1.494  12.035 -0.8026  0.3919 -0.1188
  776MPD2    H711459   0.475   1.412  12.069  1.3012 -0.6943  0.3570
  777MPD2     C11460   0.028   3.732   0.936  0.3120 -0.2530 -0.2694
  777MPD2    C111461   4.642   3.766   1.009  0.1051  0.3505  0.2830
  777MPD2    C211462   4.530   3.692   0.990 -0.4343 -0.0255  0.1757
  777MPD2    C311463   4.523   3.605   0.885  0.0714 -0.2559  0.4358
  777MPD2    C411464   4.629   3.572   0.811 -0.4635 -0.3213  0.4269
  777MPD2    C511465   0.024   3.630   0.843 -0.0029 -0.1319 -0.4269
  777MPD2     H11466   4.440   3.719   1.044  0.1788  1.6106  0.3945
  777MPD2    H111467   4.637   3.495   0.735 -0.8894  1.0818 -1.0361
  777MPD2    H211468   0.124   3.773   0.962  0.7353  0.7350 -3.4129
  777MPD2    H311469   0.119   3.609   0.795  1.3170  1.9849  1.2764
  777MPD2     N11470   4.395   3.541   0.863 -0.4307  0.3032 -0.6520
  777MPD2    H511471   4.323   3.543   0.935  2.1014  0.3895  1.8505
  777MPD2    N111472   4.648   3.876   1.101  0.6190 -0.3064 -0.1502
  777MPD2    H711473   0.013   3.920   1.114 -0.3609  0.8932  2.4990
  778MPD2     C11474   2.008   4.571  15.275 -0.4864 -0.3065  0.5196
  778MPD2    C111475   1.941   4.534  15.159  0.3372  0.5807 -0.1565
  778MPD2    C211476   1.987   4.585  15.043 -0.2332 -0.2247  0.0806
  778MPD2    C311477   2.098   4.663  15.035 -0.5297 -0.4095 -0.1742
  778MPD2    C411478   2.162   4.708  15.147 -0.5942 -0.8944 -0.2165
  778MPD2    C511479   2.117   4.656  15.270 -0.3017  0.0889 -0.0694
  778MPD2     H11480   1.942   4.547  14.953  1.6667 -2.0576 -0.1098
  778MPD2    H111481   2.246   0.050  15.150  0.6795 -2.4051 -1.9400
  778MPD2    H211482   1.979   4.536  15.373  3.8221 -0.0458  1.9239
  778MPD2    H311483   2.155   4.689  15.366  1.0480 -0.1149 -0.5329
  778MPD2     N11484   2.145   4.707  14.911  0.0224 -0.4801  0.0288
  778MPD2    H511485   2.096   4.668  14.831  1.5010 -3.2668  0.4889
  778MPD2    N111486   1.823   4.454  15.159  0.0853 -0.1188 -0.2766
  778MPD2    H711487   1.775   4.436  15.071 -0.1071  0.5955 -0.3197
  779MPD2     C11488   1.427   3.581  14.299  0.3978  0.2009  0.2017
  779MPD2    C111489   1.543   3.573  14.370 -1.0689 -0.2205 -0.4971
  779MPD2    C211490   1.628   3.683  14.355 -0.5949 -1.0449  0.3765
  779MPD2    C311491   1.585   3.799  14.291 -0.0142  0.2360 -0.8951
  779MPD2    C411492   1.472   3.797  14.216 -0.1960 -0.2620 -0.0124
  779MPD2    C511493   1.390   3.688  14.219  0.2567  0.6916 -0.2356
  779MPD2     H11494   1.723   3.676  14.407 -1.2892 -1.3802  1.6093
  779MPD2    H111495   1.447   3.882  14.153  0.1469  0.2916  0.5930
  779MPD2    H211496   1.355   3.501  14.302  0.9150 -0.2341  0.9217
  779MPD2    H311497   1.298   3.680  14.163 -0.4403 -0.2669  1.0305
  779MPD2     N11498   1.655   3.924  14.301  0.5386 -0.1646 -0.7965
  779MPD2    H511499   1.751   3.919  14.335  0.7266  0.3431 -1.2438
  779MPD2    N111500   1.579   3.458  14.444  0.1231  0.0208 -0.4515
  779MPD2    H711501   1.675   3.452  14.478 -1.4024  1.7918  4.0406
  780MPD2     C11502   0.209   3.345   0.650  0.2366  0.5575 -0.0278
  780MPD2    C111503   0.189   3.245   0.561  0.3260 -0.5359  0.1016
  780MPD2    C211504   0.244   3.254   0.430  0.0339 -0.2220  0.4222
  780MPD2    C311505   0.321   3.366   0.402  0.3199  0.5922 -0.3576
  780MPD2    C411506   0.339   3.462   0.491  0.1598 -0.4255 -0.2184
  780MPD2    C511507   0.287   3.449   0.618  1.0188 -0.1590  0.1303
  780MPD2     H11508   0.252   3.173   0.359 -0.2489  0.2395 -0.1343
  780MPD2    H111509   0.413   3.541   0.486  0.7340 -0.8546  1.3356
  780MPD2    H211510   0.156   3.340   0.745  1.0646  0.6754  0.4396
  780MPD2    H311511   0.297   3.521   0.699  1.8243 -1.8930  1.5822
  780MPD2     N11512   0.385   3.373   0.277  0.0474 -0.5185  0.1867
  780MPD2    H511513   0.375   3.290   0.219 -0.2466  0.2871 -0.9211
  780MPD2    N111514   0.114   3.133   0.601 -0.1062  1.0539  0.5314
  780MPD2    H711515   0.078   3.124   0.696  1.2571  0.3121  0.9834
  781MPD2     C11516   2.794   4.422  12.577 -0.5411 -0.3533 -0.2966
  781MPD2    C111517   2.779   4.555  12.548  0.2369 -0.7176 -0.5612
  781MPD2    C211518   2.761   4.593  12.415 -0.1061  0.3348  0.6213
  781MPD2    C311519   2.767   4.500  12.314 -0.0686 -0.0561 -0.1306
  781MPD2    C411520   2.765   4.369  12.347 -0.0362  0.3436 -0.0262
  781MPD2    C511521   2.787   4.329  12.477  0.3634  0.5235 -0.2864
  781MPD2     H11522   2.749   4.698  12.391 -0.4343 -0.0550 -0.9345
  781MPD2    H111523   2.766   4.289  12.273  0.1254 -2.3037  2.8138
  781MPD2    H211524   2.807   4.383  12.678  2.4265 -0.0541 -0.5843
  781MPD2    H311525   2.803   4.225  12.501  1.1986  0.9373  0.9314
  781MPD2     N11526   2.771   4.532  12.181  0.2191  0.4549 -0.4187
  781MPD2    H511527   2.756   4.457  12.114  2.8996  1.7502 -2.4524
  781MPD2    N111528   2.783   4.652  12.648 -0.1019 -0.0433 -0.3642
  781MPD2    H711529   2.784   0.024  12.623 -0.3817  0.5902  2.1504
  782MPD2     C11530   1.137   1.016   9.975 -0.2341  0.1384 -0.7321
  782MPD2    C111531   1.151   0.922  10.072 -1.1002 -0.5544 -0.2900
  782MPD2    C211532   1.198   0.969  10.194 -0.6620  0.7605  0.6665
  782MPD2    C311533   1.246   1.101  10.211  0.1790  0.6695 -0.8860
  782MPD2    C411534   1.222   1.193  10.109 -0.1736  0.2627 -0.8204
  782MPD2    C511535   1.167   1.151   9.992  0.6492 -0.2546  0.1158
  782MPD2     H11536   1.218   0.904  10.278  0.9323  0.4200  0.0090
  782MPD2    H111537   1.234   1.301  10.118  3.5511  0.1633 -4.5221
  782MPD2    H211538   1.098   0.974   9.884  0.2645  1.2557 -1.4550
  782MPD2    H311539   1.150   1.221   9.911  1.0447 -0.6115 -0.2722
  782MPD2     N11540   1.308   1.143  10.331  0.3020 -0.0857  0.3097
  782MPD2    H511541   1.330   1.076  10.404  2.5583 -0.7489 -0.9946
  782MPD2    N111542   1.139   0.786  10.057  0.2062  0.3447  0.4763
  782MPD2    H711543   1.162   0.732  10.140 -0.5427 -0.6956  0.0066
  783MPD2     C11544   0.323   0.620  10.444  0.6275 -0.0425 -0.1917
  783MPD2    C111545   0.432   0.599  10.525 -0.0980 -0.5358 -0.1361
  783MPD2    C211546   0.557   0.564  10.475  0.2597  0.2776  0.5073
  783MPD2    C311547   0.562   0.555  10.340  0.3071 -0.7297  0.2377
  783MPD2    C411548   0.453   0.563  10.259 -0.0779  0.3181 -0.0645
  783MPD2    C511549   0.334   0.593  10.307 -0.4526 -0.3685 -0.1955
  783MPD2     H11550   0.642   0.543  10.538 -0.0315 -1.8302  0.1832
  783MPD2    H111551   0.461   0.548  10.152 -1.8135  0.6753 -0.2413
  783MPD2    H211552   0.230   0.659  10.483  1.2655 -0.3789  1.6621
  783MPD2    H311553   0.249   0.608  10.242 -1.3084 -1.6637  0.6267
  783MPD2     N11554   0.689   0.529  10.292  0.0694 -0.3928  0.3300
  783MPD2    H511555   0.768   0.538  10.356 -0.9695  2.0529  1.2891
  783MPD2    N111556   0.419   0.628  10.662 -0.1198  0.4293  0.0641
  783MPD2    H711557   0.328   0.664  10.691 -0.2366 -0.7919  1.2124
  784MPD2     C11558   2.589   1.325   1.277  0.0731 -0.2212  0.7006
  784MPD2    C111559   2.647   1.450   1.290 -0.3117  0.1290  0.5011
  784MPD2    C211560   2.582   1.560   1.240  0.4696 -0.2417  0.2188
  784MPD2    C311561   2.466   1.549   1.171 -0.0856 -0.2609  0.3361
  784MPD2    C411562   2.414   1.423   1.144 -0.1095  0.0374  0.1441
  784MPD2    C511563   2.487   1.315   1.187 -0.4380  0.9262 -0.9559
  784MPD2     H11564   2.620   1.661   1.250 -0.8547  0.2995 -0.1434
  784MPD2    H111565   2.327   1.407   1.082 -0.0477  0.4578 -0.0550
  784MPD2    H211566   2.619   1.241   1.339 -1.1818 -1.1515  0.0582
  784MPD2    H311567   2.442   1.223   1.154 -1.0050 -0.2234  3.0448
  784MPD2     N11568   2.395   1.665   1.142  0.3352 -0.0982  0.0480
  784MPD2    H511569   2.421   1.742   1.203  3.7746 -0.2828 -1.1813
  784MPD2    N111570   2.764   1.469   1.365 -0.2442 -0.4597  0.0431
  784MPD2    H711571   2.780   1.562   1.403  1.5874 -1.2426  1.1654
  785MPD2     C11572   3.200   4.190  10.772 -0.1255 -0.0159  0.0601
  785MPD2    C111573   3.119   4.207  10.871  0.8096 -0.1485  0.0979
  785MPD2    C211574   3.023   4.109  10.891 -0.4616 -0.1678 -0.4357
  785MPD2    C311575   3.004   4.000  10.802 -0.3516  0.5390  0.0326
  785MPD2    C411576   3.090   3.988  10.697 -0.0150 -0.8502  0.3987
  785MPD2    C511577   3.188   4.083  10.683  0.1346  0.5416 -0.1673
  785MPD2     H11578   2.962   4.124  10.979  2.1154  1.8899  0.9851
  785MPD2    H111579   3.074   3.903  10.632  1.0543 -1.0308  0.3816
  785MPD2    H211580   3.280   4.257  10.740 -2.1450  2.5598  0.3655
  785MPD2    H311581   3.256   4.082  10.599 -0.5628  0.0211 -0.7322
  785MPD2     N11582   2.888   3.928  10.834  0.5064 -0.5226  0.1956
  785MPD2    H511583   2.835   3.949  10.918  0.1647  0.7807 -0.3354
  785MPD2    N111584   3.123   4.317  10.951 -0.9606 -0.4991 -0.7803
  785MPD2    H711585   3.043   4.335  11.011 -1.0966 -2.3233 -0.4154
  786MPD2     C11586   1.722   2.843  14.775 -0.1342 -0.3136  0.3111
  786MPD2    C111587   1.841   2.771  14.769  0.0556 -0.5958  0.2393
  786MPD2    C211588   1.933   2.783  14.872  0.3062  0.4710 -0.1471
  786MPD2    C311589   1.905   2.865  14.975  0.0130  0.1085 -0.6388
  786MPD2    C411590   1.789   2.941  14.983 -0.3015 -0.8612  0.4413
  786MPD2    C511591   1.701   2.929  14.875  0.0030 -0.5253 -0.5702
  786MPD2     H11592   2.025   2.727  14.858 -0.9489 -1.4876 -0.5876
  786MPD2    H111593   1.766   3.004  15.068 -0.4063 -0.1409 -0.1244
  786MPD2    H211594   1.652   2.844  14.691  0.6894  0.0400 -0.3739
  786MPD2    H311595   1.615   2.992  14.856  0.2666  0.1190  0.4079
  786MPD2     N11596   1.980   2.866  15.096  0.9525 -0.1362 -0.2232
  786MPD2    H511597   1.938   2.923  15.169 -0.8797 -0.8500 -0.7054
  786MPD2    N111598   1.873   2.691  14.658  0.4063 -0.3027  0.8337
  786MPD2    H711599   1.962   2.645  14.650 -0.7443 -2.1615 -1.2838
  787MPD2     C11600   1.915   2.141  14.869  0.5343 -0.5278 -0.0586
  787MPD2    C111601   1.994   2.148  14.756 -0.0150  0.0528 -0.7009
  787MPD2    C211602   2.125   2.102  14.759 -0.4979  0.8259 -0.3547
  787MPD2    C311603   2.175   2.035  14.867 -0.0471  0.4079  0.1907
  787MPD2    C411604   2.086   2.007  14.973 -0.2583 -0.6369  0.4050
  787MPD2    C511605   1.959   2.065  14.974 -0.2715  0.1599  0.1048
  787MPD2     H11606   2.186   2.122  14.672 -1.0209  0.8659 -0.7134
  787MPD2    H111607   2.113   1.944  15.057  1.3933 -2.0541 -1.1834
  787MPD2    H211608   1.813   2.176  14.867  0.4741 -0.6908  0.2695
  787MPD2    H311609   1.886   2.054  15.054 -0.0674  0.5913  0.3449
  787MPD2     N11610   2.312   1.991  14.875 -0.3398  0.6169  0.2069
  787MPD2    H511611   2.375   2.020  14.800 -0.0856  1.1057  0.6077
  787MPD2    N111612   1.945   2.228  14.652  0.4524  0.0476  0.4269
  787MPD2    H711613   1.853   2.269  14.663 -0.0807 -0.8943 -0.5456
  788MPD2     C11614   3.687   0.952   1.070  0.2020 -0.0431  0.1404
  788MPD2    C111615   3.701   0.861   0.968  0.0216  0.0491  0.0974
  788MPD2    C211616   3.820   0.869   0.891  0.2207  0.3706 -0.1271
  788MPD2    C311617   3.907   0.984   0.906  0.3234 -0.0292  0.2918
  788MPD2    C411618   3.872   1.081   0.995 -0.4518  0.4037  0.5399
  788MPD2    C511619   3.769   1.060   1.083 -0.7756 -0.6134 -0.4932
  788MPD2     H11620   3.840   0.797   0.812  2.7673  0.5481  0.3628
  788MPD2    H111621   3.930   1.173   1.002  0.0976  0.1056 -0.1408
  788MPD2    H211622   3.604   0.946   1.141  0.4321 -1.2511  0.3100
  788MPD2    H311623   3.749   1.134   1.159 -1.1822 -0.8195 -0.3967
  788MPD2     N11624   4.016   1.011   0.822 -0.1552  0.1255 -0.3622
  788MPD2    H511625   4.071   1.094   0.838  0.5322 -0.5606  0.8103
  788MPD2    N111626   3.616   0.752   0.950 -0.7876  0.1093 -0.1086
  788MPD2    H711627   3.658   0.681   0.890  0.9967 -1.7202  3.3223
  789MPD2     C11628   4.063   0.204  16.145 -0.8520 -0.5142 -0.2872
  789MPD2    C111629   4.011   0.162  16.271  0.4566  0.4559 -0.0279
  789MPD2    C211630   3.923   0.247  16.341 -0.8168  0.4708 -0.3360
  789MPD2    C311631   3.882   0.365  16.281 -0.6116 -0.5456 -0.8703
  789MPD2    C411632   3.942   0.409  16.169  0.6752 -0.6459 -0.0865
  789MPD2    C511633   4.037   0.328  16.097 -0.1098  0.2914  0.0010
  789MPD2     H11634   3.877   0.214  16.434 -0.6363 -0.2850 -0.5159
  789MPD2    H111635   3.910   0.497  16.115  5.2037  0.2854 -1.2467
  789MPD2    H211636   4.130   0.138  16.091 -0.1690 -1.3458  1.5773
  789MPD2    H311637   4.075   0.351  15.998 -0.6363 -0.5437 -0.3860
  789MPD2     N11638   3.790   0.457  16.341 -0.7594 -0.0665 -0.1992
  789MPD2    H511639   3.780   0.545  16.291  3.2192  0.1838 -0.4903
  789MPD2    N111640   4.038   0.029  16.325 -0.1499  0.6955 -0.5470
  789MPD2    H711641   4.001   0.007  16.417 -2.3336  1.2080 -1.2978
  790MPD2     C11642   0.719   2.867  13.310  0.1349 -0.3418 -0.1949
  790MPD2    C111643   0.674   2.761  13.378 -0.3345  0.2069 -0.0363
  790MPD2    C211644   0.622   2.654  13.309 -0.2457 -0.0260 -0.2614
  790MPD2    C311645   0.602   2.665  13.175  0.4794  0.0169  0.2495
  790MPD2    C411646   0.631   2.782  13.108 -0.8463  0.3401  0.9463
  790MPD2    C511647   0.700   2.871  13.178 -0.2385 -0.4656  0.2221
  790MPD2     H11648   0.597   2.558  13.354  4.7690 -0.7556  0.9465
  790MPD2    H111649   0.637   2.799  13.001  0.7400 -1.3018  0.7486
  790MPD2    H211650   0.755   2.957  13.358  0.4311  1.4530 -3.8200
  790MPD2    H311651   0.742   2.964  13.141 -0.3285 -0.4609  0.1306
  790MPD2     N11652   0.563   2.548  13.104  0.1313 -0.0772 -0.1103
  790MPD2    H511653   0.567   2.459  13.152 -1.5716 -1.2793 -2.2151
  790MPD2    N111654   0.692   2.767  13.510  0.4499  0.1154 -0.0891
  790MPD2    H711655   0.721   2.858  13.544  0.7800  0.3765 -1.0711
  791MPD2     C11656   4.655   2.374  12.819  0.1161  0.5630  0.0274
  791MPD2    C111657   0.013   2.270  12.788  0.0083 -0.5690 -0.4872
  791MPD2    C211658   4.682   2.144  12.744  0.4468 -0.9807 -0.3887
  791MPD2    C311659   4.549   2.137  12.729  0.5830 -0.3365 -0.1901
  791MPD2    C411660   4.464   2.250  12.750 -0.2471 -0.0695 -0.9275
  791MPD2    C511661   4.518   2.364  12.806  0.5664  0.3413  0.2944
  791MPD2     H11662   0.022   2.060  12.729  0.3707 -1.3397  1.2753
  791MPD2    H111663   4.358   2.244  12.724  0.1891  2.0952 -3.2723
  791MPD2    H211664   4.688   2.471  12.856 -1.2108  0.9493  0.2098
  791MPD2    H311665   4.451   2.445  12.832  1.0966  1.0147 -0.4458
  791MPD2     N11666   4.489   2.016  12.675 -0.3690 -0.1352  0.0404
  791MPD2    H511667   4.553   1.945  12.642  0.1617  0.8280 -0.9933
  791MPD2    N111668   0.156   2.291  12.793  0.6824  0.3285  0.1403
  791MPD2    H711669   0.183   2.388  12.789  0.5175  0.4382  1.5320
  792MPD2     C11670   0.360   1.364  11.405  0.3371 -0.0075  0.3927
  792MPD2    C111671   0.478   1.394  11.338 -0.4361  0.9787 -0.1774
  792MPD2    C211672   0.518   1.327  11.224 -0.3033  0.7805  0.4140
  792MPD2    C311673   0.422   1.243  11.169  0.3716  0.2227 -0.1231
  792MPD2    C411674   0.300   1.227  11.226  0.3229 -0.3538  0.2452
  792MPD2    C511675   0.269   1.285  11.350 -0.7584 -0.4101 -0.8415
  792MPD2     H11676   0.614   1.348  11.177 -0.8452 -0.1547 -1.1214
  792MPD2    H111677   0.218   1.165  11.192  0.4914 -1.2811  1.5129
  792MPD2    H211678   0.337   1.402  11.504  0.4121  0.4768  0.2233
  792MPD2    H311679   0.170   1.280  11.394 -0.6564 -0.5835 -0.6257
  792MPD2     N11680   0.438   1.183  11.049 -0.2757 -0.3972 -0.5243
  792MPD2    H511681   0.358   1.132  11.013 -1.4646  0.2231  1.2706
  792MPD2    N111682   0.557   1.503  11.384  0.7860 -0.0657  0.8903
  792MPD2    H711683   0.636   1.523  11.324  0.6066  1.1445  1.0527
  793MPD2     C11684   0.136   0.899  10.150  0.3375 -0.7390 -0.4093
  793MPD2    C111685   0.233   0.996  10.163  0.0156  0.7142  0.6041
  793MPD2    C211686   0.266   1.037  10.288 -0.2372  0.8766 -0.5203
  793MPD2    C311687   0.217   0.974  10.401  0.4339 -0.2693 -0.0967
  793MPD2    C411688   0.117   0.879  10.385  0.1940  0.4618 -0.2132
  793MPD2    C511689   0.080   0.840  10.255  0.2220 -0.3700  0.6760
  793MPD2     H11690   0.336   1.117  10.302  2.3612 -1.4502 -0.1775
  793MPD2    H111691   0.071   0.829  10.469  3.2395  1.9335  2.3436
  793MPD2    H211692   0.099   0.860  10.056 -0.5595  0.0852 -0.3967
  793MPD2    H311693   0.014   0.757  10.232 -1.3642  1.1035 -0.0037
  793MPD2     N11694   0.272   1.015  10.519  0.3017  0.7644  0.0320
  793MPD2    H511695   0.342   1.088  10.510  0.8855 -0.1464 -2.7246
  793MPD2    N111696   0.298   1.067  10.057 -0.5255 -0.1355  0.2574
  793MPD2    H711697   0.355   1.146  10.086 -1.9230  0.7061  0.7091
  794MPD2     C11698   0.050   1.437  17.305 -0.4285  0.1420  0.2625
  794MPD2    C111699   0.059   1.315  17.240  0.1773  0.0255 -0.0535
  794MPD2    C211700   0.012   1.302  17.108  0.2199 -0.2826 -0.1729
  794MPD2    C311701   4.673   1.418  17.052  0.0375  0.1095 -0.1363
  794MPD2    C411702   4.661   1.528  17.122  0.5323 -0.1878  0.0331
  794MPD2    C511703   4.712   1.536  17.246 -0.0582 -0.0031 -0.8492
  794MPD2     H11704   0.017   1.206  17.057 -0.6041 -0.4633  0.0727
  794MPD2    H111705   4.625   1.616  17.070  1.8544 -0.9951 -2.2554
  794MPD2    H211706   0.093   1.437  17.405  0.4591 -1.7408 -0.1014
  794MPD2    H311707   4.708   1.631  17.297  1.0968  0.0083 -0.7895
  794MPD2     N11708   4.628   1.437  16.918 -0.1909 -0.1313  0.3204
  794MPD2    H511709   4.603   1.531  16.892  1.6287  0.2340 -0.0826
  794MPD2    N111710   0.121   1.206  17.297  0.0352 -0.1099  0.6873
  794MPD2    H711711   0.100   1.119  17.248 -1.9291 -0.3621  1.9663
  795MPD2     C11712   2.700   3.777  13.942 -1.0468  0.5964 -0.2682
  795MPD2    C111713   2.627   3.679  13.880  0.2933  0.8241 -0.1175
  795MPD2    C211714   2.688   3.551  13.870  0.8295  0.3393 -0.2424
  795MPD2    C311715   2.817   3.537  13.915  0.3073  0.0626 -0.0470
  795MPD2    C411716   2.889   3.632  13.979  0.0209 -0.5443  0.4211
  795MPD2    C511717   2.830   3.756  13.989 -0.4630 -0.1516  0.5728
  795MPD2     H11718   2.638   3.458  13.842  0.1391  1.2371 -1.9839
  795MPD2    H111719   2.994   3.620  14.001  0.4033  0.6480 -0.7895
  795MPD2    H211720   2.661   3.878  13.950 -1.6051  0.3024  0.6281
  795MPD2    H311721   2.875   3.846  14.029  0.2549 -0.7964  1.1983
  795MPD2     N11722   2.860   3.404  13.898 -0.7027  0.0951  1.0074
  795MPD2    H511723   2.800   3.338  13.849  0.4757  0.1110 -0.4651
  795MPD2    N111724   2.498   3.694  13.831 -0.1660 -0.0219  0.9265
  795MPD2    H711725   2.461   3.609  13.791  0.5116  0.0995  0.0578
  796MPD2     C11726   2.337   0.401  15.974 -0.7522 -0.4855 -0.5815
  796MPD2    C111727   2.315   0.467  16.092 -0.2789 -0.3898  0.6884
  796MPD2    C211728   2.276   0.602  16.086 -0.0753  0.3826 -0.3770
  796MPD2    C311729   2.249   0.665  15.967  0.0815 -0.3750 -0.4217
  796MPD2    C411730   2.274   0.592  15.855  0.7240 -0.3256  0.2028
  796MPD2    C511731   2.318   0.465  15.853 -0.4113  0.2631 -0.9232
  796MPD2     H11732   2.261   0.648  16.184 -1.6821 -2.8467  0.8770
  796MPD2    H111733   2.270   0.634  15.756 -0.2472 -0.6366  0.1041
  796MPD2    H211734   2.359   0.295  15.972  0.7562 -0.1780 -0.1076
  796MPD2    H311735   2.345   0.417  15.760 -0.5464 -2.5479  0.4890
  796MPD2     N11736   2.190   0.801  15.968 -0.6612 -0.5242  0.4891
  796MPD2    H511737   2.197   0.851  16.056  1.1311 -1.8076  1.0860
  796MPD2    N111738   2.336   0.397  16.209 -0.1669  0.2120  0.8696
  796MPD2    H711739   2.364   0.302  16.187  1.3437  0.7092  0.6403
  797MPD2     C11740   2.944   4.689  17.556 -0.7156 -0.3978 -0.0014
  797MPD2    C111741   2.970   0.062  17.649 -0.9019 -0.2852 -0.2916
  797MPD2    C211742   2.883   0.168  17.660  0.3369  0.3809  0.0444
  797MPD2    C311743   2.769   0.185  17.580 -0.4371 -0.3517  0.3178
  797MPD2    C411744   2.744   0.087  17.489 -0.7783 -0.2185 -0.3614
  797MPD2    C511745   2.826   4.707  17.485  0.4581  0.1543 -0.2777
  797MPD2     H11746   2.907   0.254   0.016 -0.1701 -0.2609  1.1314
  797MPD2    H111747   2.651   0.084  17.434 -1.1032  1.2882  0.1072
  797MPD2    H211748   3.011   4.603  17.552  1.1842  1.1150 -0.4595
  797MPD2    H311749   2.810   4.628  17.412 -2.7032 -0.7076  1.3554
  797MPD2     N11750   2.706   0.312  17.561 -0.0913 -0.1269  0.7157
  797MPD2    H511751   2.667   0.324  17.468  1.1637 -2.1038 -0.0649
  797MPD2    N111752   3.089   0.066   0.014 -0.2597  0.2037  0.0702
  797MPD2    H711753   3.095   0.131   0.091  2.2779  2.8679 -2.3547
  798MPD2     C11754   3.039   0.756   0.316 -0.0406 -0.0922  0.0740
  798MPD2    C111755   3.033   0.700   0.195 -0.3676  0.2294  0.2197
  798MPD2    C211756   3.126   0.602   0.152 -0.3006 -0.4985 -1.2000
  798MPD2    C311757   3.221   0.560   0.245  0.8712  0.1741  0.3214
  798MPD2    C411758   3.212   0.598   0.376 -0.4943 -0.5170  0.8618
  798MPD2    C511759   3.128   0.708   0.399 -0.1876 -0.0600  1.3307
  798MPD2     H11760   3.129   0.572   0.048  0.9969 -1.3020 -0.9407
  798MPD2    H111761   3.288   0.565   0.446  1.4131  0.6735 -0.6581
  798MPD2    H211762   2.976   0.835   0.355  0.1201  0.3385 -0.5499
  798MPD2    H311763   3.133   0.754   0.497 -0.4458  1.6789  0.5347
  798MPD2     N11764   3.299   0.448   0.204 -0.1786 -0.2408 -0.6805
  798MPD2    H511765   3.288   0.407   0.112 -1.4573 -0.0181 -0.6340
  798MPD2    N111766   2.935   0.757   0.111 -0.5375 -0.2117  0.2189
  798MPD2    H711767   2.854   0.807   0.149  0.4053  1.6032 -0.1443
  799MPD2     C11768   2.280   1.905  14.295 -0.0574 -0.0047  0.1849
  799MPD2    C111769   2.147   1.881  14.321  0.1428 -0.0283  0.0483
  799MPD2    C211770   2.061   1.918  14.221 -0.2630  0.3692  0.0375
  799MPD2    C311771   2.105   1.985  14.110  0.1948  0.3959  0.8202
  799MPD2    C411772   2.235   2.024  14.100  0.1029 -0.2163 -0.2367
  799MPD2    C511773   2.321   1.974  14.186 -0.0111  0.1942  0.4704
  799MPD2     H11774   1.959   1.881  14.229 -0.5947  1.6028  1.5048
  799MPD2    H111775   2.273   2.084  14.018 -0.2911 -0.0913 -0.3277
  799MPD2    H211776   2.349   1.886  14.377 -0.3678 -0.8234  0.2627
  799MPD2    H311777   2.428   1.984  14.174  0.0643 -1.7658 -0.4537
  799MPD2     N11778   2.016   2.020  14.002  0.4078 -0.2775  0.2975
  799MPD2    H511779   2.065   2.062  13.923 -0.9055  2.0852  0.7181
  799MPD2    N111780   2.098   1.820  14.443 -0.0524 -0.8096  0.1573
  799MPD2    H711781   1.998   1.810  14.456 -0.1283 -0.1047  0.1114
  800MPD2     C11782   2.115   2.902  14.287 -0.9563  0.4745 -0.1106
  800MPD2    C111783   2.213   2.810  14.256  0.7664 -0.2919 -0.4430
  800MPD2    C211784   2.179   2.713  14.165 -0.1214 -0.5704  0.3422
  800MPD2    C311785   2.058   2.734  14.095  0.2339 -0.1471 -0.1228
  800MPD2    C411786   1.960   2.826  14.133  0.2854 -0.3215  0.0066
  800MPD2    C511787   1.990   2.908  14.231 -0.2493  0.0517 -0.0060
  800MPD2     H11788   2.244   2.634  14.130 -2.4664 -3.3021  2.1322
  800MPD2    H111789   1.867   2.839  14.079 -0.1801 -2.9344  0.1788
  800MPD2    H211790   2.147   2.978  14.358  1.2532 -0.2125 -0.4014
  800MPD2    H311791   1.925   2.993  14.244 -2.7798 -1.8240 -0.5635
  800MPD2     N11792   2.046   2.664  13.970  0.2003  0.0129  1.2182
  800MPD2    H511793   2.114   2.590  13.963  2.9364  2.8447 -1.8823
  800MPD2    N111794   2.343   2.828  14.311 -0.4547  0.1952  0.1811
  800MPD2    H711795   2.357   2.905  14.375  3.6816  1.6200 -2.4362
  801MPD2     C11796   2.542   3.396  14.161  0.5419  0.2873  0.1037
  801MPD2    C111797   2.634   3.339  14.252 -0.0733 -0.0218  0.4119
  801MPD2    C211798   2.685   3.425  14.348  0.2470 -0.0839 -0.1175
  801MPD2    C311799   2.648   3.553  14.364  0.0476  0.0601  0.5030
  801MPD2    C411800   2.569   3.608  14.265  0.6988  0.0559  0.5161
  801MPD2    C511801   2.514   3.530  14.164  0.1262  0.3569 -0.0671
  801MPD2     H11802   2.750   3.373  14.416  1.2692 -0.5249 -1.4303
  801MPD2    H111803   2.543   3.714  14.267 -1.7199 -0.5792  1.9278
  801MPD2    H211804   2.491   3.333  14.089 -0.1353  0.1465  0.7068
  801MPD2    H311805   2.455   3.573  14.083  1.4072  1.8254 -0.2221
  801MPD2     N11806   2.686   3.641  14.475  0.7488 -0.3901 -0.0039
  801MPD2    H511807   2.638   3.731  14.474  1.2715 -0.1164 -1.0010
  801MPD2    N111808   2.661   3.203  14.243 -0.3081 -0.1970  0.0996
  801MPD2    H711809   2.599   3.155  14.178 -0.8925  1.5672 -0.6543
  802MPD2     C11810   1.864   3.595   0.486 -0.5459 -0.9979  0.3008
  802MPD2    C111811   1.874   3.692   0.392 -0.4057  0.3619  0.2561
  802MPD2    C211812   1.999   3.723   0.342  0.7781 -0.2702 -0.3466
  802MPD2    C311813   2.115   3.670   0.400 -0.0260  0.1875  0.7242
  802MPD2    C411814   2.098   3.574   0.496 -0.1513  0.6192 -0.1642
  802MPD2    C511815   1.974   3.529   0.535 -0.7166 -0.6099  0.1956
  802MPD2     H11816   2.004   3.795   0.261 -2.0103  0.6157  0.2941
  802MPD2    H111817   2.181   3.520   0.541  0.3104 -0.1042 -1.8773
  802MPD2    H211818   1.774   3.572   0.542 -0.1211 -0.1062  1.3574
  802MPD2    H311819   1.963   3.448   0.606 -1.7348 -1.8480 -1.3571
  802MPD2     N11820   2.231   3.722   0.358 -0.1564  0.0174  0.2641
  802MPD2    H511821   2.238   3.772   0.270 -1.8952  1.0341  0.6931
  802MPD2    N111822   1.769   3.772   0.357 -0.5447  0.7229 -0.4568
  802MPD2    H711823   1.786   3.856   0.303  0.7274  0.9625  0.3154
  803MPD2     C11824   3.396   1.788  11.562  0.3135 -0.0993 -0.2534
  803MPD2    C111825   3.478   1.790  11.670  0.1235  0.3832  0.2308
  803MPD2    C211826   3.438   1.720  11.784  0.2184  0.8393  0.0727
  803MPD2    C311827   3.323   1.641  11.780  0.5466 -0.0187 -0.0524
  803MPD2    C411828   3.242   1.645  11.668 -0.1230  0.1066 -0.3236
  803MPD2    C511829   3.272   1.721  11.561 -0.0404 -0.0354 -0.3302
  803MPD2     H11830   3.501   1.721  11.872 -1.2149  3.3014  1.0552
  803MPD2    H111831   3.142   1.603  11.674 -0.2575  0.4152 -0.3877
  803MPD2    H211832   3.408   1.856  11.479 -1.6598 -0.0023 -0.4702
  803MPD2    H311833   3.203   1.746  11.482 -2.8035 -0.5182  1.9312
  803MPD2     N11834   3.270   1.580  11.898 -0.2606 -0.1272  0.1736
  803MPD2    H511835   3.172   1.557  11.909 -0.6630  1.3031 -0.4294
  803MPD2    N111836   3.606   1.854  11.667  0.8123 -0.4875  0.0784
  803MPD2    H711837   3.651   1.862  11.757  1.5307 -2.4293 -0.0926
  804MPD2     C11838   2.768   3.469  17.061 -0.0928 -0.2748 -0.0127
  804MPD2    C111839   2.761   3.456  17.199 -0.6388 -0.6473 -0.7604
  804MPD2    C211840   2.813   3.550  17.283  0.4012 -0.2878  0.0812
  804MPD2    C311841   2.881   3.663  17.240 -0.2365  0.0509 -1.2075
  804MPD2    C411842   2.893   3.671  17.100 -0.3045 -0.1942 -0.0793
  804MPD2    C511843   2.827   3.585  17.017  0.7030  0.0945  0.2440
  804MPD2     H11844   2.807   3.540  17.391  1.4499 -0.3564  0.1290
  804MPD2    H111845   2.957   3.743  17.049 -3.0491  2.5439  0.3874
  804MPD2    H211846   2.732   3.403  16.982  0.5198  0.0234 -0.5402
  804MPD2    H311847   2.841   3.603  16.912 -1.0726  0.1543  0.0164
  804MPD2     N11848   2.942   3.756  17.321 -0.1198 -0.0171 -0.0060
  804MPD2    H511849   3.000   3.826  17.276 -0.8477 -0.3107 -1.3874
  804MPD2    N111850   2.686   3.353  17.255  0.2312 -0.6534  0.7023
  804MPD2    H711851   2.699   3.338  17.354  2.9286 -1.7992  0.1733
  805MPD2     C11852   1.583   1.662  15.537 -0.5631  0.8242  0.3229
  805MPD2    C111853   1.636   1.788  15.489  0.2457  0.0457  0.1610
  805MPD2    C211854   1.773   1.807  15.517  0.4992 -0.3359  0.0134
  805MPD2    C311855   1.853   1.718  15.586 -0.2469  0.7015  0.4605
  805MPD2    C411856   1.799   1.592  15.627  0.0390  0.1266  0.4533
  805MPD2    C511857   1.664   1.571  15.601 -0.5299  0.1618 -0.6081
  805MPD2     H11858   1.819   1.902  15.492  2.8643 -1.1205  1.3581
  805MPD2    H111859   1.853   1.516  15.682  1.2534  0.5994 -0.0857
  805MPD2    H211860   1.481   1.642  15.507 -0.0232 -1.9081  0.3188
  805MPD2    H311861   1.614   1.479  15.631  0.0938  0.1169  0.3025
  805MPD2     N11862   1.988   1.753  15.618  0.0735  0.1344 -0.0830
  805MPD2    H511863   2.015   1.850  15.602 -1.6546  0.3144 -1.8715
  805MPD2    N111864   1.563   1.890  15.429 -0.3097 -0.6260  0.7361
  805MPD2    H711865   1.614   1.959  15.376 -1.9601 -0.7368 -1.0253
  806MPD2     C11866   1.875   1.057  17.605  0.6572 -0.6532 -0.2510
  806MPD2    C111867   1.896   1.096   0.030  0.2381  0.2449  0.0346
  806MPD2    C211868   2.016   1.162   0.054 -0.0422 -0.1004 -0.3587
  806MPD2    C311869   2.125   1.155  17.675 -0.2163 -0.6892  0.0738
  806MPD2    C411870   2.102   1.093  17.553  0.1580  0.4934  0.4228
  806MPD2    C511871   1.977   1.052  17.513 -0.1371 -0.0818 -0.6508
  806MPD2     H11872   2.033   1.214   0.147  2.3399 -3.7405  1.2507
  806MPD2    H111873   2.176   1.092  17.474 -1.3921  0.4169 -1.0222
  806MPD2    H211874   1.780   1.027  17.563 -0.7807 -1.3219  3.5088
  806MPD2    H311875   1.961   0.999  17.419  0.6847  1.3707 -1.6062
  806MPD2     N11876   2.249   1.207   0.011 -0.5380  0.3657 -0.2250
  806MPD2    H511877   2.258   1.235   0.108  1.9757 -1.5223  0.0939
  806MPD2    N111878   1.782   1.100   0.114  0.2331 -0.1149  0.8029
  806MPD2    H711879   1.696   1.082   0.063  1.7015 -0.3741 -1.6070
  807MPD2     C11880   1.713   0.551   0.531 -0.4759  0.8249 -0.1500
  807MPD2    C111881   1.619   0.628   0.603 -0.1470  0.2803  0.2771
  807MPD2    C211882   1.589   0.588   0.731  0.8745  0.9854  0.3720
  807MPD2    C311883   1.657   0.485   0.790  0.4633  0.3676 -0.2080
  807MPD2    C411884   1.754   0.412   0.725  0.0190 -0.1637  0.2812
  807MPD2    C511885   1.782   0.450   0.601 -0.3437  0.1467  0.6728
  807MPD2     H11886   1.510   0.624   0.796 -0.3487 -2.8166  0.9727
  807MPD2    H111887   1.800   0.319   0.757 -0.2402 -1.2187 -2.3989
  807MPD2    H211888   1.748   0.578   0.431  0.1760 -1.3266 -0.4954
  807MPD2    H311889   1.861   0.395   0.550 -1.3019 -1.2367  0.6961
  807MPD2     N11890   1.616   0.457   0.921  0.1588  0.3422  0.0826
  807MPD2    H511891   1.534   0.504   0.958 -1.5692 -1.6275 -1.2602
  807MPD2    N111892   1.554   0.743   0.553  0.0229  0.2917 -0.4334
  807MPD2    H711893   1.499   0.799   0.618  1.1453 -1.1882  1.7679
  808MPD2     C11894   2.240   3.248   9.509  0.3595 -0.0484 -0.0967
  808MPD2    C111895   2.314   3.144   9.556 -0.0106 -0.3493 -0.2567
  808MPD2    C211896   2.398   3.173   9.662  0.7986 -0.5979  0.0381
  808MPD2    C311897   2.401   3.296   9.732  0.0408 -0.1238  0.4591
  808MPD2    C411898   2.336   3.404   9.669  0.1475  0.0812 -0.1020
  808MPD2    C511899   2.253   3.377   9.564  0.5251  0.6587 -0.7285
  808MPD2     H11900   2.469   3.098   9.695  0.4387 -1.5963 -1.4596
  808MPD2    H111901   2.346   3.508   9.697 -3.4380  0.3435  0.2407
  808MPD2    H211902   2.180   3.233   9.419 -0.3043 -0.3188  0.3940
  808MPD2    H311903   2.198   3.456   9.514  0.5123  0.2913 -1.3016
  808MPD2     N11904   2.476   3.316   9.855  0.0369  0.1679  0.1489
  808MPD2    H511905   2.507   3.411   9.876  2.6253 -0.6566 -0.0133
  808MPD2    N111906   2.297   3.012   9.513  0.3293  0.8734 -0.1856
  808MPD2    H711907   2.359   2.941   9.551 -0.6817 -0.8976 -1.7990
  809MPD2     C11908   2.737   4.028  10.230  0.6362 -0.1264 -1.0074
  809MPD2    C111909   2.705   3.976  10.108  0.4577 -0.0477 -0.3451
  809MPD2    C211910   2.711   3.840  10.093  0.7706 -0.1723  0.7353
  809MPD2    C311911   2.744   3.756  10.198  0.3810 -0.1980 -0.0336
  809MPD2    C411912   2.775   3.812  10.322  0.0294 -0.1372 -0.9416
  809MPD2    C511913   2.780   3.948  10.332  0.0286 -0.2513 -0.4370
  809MPD2     H11914   2.680   3.794   9.999  2.4017  2.4693 -1.1124
  809MPD2    H111915   2.791   3.751  10.410 -0.3509  0.3750 -0.5225
  809MPD2    H211916   2.750   4.133  10.253  2.0619 -0.3556 -0.7497
  809MPD2    H311917   2.803   4.005  10.421 -3.2949 -2.9187  2.1241
  809MPD2     N11918   2.741   3.624  10.173  0.6222 -0.3282  0.2067
  809MPD2    H511919   2.701   3.602  10.082 -2.0071 -2.1448  1.7610
  809MPD2    N111920   2.677   4.052   9.995  0.0587  0.6879  0.0661
  809MPD2    H711921   2.656   3.994   9.915  1.1931 -1.0782  1.0390
  810MPD2     C11922   2.666   1.398  10.024 -0.5195 -0.3954 -0.8133
  810MPD2    C111923   2.600   1.523  10.040  0.5202 -0.2029  0.2564
  810MPD2    C211924   2.674   1.639  10.057  0.7072  0.1002  0.8411
  810MPD2    C311925   2.811   1.628  10.056  0.1783 -0.1731 -0.0548
  810MPD2    C411926   2.878   1.506  10.038  0.1618  0.0414 -0.4126
  810MPD2    C511927   2.806   1.390  10.020  0.7094 -0.4676  1.1320
  810MPD2     H11928   2.622   1.732  10.074  2.2913  1.1217  0.0814
  810MPD2    H111929   2.982   1.501  10.011  0.7166  0.0079  1.7119
  810MPD2    H211930   2.600   1.315  10.002  0.7013 -1.1391 -1.7047
  810MPD2    H311931   2.862   1.303   9.991  0.6871  0.2226 -0.9475
  810MPD2     N11932   2.891   1.743  10.059  0.1833  0.0903  0.3993
  810MPD2    H511933   2.992   1.736  10.046  0.2750  1.1125  0.5564
  810MPD2    N111934   2.463   1.518  10.055 -0.2583  0.2030  0.1979
  810MPD2    H711935   2.424   1.424  10.059  0.4690 -0.0469  1.2672
  811MPD2     C11936   1.555   1.745   9.969  0.3023 -0.4622  0.2052
  811MPD2    C111937   1.677   1.811   9.991 -0.4784 -0.0614  0.2233
  811MPD2    C211938   1.692   1.945   9.966  0.4926  0.2250 -0.5293
  811MPD2    C311939   1.588   2.015   9.901 -0.1424  0.1898  0.2635
  811MPD2    C411940   1.472   1.948   9.870 -0.5063  0.1317 -0.7821
  811MPD2    C511941   1.462   1.813   9.898  0.2414 -0.1798  0.4562
  811MPD2     H11942   1.786   1.998   9.977  0.1469  0.4660  1.3135
  811MPD2    H111943   1.385   1.993   9.823 -1.5160 -1.0499 -0.0741
  811MPD2    H211944   1.535   1.638   9.975  0.2261 -0.4609 -0.0133
  811MPD2    H311945   1.362   1.772   9.886 -0.5836  2.3357 -1.2003
  811MPD2     N11946   1.613   2.147   9.869  0.0862  0.4766  0.1127
  811MPD2    H511947   1.706   2.181   9.892  2.0449 -2.2076 -3.9218
  811MPD2    N111948   1.775   1.724  10.029 -0.2921 -0.0029 -0.0667
  811MPD2    H711949   1.747   1.627  10.040 -3.1466  0.7216 -0.8426
  812MPD2     C11950   1.253   2.041  12.316 -0.3953 -0.3062 -0.0971
  812MPD2    C111951   1.170   2.123  12.392  1.0965 -0.0897  0.2781
  812MPD2    C211952   1.078   2.068  12.476  0.2556  0.6524  0.1459
  812MPD2    C311953   1.082   1.934  12.493  0.0047 -0.7144  0.8151
  812MPD2    C411954   1.169   1.852  12.423 -0.4763  0.4025  0.5331
  812MPD2    C511955   1.260   1.908  12.344  0.4060  0.0484 -0.2021
  812MPD2     H11956   1.008   2.128  12.533  1.1739 -0.9695  2.9735
  812MPD2    H111957   1.158   1.744  12.419  0.3009  0.3012  1.2833
  812MPD2    H211958   1.325   2.080  12.245 -1.2592 -1.5219 -1.6613
  812MPD2    H311959   1.332   1.857  12.281 -1.8226  0.0229 -2.7503
  812MPD2     N11960   0.996   1.869  12.585  0.2190  0.9424  0.0242
  812MPD2    H511961   0.912   1.913  12.621 -1.0241 -1.8232  0.5642
  812MPD2    N111962   1.186   2.261  12.369 -0.3394 -0.3916  0.2536
  812MPD2    H711963   1.237   2.291  12.286  0.3252 -2.1367  0.0316
  813MPD2     C11964   0.273   3.627  13.062 -0.6709 -0.5626  0.3215
  813MPD2    C111965   0.227   3.753  13.034  0.8089 -0.0863 -0.0982
  813MPD2    C211966   0.107   3.797  13.087  0.1945  0.2661  0.6022
  813MPD2    C311967   0.036   3.711  13.175 -0.4519  0.0515  0.4867
  813MPD2    C411968   0.077   3.579  13.199 -0.1303  0.0790  0.4299
  813MPD2    C511969   0.202   3.542  13.150  0.4833  0.2660  0.0337
  813MPD2     H11970   0.066   3.891  13.052  0.9140  0.6882  0.8833
  813MPD2    H111971   0.016   3.510  13.257  1.9638 -0.3714  2.0758
  813MPD2    H211972   0.366   3.592  13.019 -0.0994 -1.6589  2.4454
  813MPD2    H311973   0.247   3.446  13.171  1.0833  0.9797  2.0387
  813MPD2     N11974   4.654   3.766  13.242  0.5185  0.8179  0.0711
  813MPD2    H511975   4.636   3.865  13.226  0.0975  0.8614  0.8157
  813MPD2    N111976   0.314   3.832  12.956  0.0894 -0.5789  0.1256
  813MPD2    H711977   0.397   3.779  12.931  0.5781 -0.0572  0.6550
  814MPD2     C11978   0.656   0.729  12.261  0.7323 -0.5210  0.6027
  814MPD2    C111979   0.766   0.687  12.190  0.5366  0.5316 -0.0420
  814MPD2    C211980   0.881   0.766  12.174 -0.1473  0.2090  0.0252
  814MPD2    C311981   0.903   0.868  12.253 -0.1677  0.5947 -0.6200
  814MPD2    C411982   0.793   0.909  12.328  0.5378  0.0231  0.1274
  814MPD2    C511983   0.670   0.848  12.323  0.0367  0.6491 -0.5086
  814MPD2     H11984   0.964   0.725  12.117  1.0685  2.9359 -0.1621
  814MPD2    H111985   0.793   1.004  12.381  0.3862  1.3873 -2.2897
  814MPD2    H211986   0.557   0.686  12.263  0.6064 -0.2473  0.2065
  814MPD2    H311987   0.582   0.885  12.375  0.5797  1.3162 -0.0581
  814MPD2     N11988   1.027   0.935  12.264  0.0224  0.1451 -0.3764
  814MPD2    H511989   1.036   1.004  12.337 -0.4132  1.3509 -1.4732
  814MPD2    N111990   0.766   0.563  12.115  0.3340 -0.3248 -0.0183
  814MPD2    H711991   0.848   0.559  12.056  1.2319  0.2041  1.2069
  815MPD2     C11992   1.288   3.706  11.686  0.3866 -0.9659  0.3195
  815MPD2    C111993   1.219   3.591  11.678  0.3003  0.7481  0.6627
  815MPD2    C211994   1.123   3.573  11.771 -0.0837  0.5597 -0.0647
  815MPD2    C311995   1.093   3.672  11.861 -0.5564 -0.6397  0.2013
  815MPD2    C411996   1.167   3.788  11.863 -0.3877  0.1670  0.4792
  815MPD2    C511997   1.257   3.812  11.766  1.0455 -0.4481 -0.3144
  815MPD2     H11998   1.072   3.477  11.774  1.5823 -0.3279 -0.6714
  815MPD2    H111999   1.153   3.867  11.935  0.9125 -0.5754  1.5603
  815MPD2    H212000   1.371   3.718  11.617  0.2171  0.7979  0.4263
  815MPD2    H312001   1.319   3.900  11.777  1.1435 -0.4715 -0.6899
  815MPD2     N12002   0.996   3.637  11.957  0.3059 -0.3073 -0.1961
  815MPD2    H512003   0.950   3.549  11.937  0.7516 -0.5829 -0.0051
  815MPD2    N112004   1.262   3.487  11.591  0.2031 -0.6464  0.0573
  815MPD2    H712005   1.331   3.513  11.521 -0.6149  0.2491 -0.4121
  816MPD2     C12006   0.494   2.857  17.092 -0.4334  0.3286  0.2085
  816MPD2    C112007   0.582   2.960  17.059  0.4445 -1.0870  0.0584
  816MPD2    C212008   0.707   2.938  17.011  0.1898 -0.4678  0.0225
  816MPD2    C312009   0.754   2.809  16.995  0.3413  0.0612  0.6252
  816MPD2    C412010   0.668   2.706  17.030 -0.2536 -0.3907  0.3656
  816MPD2    C512011   0.539   2.734  17.067  0.2548  0.2701 -0.5248
  816MPD2     H12012   0.768   3.021  16.977  1.2351 -1.3949 -0.3714
  816MPD2    H112013   0.696   2.602  17.015  1.4560 -0.0285  0.9653
  816MPD2    H212014   0.400   2.874  17.143 -0.5472  1.7022 -0.4595
  816MPD2    H312015   0.472   2.653  17.095  0.5751  0.4272  0.7264
  816MPD2     N12016   0.884   2.783  16.949 -0.2940 -0.3133  0.2555
  816MPD2    H512017   0.945   2.864  16.939 -0.1046 -0.3546  1.0732
  816MPD2    N112018   0.527   3.091  17.074  0.3422 -0.4489 -0.5793
  816MPD2    H712019   0.431   3.094  17.106  1.5153  2.1204  2.6648
  817MPD2     C12020   0.190   4.216   9.838 -0.1742  0.0823  0.1756
  817MPD2    C112021   0.172   4.129   9.733  0.7535 -0.8237  0.1768
  817MPD2    C212022   0.076   4.160   9.642 -0.0552  0.0337  0.3284
  817MPD2    C312023   4.714   4.266   9.656 -0.7213 -0.0912 -0.1737
  817MPD2    C412024   0.007   4.349   9.763 -0.3725  0.8047 -0.8035
  817MPD2    C512025   0.111   4.330   9.851 -0.2508  0.2149  0.0423
  817MPD2     H12026   0.056   4.093   9.559  5.6713 -1.5738  0.3008
  817MPD2    H112027   4.672   4.437   9.783 -1.8300 -0.9740  2.6437
  817MPD2    H212028   0.270   4.211   9.911 -0.2200  1.2257  0.3183
  817MPD2    H312029   0.123   4.392   9.939 -2.0688 -2.8978  2.4697
  817MPD2     N12030   4.620   4.294   9.554 -0.3659  0.4331 -0.6199
  817MPD2    H512031   4.618   4.230   9.475  0.4448  1.1824 -1.2379
  817MPD2    N112032   0.260   4.024   9.698  0.0693 -0.4012 -0.3195
  817MPD2    H712033   0.250   3.966   9.615 -0.8711  0.1013 -0.5567
  818MPD2     C12034   4.080   4.032   9.986 -0.6348 -0.4949  0.7570
  818MPD2    C112035   4.161   4.009  10.097  0.1729 -0.5522  0.3307
  818MPD2    C212036   4.240   3.898  10.110  0.2236 -0.0153  0.0362
  818MPD2    C312037   4.226   3.795  10.024  0.2197 -0.7159 -0.6705
  818MPD2    C412038   4.153   3.822   9.912  0.4482  0.2209  0.0054
  818MPD2    C512039   4.085   3.938   9.892  0.3271  0.5590  0.5593
  818MPD2     H12040   4.310   3.894  10.193  0.9637  0.1075 -0.5771
  818MPD2    H112041   4.153   3.746   9.834  0.4897 -0.9211  1.1192
  818MPD2    H212042   4.008   4.113   9.979  0.3382  0.4622  1.9382
  818MPD2    H312043   4.038   3.955   9.795  1.6872 -0.7577 -0.3324
  818MPD2     N12044   4.265   3.656  10.046 -0.3839 -0.3174 -0.1523
  818MPD2    H512045   4.240   3.586   9.977 -2.1474 -1.3013  1.4862
  818MPD2    N112046   4.176   4.100  10.208  0.6608 -0.4599 -0.0508
  818MPD2    H712047   4.239   4.077  10.284  1.5584  1.3171 -0.2640
  819MPD2     C12048   2.473   1.601  15.581 -1.0051  0.2410  0.7135
  819MPD2    C112049   2.428   1.478  15.564  0.0423 -0.2780  1.1174
  819MPD2    C212050   2.494   1.373  15.632  0.0351  0.3146  0.7688
  819MPD2    C312051   2.607   1.399  15.710  0.7221  0.0689  0.2171
  819MPD2    C412052   2.658   1.523  15.712 -0.7302 -0.7151  0.1763
  819MPD2    C512053   2.597   1.623  15.639  0.6560  0.2373 -0.3608
  819MPD2     H12054   2.452   1.273  15.626 -1.0458  0.9433 -2.2812
  819MPD2    H112055   2.751   1.537  15.766 -0.8488 -2.4968  0.8503
  819MPD2    H212056   2.420   1.683  15.535 -1.0396 -0.3476 -0.2939
  819MPD2    H312057   2.635   1.725  15.630  0.3669  0.3256 -0.6095
  819MPD2     N12058   2.679   1.287  15.760 -0.7127  0.1466 -0.7676
  819MPD2    H512059   2.640   1.195  15.741  0.2996 -0.1778 -1.3132
  819MPD2    N112060   2.309   1.474  15.492  0.7632 -0.1528 -0.3792
  819MPD2    H712061   2.283   1.570  15.469  1.7353  0.1202 -0.3288
  820MPD2     C12062   1.599   1.782  14.829 -0.9219  0.2103  0.1967
  820MPD2    C112063   1.655   1.840  14.937  0.2216  0.1690 -0.4792
  820MPD2    C212064   1.742   1.772  15.023  0.6301  1.0873 -0.3717
  820MPD2    C312065   1.754   1.637  15.004  0.2798 -0.4753 -0.1531
  820MPD2    C412066   1.686   1.571  14.907  0.4830 -0.8011  0.6743
  820MPD2    C512067   1.614   1.644  14.813  0.1291  0.2149  0.4094
  820MPD2     H12068   1.766   1.807  15.123 -2.2386 -0.2109  0.7893
  820MPD2    H112069   1.699   1.465  14.893 -1.2221 -0.7973 -0.8970
  820MPD2    H212070   1.541   1.834  14.753 -0.7824  0.3903  0.2147
  820MPD2    H312071   1.577   1.588  14.728  3.0343 -2.2489  0.7723
  820MPD2     N12072   1.830   1.557  15.096  0.2456  0.9882 -0.0698
  820MPD2    H512073   1.804   1.460  15.087  0.6358  0.7077  1.7895
  820MPD2    N112074   1.609   1.972  14.969 -0.2393 -0.1552 -0.1761
  820MPD2    H712075   1.539   2.009  14.905  0.1450 -0.9261 -1.0436
  821MPD2     C12076   2.035   2.998  13.231 -0.2108  0.0288 -0.1252
  821MPD2    C112077   2.140   2.916  13.260  0.6426  0.1709 -0.1057
  821MPD2    C212078   2.240   2.911  13.169  0.0515 -0.0947  0.2900
  821MPD2    C312079   2.239   2.999  13.059  0.1041 -1.4924  0.8221
  821MPD2    C412080   2.138   3.089  13.044 -0.5313  0.0514  0.3909
  821MPD2    C512081   2.031   3.083  13.126 -0.3888  0.7641  0.4735
  821MPD2     H12082   2.314   2.834  13.187  1.6836  1.2799 -0.6096
  821MPD2    H112083   2.124   3.135  12.947 -1.7021 -1.7510 -0.3061
  821MPD2    H212084   1.944   3.002  13.289  0.0377  0.3594  0.2417
  821MPD2    H312085   1.941   3.140  13.107 -1.0696 -0.1164  1.0496
  821MPD2     N12086   2.345   2.997  12.967 -0.1124  0.5228 -0.1168
  821MPD2    H512087   2.329   3.051  12.882  0.7110 -0.8235 -1.1305
  821MPD2    N112088   2.115   2.827  13.375  0.3084  0.8436  0.1622
  821MPD2    H712089   2.026   2.837  13.424 -0.5583  0.9938 -1.4372
  822MPD2     C12090   3.298   2.532  15.728  0.4797  0.3359  0.1618
  822MPD2    C112091   3.291   2.508  15.858  0.5641 -0.3827  0.0928
  822MPD2    C212092   3.262   2.623  15.937 -0.0320 -0.3616  0.3145
  822MPD2    C312093   3.231   2.746  15.884 -0.2437 -0.3908 -0.2908
  822MPD2    C412094   3.235   2.763  15.752 -0.0325 -0.7877  0.3534
  822MPD2    C512095   3.278   2.657  15.678  0.3216 -0.3017  0.2800
  822MPD2     H12096   3.255   2.616  16.045 -1.0744  3.5715  0.4957
  822MPD2    H112097   3.203   2.855  15.704 -1.6332 -1.2082  0.6267
  822MPD2    H212098   3.319   2.453  15.656 -1.4816  1.4039 -1.5635
  822MPD2    H312099   3.294   2.678  15.573  0.6155  0.9094  0.5688
  822MPD2     N12100   3.175   2.841  15.975  0.1374 -0.1528  0.4130
  822MPD2    H512101   3.162   2.812  16.072  3.5153  0.1769  0.9684
  822MPD2    N112102   3.316   2.382  15.923 -0.2062 -0.0872  0.4850
  822MPD2    H712103   3.339   2.389  16.022 -0.7662  0.7647  0.5561
  823MPD2     C12104   2.777   3.099  16.673 -0.1378  0.0029  0.2550
  823MPD2    C112105   2.858   3.022  16.591  0.9098 -0.1080 -0.4660
  823MPD2    C212106   2.928   2.913  16.647  0.1051 -0.3477 -0.0554
  823MPD2    C312107   2.911   2.874  16.778  0.3741 -0.0343  0.0762
  823MPD2    C412108   2.830   2.957  16.858  0.9947  0.1433 -0.1858
  823MPD2    C512109   2.768   3.070  16.808  0.3446 -0.0644 -0.2998
  823MPD2     H12110   2.985   2.846  16.584  0.0917 -1.9096  1.5801
  823MPD2    H112111   2.829   2.938  16.964 -0.1907 -0.0935 -0.2465
  823MPD2    H212112   2.723   3.187  16.641 -1.3634 -1.2269 -1.0729
  823MPD2    H312113   2.719   3.141  16.873  0.4864  0.6348 -0.9602
  823MPD2     N12114   2.978   2.765  16.839 -0.8204  0.3092  0.3308
  823MPD2    H512115   2.948   2.742  16.933  1.1066 -0.7758  0.6625
  823MPD2    N112116   2.880   3.066  16.457  0.5638  0.8839  0.2758
  823MPD2    H712117   2.844   3.157  16.430 -2.9657  0.1117  2.3354
  824MPD2     C12118   3.446   1.519  15.841  0.6912 -0.0052 -0.8168
  824MPD2    C112119   3.551   1.607  15.851  0.1208  0.7104 -0.6252
  824MPD2    C212120   3.678   1.566  15.818  0.5093  0.4822  0.5710
  824MPD2    C312121   3.710   1.440  15.776  0.6850 -0.2141 -0.1001
  824MPD2    C412122   3.607   1.356  15.752  0.0934  0.3089  0.0834
  824MPD2    C512123   3.479   1.399  15.784  0.1498 -0.6516 -0.8058
  824MPD2     H12124   3.751   1.645  15.833  1.7075 -0.5826  0.3532
  824MPD2    H112125   3.620   1.256  15.712  3.4159  0.6175  0.3268
  824MPD2    H212126   3.341   1.534  15.865  1.5677  0.1819  2.8332
  824MPD2    H312127   3.397   1.329  15.773 -0.5268  0.1211 -0.6446
  824MPD2     N12128   3.840   1.415  15.738  0.4801 -0.2492 -0.5001
  824MPD2    H512129   3.898   1.498  15.733  1.4445 -1.0377 -2.2571
  824MPD2    N112130   3.537   1.740  15.894 -0.1139  0.3101  0.0723
  824MPD2    H712131   3.616   1.802  15.912 -0.8908  1.7015 -1.3016
  825MPD2     C12132   4.513   1.688  15.783  0.7510 -0.2249  0.0798
  825MPD2    C112133   4.458   1.669  15.656 -0.0623  0.4512 -0.7631
  825MPD2    C212134   4.433   1.767  15.560  0.4244  0.4199 -0.0913
  825MPD2    C312135   4.474   1.897  15.588  0.2842  0.3416 -0.2096
  825MPD2    C412136   4.520   1.927  15.711 -0.5743  0.3969  0.1605
  825MPD2    C512137   4.544   1.824  15.806  0.4391  0.1806  0.5215
  825MPD2     H12138   4.381   1.749  15.467 -0.2885  1.6000  0.0864
  825MPD2    H112139   4.546   2.032  15.726 -1.8709  1.1524 -2.7679
  825MPD2    H212140   4.544   1.614  15.855 -0.6810 -1.5171 -0.6252
  825MPD2    H312141   4.585   1.858  15.901 -1.2155  0.4224  1.1472
  825MPD2     N12142   4.447   2.003  15.495 -0.0442 -0.0644  0.4038
  825MPD2    H512143   4.449   2.100  15.524  1.7902 -1.1990  4.1491
  825MPD2    N112144   4.394   1.541  15.636  0.0558  0.0338  0.5443
  825MPD2    H712145   4.420   1.465  15.698  1.3563  1.0128  1.1963
  826MPD2     C12146   4.340   1.926  13.579 -0.3393 -0.3341  0.1757
  826MPD2    C112147   4.385   2.008  13.479  0.1258 -0.2126 -0.3724
  826MPD2    C212148   4.310   2.115  13.438  0.1316 -0.2000  0.2246
  826MPD2    C312149   4.187   2.137  13.507 -0.0133 -0.2881 -0.5320
  826MPD2    C412150   4.145   2.053  13.609  0.2460 -0.2763  0.3711
  826MPD2    C512151   4.223   1.943  13.645  0.2310 -0.7032  0.0448
  826MPD2     H12152   4.337   2.177  13.354  2.7181 -0.1698  1.0968
  826MPD2    H112153   4.050   2.061  13.661 -0.9165  0.2797 -1.8601
  826MPD2    H212154   4.392   1.834  13.602  0.8133  0.5576  1.1650
  826MPD2    H312155   4.191   1.866  13.714 -0.2887 -1.0323 -0.5604
  826MPD2     N12156   4.095   2.231  13.458 -0.1760 -0.2085  0.0452
  826MPD2    H512157   4.010   2.236  13.513  0.4262  0.9946  0.8651
  826MPD2    N112158   4.507   1.970  13.419  0.9125  0.0372 -0.0310
  826MPD2    H712159   4.536   1.878  13.451  2.9395  0.9132  0.6648
  827MPD2     C12160   4.549   2.810  10.036  0.1770  0.5949  0.3177
  827MPD2    C112161   4.603   2.687  10.068  0.3872  0.0797 -0.0422
  827MPD2    C212162   4.573   2.576   9.988  0.0387 -0.2178  0.1333
  827MPD2    C312163   4.488   2.595   9.880 -0.6000  0.1237 -0.0462
  827MPD2    C412164   4.442   2.726   9.849  0.0112 -0.3042  0.1840
  827MPD2    C512165   4.468   2.829   9.934  0.1514  0.7338 -0.8117
  827MPD2     H12166   4.600   2.473  10.007 -2.1625 -1.1832 -1.9262
  827MPD2    H112167   4.371   2.743   9.768  0.1191  0.0358  0.1602
  827MPD2    H212168   4.589   2.898  10.086 -0.5752  1.4284 -0.5468
  827MPD2    H312169   4.415   2.923   9.926 -0.4435  0.2554 -2.5154
  827MPD2     N12170   4.476   2.492   9.789  0.3864 -0.2794 -0.6393
  827MPD2    H512171   4.496   2.403   9.832  1.0626 -0.2737 -0.9437
  827MPD2    N112172   4.686   2.690  10.177 -0.2927 -0.4261 -0.3598
  827MPD2    H712173   4.707   2.776  10.226 -0.5755 -0.3976 -0.2900
  828MPD2     C12174   3.139   2.652  12.465 -0.1879 -0.0112 -0.2601
  828MPD2    C112175   3.157   2.732  12.352  0.1745  0.0123  0.5738
  828MPD2    C212176   3.292   2.767  12.318 -0.4569  0.1330 -0.3487
  828MPD2    C312177   3.400   2.714  12.384  0.4044 -0.3623  0.1760
  828MPD2    C412178   3.381   2.638  12.491 -0.4636 -1.5078 -0.2739
  828MPD2    C512179   3.249   2.614  12.532 -0.0205 -0.1337 -0.0764
  828MPD2     H12180   3.299   2.833  12.232  0.8477  0.4321 -0.0106
  828MPD2    H112181   3.462   2.606  12.555 -0.5495 -2.4188 -0.6184
  828MPD2    H212182   3.042   2.637  12.511 -0.7361  2.2329 -0.6819
  828MPD2    H312183   3.230   2.557  12.622 -0.8738  0.0050 -0.1720
  828MPD2     N12184   3.540   2.715  12.332 -0.0475  0.3693  0.6161
  828MPD2    H512185   3.607   2.664  12.389 -0.1566 -1.7539 -1.1940
  828MPD2    N112186   3.046   2.772  12.272 -0.4911 -0.4598 -0.1081
  828MPD2    H712187   3.062   2.844  12.201 -1.9495 -0.5178 -0.4991
  829MPD2     C12188   3.032   3.347  11.677 -0.3199  0.3322 -0.1050
  829MPD2    C112189   2.903   3.305  11.664  0.3349 -0.3604  0.9540
  829MPD2    C212190   2.848   3.231  11.771 -0.2434  0.0025  0.0080
  829MPD2    C312191   2.921   3.201  11.879 -0.0688  0.8760  0.4543
  829MPD2    C412192   3.050   3.243  11.887  0.3029 -0.2403 -0.1015
  829MPD2    C512193   3.102   3.315  11.784  0.0426 -0.4497 -0.0763
  829MPD2     H12194   2.744   3.200  11.766  0.1742 -1.1367 -1.5809
  829MPD2    H112195   3.115   3.215  11.968  1.1776 -0.8694 -1.0215
  829MPD2    H212196   3.083   3.404  11.600  1.4957  1.5027  1.9535
  829MPD2    H312197   3.205   3.349  11.784 -0.7874  2.0602 -0.7119
  829MPD2     N12198   2.869   3.113  11.983  0.0448  0.5481 -1.0256
  829MPD2    H512199   2.935   3.082  12.054  0.0704  1.2252 -0.7491
  829MPD2    N112200   2.818   3.348  11.553  0.2264  0.3864 -0.2293
  829MPD2    H712201   2.866   3.387  11.473  0.9223 -0.0208 -0.0094
  830MPD2     C12202   3.150   0.757  15.595 -0.7341 -0.6718  0.2179
  830MPD2    C112203   3.110   0.891  15.601  0.3928 -0.7102  0.4940
  830MPD2    C212204   3.171   0.991  15.526  0.1895 -0.1479  0.0048
  830MPD2    C312205   3.283   0.962  15.452 -0.4890 -0.0236  0.3805
  830MPD2    C412206   3.308   0.830  15.435 -0.3521 -0.6620 -0.5152
  830MPD2    C512207   3.248   0.734  15.508 -0.1207  0.0013  0.2980
  830MPD2     H12208   3.138   1.091  15.553  0.6492  0.3246 -1.1234
  830MPD2    H112209   3.387   0.809  15.363  1.0821  0.5636  0.7177
  830MPD2    H212210   3.114   0.686  15.668 -1.5525  0.0227  0.4828
  830MPD2    H312211   3.272   0.629  15.494  1.4555  0.3379  0.4437
  830MPD2     N12212   3.359   1.062  15.387  0.2761  0.0938 -0.0095
  830MPD2    H512213   3.414   1.035  15.305  0.7026 -0.4893  0.4674
  830MPD2    N112214   3.015   0.936  15.704 -0.3167  0.0463  0.4299
  830MPD2    H712215   3.022   1.036  15.719 -1.4326  0.3588 -1.0772
  831MPD2     C12216   3.447   2.903  16.222 -0.4961 -0.2061  0.5918
  831MPD2    C112217   3.467   2.770  16.189  0.1237  0.2485  0.0836
  831MPD2    C212218   3.375   2.687  16.243  0.4023 -0.0600  0.3880
  831MPD2    C312219   3.261   2.725  16.313  0.3688  0.6107 -0.0748
  831MPD2    C412220   3.253   2.859  16.349 -0.3205  0.0377  0.2026
  831MPD2    C512221   3.345   2.944  16.295  0.7535  0.7895  0.2379
  831MPD2     H12222   3.403   2.583  16.233  0.2957  0.1326 -1.8226
  831MPD2    H112223   3.176   2.892  16.418 -0.0202 -0.1401  0.6219
  831MPD2    H212224   3.529   2.971  16.201  0.5765 -1.5923  0.2648
  831MPD2    H312225   3.333   3.050  16.314  1.9119  0.7642  1.1414
  831MPD2     N12226   3.149   2.650  16.352  0.0481 -0.1002 -0.4774
  831MPD2    H512227   3.076   2.700  16.402  0.9762 -0.2539  1.0268
  831MPD2    N112228   3.578   2.737  16.112  0.0929 -0.2767  0.1020
  831MPD2    H712229   3.643   2.813  16.099  0.0247  0.3729  3.5667
  832MPD2     C12230   1.582   3.850  17.566 -0.4549  0.4007 -0.5746
  832MPD2    C112231   1.621   3.980  17.521 -1.1413  0.4659  0.1796
  832MPD2    C212232   1.535   4.045  17.426 -0.1648 -0.1685 -0.2341
  832MPD2    C312233   1.426   3.979  17.374 -0.0725 -0.0382 -0.2633
  832MPD2    C412234   1.404   3.853  17.418  0.0401  0.3745 -0.3523
  832MPD2    C512235   1.470   3.795  17.524 -0.0899 -0.1859 -0.9256
  832MPD2     H12236   1.570   4.140  17.386 -1.7888  0.1923 -0.7776
  832MPD2    H112237   1.324   3.799  17.369 -1.2678  0.4592  1.6970
  832MPD2    H212238   1.651   3.807  17.639  1.3018  1.5172 -1.5657
  832MPD2    H312239   1.451   3.692  17.551 -0.4111  0.0893 -0.1067
  832MPD2     N12240   1.358   4.032  17.261 -0.1930  0.3353  0.5248
  832MPD2    H512241   1.279   3.978  17.227  0.2373 -0.5780  0.9571
  832MPD2    N112242   1.743   4.030  17.569 -0.3336 -0.8582 -0.0424
  832MPD2    H712243   1.793   3.974  17.637  1.8710 -1.9971 -2.6160
  833MPD2     C12244   4.218   0.827  12.693 -0.0954  1.0412  0.4731
  833MPD2    C112245   4.245   0.908  12.585  0.0080 -0.0358 -0.0256
  833MPD2    C212246   4.298   0.848  12.472  0.6439 -0.6513 -0.2179
  833MPD2    C312247   4.336   0.714  12.469 -0.0844  0.2906 -0.3450
  833MPD2    C412248   4.307   0.631  12.578  0.1671 -0.6869  0.2702
  833MPD2    C512249   4.244   0.690  12.684 -0.6443 -0.7110  0.1593
  833MPD2     H12250   4.318   0.904  12.382  0.0237 -0.7839 -0.4376
  833MPD2    H112251   4.329   0.525  12.571 -0.3119 -0.8406  1.0964
  833MPD2    H212252   4.176   0.871  12.782 -1.3000  0.4943  0.1779
  833MPD2    H312253   4.218   0.634  12.773 -0.1150  1.4363  1.6692
  833MPD2     N12254   4.389   0.645  12.360  0.3868  0.5441 -0.9986
  833MPD2    H512255   4.406   0.546  12.363  2.3651  0.8562 -1.8492
  833MPD2    N112256   4.216   1.045  12.598  0.3673  0.5662  0.5970
  833MPD2    H712257   4.174   1.082  12.682 -1.6866 -1.0439  0.2790
  834MPD2     C12258   3.835   4.698  11.885 -0.5849  0.0352 -0.3328
  834MPD2    C112259   3.856   0.063  11.785  0.6870 -0.0005  0.6203
  834MPD2    C212260   3.940   0.172  11.810  0.5653  0.3124 -0.0905
  834MPD2    C312261   3.990   0.184  11.941  0.6455  0.6149 -0.1229
  834MPD2    C412262   3.965   0.096  12.043  0.7924 -0.1740  0.5643
  834MPD2    C512263   3.887   4.717  12.013  0.0196 -0.2556  1.1114
  834MPD2     H12264   3.976   0.238  11.732  1.3237 -1.2068 -1.0247
  834MPD2    H112265   4.010   0.101  12.141 -0.9791  2.4992  1.2580
  834MPD2    H212266   3.772   4.613  11.860 -1.0924 -0.0747  1.3774
  834MPD2    H312267   3.867   4.648  12.093 -3.9530  0.8545  1.0604
  834MPD2     N12268   4.087   0.289  11.962  0.6640 -0.1076  0.2516
  834MPD2    H512269   4.109   0.343  11.878  0.6464 -0.7826 -0.1846
  834MPD2    N112270   3.790   0.038  11.659 -0.2361 -0.5517  0.6862
  834MPD2    H712271   3.736   4.679  11.656 -0.0940 -0.5639 -2.3076
  835MPD2     C12272   4.189   3.004  11.074 -0.4578 -0.0943  0.4559
  835MPD2    C112273   4.057   3.050  11.047 -0.2770 -0.6365  0.2948
  835MPD2    C212274   3.986   3.102  11.154 -0.0357  0.0733 -0.2058
  835MPD2    C312275   4.036   3.122  11.281  0.5633  0.3285 -0.2737
  835MPD2    C412276   4.164   3.076  11.305 -0.2052  0.1119 -0.1743
  835MPD2    C512277   4.231   3.011  11.202  0.2171  0.2844 -0.0867
  835MPD2     H12278   3.885   3.139  11.142  1.3605  3.9935  0.0244
  835MPD2    H112279   4.209   3.078  11.403  0.3353  0.2934 -0.4281
  835MPD2    H212280   4.253   2.960  10.998 -1.7470  0.7996 -1.1764
  835MPD2    H312281   4.329   2.968  11.222 -0.9933 -1.3340  2.4490
  835MPD2     N12282   3.957   3.183  11.389  0.2595  0.0625  0.6637
  835MPD2    H512283   4.016   3.182  11.472 -3.1448 -1.7321  3.0777
  835MPD2    N112284   4.002   3.055  10.922 -0.1397 -0.9782  1.0645
  835MPD2    H712285   3.905   3.083  10.917  0.0407 -0.8550 -2.0215
  836MPD2     C12286   3.404   3.747  11.484 -0.1255  0.4507 -0.8423
  836MPD2    C112287   3.392   3.644  11.575 -0.5813  0.3091 -0.1801
  836MPD2    C212288   3.274   3.626  11.643  0.1558  0.0056  0.4550
  836MPD2    C312289   3.172   3.719  11.631  0.0893 -0.1316  0.5780
  836MPD2    C412290   3.186   3.821  11.537  0.1604  0.5106 -0.1671
  836MPD2    C512291   3.302   3.835  11.473  0.4221 -0.3014 -0.1588
  836MPD2     H12292   3.262   3.543  11.712 -2.1786 -1.4858 -1.7546
  836MPD2    H112293   3.105   3.893  11.529 -0.7468 -0.5042 -0.1706
  836MPD2    H212294   3.492   3.760  11.423  0.0704  0.4607 -0.5605
  836MPD2    H312295   3.301   3.905  11.391  1.8074  0.4284  0.4519
  836MPD2     N12296   3.056   3.719  11.713 -0.1115 -0.4197  0.6745
  836MPD2    H512297   2.985   3.782  11.678  2.2118  2.6653  1.4930
  836MPD2    N112298   3.502   3.558  11.597 -0.4637  0.3153 -0.1494
  836MPD2    H712299   3.585   3.580  11.544  0.6348 -1.8883  0.6588
  837MPD2     C12300   1.903   2.743  10.202  0.7623  0.3442  0.1157
  837MPD2    C112301   1.827   2.804  10.105 -0.5053 -0.1693  0.1716
  837MPD2    C212302   1.784   2.936  10.126  0.6660  0.0917  0.3891
  837MPD2    C312303   1.792   2.995  10.251 -0.6175 -0.1685  0.3983
  837MPD2    C412304   1.880   2.938  10.344  0.5676  0.0572 -0.4052
  837MPD2    C512305   1.939   2.816  10.315  0.2390 -0.2970  0.0478
  837MPD2     H12306   1.715   2.985  10.058  1.8251 -2.1570 -2.4208
  837MPD2    H112307   1.901   2.974  10.444 -0.3767  2.5257 -1.1040
  837MPD2    H212308   1.953   2.647  10.197 -0.2135 -0.2893  2.5677
  837MPD2    H312309   2.008   2.768  10.384  0.6839 -0.4769 -0.5259
  837MPD2     N12310   1.713   3.100  10.280 -1.0422 -0.6570  0.6987
  837MPD2    H512311   1.639   3.114  10.213 -0.0731  1.3131  0.0523
  837MPD2    N112312   1.779   2.749   9.986 -0.2191 -0.3722 -0.7420
  837MPD2    H712313   1.726   2.806   9.922  2.5289  1.6189 -1.2396
  838MPD2     C12314   0.568   0.276  11.192 -0.2079 -0.0469 -0.2998
  838MPD2    C112315   0.554   0.403  11.247 -0.0862 -0.1394 -0.3060
  838MPD2    C212316   0.452   0.445  11.332 -0.0039  0.5941 -0.5599
  838MPD2    C312317   0.365   0.353  11.380 -0.5901 -0.2189  0.3580
  838MPD2    C412318   0.386   0.224  11.341  0.0335 -0.0076  0.6046
  838MPD2    C512319   0.488   0.186  11.254 -0.1188  0.2836 -0.6426
  838MPD2     H12320   0.459   0.547  11.366 -0.3774  0.3053  0.3720
  838MPD2    H112321   0.328   0.146  11.388  1.3262 -1.0718  0.4606
  838MPD2    H212322   0.649   0.248  11.126 -0.1165  0.1387 -0.2673
  838MPD2    H312323   0.489   0.083  11.220 -1.9628  0.6345 -1.7602
  838MPD2     N12324   0.269   0.392  11.473  0.1824 -0.2141  0.2749
  838MPD2    H512325   0.290   0.485  11.508  0.1663 -0.3108  0.5451
  838MPD2    N112326   0.657   0.501  11.231 -0.4205  0.1656  0.0662
  838MPD2    H712327   0.647   0.580  11.295 -6.1150  0.1293 -0.7916
  839MPD2     C12328   0.446   0.512  11.837  0.2897  0.0662 -0.1020
  839MPD2    C112329   0.478   0.407  11.751 -0.2333  0.1417  0.5293
  839MPD2    C212330   0.586   0.414  11.661 -0.2371  0.3513  0.0076
  839MPD2    C312331   0.668   0.528  11.666  0.1548 -0.7364 -0.0384
  839MPD2    C412332   0.628   0.633  11.738  0.5811  0.4468  0.2335
  839MPD2    C512333   0.525   0.624  11.828 -0.1323 -0.5324 -0.0899
  839MPD2     H12334   0.619   0.326  11.607 -1.2722 -0.1061  0.1305
  839MPD2    H112335   0.683   0.726  11.725  0.6953  0.5987  1.9126
  839MPD2    H212336   0.367   0.515  11.912 -0.9002 -0.3235 -1.3291
  839MPD2    H312337   0.496   0.718  11.874  2.1461 -0.2036  0.6773
  839MPD2     N12338   0.771   0.536  11.567 -0.1876 -0.3998 -0.5156
  839MPD2    H512339   0.781   0.454  11.508  2.2808 -0.1323 -0.4577
  839MPD2    N112340   0.408   0.287  11.749 -0.7500  0.0940 -0.3495
  839MPD2    H712341   0.443   0.218  11.684  0.7592 -0.4309  1.0075
  840MPD2     C12342   0.433   3.019  10.168  0.2813 -0.2291  0.0167
  840MPD2    C112343   0.450   2.969  10.299 -0.5917 -0.7514  0.0236
  840MPD2    C212344   0.556   3.019  10.373 -0.0511  0.2699 -0.1152
  840MPD2    C312345   0.616   3.138  10.337  0.2489 -0.4392 -0.3834
  840MPD2    C412346   0.589   3.188  10.213 -0.4721 -0.6861 -0.6941
  840MPD2    C512347   0.511   3.125  10.127  0.5033 -0.1533 -0.3357
  840MPD2     H12348   0.573   2.971  10.469 -0.1584  1.7561  0.6478
  840MPD2    H112349   0.635   3.282  10.187  0.6176 -0.9104  0.3938
  840MPD2    H212350   0.352   2.977  10.109  0.1001 -0.5288  0.4817
  840MPD2    H312351   0.495   3.159  10.025 -1.0653 -2.5510 -0.9054
  840MPD2     N12352   0.699   3.214  10.424 -0.2031  0.1295 -0.4268
  840MPD2    H512353   0.747   3.294  10.386 -3.0457  1.2153 -1.7781
  840MPD2    N112354   0.381   2.853  10.332  0.1043 -0.2211 -0.3435
  840MPD2    H712355   0.320   2.818  10.259 -0.0293  0.9635 -0.8100
  841MPD2     C12356   0.313   3.293  15.075  0.7289  0.0059 -0.1773
  841MPD2    C112357   0.325   3.234  14.954  0.6160 -0.1113 -0.0707
  841MPD2    C212358   0.387   3.307  14.854 -0.8492 -0.1433 -0.0882
  841MPD2    C312359   0.420   3.441  14.875 -0.2273  0.3784  0.8116
  841MPD2    C412360   0.407   3.499  15.000  0.0810  0.2834  0.4972
  841MPD2    C512361   0.349   3.422  15.097  0.5925  0.2417  0.0520
  841MPD2     H12362   0.399   3.271  14.752 -1.1688  0.2682 -0.2716
  841MPD2    H112363   0.438   3.601  15.018  0.8152  0.4615 -1.6777
  841MPD2    H212364   0.277   3.239  15.162 -1.5699  1.5033 -0.1902
  841MPD2    H312365   0.363   3.465  15.196  0.3127  0.4139  0.0157
  841MPD2     N12366   0.504   3.498  14.769  0.5587 -0.2490 -0.0853
  841MPD2    H512367   0.527   3.435  14.693 -0.5745 -0.0140 -0.6205
  841MPD2    N112368   0.269   3.108  14.918  0.1041 -0.1241 -0.0097
  841MPD2    H712369   0.290   3.067  14.828  1.2646 -0.5651  0.4640
  842MPD2     C12370   0.182   3.437  16.844  0.5112 -0.0966 -0.3247
  842MPD2    C112371   0.160   3.563  16.895 -0.6543 -0.5331  0.5071
  842MPD2    C212372   0.107   3.582  17.021 -0.6649 -0.3690  0.3249
  842MPD2    C312373   0.076   3.472  17.096 -0.0730  0.5310 -0.3380
  842MPD2    C412374   0.097   3.343  17.045 -0.6837 -1.2124  0.1818
  842MPD2    C512375   0.145   3.330  16.921 -1.0190 -0.0888  0.2079
  842MPD2     H12376   0.059   3.678  17.036 -1.2734 -0.2376 -2.4922
  842MPD2    H112377   0.068   3.257  17.104 -1.0732 -0.3845  1.1939
  842MPD2    H212378   0.218   3.413  16.745  0.0368  0.6868 -0.6880
  842MPD2    H312379   0.160   3.227  16.891 -0.2535  0.0939 -0.0451
  842MPD2     N12380   0.026   3.478  17.227  0.1232 -0.3128 -0.3888
  842MPD2    H512381   0.020   3.388  17.273 -0.4255  1.3813  2.8728
  842MPD2    N112382   0.179   3.672  16.810  0.6370 -0.0604 -0.1448
  842MPD2    H712383   0.214   3.660  16.716 -0.3349 -0.5641 -0.4445
  843MPD2     C12384   3.234   4.278   0.854  0.2880  0.6812 -0.0433
  843MPD2    C112385   3.170   4.397   0.840 -0.4064 -0.6115 -0.0779
  843MPD2    C212386   3.243   4.513   0.797  0.3475  0.0044 -0.3246
  843MPD2    C312387   3.376   4.504   0.771 -0.8765  0.7318  0.1274
  843MPD2    C412388   3.439   4.387   0.796  0.5790  0.6581 -0.3937
  843MPD2    C512389   3.371   4.274   0.836  0.1510  0.1032 -0.0350
  843MPD2     H12390   3.194   4.607   0.774 -0.6027 -0.3097  0.4345
  843MPD2    H112391   3.546   4.384   0.781  0.5364 -0.9608 -0.3906
  843MPD2    H212392   3.175   4.189   0.871  1.8377  0.0520  2.0112
  843MPD2    H312393   3.417   4.176   0.836 -0.8378 -0.3645 -1.3579
  843MPD2     N12394   3.462   4.612   0.743  0.1939  0.5611 -0.0591
  843MPD2    H512395   3.562   4.594   0.731 -0.1903 -1.3793 -0.3303
  843MPD2    N112396   3.033   4.403   0.877  0.2048  0.0657 -0.5701
  843MPD2    H712397   2.999   4.320   0.925 -2.8033  1.5517 -0.1460
  844MPD2     C12398   1.561   3.799  16.943 -0.8908 -0.3587  0.3723
  844MPD2    C112399   1.639   3.842  16.835  0.0920  0.6427  0.4160
  844MPD2    C212400   1.737   3.937  16.854  0.1641  0.7605  0.2826
  844MPD2    C312401   1.770   3.987  16.982 -0.2275  0.3001 -0.5437
  844MPD2    C412402   1.693   3.944  17.090 -0.1715 -0.1235  0.3147
  844MPD2    C512403   1.591   3.853  17.069  0.0753 -0.3273 -0.6905
  844MPD2     H12404   1.798   3.968  16.770  0.0530  1.1785  0.3555
  844MPD2    H112405   1.720   3.971  17.192  1.3553  0.5380 -0.2621
  844MPD2    H212406   1.484   3.722  16.942 -1.1051 -0.1411  0.1827
  844MPD2    H312407   1.541   3.821  17.160  0.7806 -2.9319 -1.2187
  844MPD2     N12408   1.873   4.085  17.008  0.0572  0.4590 -0.0951
  844MPD2    H512409   1.900   4.137  16.925 -0.7509  3.3400  1.4647
  844MPD2    N112410   1.626   3.792  16.703  0.5921 -0.4086  0.3550
  844MPD2    H712411   1.673   3.848  16.633  1.3995 -1.0818  0.3556
  845MPD2     C12412   1.770   0.240  17.090  0.0557  0.3463  0.2130
  845MPD2    C112413   1.695   0.133  17.130 -0.0055  0.3375  0.7042
  845MPD2    C212414   1.755   0.009  17.140  0.1451  0.0127 -0.3780
  845MPD2    C312415   1.887   4.715  17.100  0.6552 -0.0177  0.6766
  845MPD2    C412416   1.965   0.101  17.065 -0.4916  0.5546 -0.0447
  845MPD2    C512417   1.900   0.223  17.055 -0.0040  0.1465 -0.1132
  845MPD2     H12418   1.692   4.652  17.169  0.1035 -0.5167 -2.0157
  845MPD2    H112419   2.070   0.099  17.040 -0.8803 -2.9196 -1.3952
  845MPD2    H212420   1.732   0.341  17.076 -0.5776 -0.0849 -1.1208
  845MPD2    H312421   1.950   0.308  17.011 -1.7646  1.2356  0.0123
  845MPD2     N12422   1.940   4.587  17.126 -0.1931 -0.0782 -0.5074
  845MPD2    H512423   1.877   4.514  17.157 -0.6276  1.3970  2.0940
  845MPD2    N112424   1.554   0.140  17.149 -0.3046 -0.4369  0.4092
  845MPD2    H712425   1.523   0.048  17.178  2.2390 -2.0328 -1.8769
  846MPD2     C12426   3.763   0.055  13.637 -0.5971  0.5992  0.0237
  846MPD2    C112427   3.731   0.185  13.661 -0.0019  0.1856  0.1619
  846MPD2    C212428   3.705   0.220  13.796 -0.3936 -0.5168 -0.4135
  846MPD2    C312429   3.706   0.128  13.899  0.2859 -0.1086  0.5042
  846MPD2    C412430   3.738   4.725  13.868  0.5226 -0.1131  0.5959
  846MPD2    C512431   3.773   4.691  13.737 -0.9252 -0.1371 -0.2568
  846MPD2     H12432   3.684   0.323  13.820  2.6289  0.3607 -1.4811
  846MPD2    H112433   3.734   4.638  13.933  0.0591  0.6694  1.6103
  846MPD2    H212434   3.801   0.031  13.538 -0.6621 -1.5703  0.5214
  846MPD2    H312435   3.791   4.588  13.710 -0.1569 -0.0433 -0.1170
  846MPD2     N12436   3.666   0.172  14.026 -0.1437 -0.5812  0.6426
  846MPD2    H512437   3.621   0.261  14.041 -1.0480 -0.8477 -0.4898
  846MPD2    N112438   3.736   0.280  13.563 -0.2889 -0.0068  0.5163
  846MPD2    H712439   3.757   0.376  13.587  0.7260 -0.4678  1.4511
  847MPD2     C12440   3.248   0.925  14.408  0.1629 -0.1936  0.7124
  847MPD2    C112441   3.324   0.992  14.314 -0.4092 -1.0281  0.4951
  847MPD2    C212442   3.465   0.969  14.318  0.0037  0.0026  0.2648
  847MPD2    C312443   3.528   0.887  14.411  0.5658 -0.5209 -0.0931
  847MPD2    C412444   3.445   0.828  14.503 -0.3577 -0.1984 -0.0333
  847MPD2    C512445   3.310   0.847  14.499  0.0989 -1.5846 -0.4629
  847MPD2     H12446   3.529   1.018  14.245 -1.0431  0.8685 -0.0733
  847MPD2    H112447   3.483   0.761  14.580 -0.0499 -0.5574 -0.4966
  847MPD2    H212448   3.140   0.937  14.419 -0.0682 -1.3077 -0.2512
  847MPD2    H312449   3.248   0.794  14.569  1.6961 -1.1705  1.2694
  847MPD2     N12450   3.668   0.877  14.410  0.4969  0.0326 -0.0372
  847MPD2    H512451   3.716   0.939  14.346  0.0737 -0.1541 -0.5277
  847MPD2    N112452   3.268   1.079  14.226  0.0516 -0.1571 -0.5835
  847MPD2    H712453   3.336   1.136  14.177 -1.4042  0.4866 -1.8628
  848MPD2     C12454   1.252   4.451  16.501  0.0419  0.6193  0.3385
  848MPD2    C112455   1.150   4.488  16.595  0.4714  0.1242  0.0074
  848MPD2    C212456   1.038   4.559  16.550 -0.0257 -0.2131  0.1503
  848MPD2    C312457   1.036   4.596  16.421 -0.3445  0.7344  0.0767
  848MPD2    C412458   1.138   4.574  16.331  0.0435 -0.0926  0.6784
  848MPD2    C512459   1.245   4.498  16.372 -0.0372  0.0616 -0.5961
  848MPD2     H12460   0.963   4.592  16.621 -0.5392  0.1260 -0.5535
  848MPD2    H112461   1.135   4.624  16.235 -0.3119  0.9183  1.2150
  848MPD2    H212462   1.322   4.376  16.536 -1.2444 -0.1739  1.2319
  848MPD2    H312463   1.324   4.463  16.306 -1.1609  0.2810 -2.0557
  848MPD2     N12464   0.939   4.688  16.388 -0.4263 -0.3411 -0.5069
  848MPD2    H512465   0.877   4.710  16.465  2.2320  1.2074  1.1755
  848MPD2    N112466   1.155   4.454  16.735  0.3670  0.4420 -0.0818
  848MPD2    H712467   1.084   4.500  16.791 -0.3262  0.9859 -1.4010
  849MPD2     C12468   0.444   4.014  14.461 -0.1821  0.1363 -0.4130
  849MPD2    C112469   0.541   4.040  14.369  0.2591  0.1869  0.6804
  849MPD2    C212470   0.676   4.064  14.400  0.2084  0.3475  0.3753
  849MPD2    C312471   0.709   4.068  14.536 -0.1231  0.6248 -0.5248
  849MPD2    C412472   0.613   4.061  14.634 -0.5664  0.1522  0.5357
  849MPD2    C512473   0.486   4.032  14.587 -0.7618 -0.3244  0.1162
  849MPD2     H12474   0.746   4.068  14.318 -0.8826 -1.0789 -0.6171
  849MPD2    H112475   0.634   4.068  14.740 -0.9726 -1.4810  0.7244
  849MPD2    H212476   0.341   3.997  14.433 -0.0686 -1.5777  0.2110
  849MPD2    H312477   0.415   4.025  14.669 -1.3138  1.8708 -0.1789
  849MPD2     N12478   0.841   4.077  14.562  0.5361  0.1952 -0.1257
  849MPD2    H512479   0.907   4.053  14.488 -2.1456 -2.0044 -1.8305
  849MPD2    N112480   0.521   4.042  14.230  0.6189 -0.6183  0.2082
  849MPD2    H712481   0.602   4.072  14.176 -0.4655  0.4944 -0.8005
  850MPD2     C12482   3.187   2.215  14.871 -0.2376 -0.2343  0.1312
  850MPD2    C112483   3.192   2.121  14.972 -0.3379 -0.0151  0.5381
  850MPD2    C212484   3.282   2.016  14.965  0.1543  0.4409  0.1672
  850MPD2    C312485   3.384   2.017  14.864 -0.3676  0.3789 -0.8885
  850MPD2    C412486   3.376   2.115  14.765 -0.8196  0.2115  0.0198
  850MPD2    C512487   3.276   2.210  14.768  0.3836  1.3432  0.0244
  850MPD2     H12488   3.277   1.949  15.050 -0.8307  1.3903  0.8712
  850MPD2    H112489   3.451   2.121  14.688  0.1133  0.5862  0.9563
  850MPD2    H212490   3.118   2.298  14.876  0.9217  0.6921  0.6873
  850MPD2    H312491   3.290   2.297  14.704 -2.1764  1.5499 -0.2437
  850MPD2     N12492   3.493   1.927  14.868  0.0108  0.2155  0.0439
  850MPD2    H512493   3.574   1.939  14.808  0.3811 -2.0186  0.0859
  850MPD2    N112494   3.110   2.127  15.083  1.2308  0.0335 -0.1318
  850MPD2    H712495   3.129   2.054  15.151 -3.7679 -0.0049  1.2317
  851MPD2     C12496   3.521   2.041  15.594  0.1865  0.1766 -0.1012
  851MPD2    C112497   3.411   1.973  15.549 -0.3982  0.6807  0.1351
  851MPD2    C212498   3.434   1.842  15.508  0.1728 -0.0476 -0.0455
  851MPD2    C312499   3.558   1.781  15.507  0.0819  1.1782 -0.4140
  851MPD2    C412500   3.662   1.849  15.567  0.2019  0.2576  0.2050
  851MPD2    C512501   3.646   1.978  15.610  0.2951 -0.0413  0.1485
  851MPD2     H12502   3.348   1.783  15.478  0.8452 -1.2030  0.3142
  851MPD2    H112503   3.752   1.791  15.574 -0.5133 -1.0130 -1.0272
  851MPD2    H212504   3.513   2.144  15.627  0.4882 -0.1990  1.1289
  851MPD2    H312505   3.722   2.027  15.669 -0.7091  0.6660  0.8579
  851MPD2     N12506   3.565   1.647  15.463  0.1140  0.0367  0.2976
  851MPD2    H512507   3.473   1.614  15.433  0.3279 -1.0049  0.8014
  851MPD2    N112508   3.293   2.042  15.540 -0.1544  0.3035  0.2268
  851MPD2    H712509   3.285   2.131  15.589  0.5319  1.0582 -1.0447
  852MPD2     C12510   2.227   3.995  10.417 -0.7642  0.3015 -0.7682
  852MPD2    C112511   2.359   4.028  10.443 -0.4913 -0.1654  0.3339
  852MPD2    C212512   2.421   4.118  10.353  0.1031  0.6773 -0.4407
  852MPD2    C312513   2.367   4.174  10.244 -0.4861 -0.1820  0.0157
  852MPD2    C412514   2.244   4.130  10.212 -0.8850 -0.4323  0.3226
  852MPD2    C512515   2.177   4.041  10.298  0.2431 -0.2435  0.9759
  852MPD2     H12516   2.526   4.142  10.369  0.3384 -0.9436  0.4369
  852MPD2    H112517   2.185   4.169  10.129  0.4044 -0.4063 -0.5717
  852MPD2    H212518   2.162   3.943  10.486 -2.2564  2.2870 -0.6844
  852MPD2    H312519   2.075   4.011  10.277  0.8747 -0.6480 -1.5312
  852MPD2     N12520   2.443   4.288  10.189  0.0278 -0.2772  0.1979
  852MPD2    H512521   2.536   4.309  10.222 -0.5754  0.3694  1.4758
  852MPD2    N112522   2.425   3.986  10.560 -0.7362  0.1306 -0.1603
  852MPD2    H712523   2.523   4.013  10.568  0.0443 -2.0842 -2.5369
  853MPD2     C12524   0.478   4.288  12.524 -0.2339 -0.2404  0.4464
  853MPD2    C112525   0.341   4.294  12.505  1.2697  0.0995 -0.7347
  853MPD2    C212526   0.293   4.254  12.378 -0.0838  0.4093  0.4711
  853MPD2    C312527   0.380   4.189  12.280  0.2095  0.0490 -0.4987
  853MPD2    C412528   0.517   4.181  12.310  0.8525  0.1258  0.4658
  853MPD2    C512529   0.564   4.245  12.424 -0.7095 -0.0308  0.5296
  853MPD2     H12530   0.186   4.262  12.364 -0.2723 -1.0459  1.0179
  853MPD2    H112531   0.583   4.133  12.239  0.1691 -0.5380  0.2727
  853MPD2    H212532   0.528   4.315  12.616  0.3234  1.1993 -0.2740
  853MPD2    H312533   0.668   4.233  12.451 -0.9190 -0.6930  1.0386
  853MPD2     N12534   0.347   4.134  12.161 -0.4101  0.3253  0.5733
  853MPD2    H512535   0.416   4.079  12.110  0.2236  2.4369 -0.8326
  853MPD2    N112536   0.263   4.351  12.615  0.0013  0.6030  0.3879
  853MPD2    H712537   0.319   4.366  12.698 -0.5029  1.7995  0.5070
  854MPD2     C12538   2.003   0.299  13.366  0.7565  0.7274 -0.3433
  854MPD2    C112539   1.973   0.252  13.244 -0.4710  0.3188  0.2782
  854MPD2    C212540   2.019   0.124  13.210 -0.1136 -0.4046 -0.5718
  854MPD2    C312541   2.094   0.045  13.301 -0.1616  0.6569 -1.1312
  854MPD2    C412542   2.132   0.099  13.423 -0.1792 -0.1486 -0.7136
  854MPD2    C512543   2.083   0.229  13.454  0.7351  0.6394  0.2667
  854MPD2     H12544   1.999   0.089  13.110 -1.7884 -0.9145 -0.0589
  854MPD2    H112545   2.191   0.037  13.490  0.4960 -0.5727 -1.7017
  854MPD2    H212546   1.965   0.396  13.397 -0.9495 -0.3419  0.9224
  854MPD2    H312547   2.113   0.278  13.546  0.2971  0.7676  0.3384
  854MPD2     N12548   2.134   4.642  13.272  0.0773 -0.2271  0.0728
  854MPD2    H512549   2.214   4.608  13.326  0.0207  0.4270  0.5654
  854MPD2    N112550   1.895   0.333  13.157  0.7842  0.7991 -0.1997
  854MPD2    H712551   1.877   0.425  13.197 -0.6643  0.5307 -0.2390
  855MPD2     C12552   2.716   4.337  13.698  0.0326  1.3883  0.4017
  855MPD2    C112553   2.622   4.237  13.715 -0.4915 -0.0308  0.3073
  855MPD2    C212554   2.524   4.209  13.617 -0.2597  0.3394  0.6968
  855MPD2    C312555   2.524   4.299  13.513  0.4764  0.9490 -0.3883
  855MPD2    C412556   2.622   4.386  13.491 -0.2608 -0.0042 -0.1324
  855MPD2    C512557   2.719   4.406  13.579  0.2085 -0.1190 -0.0548
  855MPD2     H12558   2.446   4.137  13.638  0.2598 -0.4849 -0.2279
  855MPD2    H112559   2.631   4.443  13.399 -0.6514 -1.0371 -0.8287
  855MPD2    H212560   2.804   4.344  13.760  1.3880 -0.8542 -1.2563
  855MPD2    H312561   2.788   4.486  13.555  2.2027 -1.7911  0.0916
  855MPD2     N12562   2.419   4.317  13.426 -0.4771  0.1063  0.3631
  855MPD2    H512563   2.431   4.398  13.366  3.3474 -0.3279  0.5334
  855MPD2    N112564   2.619   4.163  13.833  0.4743 -0.3641 -0.5436
  855MPD2    H712565   2.540   4.098  13.830 -0.6119  0.9429 -0.2171
  856MPD2     C12566   0.180   0.645  13.592 -0.1602 -0.4000 -0.1312
  856MPD2    C112567   0.175   0.707  13.713  0.2254  0.1851  0.2254
  856MPD2    C212568   0.081   0.803  13.740 -0.8063 -0.2245 -0.6217
  856MPD2    C312569   4.703   0.835  13.651 -0.1591 -0.1036  0.2519
  856MPD2    C412570   4.694   0.752  13.536 -0.5425 -0.6608 -0.0753
  856MPD2    C512571   0.074   0.668  13.506 -0.2254  0.1098 -0.3500
  856MPD2     H12572   0.088   0.844  13.840 -0.8025  0.0267 -0.7246
  856MPD2    H112573   4.612   0.762  13.466  0.1928  3.6505 -0.3187
  856MPD2    H212574   0.254   0.572  13.564  0.9693 -0.1147  2.1063
  856MPD2    H312575   0.078   0.622  13.408 -0.2385  0.8926 -0.7179
  856MPD2     N12576   4.610   0.945  13.670 -0.0862  0.0008 -0.2849
  856MPD2    H512577   4.527   0.952  13.612  0.8258 -1.4689 -1.7571
  856MPD2    N112578   0.261   0.672  13.821  0.2001  0.2930 -0.7701
  856MPD2    H712579   0.249   0.724  13.907  1.6564 -1.0926  0.2697
  857MPD2     C12580   1.599   2.801  12.296 -0.2113  0.2162 -0.0075
  857MPD2    C112581   1.575   2.763  12.429  0.1795 -0.4117  0.6712
  857MPD2    C212582   1.597   2.856  12.527  0.0475  0.0592 -0.8222
  857MPD2    C312583   1.653   2.983  12.508  0.1866  0.4821 -0.1663
  857MPD2    C412584   1.686   3.011  12.376 -0.1343 -0.1907 -0.2625
  857MPD2    C512585   1.651   2.921  12.274 -0.2310  0.2539  0.2047
  857MPD2     H12586   1.573   2.832  12.630  2.2776  0.3994 -0.2235
  857MPD2    H112587   1.734   3.106  12.357  0.6423 -0.3806  0.7686
  857MPD2    H212588   1.573   2.726  12.223  3.1361  0.2173 -1.1782
  857MPD2    H312589   1.654   2.953  12.171  1.1124  1.6947  0.7041
  857MPD2     N12590   1.658   3.072  12.620 -0.1659  0.4703  0.3734
  857MPD2    H512591   1.633   3.029  12.708  1.4719  1.5131  1.3407
  857MPD2    N112592   1.528   2.628  12.446 -0.0927  0.4545  0.5713
  857MPD2    H712593   1.522   2.574  12.360 -1.2322  2.4096 -0.5816
  858MPD2     C12594   1.292   1.559  16.665 -0.2187 -0.0113  0.0445
  858MPD2    C112595   1.430   1.537  16.683 -0.4101 -0.4521 -0.1292
  858MPD2    C212596   1.511   1.639  16.743  0.3466 -0.8650 -0.1850
  858MPD2    C312597   1.445   1.756  16.780 -0.2098 -0.8492  0.3006
  858MPD2    C412598   1.318   1.780  16.743  0.3562  0.0753  0.8289
  858MPD2    C512599   1.244   1.681  16.687 -0.5342  1.0733 -0.2144
  858MPD2     H12600   1.616   1.611  16.751  0.0882 -1.6037  0.6407
  858MPD2    H112601   1.262   1.871  16.758  0.1368 -0.1308  1.2429
  858MPD2    H212602   1.223   1.482  16.633 -0.5843  0.3522 -0.0436
  858MPD2    H312603   1.141   1.702  16.660 -0.4974  0.1123 -1.1431
  858MPD2     N12604   1.497   1.855  16.864  0.6526 -0.0124  0.0012
  858MPD2    H512605   1.439   1.924  16.912  0.1560 -0.0216 -0.5783
  858MPD2    N112606   1.492   1.417  16.644  0.1627 -0.3890  0.5455
  858MPD2    H712607   1.590   1.406  16.665  0.6047  0.8363 -0.8293
  859MPD2     C12608   0.781   3.716  15.735  0.1481  0.4487 -0.6119
  859MPD2    C112609   0.782   3.744  15.599  1.1292  0.1376  0.3546
  859MPD2    C212610   0.743   3.641  15.511  0.3813 -0.0867 -0.2169
  859MPD2    C312611   0.699   3.519  15.562  0.2907 -0.1484  0.4993
  859MPD2    C412612   0.690   3.502  15.704  0.3323  0.1673 -0.0582
  859MPD2    C512613   0.731   3.600  15.787 -0.3419  0.5097 -0.1185
  859MPD2     H12614   0.746   3.667  15.406  0.2333 -1.3885 -0.5483
  859MPD2    H112615   0.668   3.410  15.757 -0.2073  0.5179  0.3288
  859MPD2    H212616   0.797   3.802  15.799 -0.5323 -0.5610  0.9065
  859MPD2    H312617   0.731   3.578  15.893  0.1947 -1.4684 -0.5260
  859MPD2     N12618   0.675   3.405  15.484 -0.6128  0.0900 -0.2283
  859MPD2    H512619   0.643   3.322  15.533 -2.1747 -0.4782 -2.1847
  859MPD2    N112620   0.809   3.876  15.559 -0.7210 -0.7180  0.3449
  859MPD2    H712621   0.852   3.938  15.626 -0.8120 -0.9535  0.6220
  860MPD2     C12622   2.909   3.899  12.098 -0.1717  0.1976 -0.2990
  860MPD2    C112623   2.825   3.888  12.200 -0.0680  0.0273 -0.1088
  860MPD2    C212624   2.710   3.971  12.195  0.1741 -0.0791  1.2262
  860MPD2    C312625   2.693   4.074  12.104 -0.0332 -0.8252 -0.1872
  860MPD2    C412626   2.785   4.093  12.009 -0.0144 -0.4371  0.2797
  860MPD2    C512627   2.894   4.007  12.008 -0.5550 -0.4172  0.2427
  860MPD2     H12628   2.637   3.959  12.274  0.1373  3.7967  1.7735
  860MPD2    H112629   2.781   4.174  11.937 -0.0321  0.4061  1.2263
  860MPD2    H212630   2.994   3.835  12.079 -1.9471 -2.0547 -0.6395
  860MPD2    H312631   2.951   4.029  11.919  0.5218  0.5635  1.1842
  860MPD2     N12632   2.577   4.152  12.108 -0.7295  0.0262  0.1431
  860MPD2    H512633   2.508   4.126  12.178 -0.8759 -1.1345 -0.4507
  860MPD2    N112634   2.836   3.798  12.309 -0.3932 -0.0132 -0.2444
  860MPD2    H712635   2.755   3.790  12.370 -2.2405  2.2912 -2.3529
  861MPD2     C12636   1.611   2.180  11.023  0.0466 -0.2383  0.4895
  861MPD2    C112637   1.520   2.194  11.127  0.6119 -0.2005  0.4552
  861MPD2    C212638   1.382   2.214  11.087  0.0685  0.7963 -0.2681
  861MPD2    C312639   1.342   2.220  10.955 -0.4149  0.1927  0.3218
  861MPD2    C412640   1.442   2.204  10.858 -0.2913 -0.1861 -0.3250
  861MPD2    C512641   1.575   2.194  10.889  0.0804 -0.0159  0.0571
  861MPD2     H12642   1.314   2.218  11.172  0.5375  1.1097  0.0945
  861MPD2    H112643   1.420   2.192  10.753  2.9889  1.2973 -1.1928
  861MPD2    H212644   1.717   2.184  11.045  0.0184  1.8976  0.3240
  861MPD2    H312645   1.640   2.193  10.802  1.3752 -0.0067  1.0358
  861MPD2     N12646   1.214   2.252  10.918 -0.1493  0.0449  0.9512
  861MPD2    H512647   1.194   2.246  10.819 -0.3095  1.1255  0.9208
  861MPD2    N112648   1.556   2.182  11.265  0.2100 -0.0224 -0.3101
  861MPD2    H712649   1.493   2.211  11.339  1.3310 -1.1752  1.0973
  862MPD2     C12650   0.775   2.251  10.365 -0.4363  0.3323  0.4782
  862MPD2    C112651   0.905   2.262  10.403 -0.3771 -0.0011  0.0284
  862MPD2    C212652   1.006   2.185  10.336  0.3890  0.0320  0.4131
  862MPD2    C312653   0.978   2.102  10.230 -0.4008  0.3057 -0.1250
  862MPD2    C412654   0.844   2.086  10.195  0.3738  0.5006  0.2849
  862MPD2    C512655   0.747   2.157  10.266 -0.7778 -0.4462 -0.0298
  862MPD2     H12656   1.105   2.201  10.376 -0.0043  1.2872  0.8776
  862MPD2    H112657   0.808   2.024  10.114  0.3391 -0.2573  0.8822
  862MPD2    H212658   0.695   2.312  10.405  0.1593  1.0376  0.6004
  862MPD2    H312659   0.643   2.142  10.240 -0.3279 -1.5697 -1.1723
  862MPD2     N12660   1.075   2.025  10.169 -0.5215  0.3443  0.7697
  862MPD2    H512661   1.043   1.967  10.092  1.6697  0.5419 -0.3054
  862MPD2    N112662   0.945   2.335  10.516 -0.2148 -0.4134 -0.9872
  862MPD2    H712663   1.039   2.322  10.552 -0.2453  0.7249 -0.4902
  863MPD2     C12664   4.698   0.492  16.639 -0.5330 -0.5101  0.2777
  863MPD2    C112665   4.694   0.599  16.733 -0.5096 -0.3516 -0.0091
  863MPD2    C212666   0.033   0.578  16.849  0.3016 -0.7643 -0.1499
  863MPD2    C312667   0.067   0.448  16.890 -0.2010 -0.4546  0.3985
  863MPD2    C412668   0.047   0.341  16.813  0.4195 -0.5377  1.1893
  863MPD2    C512669   0.009   0.365  16.686 -0.2319  0.6541 -0.4960
  863MPD2     H12670   0.047   0.653  16.927 -1.5798  0.7840 -1.3090
  863MPD2    H112671   0.076   0.241  16.845  0.7474 -0.8425 -0.0455
  863MPD2    H212672   4.655   0.506  16.540  1.0154 -1.3504 -0.5179
  863MPD2    H312673   0.013   0.287  16.611 -0.9573 -0.1630  0.3290
  863MPD2     N12674   0.113   0.433  17.028  0.6302 -0.1240  0.2426
  863MPD2    H512675   0.123   0.521  17.077 -0.2558  0.9083 -1.4077
  863MPD2    N112676   4.640   0.723  16.703  0.0310  0.2319 -0.3324
  863MPD2    H712677   4.601   0.736  16.610 -3.0212 -0.8522  0.7915
  864MPD2     C12678   0.328   2.249  17.046 -0.1226  0.2364  0.1408
  864MPD2    C112679   0.442   2.169  17.024  0.2677  0.3622  0.0620
  864MPD2    C212680   0.551   2.220  16.942  0.2994 -0.1937  0.1965
  864MPD2    C312681   0.542   2.351  16.889  0.1660  0.2110  0.0224
  864MPD2    C412682   0.430   2.430  16.913  0.1534 -0.5889  0.2380
  864MPD2    C512683   0.328   2.374  16.980 -0.5018  0.4118 -0.4633
  864MPD2     H12684   0.645   2.172  16.921 -0.4328 -1.5349 -0.0182
  864MPD2    H112685   0.413   2.529  16.872  0.8448  0.1683  1.8117
  864MPD2    H212686   0.244   2.219  17.108 -1.4619  1.7245 -0.9351
  864MPD2    H312687   0.248   2.446  16.993 -1.8044 -1.0001 -0.6745
  864MPD2     N12688   0.638   2.414  16.804 -0.1191 -0.0492  0.4642
  864MPD2    H512689   0.621   2.513  16.788 -0.1006  0.0642  1.1735
  864MPD2    N112690   0.444   2.046  17.088  0.2547  0.5570 -0.1022
  864MPD2    H712691   0.365   2.027  17.149  1.7076 -0.9726  1.3331
  865MPD2     C12692   0.771   2.262  15.993  0.4219 -0.4479 -0.1017
  865MPD2    C112693   0.759   2.198  16.113 -0.5180  0.6554  0.1596
  865MPD2    C212694   0.749   2.281  16.234  0.3238  0.9110  0.7848
  865MPD2    C312695   0.747   2.421  16.222 -0.8317 -0.6980  0.5311
  865MPD2    C412696   0.750   2.479  16.095 -0.5558  0.7518  0.4804
  865MPD2    C512697   0.762   2.398  15.981 -0.2816 -0.2445 -0.1727
  865MPD2     H12698   0.744   2.234  16.331 -2.3313 -0.1695  0.1317
  865MPD2    H112699   0.769   2.584  16.075 -0.8680  0.9068  0.9895
  865MPD2    H212700   0.778   2.198  15.906 -1.6031  1.2995 -1.5469
  865MPD2    H312701   0.797   2.442  15.889  1.7880 -0.3169  0.5944
  865MPD2     N12702   0.733   2.487  16.341  0.4366 -0.1757 -0.4067
  865MPD2    H512703   0.720   2.425  16.420 -1.1377  1.6863  0.7836
  865MPD2    N112704   0.775   2.051  16.110 -0.2834 -0.1075  0.6253
  865MPD2    H712705   0.800   2.005  16.023 -0.7170  1.5371 -0.3681
  866MPD2     C12706   2.077   2.890  11.529  0.6593  0.6853 -0.2753
  866MPD2    C112707   2.097   2.815  11.414 -0.4040  0.4669  0.6072
  866MPD2    C212708   1.988   2.770  11.339 -0.5201  0.2125 -0.2414
  866MPD2    C312709   1.856   2.798  11.386  0.2770  0.2422  0.1490
  866MPD2    C412710   1.837   2.872  11.501  0.3380 -0.4366 -0.2022
  866MPD2    C512711   1.947   2.927  11.563  0.2717  0.4487  0.8685
  866MPD2     H12712   2.010   2.710  11.252  0.0920  0.6584 -0.3902
  866MPD2    H112713   1.740   2.901  11.540  0.3694  0.6273 -0.9189
  866MPD2    H212714   2.154   2.941  11.586  0.3801  0.6276  0.1556
  866MPD2    H312715   1.928   2.999  11.641  0.3551 -0.2424  1.5217
  866MPD2     N12716   1.735   2.760  11.330  0.6090 -0.3624 -1.3239
  866MPD2    H512717   1.654   2.772  11.390  2.7331 -1.9174  1.7950
  866MPD2    N112718   2.224   2.783  11.371  0.4046 -0.0537 -0.1310
  866MPD2    H712719   2.225   2.724  11.288  1.9850 -1.7959  1.1217
  867MPD2     C12720   4.288   1.863  16.308 -0.4419  0.5797 -0.4210
  867MPD2    C112721   4.395   1.869  16.390  0.1287 -0.4158 -0.4075
  867MPD2    C212722   4.455   1.995  16.414 -0.3966  0.1297 -0.3802
  867MPD2    C312723   4.399   2.113  16.360  0.3336  0.1157  0.2548
  867MPD2    C412724   4.291   2.098  16.282  0.0838 -0.5633  0.2207
  867MPD2    C512725   4.238   1.977  16.250  0.0990 -0.1587 -0.1836
  867MPD2     H12726   4.554   1.989  16.458 -0.7498 -1.4903  0.1775
  867MPD2    H112727   4.251   2.181  16.224 -1.6885 -0.6193  1.3715
  867MPD2    H212728   4.235   1.772  16.282 -0.6245  0.6613 -0.3303
  867MPD2    H312729   4.146   1.970  16.193 -0.9141 -0.4488  1.4798
  867MPD2     N12730   4.445   2.242  16.381  0.0428  0.5322  0.1098
  867MPD2    H512731   4.391   2.321  16.345  1.0042  1.4294  0.6606
  867MPD2    N112732   4.436   1.744  16.436 -0.4972 -0.4292 -0.0826
  867MPD2    H712733   4.377   1.662  16.426 -0.7820 -0.0077 -1.7931
  868MPD2     C12734   1.606   1.357  13.292 -0.7825 -0.3383  0.2059
  868MPD2    C112735   1.627   1.240  13.357  0.3778  0.2263  0.2543
  868MPD2    C212736   1.566   1.236  13.480  0.0199 -0.1385  0.1845
  868MPD2    C312737   1.489   1.339  13.534  0.3820  0.2767  0.0443
  868MPD2    C412738   1.478   1.454  13.461 -0.3394  0.2861 -0.2722
  868MPD2    C512739   1.542   1.465  13.345  0.1846 -0.4653 -0.6488
  868MPD2     H12740   1.573   1.153  13.550 -1.4048  1.1973  1.8985
  868MPD2    H112741   1.429   1.544  13.496 -0.1541  0.4501 -0.4359
  868MPD2    H212742   1.641   1.375  13.191  2.6233  0.1716  1.4661
  868MPD2    H312743   1.528   1.557  13.289 -1.1854  0.5581  1.3870
  868MPD2     N12744   1.440   1.330  13.671 -0.2974  0.4744  0.4253
  868MPD2    H512745   1.460   1.240  13.715 -0.4908 -0.6530 -1.7549
  868MPD2    N112746   1.698   1.127  13.303  0.2449  0.0055  0.5999
  868MPD2    H712747   1.742   1.149  13.215 -1.3427  1.9683  0.2996
  869MPD2     C12748   2.527   3.342   2.055 -0.1738 -0.0448 -0.1367
  869MPD2    C112749   2.409   3.298   2.009 -0.4157  0.2076  0.2108
  869MPD2    C212750   2.341   3.374   1.911 -0.1839  0.6900  0.1872
  869MPD2    C312751   2.389   3.499   1.867 -0.1948  0.4461 -0.6400
  869MPD2    C412752   2.504   3.542   1.918  0.2061  0.2984  0.1228
  869MPD2    C512753   2.571   3.471   2.017 -0.1996  0.4431 -0.1020
  869MPD2     H12754   2.242   3.343   1.879  0.7346 -1.8549 -0.1950
  869MPD2    H112755   2.548   3.633   1.881 -0.6479  0.1535 -1.2254
  869MPD2    H212756   2.587   3.295   2.132 -0.7805  1.3230  1.1933
  869MPD2    H312757   2.667   3.506   2.053 -0.2206  1.8587 -1.4273
  869MPD2     N12758   2.329   3.569   1.756  0.0623  0.4522 -0.1861
  869MPD2    H512759   2.375   3.655   1.729 -1.5064  1.0550 -0.9374
  869MPD2    N112760   2.346   3.183   2.054  0.5597  0.1591 -0.1932
  869MPD2    H712761   2.261   3.157   2.005 -0.8845 -0.9517  2.8981
  870MPD2     C12762   1.560   2.294   1.729  0.4320 -0.0769 -0.1617
  870MPD2    C112763   1.669   2.376   1.732  0.3628 -0.2764 -0.0297
  870MPD2    C212764   1.662   2.496   1.676 -0.2720 -0.7656 -0.5188
  870MPD2    C312765   1.542   2.552   1.653 -0.7004  0.0782  0.4434
  870MPD2    C412766   1.432   2.473   1.643  0.0921  0.1137 -0.1000
  870MPD2    C512767   1.441   2.341   1.681  0.3904 -0.8022 -0.0662
  870MPD2     H12768   1.746   2.564   1.664  0.4904 -1.2170  2.4303
  870MPD2    H112769   1.337   2.504   1.601  0.4413  0.5944 -0.5380
  870MPD2    H212770   1.551   2.199   1.781 -0.4302 -0.5312 -1.1420
  870MPD2    H312771   1.347   2.288   1.688 -0.7625  1.2747  0.1771
  870MPD2     N12772   1.540   2.691   1.614  0.2371 -0.0707  0.3041
  870MPD2    H512773   1.622   2.750   1.610  0.1226  0.0662  0.0341
  870MPD2    N112774   1.785   2.318   1.793 -0.5692 -0.1063  0.3620
  870MPD2    H712775   1.773   2.221   1.820  0.6354  0.1813  1.8955
  871MPD2     C12776   3.259   2.197  16.417  0.1596 -0.1699  0.1438
  871MPD2    C112777   3.191   2.162  16.531 -0.4243 -0.2937 -0.0006
  871MPD2    C212778   3.106   2.045  16.529 -0.6672 -1.2670  0.1441
  871MPD2    C312779   3.104   1.967  16.413 -0.3544 -0.0740 -0.0263
  871MPD2    C412780   3.160   2.014  16.302  0.5067 -0.4949 -0.0602
  871MPD2    C512781   3.232   2.131  16.300  0.1296  0.1697  0.1967
  871MPD2     H12782   3.060   2.017  16.623  0.5054 -2.9518  0.2238
  871MPD2    H112783   3.137   1.958  16.213  1.9556  0.6045 -1.1332
  871MPD2    H212784   3.329   2.280  16.422 -0.6289  0.4723  0.4909
  871MPD2    H312785   3.273   2.171  16.208 -0.5059 -1.0542 -0.6142
  871MPD2     N12786   3.027   1.848  16.396 -0.0026 -0.3283 -0.0544
  871MPD2    H512787   3.043   1.795  16.311  0.0844  1.4540 -1.1594
  871MPD2    N112788   3.211   2.248  16.643 -0.1943 -0.1525  0.6592
  871MPD2    H712789   3.275   2.324  16.621  1.5354 -1.4634  1.1868
  872MPD2     C12790   4.243   0.240  13.915  0.5522  0.0108  0.1668
  872MPD2    C112791   4.328   0.145  13.970  0.0055  0.1926  0.1700
  872MPD2    C212792   4.280   0.053  14.063  0.2068 -0.2870 -0.3527
  872MPD2    C312793   4.147   0.065  14.106  1.3800  0.4573 -0.8738
  872MPD2    C412794   4.068   0.167  14.052 -0.4871  0.0629 -0.3866
  872MPD2    C512795   4.114   0.252  13.957 -0.2948 -0.5381  0.2615
  872MPD2     H12796   4.346   4.701  14.097  0.2580 -0.8558 -1.7696
  872MPD2    H112797   3.969   0.182  14.092 -0.6510  1.1547 -1.2041
  872MPD2    H212798   4.279   0.300  13.832  0.0028 -0.0827 -0.1336
  872MPD2    H312799   4.043   0.308  13.897  0.7127  1.0431  0.5447
  872MPD2     N12800   4.086   4.704  14.202 -0.1822 -0.2763  0.3197
  872MPD2    H512801   3.985   4.707  14.191  0.0259  1.3043 -1.1825
  872MPD2    N112802   4.455   0.118  13.914 -0.2374  0.4443 -0.0764
  872MPD2    H712803   4.498   0.027  13.928 -0.7302  0.2260 -0.0005
  873MPD2     C12804   0.516   3.733   0.915 -0.3786  0.5798  0.3028
  873MPD2    C112805   0.436   3.774   1.022 -0.1795  0.0847 -0.9674
  873MPD2    C212806   0.338   3.690   1.074 -0.2815 -0.3035  0.3157
  873MPD2    C312807   0.326   3.560   1.025 -0.2767  0.5656 -0.1506
  873MPD2    C412808   0.419   3.512   0.936  0.3104 -0.6255  0.1039
  873MPD2    C512809   0.507   3.602   0.876  0.1703  0.3573 -0.1871
  873MPD2     H12810   0.267   3.729   1.146  0.7300 -1.1676  1.7717
  873MPD2    H112811   0.407   3.413   0.895  0.5541 -1.0130  0.9714
  873MPD2    H212812   0.588   3.798   0.867 -0.2459 -0.3709 -0.7654
  873MPD2    H312813   0.578   3.561   0.806 -0.4273 -0.8858 -0.0782
  873MPD2     N12814   0.228   3.463   1.065 -0.2084 -0.1568  0.4498
  873MPD2    H512815   0.222   3.373   1.019 -1.3598 -0.9437  2.1489
  873MPD2    N112816   0.440   3.912   1.050 -0.1442  0.4713  0.6797
  873MPD2    H712817   0.517   3.962   1.006  1.4204 -1.1495  1.5638
  874MPD2     C12818   0.489   4.383  16.864  1.0920  0.4777  0.7467
  874MPD2    C112819   0.414   4.367  16.751  0.5588  0.3208 -0.1443
  874MPD2    C212820   0.426   4.469  16.653  0.4929 -0.4844 -0.7720
  874MPD2    C312821   0.509   4.578  16.677 -0.1726  0.3405 -0.1814
  874MPD2    C412822   0.578   4.598  16.794 -0.6999 -0.2649 -0.1709
  874MPD2    C512823   0.575   4.491  16.879 -0.1300 -0.3281  0.2738
  874MPD2     H12824   0.389   4.460  16.552  2.0745 -2.1031 -1.2179
  874MPD2    H112825   0.650   4.676  16.817 -0.7415 -0.3788  0.3621
  874MPD2    H212826   0.498   4.304  16.937 -0.7312 -0.4769 -0.0432
  874MPD2    H312827   0.642   4.492  16.964  1.5871  0.3479 -1.0972
  874MPD2     N12828   0.519   4.668  16.562  0.0766  0.6666  0.1783
  874MPD2    H512829   0.463   4.648  16.480 -0.0665 -0.2556  0.5008
  874MPD2    N112830   0.327   4.258  16.742 -0.3326 -0.1273  0.2150
  874MPD2    H712831   0.333   4.195  16.821  3.3536 -2.1474 -1.6456
  875MPD2     C12832   2.147   3.207  14.772  0.6386  0.1253  0.5093
  875MPD2    C112833   2.019   3.196  14.826 -1.1813 -0.1373 -0.6245
  875MPD2    C212834   1.993   3.214  14.964  0.1493 -0.1666 -0.1061
  875MPD2    C312835   2.093   3.246  15.048 -0.1820  0.2417 -0.0683
  875MPD2    C412836   2.217   3.275  14.989  0.3803  0.2964  0.1454
  875MPD2    C512837   2.250   3.229  14.856 -0.2961 -0.6470  0.1845
  875MPD2     H12838   1.892   3.196  15.000  0.4346  0.8467  1.2061
  875MPD2    H112839   2.300   3.314  15.046  0.4550  1.1666 -0.5520
  875MPD2    H212840   2.170   3.191  14.667  1.1741  1.5727  0.4041
  875MPD2    H312841   2.338   3.274  14.813 -1.0380  0.7313  0.1363
  875MPD2     N12842   2.084   3.261  15.191  0.2278 -0.1428  0.6373
  875MPD2    H512843   2.175   3.268  15.236  1.0103 -0.8973 -0.8286
  875MPD2    N112844   1.900   3.181  14.743 -0.3054  0.0385 -0.0456
  875MPD2    H712845   1.812   3.199  14.791 -1.3564  1.1075 -2.3292
  876MPD2     C12846   0.795   4.356  16.257  0.8861 -0.6377  0.2713
  876MPD2    C112847   0.910   4.304  16.207  0.1749  0.3029 -0.1568
  876MPD2    C212848   0.955   4.183  16.254  0.6512  0.1077  0.1766
  876MPD2    C312849   0.873   4.096  16.329  0.5248 -0.3660 -0.1061
  876MPD2    C412850   0.745   4.147  16.356  0.3564 -0.2343  0.4259
  876MPD2    C512851   0.706   4.271  16.323  1.3599  0.3560 -0.8437
  876MPD2     H12852   1.049   4.141  16.220  1.4038  0.8009  1.3742
  876MPD2    H112853   0.672   4.094  16.415 -0.8011  0.8817  0.0040
  876MPD2    H212854   0.782   4.461  16.236  1.6613 -0.8743 -1.4138
  876MPD2    H312855   0.612   4.317  16.351  0.2621 -2.2777 -0.1135
  876MPD2     N12856   0.919   3.974  16.379  0.1210 -0.2013  0.5362
  876MPD2    H512857   1.019   3.961  16.374  0.2253  0.6547  0.4474
  876MPD2    N112858   0.986   4.385  16.119 -0.3400  0.3170 -0.2343
  876MPD2    H712859   0.941   4.471  16.089 -1.1886  0.0017  0.1279
  877MPD2     C12860   0.942   4.692  15.417  0.2701  0.0695 -0.1861
  877MPD2    C112861   1.073   4.722  15.457  0.1670 -0.2059  0.1663
  877MPD2    C212862   1.166   0.038  15.368  0.7176  0.4022 -0.3147
  877MPD2    C312863   1.135   0.051  15.234 -0.4240  0.2687  0.0394
  877MPD2    C412864   1.004   0.026  15.194  0.6095  0.3180  0.1592
  877MPD2    C512865   0.915   4.701  15.285 -0.2049  0.0969  0.2050
  877MPD2     H12866   1.266   0.068  15.397  0.9869 -2.8988  2.2629
  877MPD2    H112867   0.972   0.042  15.092  0.1638  1.2902  0.4560
  877MPD2    H212868   0.867   4.649  15.481  0.4162  1.6567  1.0385
  877MPD2    H312869   0.817   4.659  15.263 -0.3450  0.4913  0.0923
  877MPD2     N12870   1.206   0.115  15.137  0.0597 -0.2187  0.2164
  877MPD2    H512871   1.177   0.102  15.041 -0.5860 -0.1647  0.4002
  877MPD2    N112872   1.116   4.702  15.589  0.6609  0.5009  0.0001
  877MPD2    H712873   1.206   0.017  15.613  1.7629 -0.8812 -1.7653
  878MPD2     C12874   0.536   3.618  13.270 -0.1270  0.0488  0.4816
  878MPD2    C112875   0.579   3.748  13.264  0.0397 -0.4058 -0.1438
  878MPD2    C212876   0.590   3.808  13.387 -0.0731 -0.4078  0.2239
  878MPD2    C312877   0.550   3.752  13.505  0.5913  0.6931  0.7753
  878MPD2    C412878   0.486   3.632  13.501 -0.1631  0.8994 -0.0445
  878MPD2    C512879   0.496   3.563  13.387 -0.0771 -0.2484  0.0188
  878MPD2     H12880   0.641   3.904  13.391 -1.5872  0.4668 -1.4447
  878MPD2    H112881   0.465   3.569  13.586 -0.9659 -1.6930 -2.1565
  878MPD2    H212882   0.517   3.565  13.177  2.2240  1.6824 -0.9272
  878MPD2    H312883   0.471   3.457  13.387 -0.7195 -0.1006  1.7186
  878MPD2     N12884   0.571   3.823  13.629 -0.0544  0.2932 -0.0640
  878MPD2    H512885   0.636   3.902  13.627 -0.7255  0.8304 -0.5329
  878MPD2    N112886   0.591   3.818  13.142 -0.1526  0.0143 -0.0222
  878MPD2    H712887   0.586   3.773  13.051  1.0796 -0.9033  0.3691
  879MPD2     C12888   0.599   0.458  16.952  0.3865  0.3662  0.4666
  879MPD2    C112889   0.611   0.396  17.071  0.5223 -0.1961  0.9019
  879MPD2    C212890   0.545   0.277  17.091  0.7757 -0.7077  0.6221
  879MPD2    C312891   0.474   0.223  16.985 -0.7357 -0.3856 -0.4324
  879MPD2    C412892   0.464   0.295  16.864 -0.1542 -0.0320 -0.0530
  879MPD2    C512893   0.532   0.408  16.848  0.0176 -0.2522  0.1800
  879MPD2     H12894   0.552   0.225  17.186 -0.4766  2.1448  2.2994
  879MPD2    H112895   0.393   0.271  16.786  1.9135 -0.6520 -1.7503
  879MPD2    H212896   0.662   0.545  16.935  1.0412 -0.7942 -3.0489
  879MPD2    H312897   0.519   0.465  16.757  0.4008 -0.0646  0.2443
  879MPD2     N12898   0.394   0.103  16.988 -0.1039  0.1422  0.5028
  879MPD2    H512899   0.320   0.086  16.921  2.7118 -2.2421 -1.9744
  879MPD2    N112900   0.697   0.453  17.173 -0.5050  0.2604  0.2141
  879MPD2    H712901   0.744   0.539  17.146  1.4578 -0.4281  1.4218
  880MPD2     C12902   2.420   2.452   0.529 -0.2361  0.2832 -0.8197
  880MPD2    C112903   2.322   2.487   0.621 -0.6674 -0.3367  0.4525
  880MPD2    C212904   2.269   2.390   0.703  0.2257  0.0872  0.1261
  880MPD2    C312905   2.298   2.252   0.688  0.5022  0.3830  0.6462
  880MPD2    C412906   2.379   2.222   0.578  0.3366 -0.0760 -0.7045
  880MPD2    C512907   2.444   2.320   0.506 -0.3815  0.4385  0.0720
  880MPD2     H12908   2.206   2.412   0.789 -0.9016 -3.5935  0.2556
  880MPD2    H112909   2.402   2.118   0.555  2.0633 -0.0597  0.9931
  880MPD2    H212910   2.470   2.519   0.459  2.0884 -0.7102 -0.0871
  880MPD2    H312911   2.520   2.297   0.432 -2.3548  0.2420 -1.8760
  880MPD2     N12912   2.230   2.163   0.776 -0.1327  0.2023  0.1064
  880MPD2    H512913   2.184   2.198   0.859  0.5734 -0.2984  0.7080
  880MPD2    N112914   2.294   2.624   0.646 -0.0507  0.4794  0.2012
  880MPD2    H712915   2.318   2.686   0.569  0.0579  0.2688  0.0645
  881MPD2     C12916   2.538   3.294   0.139  0.5285 -0.1889 -0.3871
  881MPD2    C112917   2.503   3.164   0.099 -0.1400 -0.6858  0.0883
  881MPD2    C212918   2.429   3.085   0.191 -0.5148 -0.9332  0.2622
  881MPD2    C312919   2.400   3.133   0.319  0.0743  0.0896  0.1514
  881MPD2    C412920   2.432   3.260   0.356  0.6036 -0.3580 -0.4187
  881MPD2    C512921   2.507   3.333   0.268  0.5126  0.2159 -0.3560
  881MPD2     H12922   2.393   2.987   0.163 -1.5132 -0.9030  1.4486
  881MPD2    H112923   2.406   3.305   0.452 -1.6960  1.5437 -1.9459
  881MPD2    H212924   2.603   3.354   0.076 -1.6367  0.7388 -1.7138
  881MPD2    H312925   2.542   3.432   0.296  0.3090  1.2951 -3.9447
  881MPD2     N12926   2.336   3.050   0.422 -0.5898 -0.8047  0.1299
  881MPD2    H512927   2.319   2.951   0.407  0.0096 -1.0298  0.9435
  881MPD2    N112928   2.517   3.139  17.671  0.6424 -0.2282  0.1356
  881MPD2    H712929   2.554   3.210  17.608  2.0878 -1.9246 -0.9042
  882MPD2     C12930   1.271   4.537  14.445 -0.9615  0.2773 -0.0153
  882MPD2    C112931   1.220   4.607  14.556  0.3668  0.2508  0.3384
  882MPD2    C212932   1.087   4.578  14.590 -0.2581 -0.3989 -0.7517
  882MPD2    C312933   1.017   4.485  14.515  0.5923 -0.2607  0.1123
  882MPD2    C412934   1.072   4.413  14.413 -0.9374  1.0357 -0.4509
  882MPD2    C512935   1.197   4.443  14.380  0.3628  0.1791 -0.0678
  882MPD2     H12936   1.038   4.630  14.671  2.4481  1.4429 -0.3102
  882MPD2    H112937   1.029   4.347  14.339 -0.6616  1.3929 -0.9302
  882MPD2    H212938   1.374   4.560  14.420 -0.5129 -0.1177  1.4498
  882MPD2    H312939   1.244   4.409  14.288  0.2579  1.4392 -0.5975
  882MPD2     N12940   0.879   4.445  14.540 -0.7139 -0.3255 -0.1199
  882MPD2    H512941   0.822   4.398  14.470 -1.2520  0.4715 -0.2317
  882MPD2    N112942   1.299   4.697  14.627 -0.6584 -0.2292  0.6110
  882MPD2    H712943   1.397   4.694  14.602 -0.9752  2.3185 -0.9071
  883MPD2     C12944   3.020   0.232  16.742  0.3201  0.0968 -0.0368
  883MPD2    C112945   3.139   0.203  16.677 -0.0698 -0.9014 -0.3885
  883MPD2    C212946   3.260   0.231  16.736  0.9892  0.2063 -0.6501
  883MPD2    C312947   3.265   0.277  16.866 -0.1197 -0.3240  0.9814
  883MPD2    C412948   3.145   0.311  16.926  0.0340 -0.0730  0.5930
  883MPD2    C512949   3.022   0.288  16.870 -0.2209  0.3231  0.5310
  883MPD2     H12950   3.345   0.205  16.673 -0.0816 -0.2596 -1.9205
  883MPD2    H112951   3.148   0.350  17.027  0.4497 -0.9563  0.9220
  883MPD2    H212952   2.920   0.215  16.704 -0.1777  0.5418  1.0750
  883MPD2    H312953   2.930   0.308  16.925 -0.0268 -0.6151  1.1923
  883MPD2     N12954   3.390   0.300  16.930 -0.7434  0.3750 -0.1722
  883MPD2    H512955   3.471   0.289  16.870  0.1248 -0.7199  1.1923
  883MPD2    N112956   3.140   0.162  16.540 -0.3985  0.1679 -0.2831
  883MPD2    H712957   3.233   0.142  16.503  0.1333  1.5942  0.2471
  884MPD2     C12958   0.079   0.234  15.263  0.5039 -0.0247  0.1968
  884MPD2    C112959   0.105   0.371  15.264 -0.1204 -0.3863 -0.2247
  884MPD2    C212960   0.003   0.459  15.244  0.0185 -1.2148 -0.2914
  884MPD2    C312961   4.598   0.411  15.234 -0.2730 -0.1795 -0.5635
  884MPD2    C412962   4.570   0.276  15.242  0.0423  0.5687  0.4259
  884MPD2    C512963   4.680   0.186  15.240  0.3120  0.3665 -0.0112
  884MPD2     H12964   0.018   0.567  15.245 -2.0724 -0.9348  0.4958
  884MPD2    H112965   4.473   0.231  15.254 -0.0251  0.3149 -1.0806
  884MPD2    H212966   0.157   0.160  15.277  0.6683  0.0480 -0.3720
  884MPD2    H312967   4.654   0.081  15.250 -0.0169  0.7506  3.0791
  884MPD2     N12968   4.499   0.515  15.241 -0.6088 -0.6717  0.0024
  884MPD2    H512969   4.538   0.609  15.241 -1.7967 -0.1786  1.3658
  884MPD2    N112970   0.241   0.421  15.283  0.2746 -0.8740 -0.3269
  884MPD2    H712971   0.252   0.521  15.268 -1.6517 -0.0413  3.7589
  885MPD2     C12972   2.342   0.809  17.642  0.6247 -0.1201  0.2008
  885MPD2    C112973   2.454   0.873  17.691 -0.6182  0.0607  0.2608
  885MPD2    C212974   2.541   0.946  17.609 -0.4944  0.5183 -0.4916
  885MPD2    C312975   2.510   0.939  17.469 -0.2827 -0.3281 -0.4845
  885MPD2    C412976   2.396   0.879  17.424 -0.7800  0.7564  0.0203
  885MPD2    C512977   2.315   0.817  17.507 -0.0772  0.5924  0.1937
  885MPD2     H12978   2.630   0.999  17.640 -2.0553  1.8535  1.6934
  885MPD2    H112979   2.377   0.858  17.319 -1.2850  0.7244  0.1177
  885MPD2    H212980   2.263   0.773   0.000 -1.3886  2.3195 -0.9199
  885MPD2    H312981   2.228   0.767  17.468  0.3938 -0.3820  0.4024
  885MPD2     N12982   2.583   1.005  17.364  0.1319  0.4195 -0.3060
  885MPD2    H512983   2.549   0.984  17.271  2.0762 -3.2610 -0.2137
  885MPD2    N112984   2.473   0.873   0.125 -0.4016 -0.2419  0.6048
  885MPD2    H712985   2.394   0.844   0.183 -0.0420 -1.1954  0.6191
  886MPD2     C12986   4.237   3.718  14.830 -0.7242  1.1089 -0.2171
  886MPD2    C112987   4.371   3.729  14.868  0.5126  0.0425  0.5535
  886MPD2    C212988   4.454   3.826  14.816  0.0028  0.3795  0.5422
  886MPD2    C312989   4.404   3.915  14.720  0.1936  0.0999 -0.1922
  886MPD2    C412990   4.281   3.891  14.671  0.2383  0.5321 -0.1782
  886MPD2    C512991   4.196   3.799  14.728  0.0769 -0.6190 -0.1129
  886MPD2     H12992   4.551   3.838  14.863 -0.2366  3.0877  0.3460
  886MPD2    H112993   4.231   3.949  14.595  1.3695  1.0193 -0.5598
  886MPD2    H212994   4.179   3.628  14.847  1.3403 -0.6485 -2.4645
  886MPD2    H312995   4.092   3.794  14.698 -0.8987  0.4599  3.0831
  886MPD2     N12996   4.474   4.037  14.689  0.5029 -0.2416  0.2934
  886MPD2    H512997   4.446   4.094  14.611  0.1142 -1.3060 -0.3372
  886MPD2    N112998   4.435   3.648  14.965  0.2310 -0.0704  0.4269
  886MPD2    H712999   4.536   3.653  14.972  0.3223  0.5550 -1.1302
  887MPD2     C13000   0.304   3.613  15.414  0.2471 -0.0097 -0.1303
  887MPD2    C113001   0.198   3.683  15.352 -0.5038 -0.2748 -0.3026
  887MPD2    C213002   0.199   3.822  15.346 -0.0512  0.5621 -0.0497
  887MPD2    C313003   0.305   3.899  15.398 -0.6591 -0.2322 -0.1755
  887MPD2    C413004   0.397   3.825  15.473  0.2592 -0.3766  0.7250
  887MPD2    C513005   0.397   3.688  15.483  0.6021  0.1695 -0.0308
  887MPD2     H13006   0.122   3.883  15.300  0.0962  0.2371 -0.7318
  887MPD2    H113007   0.481   3.873  15.522  0.7850 -0.2986 -0.2590
  887MPD2    H213008   0.319   3.506  15.419  1.0162 -0.0197 -2.5714
  887MPD2    H313009   0.476   3.648  15.545 -0.5168 -1.4681  0.3420
  887MPD2     N13010   0.316   4.035  15.382 -0.3827  1.0296  0.0918
  887MPD2    H513011   0.236   4.079  15.337 -0.4900 -0.6696 -1.3726
  887MPD2    N113012   0.085   3.624  15.298  0.4669 -0.2247  0.2972
  887MPD2    H713013   0.012   3.673  15.248  1.4732  0.1901 -0.7849
  888MPD2     C13014   2.201   4.383  14.774 -0.0294 -0.2966  0.7723
  888MPD2    C113015   2.234   4.357  14.907  0.3897 -0.4928  0.1402
  888MPD2    C213016   2.354   4.414  14.954  0.1946  0.5291 -0.1674
  888MPD2    C313017   2.439   4.486  14.875 -0.0808 -0.2365  0.5030
  888MPD2    C413018   2.407   4.499  14.743  0.7435  0.1949 -0.2602
  888MPD2    C513019   2.296   4.445  14.699  0.1983 -0.4338  0.3780
  888MPD2     H13020   2.392   4.409  15.056  1.0175  0.0104 -0.4953
  888MPD2    H113021   2.466   4.549  14.667  1.1189  0.1147 -0.0234
  888MPD2    H213022   2.126   4.328  14.720 -2.4678  2.5294  1.2874
  888MPD2    H313023   2.280   4.430  14.593 -0.2012  1.2744  0.2028
  888MPD2     N13024   2.546   4.557  14.933  0.2235 -0.4728 -0.3353
  888MPD2    H513025   2.572   4.532  15.028 -1.2251 -2.7479 -0.5472
  888MPD2    N113026   2.157   4.277  14.997  0.4180 -0.2625 -0.6656
  888MPD2    H713027   2.188   4.280  15.094 -0.8939 -0.0601 -0.2560
  889MPD2     C13028   1.284   3.799  12.804 -0.3840 -0.1066 -0.7862
  889MPD2    C113029   1.363   3.768  12.913  0.1453  1.2193  0.6938
  889MPD2    C213030   1.384   3.872  13.001  0.2315 -1.3387  0.5853
  889MPD2    C313031   1.309   3.989  13.005 -0.2924 -0.4210 -0.7126
  889MPD2    C413032   1.216   4.007  12.901 -0.2312  0.2438  0.1160
  889MPD2    C513033   1.209   3.911  12.805  0.4371 -0.0664 -0.9493
  889MPD2     H13034   1.447   3.844  13.084 -1.6447 -2.0969  1.7382
  889MPD2    H113035   1.153   4.091  12.877 -0.4542 -0.2006 -0.8598
  889MPD2    H213036   1.248   3.726  12.732 -0.2370 -0.1896 -0.7768
  889MPD2    H313037   1.156   3.938  12.714 -0.2331 -2.6976 -1.3508
  889MPD2     N13038   1.324   4.083  13.110 -0.0739 -0.0233  0.4688
  889MPD2    H513039   1.392   4.071  13.184  1.6277  2.8149 -0.6499
  889MPD2    N113040   1.458   3.663  12.903 -0.3458  0.5171 -0.2114
  889MPD2    H713041   1.536   3.660  12.967  1.5995 -2.4788 -2.7249
  890MPD2     C13042   1.002   0.511  14.815  0.1794 -0.5512  0.2440
  890MPD2    C113043   1.097   0.583  14.874 -0.1632 -0.3127 -0.0162
  890MPD2    C213044   1.130   0.555  15.010  0.5320  0.0202  0.4154
  890MPD2    C313045   1.066   0.453  15.076  0.1329  0.1678 -0.3347
  890MPD2    C413046   0.981   0.368  15.009  0.6364 -0.6105  0.3213
  890MPD2    C513047   0.952   0.399  14.880 -0.4379  0.2646  0.0303
  890MPD2     H13048   1.192   0.621  15.069 -1.3653  1.4154  0.8831
  890MPD2    H113049   0.928   0.283  15.051  0.0343 -1.1220 -1.4618
  890MPD2    H213050   0.971   0.528  14.712  1.5290  1.4299  0.1698
  890MPD2    H313051   0.887   0.334  14.822  0.9383 -1.0348 -0.0557
  890MPD2     N13052   1.093   0.451  15.218 -0.2771 -0.1209 -0.3126
  890MPD2    H513053   1.169   0.509  15.252 -0.7853 -0.8032  1.9430
  890MPD2    N113054   1.155   0.698  14.808  0.4113 -0.3948 -0.2642
  890MPD2    H713055   1.110   0.726  14.721  0.4242  1.0833  0.1916
  891MPD2     C13056   3.436   4.117  16.464  0.9859 -0.0837 -0.1827
  891MPD2    C113057   3.449   4.190  16.580 -0.8693 -0.2451  0.2421
  891MPD2    C213058   3.552   4.157  16.670  0.0428 -0.2558 -0.4945
  891MPD2    C313059   3.647   4.060  16.650  0.1054  1.0793 -0.3545
  891MPD2    C413060   3.634   3.992  16.535  0.3148 -0.5774 -0.6754
  891MPD2    C513061   3.534   4.023  16.447  0.0708  0.3283 -0.7229
  891MPD2     H13062   3.563   4.222  16.756 -0.0648 -1.4615  0.4299
  891MPD2    H113063   3.696   3.912  16.498 -0.0308 -0.6391 -1.1256
  891MPD2    H213064   3.361   4.124  16.386 -0.0371  2.4222  1.0632
  891MPD2    H313065   3.530   3.959  16.360 -3.6290  1.5832 -1.4783
  891MPD2     N13066   3.754   4.062  16.743  0.3168 -0.4331 -0.2953
  891MPD2    H513067   3.744   4.126  16.820  0.5353 -0.9241  0.1416
  891MPD2    N113068   3.344   4.284  16.606 -0.0377  0.3923  0.0039
  891MPD2    H713069   3.277   4.302  16.532  1.4597  1.5073 -1.0840
  892MPD2     C13070   0.328   0.422  14.899  0.7125 -0.1868 -0.1380
  892MPD2    C113071   0.234   0.337  14.847  0.1528 -0.0162  0.0812
  892MPD2    C213072   0.270   0.215  14.807  0.0654  0.5746 -0.6454
  892MPD2    C313073   0.400   0.171  14.831  0.6064  0.6698 -0.5088
  892MPD2    C413074   0.491   0.250  14.890 -0.1722  0.6209  0.2903
  892MPD2    C513075   0.459   0.382  14.913  0.0604  0.0106 -0.4705
  892MPD2     H13076   0.189   0.152  14.774  1.4096 -1.2192 -0.5079
  892MPD2    H113077   0.596   0.223  14.898 -1.0561 -2.7723  0.1461
  892MPD2    H213078   0.299   0.522  14.930  0.0500  0.2116 -2.0528
  892MPD2    H313079   0.532   0.453  14.951  1.7868 -1.6080 -0.8260
  892MPD2     N13080   0.446   0.046  14.779 -0.4014  0.8637  0.0754
  892MPD2    H513081   0.547   0.042  14.771 -0.2838  0.7602  1.7067
  892MPD2    N113082   0.102   0.373  14.835  0.1536 -0.1854  0.1654
  892MPD2    H713083   0.036   0.308  14.793 -0.5969 -1.1760  2.9131
  893MPD2     C13084   1.250   3.860   1.369 -0.2934  0.5223 -0.2740
  893MPD2    C113085   1.325   3.825   1.482 -0.5109  0.1088 -0.7454
  893MPD2    C213086   1.291   3.880   1.605 -0.4394  0.5431  0.8458
  893MPD2    C313087   1.212   3.987   1.619  0.4962  0.0270  0.6447
  893MPD2    C413088   1.148   4.030   1.503 -0.4373 -0.2921  0.2495
  893MPD2    C513089   1.174   3.974   1.384 -0.0969 -0.6082 -0.1641
  893MPD2     H13090   1.343   3.844   1.693  3.6278  1.5027 -1.1757
  893MPD2    H113091   1.086   4.119   1.509  1.9390  1.3323  1.0291
  893MPD2    H213092   1.276   3.822   1.270 -1.8674 -0.5462 -0.2762
  893MPD2    H313093   1.127   4.015   1.295  3.1648  0.2035 -1.5085
  893MPD2     N13094   1.194   4.059   1.741 -0.4364  0.2770 -0.0387
  893MPD2    H513095   1.133   4.140   1.743  1.4629  1.7358 -1.2793
  893MPD2    N113096   1.416   3.715   1.462 -0.7255  0.0647  0.1162
  893MPD2    H713097   1.438   3.694   1.365  1.9503 -1.0935  0.9824
  894MPD2     C13098   4.245   0.624   0.934  0.1805  0.6317  0.0551
  894MPD2    C113099   4.236   0.740   1.001 -0.4736 -0.2204  0.1685
  894MPD2    C213100   4.298   0.856   0.951  0.3158  0.1414 -0.3467
  894MPD2    C313101   4.363   0.847   0.830 -0.3119  0.5690  0.0813
  894MPD2    C413102   4.378   0.727   0.766  0.4014 -0.4946 -0.2488
  894MPD2    C513103   4.311   0.619   0.815  0.1179 -0.2866 -0.1691
  894MPD2     H13104   4.296   0.948   1.008 -0.3401 -1.1281  1.6523
  894MPD2    H113105   4.437   0.714   0.676  0.6311 -0.7148 -0.0667
  894MPD2    H213106   4.205   0.534   0.979  1.7483  1.0823  2.3845
  894MPD2    H313107   4.310   0.521   0.769 -0.1285 -0.0581 -0.6474
  894MPD2     N13108   4.411   0.972   0.787  0.0935 -0.1297  0.7481
  894MPD2    H513109   4.406   1.055   0.846 -0.7826  1.1188 -1.0756
  894MPD2    N113110   4.168   0.748   1.124 -1.3605 -0.0082  0.2946
  894MPD2    H713111   4.192   0.822   1.189  0.9410  1.7062 -2.5287
  895MPD2     C13112   3.889   3.565  13.143 -0.4133  0.3882 -0.1207
  895MPD2    C113113   3.757   3.547  13.180 -0.4773  0.3055 -0.0486
  895MPD2    C213114   3.706   3.420  13.161 -0.4658  0.4427 -0.6048
  895MPD2    C313115   3.778   3.311  13.119 -0.0271 -0.5578 -0.0458
  895MPD2    C413116   3.912   3.331  13.093 -0.2709 -0.0924 -0.1528
  895MPD2    C513117   3.966   3.454  13.109 -0.1907  0.6269 -1.0630
  895MPD2     H13118   3.604   3.399  13.190 -1.1253 -0.1032 -3.3262
  895MPD2    H113119   3.966   3.244  13.056 -0.8169 -0.1458 -0.8259
  895MPD2    H213120   3.947   3.656  13.148  0.1558  0.0872 -1.2174
  895MPD2    H313121   4.069   3.475  13.080  0.3628 -2.2992 -1.2108
  895MPD2     N13122   3.707   3.198  13.100 -0.3869  0.3878 -0.2514
  895MPD2    H513123   3.606   3.195  13.108 -0.3701 -1.6321 -0.8384
  895MPD2    N113124   3.662   3.646  13.208  0.4225  0.0292 -0.4272
  895MPD2    H713125   3.569   3.610  13.228  0.8486  0.0328  1.6168
  896MPD2     C13126   1.240   2.296   1.089  0.2249 -0.2434  0.8395
  896MPD2    C113127   1.244   2.175   1.158  0.1211  0.6735  0.0578
  896MPD2    C213128   1.138   2.133   1.234  0.6526 -0.3064 -0.0993
  896MPD2    C313129   1.019   2.215   1.235  0.3520  0.1691 -0.9591
  896MPD2    C413130   1.017   2.324   1.155 -0.4553  0.2587  0.0156
  896MPD2    C513131   1.124   2.370   1.081  0.0260 -0.4444 -0.4809
  896MPD2     H13132   1.145   2.053   1.307 -0.9652  0.2107  0.6121
  896MPD2    H113133   0.929   2.388   1.148 -0.7716 -0.2882 -1.0119
  896MPD2    H213134   1.327   2.324   1.031 -2.2384  0.4313 -2.5100
  896MPD2    H313135   1.120   2.457   1.016  2.7737 -0.6242 -0.8877
  896MPD2     N13136   0.904   2.168   1.302  0.0417 -0.1300 -0.0014
  896MPD2    H513137   0.908   2.082   1.356 -0.1560  0.1703  0.4855
  896MPD2    N113138   1.365   2.107   1.157 -0.1775 -0.0467  0.4608
  896MPD2    H713139   1.444   2.151   1.109 -0.4102 -0.7138 -0.5319
  897MPD2     C13140   2.351   2.916  10.526 -0.2686 -0.1612 -1.3041
  897MPD2    C113141   2.328   3.012  10.621  0.2795  0.0649 -0.0959
  897MPD2    C213142   2.217   3.016  10.695  0.2152  0.0778 -0.0633
  897MPD2    C313143   2.115   2.926  10.677  0.6921  0.2961  0.6352
  897MPD2    C413144   2.139   2.827  10.592 -0.8205  0.4990  0.1943
  897MPD2    C513145   2.254   2.825  10.518 -0.6416 -0.7598 -0.5332
  897MPD2     H13146   2.203   3.107  10.753 -0.3681 -0.4955  0.7055
  897MPD2    H113147   2.073   2.742  10.580  1.7453 -1.3137 -1.0943
  897MPD2    H213148   2.437   2.900  10.462  1.1947 -1.3918  0.9682
  897MPD2    H313149   2.257   2.739  10.452  0.2382  0.1758 -1.7141
  897MPD2     N13150   1.997   2.933  10.748  0.7432 -0.2380 -0.0927
  897MPD2    H513151   1.996   3.000  10.824 -0.8211  0.6262 -0.8766
  897MPD2    N113152   2.413   3.119  10.638 -0.1496  0.1474  0.1641
  897MPD2    H713153   2.396   3.172  10.723  0.6291 -0.2155  0.5466
  898MPD2     C13154   4.152   3.658   0.084  0.1214  0.3324 -0.0148
  898MPD2    C113155   4.205   3.767   0.153 -0.3594 -0.5036  0.4096
  898MPD2    C213156   4.240   3.879   0.085 -0.6773  0.2284 -0.8071
  898MPD2    C313157   4.232   3.887  17.655 -0.8616 -0.4089 -0.5248
  898MPD2    C413158   4.189   3.776  17.587  0.4309 -0.4111 -0.1239
  898MPD2    C513159   4.141   3.664  17.650  0.1542 -0.4888  0.0338
  898MPD2     H13160   4.290   3.957   0.141 -0.1247 -1.2161  0.7035
  898MPD2    H113161   4.177   3.765  17.479  0.0570  0.9986 -0.2232
  898MPD2    H213162   4.118   3.578   0.148 -1.5233  0.6167 -0.5164
  898MPD2    H313163   4.102   3.574  17.603  0.4169 -1.2510  1.2713
  898MPD2     N13164   4.285   3.999  17.586 -0.4259  0.0900 -0.2380
  898MPD2    H513165   4.322   4.073  17.646  1.9078 -0.2684 -1.2152
  898MPD2    N113166   4.230   3.767   0.292  0.2668  0.3830  0.3628
  898MPD2    H713167   4.278   3.852   0.322 -0.2704  0.5745  0.6745
  899MPD2     C13168   0.618   0.196   0.041  0.3977 -0.4967  0.0576
  899MPD2    C113169   0.497   0.161  17.701  0.0098 -0.0018 -0.0215
  899MPD2    C213170   0.388   0.149   0.085 -0.6631 -0.8717  0.6537
  899MPD2    C313171   0.411   0.165   0.222 -0.5159  0.2517  0.5336
  899MPD2    C413172   0.542   0.184   0.268 -0.4779 -0.1576  1.3259
  899MPD2    C513173   0.643   0.208   0.179 -0.1144 -0.2335  0.5671
  899MPD2     H13174   0.288   0.137   0.046 -0.1536 -1.6567 -0.4078
  899MPD2    H113175   0.572   0.190   0.372  0.9873 -0.9322  0.9327
  899MPD2    H213176   0.701   0.201  17.678  2.0244  2.5484  2.2372
  899MPD2    H313177   0.741   0.232   0.219  1.3839 -0.9930 -2.6297
  899MPD2     N13178   0.302   0.152   0.310 -0.5311  0.0924 -0.1433
  899MPD2    H513179   0.212   0.128   0.269 -1.2606 -0.1047  1.5842
  899MPD2    N113180   0.475   0.159  17.558  0.1464 -0.1196  0.3389
  899MPD2    H713181   0.547   0.192  17.494 -0.2616  1.8754  0.9244
  900MPD2     C13182   0.297   2.063  12.484  0.0176 -0.0890  0.5922
  900MPD2    C113183   0.217   1.957  12.457 -0.7616 -0.5154 -0.0068
  900MPD2    C213184   0.094   1.968  12.399  0.2672 -0.4467  0.0907
  900MPD2    C313185   0.038   2.093  12.384  0.2057 -0.8116 -0.0352
  900MPD2    C413186   0.109   2.204  12.425  0.6659  0.0853 -1.0225
  900MPD2    C513187   0.239   2.187  12.468 -0.6087 -0.2766 -1.2492
  900MPD2     H13188   0.052   1.879  12.354  1.0779 -1.0525  0.5349
  900MPD2    H113189   0.075   2.305  12.406 -0.2390 -0.1265 -0.5400
  900MPD2    H213190   0.399   2.056  12.520 -0.8899 -0.0356  3.1574
  900MPD2    H313191   0.302   2.273  12.487 -0.9294 -0.5762  1.1327
  900MPD2     N13192   4.630   2.099  12.338  0.4751 -0.3288 -0.1979
  900MPD2    H513193   4.592   2.011  12.305 -0.9905 -0.6254  2.3104
  900MPD2    N113194   0.267   1.828  12.494  0.0292 -0.5842  0.1055
  900MPD2    H713195   0.362   1.828  12.529 -0.2734  0.3035  0.9391
  901MPD2     C13196   4.711   0.793  12.631 -0.0208  0.0591 -0.4585
  901MPD2    C113197   0.123   0.786  12.625 -0.1962 -0.8691 -0.1515
  901MPD2    C213198   0.192   0.907  12.605 -0.1375 -0.2583  0.3951
  901MPD2    C313199   0.125   1.025  12.607  0.3266 -0.1956  0.5068
  901MPD2    C413200   4.714   1.030  12.608 -0.9154  0.3778  0.7463
  901MPD2    C513201   4.638   0.911  12.616 -0.4806 -0.2618 -0.5499
  901MPD2     H13202   0.300   0.914  12.595 -0.3049  1.7602 -0.0531
  901MPD2    H113203   4.648   1.112  12.581  0.5632  1.7893  1.4420
  901MPD2    H213204   4.653   0.701  12.637 -0.3443  0.2061 -1.3210
  901MPD2    H313205   4.529   0.913  12.614 -0.5077 -3.0232 -1.4827
  901MPD2     N13206   0.201   1.146  12.613  0.3097 -0.2715 -0.0501
  901MPD2    H513207   0.301   1.133  12.608  0.2915 -0.8469  0.9113
  901MPD2    N113208   0.184   0.662  12.628 -0.1437 -0.5021 -0.2501
  901MPD2    H713209   0.120   0.583  12.629 -0.7064 -0.0401 -0.1411
  902MPD2     C13210   3.920   4.397  13.368  0.7149 -0.0371  0.1912
  902MPD2    C113211   3.943   4.435  13.240  0.5717 -0.3125  0.4098
  902MPD2    C213212   3.955   4.346  13.140 -0.1188 -0.1599  0.3743
  902MPD2    C313213   3.941   4.210  13.162 -0.1790  0.6456  0.4206
  902MPD2    C413214   3.923   4.169  13.294  0.1412  0.4956 -0.1558
  902MPD2    C513215   3.912   4.262  13.395  0.6948 -0.1962  0.4742
  902MPD2     H13216   3.968   4.383  13.039  0.3928  0.5443  0.7014
  902MPD2    H113217   3.928   4.062  13.312  1.4513  0.2004 -2.3189
  902MPD2    H213218   3.918   4.479  13.439  0.6680  0.3283 -0.2342
  902MPD2    H313219   3.910   4.229  13.499  0.4094 -1.7369 -0.0169
  902MPD2     N13220   3.931   4.111  13.060 -0.6153  0.3618  0.1480
  902MPD2    H513221   3.886   4.025  13.089  1.3139 -1.0715 -1.1925
  902MPD2    N113222   3.947   4.566  13.197  0.1431 -0.2774 -0.1634
  902MPD2    H713223   3.969   4.582  13.099 -1.3060  0.8170 -0.3154
  903MPD2     C13224   3.674   3.377  12.787 -0.3459  0.3046  0.6392
  903MPD2    C113225   3.645   3.512  12.809 -0.6922  0.2312 -0.2102
  903MPD2    C213226   3.511   3.551  12.784 -0.2207  0.4786 -0.3539
  903MPD2    C313227   3.416   3.466  12.735 -0.4138  1.1171  0.6316
  903MPD2    C413228   3.445   3.331  12.721 -0.3782 -0.2207 -0.1140
  903MPD2    C513229   3.574   3.289  12.742  0.0182 -0.3383  0.0599
  903MPD2     H13230   3.493   3.658  12.786  1.7335  0.7981  0.2297
  903MPD2    H113231   3.363   3.265  12.694 -1.4452  0.5390  1.2915
  903MPD2    H213232   3.771   3.335  12.812 -0.8128  0.4174  2.6530
  903MPD2    H313233   3.602   3.187  12.720  0.0083 -0.8976  2.5899
  903MPD2     N13234   3.288   3.514  12.704  0.2502  0.3391  0.1167
  903MPD2    H513235   3.265   3.609  12.730  0.4185  0.2411  0.6167
  903MPD2    N113236   3.753   3.600  12.830 -0.6980 -0.3048 -0.6133
  903MPD2    H713237   3.844   3.554  12.823  0.3685  1.4920  1.2729
  904MPD2     C13238   3.952   3.057  13.754  0.2632  0.2092  0.0043
  904MPD2    C113239   3.970   3.183  13.796  0.6662  0.0264 -0.2527
  904MPD2    C213240   4.056   3.208  13.897  0.3868  0.1257  0.0920
  904MPD2    C313241   4.116   3.101  13.968 -0.1678  0.2770 -0.7362
  904MPD2    C413242   4.103   2.976  13.913  0.8263 -0.3580  0.4409
  904MPD2    C513243   4.013   2.951  13.810 -0.0947 -0.3957  0.4264
  904MPD2     H13244   4.058   3.307  13.940  1.9868  0.5947 -1.0151
  904MPD2    H113245   4.156   2.890  13.952  0.8999 -0.8633 -0.7773
  904MPD2    H213246   3.885   3.028  13.674  0.4139 -0.7364  0.2192
  904MPD2    H313247   3.987   2.855  13.768 -2.4658  0.4644 -0.0663
  904MPD2     N13248   4.203   3.130  14.077 -0.6711  0.0730 -0.0181
  904MPD2    H513249   4.227   3.227  14.094 -1.4146  0.2384  0.0711
  904MPD2    N113250   3.898   3.296  13.755 -0.0538 -0.0074  0.0130
  904MPD2    H713251   3.923   3.383  13.800 -1.0716  0.1108  0.3380
  905MPD2     C13252   3.132   3.312  13.555 -0.1276  0.6117  0.2159
  905MPD2    C113253   3.241   3.359  13.480 -0.7087  0.1913 -0.2372
  905MPD2    C213254   3.280   3.306  13.363 -0.0186  0.0929  0.1977
  905MPD2    C313255   3.202   3.201  13.312 -0.8496  0.5107 -0.1249
  905MPD2    C413256   3.087   3.161  13.381 -0.7998 -0.2649  0.5535
  905MPD2    C513257   3.055   3.214  13.500 -0.5676  0.6492  0.0104
  905MPD2     H13258   3.365   3.347  13.311  0.1281 -3.2304 -2.2158
  905MPD2    H113259   3.027   3.076  13.351  0.9093 -1.2935  0.0742
  905MPD2    H213260   3.097   3.357  13.647  1.6765 -0.5165  1.4598
  905MPD2    H313261   2.968   3.176  13.551 -1.2793  1.3840 -0.6461
  905MPD2     N13262   3.230   3.130  13.197  0.2030 -0.8959 -0.4900
  905MPD2    H513263   3.159   3.061  13.174 -0.3172 -0.2068 -0.9661
  905MPD2    N113264   3.325   3.452  13.538 -0.3062 -0.2197  0.7057
  905MPD2    H713265   3.306   3.475  13.635  2.0359  2.1761  0.5929
  906MPD2     C13266   0.915   3.322  11.265 -0.1810  0.2202 -0.4644
  906MPD2    C113267   0.861   3.235  11.178 -0.4555  0.4054 -0.2586
  906MPD2    C213268   0.819   3.110  11.218  0.0995  0.1889 -0.1753
  906MPD2    C313269   0.845   3.070  11.349 -1.3129 -0.1605  0.4283
  906MPD2    C413270   0.919   3.154  11.433 -0.6941 -0.2894  0.6354
  906MPD2    C513271   0.946   3.276  11.391  0.1212 -0.3076  0.5657
  906MPD2     H13272   0.771   3.042  11.150  0.1058 -0.4674  0.4761
  906MPD2    H113273   0.939   3.126  11.536  1.9049 -0.0802  0.1908
  906MPD2    H213274   0.981   3.403  11.236  0.3224  0.6192  1.7745
  906MPD2    H313275   0.999   3.341  11.460 -0.0221  0.2611  0.1397
  906MPD2     N13276   0.804   2.950  11.408 -0.0258 -0.9420 -0.0159
  906MPD2    H513277   0.833   2.923  11.501  2.4793  1.0035 -0.2583
  906MPD2    N113278   0.836   3.267  11.041  0.0362  0.5514 -0.1746
  906MPD2    H713279   0.797   3.185  10.994  0.2501 -0.5148  1.5033
  907MPD2     C13280   4.116   2.617  15.492 -0.3836  0.3158 -0.7202
  907MPD2    C113281   4.230   2.541  15.490 -0.7091 -0.1155  0.2236
  907MPD2    C213282   4.347   2.596  15.552 -0.0140  0.3107 -0.5715
  907MPD2    C313283   4.350   2.726  15.607 -0.3781  0.4206 -0.4984
  907MPD2    C413284   4.237   2.801  15.591 -0.1178 -0.2317  1.1271
  907MPD2    C513285   4.122   2.744  15.540 -0.6340 -0.2989  0.1396
  907MPD2     H13286   4.432   2.532  15.575  0.1096  1.2794  1.6796
  907MPD2    H113287   4.229   2.904  15.624 -1.9268  0.3027 -0.9667
  907MPD2    H213288   4.023   2.574  15.458 -0.7754 -0.3750  1.2127
  907MPD2    H313289   4.032   2.803  15.536 -1.3672 -1.4709 -0.5682
  907MPD2     N13290   4.470   2.778  15.647  0.3199  0.1975 -0.9481
  907MPD2    H513291   4.553   2.719  15.647  0.5487  0.5176 -0.6896
  907MPD2    N113292   4.235   2.415  15.430  0.0305 -0.2131  0.1241
  907MPD2    H713293   4.313   2.353  15.444 -1.7241 -2.2720  0.7756
  908MPD2     C13294   2.269   3.674   9.963 -0.0366 -0.4686  0.2225
  908MPD2    C113295   2.238   3.544   9.998  0.1478 -0.1169 -0.5834
  908MPD2    C213296   2.294   3.496  10.116  0.2820 -0.7213 -0.7182
  908MPD2    C313297   2.372   3.573  10.199  0.6590  0.1090 -0.1198
  908MPD2    C413298   2.400   3.702  10.167 -0.1007 -0.8938  0.0908
  908MPD2    C513299   2.356   3.748  10.043 -0.3482  0.3048  0.1099
  908MPD2     H13300   2.269   3.392  10.137  0.6658 -0.6006  0.3401
  908MPD2    H113301   2.467   3.762  10.228 -2.6048  0.5140  1.4356
  908MPD2    H213302   2.227   3.720   9.874 -1.3135 -1.3002  0.4038
  908MPD2    H313303   2.387   3.848  10.013  0.1630  0.3507  0.7803
  908MPD2     N13304   2.413   3.513  10.317 -0.5168 -0.5612 -0.3340
  908MPD2    H513305   2.406   3.412  10.323 -0.8242 -0.4064  1.6844
  908MPD2    N113306   2.143   3.469   9.932 -0.6738 -0.0154 -0.7236
  908MPD2    H713307   2.123   3.377   9.969  1.6075 -1.0202 -1.9392
  909MPD2     C13308   3.131   1.254  11.840  0.2627  0.1305  0.1244
  909MPD2    C113309   3.044   1.325  11.757 -0.0764 -0.6269  0.0520
  909MPD2    C213310   2.928   1.378  11.814 -0.0221  0.2762  0.5248
  909MPD2    C313311   2.896   1.353  11.944 -0.5292 -0.0887 -0.3204
  909MPD2    C413312   2.982   1.278  12.021 -0.1656 -0.1936  0.2132
  909MPD2    C513313   3.096   1.223  11.965 -0.0072 -0.7474  0.1427
  909MPD2     H13314   2.865   1.449  11.763 -1.8316 -1.9006 -0.2365
  909MPD2    H113315   2.968   1.252  12.126  0.9668 -0.3326  0.3305
  909MPD2    H213316   3.216   1.200  11.800 -1.1491 -0.8816 -1.4597
  909MPD2    H313317   3.156   1.148  12.015  0.1308  0.4206  1.7065
  909MPD2     N13318   2.775   1.404  11.998  0.1767  0.2057 -0.0142
  909MPD2    H513319   2.709   1.453  11.938 -1.7604 -2.0648  0.2287
  909MPD2    N113320   3.059   1.335  11.616  0.0847 -0.4490 -0.0492
  909MPD2    H713321   2.995   1.397  11.568  1.4488 -0.2129 -1.5637
  910MPD2     C13322   3.874   3.091  15.717 -0.2364  0.0785  0.3749
  910MPD2    C113323   4.011   3.068  15.689 -0.3009 -0.2962 -0.4798
  910MPD2    C213324   4.049   3.062  15.557 -0.3524 -0.1273  0.3520
  910MPD2    C313325   3.956   3.059  15.459 -0.3494  0.4170  0.7444
  910MPD2    C413326   3.823   3.076  15.486 -0.1439 -0.1228  0.1648
  910MPD2    C513327   3.786   3.102  15.613  0.6280  0.9160  0.2168
  910MPD2     H13328   4.154   3.061  15.532  0.0142 -0.3993  1.8897
  910MPD2    H113329   3.745   3.070  15.411  0.2111 -0.7766 -0.1527
  910MPD2    H213330   3.831   3.088  15.817  1.0526  0.6353  0.9489
  910MPD2    H313331   3.679   3.117  15.625  0.5532 -0.6230  1.4489
  910MPD2     N13332   3.984   3.039  15.320  0.6021  0.2255  0.4588
  910MPD2    H513333   3.910   3.052  15.252  0.2958 -1.0169  0.5584
  910MPD2    N113334   4.107   3.061  15.788 -0.0719 -0.0946  0.3883
  910MPD2    H713335   4.205   3.044  15.765 -0.1016  0.4478 -0.1344
  911MPD2     C13336   2.130   3.922  16.181  0.1099 -0.0869 -0.5802
  911MPD2    C113337   2.123   3.946  16.314  0.3723  0.2804 -0.4834
  911MPD2    C213338   2.077   4.065  16.360  0.3241  0.4183 -0.5567
  911MPD2    C313339   2.039   4.165  16.276  0.3650 -0.0456 -0.8470
  911MPD2    C413340   2.059   4.147  16.144 -0.0785 -0.0412 -0.4790
  911MPD2    C513341   2.087   4.018  16.095 -0.4165  0.5181 -0.5336
  911MPD2     H13342   2.057   4.076  16.466  0.1549 -1.1123 -0.4357
  911MPD2    H113343   2.040   4.224  16.070 -1.6643 -0.4823 -0.5287
  911MPD2    H213344   2.168   3.831  16.135 -1.2157 -0.8873 -0.0770
  911MPD2    H313345   2.089   3.995  15.989  1.1170  0.3460 -0.4546
  911MPD2     N13346   1.976   4.291  16.315 -0.3557  0.2342  0.5843
  911MPD2    H513347   1.955   4.367  16.252 -0.9193  0.2215  0.7587
  911MPD2    N113348   2.180   3.844  16.393  0.6830 -0.2468 -0.2509
  911MPD2    H713349   2.239   3.776  16.347  1.2352  0.5040 -0.6527
  912MPD2     C13350   1.675   4.164  15.959  0.2840  0.4062 -0.6090
  912MPD2    C113351   1.662   4.192  16.091 -0.0342 -0.8202  0.1765
  912MPD2    C213352   1.667   4.085  16.178 -0.1857 -0.6901 -0.0677
  912MPD2    C313353   1.715   3.958  16.145 -0.0369  0.2685 -0.5917
  912MPD2    C413354   1.738   3.941  16.014  0.9333  0.4097  0.0198
  912MPD2    C513355   1.721   4.044  15.927 -0.8603 -0.2964  1.0286
  912MPD2     H13356   1.653   4.087  16.285 -1.1811  1.9352 -0.2562
  912MPD2    H113357   1.782   3.851  15.972 -1.0760 -1.5105  2.0449
  912MPD2    H213358   1.678   4.234  15.876 -0.0309  1.4025  0.2247
  912MPD2    H313359   1.753   4.041  15.824 -0.1718 -1.0210  1.2610
  912MPD2     N13360   1.704   3.855  16.241 -0.8070  0.1902 -0.1764
  912MPD2    H513361   1.687   3.880  16.338  1.9371 -0.3028  0.4098
  912MPD2    N113362   1.613   4.320  16.134  0.8506 -0.0004 -0.1865
  912MPD2    H713363   1.610   4.393  16.064  0.4608  0.6604  0.5160
  913MPD2     C13364   1.923   4.680  10.741  0.4659  0.3909  0.6462
  913MPD2    C113365   2.033   0.030  10.768  0.3487 -0.7163 -0.1262
  913MPD2    C213366   2.073   0.108  10.662 -0.5305  0.7722 -0.3263
  913MPD2    C313367   2.018   0.099  10.531 -0.2850  0.8211  0.1148
  913MPD2    C413368   1.912   0.017  10.508  0.4972  0.3932 -0.7660
  913MPD2    C513369   1.865   4.672  10.616  0.0580  0.2442 -0.3131
  913MPD2     H13370   2.161   0.167  10.684  0.7286 -2.2230  2.7006
  913MPD2    H113371   1.877   4.719  10.408  1.7540  0.5520 -1.2431
  913MPD2    H213372   1.876   4.611  10.810 -2.1638  1.7419  0.2113
  913MPD2    H313373   1.787   4.600  10.594  0.5903 -0.8947  1.6022
  913MPD2     N13374   2.055   0.176  10.419 -0.6765  0.1674 -0.7811
  913MPD2    H513375   1.985   0.184  10.346 -0.4340  0.0762 -1.0237
  913MPD2    N113376   2.082   0.032  10.898  0.1879 -0.0935  0.2643
  913MPD2    H713377   2.048   4.681  10.955 -1.6328  0.5178  0.0361
  914MPD2     C13378   4.603   0.073  12.107  0.3302 -0.0526 -0.3571
  914MPD2    C113379   4.661   0.188  12.061 -0.3842 -0.2161 -0.0251
  914MPD2    C213380   0.024   0.247  12.145 -0.4826  0.5830  0.6610
  914MPD2    C313381   0.056   0.188  12.267  0.3255 -0.2083  0.0934
  914MPD2    C413382   4.710   0.084  12.320  0.2018 -0.4263  0.2530
  914MPD2    C513383   4.619   0.025  12.231  0.2856  0.0902  0.3367
  914MPD2     H13384   0.073   0.340  12.117  1.7799 -0.1928  2.0985
  914MPD2    H113385   4.723   0.032  12.414  1.2317 -2.3591 -0.9575
  914MPD2    H213386   4.541   0.012  12.042 -0.9598  1.3460 -0.4413
  914MPD2    H313387   4.557   4.670  12.268 -0.2398  0.4143  0.1760
  914MPD2     N13388   0.156   0.250  12.343 -0.3018  0.2094 -0.6346
  914MPD2    H513389   0.199   0.330  12.298 -1.3247  1.0944 -0.0233
  914MPD2    N113390   4.624   0.234  11.928 -0.0346 -0.1589  0.3219
  914MPD2    H713391   4.580   0.169  11.864  0.0789  1.8271 -1.7984
  915MPD2     C13392   2.602   0.370  15.610  0.1331  0.6593  0.0715
  915MPD2    C113393   2.609   0.508  15.580 -0.6570  0.2216 -0.4016
  915MPD2    C213394   2.624   0.598  15.684 -0.4676 -0.4441  0.1210
  915MPD2    C313395   2.635   0.562  15.819  0.3395 -0.1818 -0.2428
  915MPD2    C413396   2.662   0.428  15.841  0.5292  0.4494  0.0560
  915MPD2    C513397   2.641   0.333  15.739  0.4327 -0.3000 -0.2164
  915MPD2     H13398   2.617   0.703  15.660  0.5415 -0.5603 -0.6762
  915MPD2    H113399   2.683   0.394  15.942 -0.5072 -1.5108 -0.3855
  915MPD2    H213400   2.580   0.286  15.545 -1.9669  0.6663  0.7437
  915MPD2    H313401   2.650   0.233  15.778 -0.1943  0.6577  2.3609
  915MPD2     N13402   2.605   0.664  15.916  0.1571  0.2984 -0.3002
  915MPD2    H513403   2.555   0.749  15.893 -2.3802 -1.3309 -0.7983
  915MPD2    N113404   2.582   0.547  15.449  0.0105  0.2621  0.3115
  915MPD2    H713405   2.546   0.474  15.389  1.5292 -0.5188  0.3570
  916MPD2     C13406   1.394   3.763  16.149  0.2036  0.0769  0.1916
  916MPD2    C113407   1.330   3.652  16.190  0.3458  0.5442 -0.1816
  916MPD2    C213408   1.340   3.531  16.117 -0.6522 -0.3655 -0.6234
  916MPD2    C313409   1.394   3.524  15.993  0.4820 -0.0388 -1.1328
  916MPD2    C413410   1.455   3.637  15.942 -0.6191  0.3166 -0.1451
  916MPD2    C513411   1.469   3.750  16.032 -0.0823 -0.5418 -1.1027
  916MPD2     H13412   1.290   3.442  16.154 -0.9658  0.2404  0.3995
  916MPD2    H113413   1.490   3.645  15.840 -0.4976 -0.3270 -0.1547
  916MPD2    H213414   1.391   3.853  16.209  1.1509 -0.8043  1.5534
  916MPD2    H313415   1.525   3.836  15.995 -0.9303  0.6569  0.4024
  916MPD2     N13416   1.391   3.403  15.915 -0.2848  0.2452 -0.1608
  916MPD2    H513417   1.335   3.332  15.961  0.4934  0.9158  1.8029
  916MPD2    N113418   1.269   3.662  16.313  0.1218  0.4556 -0.1153
  916MPD2    H713419   1.276   3.753  16.358  1.6052 -0.7375  2.0465
  917MPD2     C13420   1.613   0.974  11.070  0.4781  0.0426  0.5986
  917MPD2    C113421   1.673   1.039  11.175  0.3525 -0.2662 -0.3209
  917MPD2    C213422   1.781   1.130  11.144 -0.0884  0.2080 -0.8998
  917MPD2    C313423   1.814   1.159  11.011 -0.8046  0.6164 -0.8565
  917MPD2    C413424   1.743   1.092  10.913 -0.1008  0.1560  0.4562
  917MPD2    C513425   1.652   0.992  10.940 -0.3949  0.6734  0.6003
  917MPD2     H13426   1.834   1.172  11.228 -1.1790  0.5168 -0.3622
  917MPD2    H113427   1.756   1.117  10.808  2.0520 -1.7503  0.2803
  917MPD2    H213428   1.535   0.900  11.082 -1.2801  1.9013  0.5638
  917MPD2    H313429   1.589   0.947  10.864  0.0384  2.0803 -0.5897
  917MPD2     N13430   1.902   1.261  10.966  0.2617  0.6313 -0.2753
  917MPD2    H513431   1.892   1.294  10.871  2.3958  1.9817 -0.0236
  917MPD2    N113432   1.628   0.991  11.301  0.1738 -0.0458 -0.1833
  917MPD2    H713433   1.536   0.948  11.303  1.3018 -2.4214  1.5272
  918MPD2     C13434   1.869   1.428  12.157  0.2842 -0.5800 -0.1334
  918MPD2    C113435   1.943   1.318  12.120 -0.1404  0.8755  0.5769
  918MPD2    C213436   1.893   1.230  12.027  0.1333 -0.0029  0.1996
  918MPD2    C313437   1.773   1.252  11.979  0.2629  0.7726  0.1727
  918MPD2    C413438   1.696   1.363  12.009 -0.5852 -0.2100  0.1148
  918MPD2    C513439   1.746   1.450  12.103  0.0635 -0.2611 -0.4965
  918MPD2     H13440   1.955   1.144  12.006  1.0069  0.2380  1.7964
  918MPD2    H113441   1.600   1.385  11.962 -0.5113 -1.9366 -0.8315
  918MPD2    H213442   1.896   1.500  12.233  0.7357  0.7612 -1.5673
  918MPD2    H313443   1.685   1.534  12.135  0.7390  0.2242 -0.4806
  918MPD2     N13444   1.719   1.161  11.893  0.3938 -0.2562 -0.3844
  918MPD2    H513445   1.779   1.083  11.868  3.5036  1.9856  0.0955
  918MPD2    N113446   2.062   1.283  12.195 -0.1215  0.0244 -0.8019
  918MPD2    H713447   2.115   1.201  12.166 -0.2304 -0.1139 -0.6112
  919MPD2     C13448   2.104   0.102  12.259 -0.0698 -0.3161 -0.0010
  919MPD2    C113449   1.996   0.030  12.215  0.3405  0.2039 -0.1343
  919MPD2    C213450   1.945   0.051  12.088 -0.4805 -0.2312 -0.0878
  919MPD2    C313451   1.992   0.143  12.002 -0.3705  0.3860 -0.0559
  919MPD2    C413452   2.101   0.214  12.042 -1.2630 -0.4874 -0.3343
  919MPD2    C513453   2.160   0.186  12.165 -0.3981 -0.1496 -0.6072
  919MPD2     H13454   1.863   4.712  12.060 -0.1092 -0.8005  0.1640
  919MPD2    H113455   2.157   0.287  11.984  0.5792 -1.2540  0.4709
  919MPD2    H213456   2.150   0.089  12.356 -0.5214 -0.4228  0.1975
  919MPD2    H313457   2.230   0.261  12.200  0.4012 -0.5905 -1.2874
  919MPD2     N13458   1.932   0.173  11.876  0.2190 -0.2908  0.2260
  919MPD2    H513459   1.977   0.246  11.821  0.2995 -0.3116  0.2643
  919MPD2    N113460   1.938   4.665  12.305 -0.3231  0.4485  0.0237
  919MPD2    H713461   1.875   4.591  12.275 -1.8470  1.2512  1.2590
  920MPD2     C13462   2.125   0.476  10.935 -0.2324 -0.1787  0.3742
  920MPD2    C113463   2.006   0.409  10.918  0.1672  0.8318  0.9783
  920MPD2    C213464   1.951   0.345  11.025 -0.2411  0.3953 -0.6484
  920MPD2    C313465   2.002   0.350  11.154 -0.6487 -0.4835  0.1382
  920MPD2    C413466   2.113   0.432  11.171 -0.1737  0.1376 -0.0283
  920MPD2    C513467   2.179   0.494  11.064  0.3658 -0.6131  0.1700
  920MPD2     H13468   1.869   0.280  10.999 -0.2802  0.5330 -0.8722
  920MPD2    H113469   2.178   0.444  11.257  0.3740 -1.0868 -0.2722
  920MPD2    H213470   2.180   0.515  10.851 -0.9989  1.4525  0.6172
  920MPD2    H313471   2.271   0.547  11.083  0.2362 -0.5408  0.5970
  920MPD2     N13472   1.941   0.275  11.255 -0.1857 -0.1802  0.2325
  920MPD2    H513473   1.871   0.207  11.228 -0.5565 -0.5113  2.0515
  920MPD2    N113474   1.945   0.392  10.792  1.0809  0.0912 -0.0991
  920MPD2    H713475   1.864   0.332  10.798  1.1282 -0.2250 -2.3017
  921MPD2     C13476   2.642   4.364  16.901 -0.4437 -0.1894  0.4936
  921MPD2    C113477   2.726   4.295  16.822 -0.3663 -1.0190 -0.2124
  921MPD2    C213478   2.695   4.164  16.798 -0.6188  0.4502  0.2353
  921MPD2    C313479   2.576   4.107  16.843 -0.0660  0.0815  0.7944
  921MPD2    C413480   2.495   4.184  16.924  0.0240  0.2908 -0.6108
  921MPD2    C513481   2.533   4.307  16.952 -0.2632  0.0301 -0.3297
  921MPD2     H13482   2.779   4.107  16.758 -0.3077  1.2567 -0.2558
  921MPD2    H113483   2.398   4.151  16.961  0.4307 -1.2544 -0.9080
  921MPD2    H213484   2.652   4.466  16.935 -1.4562 -0.5018  1.7678
  921MPD2    H313485   2.466   4.366  17.014 -0.4282  0.8010 -1.2368
  921MPD2     N13486   2.535   3.978  16.808 -1.0230  0.2367  0.1998
  921MPD2    H513487   2.442   3.956  16.842 -1.3890 -0.2558 -1.1267
  921MPD2    N113488   2.848   4.344  16.778 -0.1139  0.3688  0.3612
  921MPD2    H713489   2.906   4.282  16.723 -0.0148  0.9545 -0.1915
  922MPD2     C13490   3.799   1.383  17.269 -0.0978  0.2359 -0.1264
  922MPD2    C113491   3.694   1.398  17.175 -0.1218 -0.3780 -0.1535
  922MPD2    C213492   3.565   1.411  17.218  0.0144 -0.5420 -0.8649
  922MPD2    C313493   3.537   1.401  17.355  0.2498 -0.4617 -0.4028
  922MPD2    C413494   3.636   1.365  17.444 -0.0431 -0.4556 -0.1897
  922MPD2    C513495   3.763   1.360  17.398 -0.3451  0.0140  0.7368
  922MPD2     H13496   3.485   1.415  17.145 -0.4611  0.0685 -0.3080
  922MPD2    H113497   3.636   1.356  17.552  0.3228 -2.7359 -0.3823
  922MPD2    H213498   3.900   1.387  17.230  0.3466 -0.5730  0.9447
  922MPD2    H313499   3.838   1.322  17.466  2.3063  2.1895 -0.9481
  922MPD2     N13500   3.405   1.430  17.400  0.1814 -0.2532 -0.1226
  922MPD2    H513501   3.334   1.461  17.334  0.6287  2.7598  0.7970
  922MPD2    N113502   3.709   1.406  17.040 -0.1687  0.3939 -0.6266
  922MPD2    H713503   3.635   1.445  16.983 -1.0119 -1.1936 -0.6195
  923MPD2     C13504   4.216   3.593   9.149 -0.2373  1.2596 -0.0551
  923MPD2    C113505   4.214   3.635   9.276 -0.0072  0.0774  0.7349
  923MPD2    C213506   4.316   3.602   9.360  0.2447 -0.2074  0.5266
  923MPD2    C313507   4.416   3.518   9.320  0.6232 -0.3694 -0.3624
  923MPD2    C413508   4.420   3.474   9.188 -1.4269 -0.7878  0.3924
  923MPD2    C513509   4.317   3.509   9.106  0.8272  0.1798 -0.2911
  923MPD2     H13510   4.316   3.619   9.467  2.1861  2.7172  0.0555
  923MPD2    H113511   4.502   3.418   9.145  1.1638  2.3085  1.3319
  923MPD2    H213512   4.130   3.604   9.084 -0.6814 -0.9490  0.1545
  923MPD2    H313513   4.313   3.460   9.009  2.8851 -0.6787  0.0545
  923MPD2     N13514   4.510   3.468   9.419  0.2424 -1.1877 -0.2892
  923MPD2    H513515   4.511   3.513   9.510 -1.3398 -0.3567 -0.6750
  923MPD2    N113516   4.093   3.705   9.316  0.3587  0.3442  0.1494
  923MPD2    H713517   4.017   3.716   9.249 -0.0793  0.3312  0.6492
  924MPD2     C13518   0.325   2.331  15.579 -0.0735  0.2593  0.7399
  924MPD2    C113519   0.342   2.398  15.694 -0.0301 -0.7620 -0.1705
  924MPD2    C213520   0.305   2.529  15.688 -0.0856  0.4186 -0.7923
  924MPD2    C313521   0.249   2.596  15.580 -0.0955 -0.6268  0.0678
  924MPD2    C413522   0.223   2.524  15.466 -0.1398 -0.2023 -0.4667
  924MPD2    C513523   0.268   2.395  15.466 -0.0285  0.2195  0.2280
  924MPD2     H13524   0.336   2.588  15.774 -0.9674 -0.2526 -0.0201
  924MPD2    H113525   0.170   2.565  15.381  0.5634 -1.6318 -1.5803
  924MPD2    H213526   0.355   2.228  15.573 -3.6481 -0.6180 -2.1742
  924MPD2    H313527   0.250   2.329  15.381 -0.7467  0.3190  0.3026
  924MPD2     N13528   0.209   2.731  15.581 -0.1344  0.2692 -0.8738
  924MPD2    H513529   0.155   2.770  15.504  0.0818  0.5987 -0.8583
  924MPD2    N113530   0.385   2.323  15.817  0.4607 -0.1099 -0.0519
  924MPD2    H713531   0.396   2.222  15.815 -1.0329 -0.2378 -1.4529
  925MPD2     C13532   4.172   4.166  14.918  0.6635  0.1719 -0.2421
  925MPD2    C113533   4.087   4.270  14.911 -0.1666  0.0950  0.3210
  925MPD2    C213534   4.014   4.300  15.022  0.6349 -0.0268  0.8219
  925MPD2    C313535   4.028   4.220  15.136 -0.3119 -0.5952 -0.3273
  925MPD2    C413536   4.108   4.110  15.135  0.2248 -0.7613 -0.7316
  925MPD2    C513537   4.184   4.082  15.025 -0.0017 -0.0448 -0.3617
  925MPD2     H13538   3.930   4.367  15.009  1.0447  0.3337  0.0697
  925MPD2    H113539   4.129   4.047  15.221  2.2645 -1.5190 -1.7766
  925MPD2    H213540   4.231   4.136  14.832  1.6749  2.2036 -0.2597
  925MPD2    H313541   4.248   3.995  15.027  0.1219  0.0432 -0.5151
  925MPD2     N13542   3.954   4.245  15.257  0.1844  0.3617 -0.3873
  925MPD2    H513543   3.951   4.168  15.323  2.3450  0.0888 -0.6220
  925MPD2    N113544   4.049   4.324  14.791  0.3289 -0.0869  0.6150
  925MPD2    H713545   3.960   4.373  14.785 -1.1741 -2.9895 -0.8881
  926MPD2     C13546   2.274   3.016  13.816  0.1413 -0.1431 -0.0788
  926MPD2    C113547   2.228   3.139  13.784 -0.0857  0.4915  0.7036
  926MPD2    C213548   2.263   3.197  13.663  0.5008 -0.2650 -0.3045
  926MPD2    C313549   2.333   3.125  13.564 -0.0979 -0.0640  0.7892
  926MPD2    C413550   2.378   2.998  13.599 -0.1334 -0.1775  0.3234
  926MPD2    C513551   2.347   2.946  13.726  0.3789 -0.7378  0.8418
  926MPD2     H13552   2.222   3.296  13.645 -0.6284 -1.1703 -2.6872
  926MPD2    H113553   2.449   2.939  13.541  1.1014  0.7766  0.8486
  926MPD2    H213554   2.249   2.976  13.914 -0.2905 -0.0579 -0.1530
  926MPD2    H313555   2.374   2.841  13.736 -0.0151 -1.0719 -1.5899
  926MPD2     N13556   2.348   3.178  13.434 -0.2621 -1.2756 -0.3845
  926MPD2    H513557   2.384   3.118  13.361  0.5815  1.9902 -2.6224
  926MPD2    N113558   2.154   3.224  13.873 -0.2342  0.1631 -0.7726
  926MPD2    H713559   2.113   3.310  13.840  2.1490  1.8748  0.6998
  927MPD2     C13560   1.642   0.709   0.015  0.9452 -0.0534 -0.5013
  927MPD2    C113561   1.653   0.579   0.036 -0.3684  0.0656 -0.4569
  927MPD2    C213562   1.742   0.506  17.661  0.6024  0.0727  0.0454
  927MPD2    C313563   1.811   0.559  17.557  0.1361  0.2985  0.1040
  927MPD2    C413564   1.793   0.696  17.532 -0.4886 -0.8351 -0.3525
  927MPD2    C513565   1.697   0.751  17.605  0.4001 -0.5242 -0.1954
  927MPD2     H13566   1.758   0.400  17.677 -1.0363 -0.3646 -1.2935
  927MPD2    H113567   1.834   0.752  17.448 -1.4166 -1.2036 -1.0466
  927MPD2    H213568   1.586   0.780   0.076  0.5913  0.3955 -1.3484
  927MPD2    H313569   1.673   0.854  17.579 -0.8877 -0.5464  0.9101
  927MPD2     N13570   1.897   0.477  17.479 -0.0867  0.8026  0.4261
  927MPD2    H513571   1.910   0.385  17.520 -0.2813  0.3375 -0.5558
  927MPD2    N113572   1.568   0.530   0.139 -0.0044  0.2576  0.2718
  927MPD2    H713573   1.509   0.599   0.186  0.0000 -0.5432  1.4623
  928MPD2     C13574   3.466   3.817   0.898 -0.0696 -0.3530 -0.1079
  928MPD2    C113575   3.570   3.808   0.985 -0.0387 -0.0149 -0.2888
  928MPD2    C213576   3.680   3.729   0.941 -0.6172 -0.0759 -0.3439
  928MPD2    C313577   3.689   3.669   0.818 -0.0293 -0.0450 -0.2517
  928MPD2    C413578   3.589   3.692   0.729 -0.3928 -0.5191  0.2537
  928MPD2    C513579   3.478   3.759   0.776  0.6386  0.2173  0.0859
  928MPD2     H13580   3.757   3.714   1.016 -1.6006  2.0737  1.1073
  928MPD2    H113581   3.591   3.648   0.630 -2.1805  2.3190 -1.0336
  928MPD2    H213582   3.380   3.876   0.929  0.9911  0.2131  1.8052
  928MPD2    H313583   3.387   3.776   0.719  0.2064 -0.9655  0.4220
  928MPD2     N13584   3.796   3.581   0.783 -0.0110 -0.2913  0.0723
  928MPD2    H513585   3.818   3.558   0.687 -0.2930 -0.5066  0.0585
  928MPD2    N113586   3.551   3.868   1.108 -0.6163  0.3540 -0.6533
  928MPD2    H713587   3.470   3.928   1.122  0.8776  1.7843  1.7921
  929MPD2     C13588   0.315   3.247  10.433 -0.7515  0.6404  0.1661
  929MPD2    C113589   0.217   3.178  10.496 -0.1508  0.7136  0.4196
  929MPD2    C213590   0.088   3.189  10.450  0.0694  0.6204 -0.2530
  929MPD2    C313591   0.065   3.272  10.341 -0.4088 -0.0352 -0.5506
  929MPD2    C413592   0.165   3.346  10.280  0.1337  0.2873  0.0973
  929MPD2    C513593   0.288   3.339  10.334 -0.4557  0.2424  0.2541
  929MPD2     H13594   0.003   3.145  10.500 -0.3815  0.9417 -0.7446
  929MPD2    H113595   0.148   3.413  10.197 -1.4749 -1.2796 -0.8498
  929MPD2    H213596   0.413   3.244  10.479 -0.4271  2.3102 -0.3957
  929MPD2    H313597   0.370   3.396  10.292  1.3653 -0.5348  2.7902
  929MPD2     N13598   4.657   3.284  10.285 -0.2000 -1.0223 -0.5682
  929MPD2    H513599   4.642   3.346  10.206  1.0274 -0.2661 -0.2073
  929MPD2    N113600   0.258   3.099  10.608 -0.3616  0.6534  0.1668
  929MPD2    H713601   0.357   3.107  10.631 -0.1002 -2.0941  0.0105
  930MPD2     C13602   2.167   1.390  14.350 -0.7634 -0.6823 -0.4787
  930MPD2    C113603   2.148   1.431  14.218 -0.5216  0.5588  0.7478
  930MPD2    C213604   2.060   1.357  14.139 -0.3903 -0.4372  0.0940
  930MPD2    C313605   1.985   1.248  14.188 -0.5163  0.1428  0.0738
  930MPD2    C413606   1.999   1.226  14.326  0.4280  0.1843  0.3241
  930MPD2    C513607   2.086   1.292  14.407 -0.1125 -0.1290 -0.2441
  930MPD2     H13608   2.059   1.376  14.032  1.3025 -0.8607  0.0021
  930MPD2    H113609   1.949   1.138  14.367  1.0464 -0.2919  0.0463
  930MPD2    H213610   2.236   1.438  14.419 -0.2490 -1.5591 -0.3866
  930MPD2    H313611   2.107   1.249  14.504 -1.9239  0.4680  0.4109
  930MPD2     N13612   1.917   1.151  14.110 -0.2098  0.3661 -0.2647
  930MPD2    H513613   1.890   1.066  14.158  0.1960  0.2378 -0.2618
  930MPD2    N113614   2.233   1.530  14.153 -0.2352  0.5589 -0.2609
  930MPD2    H713615   2.195   1.567  14.066 -1.9639  0.0581  0.2689
  931MPD2     C13616   1.820   0.040   0.676  0.2106  0.5346 -0.1752
  931MPD2    C113617   1.681   0.043   0.689 -0.0138 -0.3559 -0.1756
  931MPD2    C213618   1.619   4.701   0.788  0.6168 -0.6017  0.9009
  931MPD2    C313619   1.688   4.626   0.878  0.5666 -0.3607  0.1106
  931MPD2    C413620   1.823   4.605   0.857 -0.3158  0.1031 -0.1099
  931MPD2    C513621   1.887   4.674   0.754  0.0309  0.8287  0.2229
  931MPD2     H13622   1.517   0.007   0.805  0.5606 -0.8581  1.0446
  931MPD2    H113623   1.883   4.539   0.918 -1.0827 -1.6572 -1.2542
  931MPD2    H213624   1.867   0.109   0.607  0.3244 -1.0721 -1.6932
  931MPD2    H313625   1.994   4.668   0.741  0.0947  1.6486  0.3196
  931MPD2     N13626   1.632   4.565   0.991  0.0492 -0.3196 -0.3207
  931MPD2    H513627   1.694   4.520   1.057  3.6974  2.5421 -1.8149
  931MPD2    N113628   1.617   0.138   0.605  0.2783 -0.4761  0.2792
  931MPD2    H713629   1.667   0.184   0.529  1.5456 -1.2633  0.6445
  932MPD2     C13630   3.228   4.434  11.589  0.1781 -0.5659 -0.0861
  932MPD2    C113631   3.364   4.421  11.558  0.4341 -0.2655 -0.3482
  932MPD2    C213632   3.438   4.319  11.606  0.0421  0.5621  0.1127
  932MPD2    C313633   3.371   4.211  11.655 -0.6840  1.0209  0.3069
  932MPD2    C413634   3.236   4.227  11.694 -0.3603  1.1984 -0.1387
  932MPD2    C513635   3.166   4.333  11.652 -0.1700 -0.0264  0.6274
  932MPD2     H13636   3.538   4.311  11.565  1.3883  1.4884  3.2018
  932MPD2    H113637   3.186   4.138  11.731 -0.1676  1.3359  0.4518
  932MPD2    H213638   3.171   4.520  11.558  1.3732  0.1576 -0.2483
  932MPD2    H313639   3.059   4.328  11.673 -0.4238 -0.7131 -0.8557
  932MPD2     N13640   3.431   4.090  11.688  0.0416  0.5840  0.0079
  932MPD2    H513641   3.372   4.018  11.728  1.0381 -1.4221 -2.1200
  932MPD2    N113642   3.446   4.529  11.518 -0.0758  0.0560  0.0569
  932MPD2    H713643   3.542   4.531  11.552  0.3865 -1.7574 -1.1769
  933MPD2     C13644   3.053   4.190   1.569  0.2501  0.4285 -0.1066
  933MPD2    C113645   3.180   4.235   1.586 -0.3240  0.0146  0.3719
  933MPD2    C213646   3.199   4.355   1.642 -0.2926  0.3074  0.2881
  933MPD2    C313647   3.102   4.429   1.686 -0.1395 -0.6127  0.6565
  933MPD2    C413648   2.974   4.392   1.662 -0.4345 -0.3817  0.2399
  933MPD2    C513649   2.949   4.271   1.609 -0.1390  0.2451  0.1051
  933MPD2     H13650   3.300   4.392   1.655  0.0821  0.0399 -1.8732
  933MPD2    H113651   2.894   4.445   1.713  1.0672 -1.1602  3.4193
  933MPD2    H213652   3.035   4.089   1.533 -1.7103  0.4521  0.7896
  933MPD2    H313653   2.849   4.230   1.612 -0.6411  1.4364 -0.2666
  933MPD2     N13654   3.137   4.548   1.756  0.3683  0.0391 -0.0383
  933MPD2    H513655   3.238   4.559   1.760  0.6647 -1.8795 -1.9451
  933MPD2    N113656   3.294   4.159   1.547 -0.7888 -0.3210 -0.4896
  933MPD2    H713657   3.383   4.203   1.566 -1.3688  0.4294  0.4783
  934MPD2     C13658   0.383   2.090   1.768  0.7450  0.1956 -0.3328
  934MPD2    C113659   0.405   1.955   1.798  0.8919 -0.0320 -0.2977
  934MPD2    C213660   0.318   1.855   1.758  0.2555  0.1685  0.3079
  934MPD2    C313661   0.209   1.891   1.683  0.1827 -0.6100  0.5748
  934MPD2    C413662   0.181   2.026   1.659 -0.2440 -0.9186 -0.3169
  934MPD2    C513663   0.266   2.119   1.707 -0.2304  0.1627  0.1880
  934MPD2     H13664   0.346   1.751   1.770 -0.1078 -0.0066 -0.3731
  934MPD2    H113665   0.098   2.055   1.596 -0.5162 -3.2960 -1.0527
  934MPD2    H213666   0.455   2.166   1.799 -0.4197  1.4691 -0.7741
  934MPD2    H313667   0.246   2.222   1.681  3.0454  0.4387 -1.3435
  934MPD2     N13668   0.141   1.788   1.609  0.0866  0.0768 -0.6501
  934MPD2    H513669   0.181   1.700   1.640  1.1677  0.3665 -1.2432
  934MPD2    N113670   0.527   1.902   1.848  0.1409 -0.2189 -0.1358
  934MPD2    H713671   0.534   1.801   1.850 -0.0720 -0.2071  1.2240
  935MPD2     C13672   4.679   0.814   1.677  1.0739 -0.1130 -0.8710
  935MPD2    C113673   0.063   0.892   1.640 -0.0763 -0.1238  0.7398
  935MPD2    C213674   0.048   1.027   1.630 -0.9120 -0.2649  0.0426
  935MPD2    C313675   4.642   1.082   1.639 -0.2215 -0.2455 -0.1695
  935MPD2    C413676   4.534   0.996   1.664  0.5008 -0.1572 -0.1522
  935MPD2    C513677   4.554   0.864   1.689  0.9814 -0.4497 -0.9940
  935MPD2     H13678   0.131   1.091   1.604 -0.0036 -2.0060 -1.3546
  935MPD2    H113679   4.433   1.033   1.672  0.2082 -0.8543 -0.6284
  935MPD2    H213680   4.680   0.706   1.691 -1.1286  0.0524  0.5490
  935MPD2    H313681   4.472   0.800   1.719  1.2592 -1.4523 -2.3458
  935MPD2     N13682   4.611   1.219   1.606  0.4171 -0.4500  0.5113
  935MPD2    H513683   4.511   1.240   1.603  0.6016  0.2403 -0.7352
  935MPD2    N113684   0.177   0.831   1.593 -0.3099 -0.3677  0.1164
  935MPD2    H713685   0.244   0.883   1.537  0.0155 -0.3865  0.4876
  936MPD2     C13686   3.665   3.301  12.162  0.7097  0.2584  0.1597
  936MPD2    C113687   3.760   3.249  12.255  0.3203  0.0914 -0.8176
  936MPD2    C213688   3.895   3.289  12.258  1.2218 -0.2062  0.7152
  936MPD2    C313689   3.937   3.379  12.161 -0.5889 -0.2898 -0.1433
  936MPD2    C413690   3.846   3.441  12.082 -0.0050  0.3582 -1.5975
  936MPD2    C513691   3.714   3.406  12.084 -0.3679  0.2342 -0.2648
  936MPD2     H13692   3.969   3.239  12.319 -0.0016 -2.0876  0.6626
  936MPD2    H113693   3.884   3.522  12.021 -0.0935  2.0033  0.5360
  936MPD2    H213694   3.558   3.289  12.157  0.5304  0.7605  2.4882
  936MPD2    H313695   3.640   3.464  12.029 -1.5900  1.6655  2.9191
  936MPD2     N13696   4.070   3.413  12.132 -0.5586  0.0920 -0.0297
  936MPD2    H513697   4.092   3.467  12.049  1.8100 -1.1014 -0.1747
  936MPD2    N113698   3.721   3.163  12.354 -0.5657 -0.5238 -0.0137
  936MPD2    H713699   3.797   3.149  12.420  1.7496  0.9023 -2.3620
  937MPD2     C13700   1.721   3.976  12.303 -0.5694 -0.3307 -0.2103
  937MPD2    C113701   1.770   4.091  12.239  0.3306 -0.2189 -0.6650
  937MPD2    C213702   1.865   4.073  12.141  0.0387 -0.1116  0.2817
  937MPD2    C313703   1.911   3.951  12.096 -0.0964 -0.4499 -0.4860
  937MPD2    C413704   1.866   3.839  12.162  0.0963  0.5403 -0.1654
  937MPD2    C513705   1.776   3.855  12.262  0.8888 -0.1791 -0.3999
  937MPD2     H13706   1.902   4.152  12.077 -0.2076 -1.1103 -1.1035
  937MPD2    H113707   1.895   3.736  12.146  1.4786  0.8862  0.0867
  937MPD2    H213708   1.677   3.971  12.402 -1.3848  0.7711 -0.5159
  937MPD2    H313709   1.744   3.760  12.303  0.9356 -0.9376 -2.1160
  937MPD2     N13710   2.008   3.943  11.990 -0.5867 -0.4896 -0.2039
  937MPD2    H513711   2.047   4.032  11.961 -2.8132  0.4231 -0.3848
  937MPD2    N113712   1.775   4.221  12.295  0.3564 -0.1790  0.5471
  937MPD2    H713713   1.830   4.291  12.246 -1.9890  3.3451  3.0002
  938MPD2     C13714   4.694   0.633   1.324 -0.0970  0.3525 -0.0634
  938MPD2    C113715   4.584   0.718   1.343 -0.7096  0.4671  0.8130
  938MPD2    C213716   4.464   0.660   1.377 -0.2835  0.2546 -0.0301
  938MPD2    C313717   4.445   0.516   1.395  0.0238  0.3055  0.6182
  938MPD2    C413718   4.550   0.437   1.372  0.6157  0.3046 -0.4012
  938MPD2    C513719   4.676   0.498   1.335  0.5562  0.5460 -0.2261
  938MPD2     H13720   4.375   0.721   1.383  1.4413  2.6086  1.6286
  938MPD2    H113721   4.537   0.330   1.366  2.4786  0.0606  0.0389
  938MPD2    H213722   0.063   0.668   1.285  0.1750  0.5019  0.7239
  938MPD2    H313723   0.034   0.434   1.313 -0.3223 -0.5477 -0.3955
  938MPD2     N13724   4.326   0.460   1.435  0.7909  0.2791  0.0299
  938MPD2    H513725   4.323   0.359   1.426 -1.2565  0.1830  1.7581
  938MPD2    N113726   4.591   0.859   1.322  0.8334 -0.4119 -0.1172
  938MPD2    H713727   4.509   0.914   1.345  0.3642 -1.3814  0.5215
  939MPD2     C13728   1.145   1.835   0.960  0.8817  0.6251  0.1127
  939MPD2    C113729   1.091   1.949   0.919 -0.3928 -0.5049  0.7585
  939MPD2    C213730   1.177   2.038   0.845  0.1155 -0.6000  0.6862
  939MPD2    C313731   1.302   2.003   0.810  0.3269 -0.2774  0.2210
  939MPD2    C413732   1.349   1.876   0.843  0.6685  0.3458  0.6692
  939MPD2    C513733   1.269   1.805   0.920 -0.1914  0.1247  0.0303
  939MPD2     H13734   1.137   2.135   0.821 -0.5517 -1.4471 -1.6469
  939MPD2    H113735   1.450   1.848   0.815  0.2612 -1.8665  1.4209
  939MPD2    H213736   1.086   1.761   1.012  2.2131  0.7836  1.8618
  939MPD2    H313737   1.312   1.710   0.951 -1.6347 -1.4529 -2.8324
  939MPD2     N13738   1.364   2.089   0.716  0.3476 -0.2898 -0.2741
  939MPD2    H513739   1.312   2.167   0.677  2.1169  1.7874  1.5628
  939MPD2    N113740   0.952   1.970   0.946  0.7368 -0.0173  0.2162
  939MPD2    H713741   0.901   1.903   1.003 -0.3809  2.3669  1.9838
  940MPD2     C13742   0.237   2.563  13.262 -0.2879 -0.0538  0.6843
  940MPD2    C113743   0.173   2.665  13.334 -0.5275 -0.9106  0.0640
  940MPD2    C213744   0.071   2.732  13.267  0.0661 -0.4939  0.1836
  940MPD2    C313745   0.057   2.715  13.133 -0.8732  0.9262  0.6153
  940MPD2    C413746   0.137   2.627  13.068  0.3027  0.0790  0.0577
  940MPD2    C513747   0.221   2.542  13.126 -0.0462 -0.6085  0.3391
  940MPD2     H13748   0.012   2.806  13.320  1.1565 -0.0791  0.8254
  940MPD2    H113749   0.129   2.615  12.961  0.0499  0.9617 -0.0199
  940MPD2    H213750   0.315   2.498  13.298  0.7920  2.4941  2.9766
  940MPD2    H313751   0.274   2.463  13.075  0.6663 -0.0675  0.2470
  940MPD2     N13752   4.701   2.796  13.049 -0.4078  0.0026  0.3601
  940MPD2    H513753   0.002   2.804  12.952 -2.5930 -1.1069 -0.3462
  940MPD2    N113754   0.219   2.704  13.469  0.1494 -0.2504 -0.5210
  940MPD2    H713755   0.175   2.787  13.507 -1.3644 -1.0388 -0.5681
  941MPD2     C13756   4.348   1.323   9.399 -0.4678 -0.0718 -0.0961
  941MPD2    C113757   4.414   1.314   9.518 -0.1962 -0.0620 -0.6501
  941MPD2    C213758   4.358   1.234   9.619  0.3958  0.4987 -0.5204
  941MPD2    C313759   4.233   1.174   9.604 -0.2056  0.3332  0.3507
  941MPD2    C413760   4.167   1.193   9.484 -0.3423  0.2074  0.6842
  941MPD2    C513761   4.231   1.254   9.384 -0.4321 -0.0488 -0.0036
  941MPD2     H13762   4.421   1.218   9.706  1.5067 -0.5580 -1.5337
  941MPD2    H113763   4.065   1.156   9.482 -0.6441  1.0976 -0.4489
  941MPD2    H213764   4.392   1.388   9.323  0.8487 -1.2245 -0.3204
  941MPD2    H313765   4.179   1.270   9.291  1.8879  0.1836 -1.2408
  941MPD2     N13766   4.167   1.096   9.710  0.2133  0.4577  0.4775
  941MPD2    H513767   4.074   1.058   9.700  0.3242  0.7115 -1.5554
  941MPD2    N113768   4.538   1.384   9.537  0.8446  1.1643 -0.3365
  941MPD2    H713769   4.582   1.352   9.623 -0.4652 -0.4720 -0.2746
  942MPD2     C13770   3.375   3.634   9.935  0.3107 -0.1496 -0.3429
  942MPD2    C113771   3.423   3.716   9.830  0.5041 -0.0481 -0.1570
  942MPD2    C213772   3.529   3.672   9.768 -0.2353 -0.3026 -0.6922
  942MPD2    C313773   3.609   3.561   9.801  0.2560 -0.0612 -0.3458
  942MPD2    C413774   3.556   3.478   9.895  0.5208 -0.5693 -0.9700
  942MPD2    C513775   3.441   3.513   9.955 -0.1229  0.2823 -0.0286
  942MPD2     H13776   3.571   3.735   9.690  1.4212  0.5741  0.8972
  942MPD2    H113777   3.589   3.378   9.922  1.4412 -0.0680 -0.2176
  942MPD2    H213778   3.289   3.661   9.994 -0.4268  0.9555 -1.9199
  942MPD2    H313779   3.398   3.432  10.013 -0.7934  0.2348 -0.5813
  942MPD2     N13780   3.731   3.518   9.742  0.1279  0.7370 -0.3919
  942MPD2    H513781   3.784   3.442   9.784 -3.2729 -1.4022  0.0815
  942MPD2    N113782   3.364   3.840   9.784  0.6342 -0.2755  0.3606
  942MPD2    H713783   3.413   3.895   9.715  2.3182 -1.1835  0.8296
  943MPD2     C13784   3.188   1.449   9.671  0.0273  0.0827  0.6151
  943MPD2    C113785   3.083   1.362   9.695 -0.4261 -0.0642  0.7450
  943MPD2    C213786   2.950   1.413   9.691  0.1043  0.5181  0.4247
  943MPD2    C313787   2.927   1.546   9.666  0.2052  0.2926 -0.4063
  943MPD2    C413788   3.038   1.626   9.634  0.6006  0.1110 -0.7177
  943MPD2    C513789   3.166   1.575   9.635  0.8100 -0.0069 -0.1500
  943MPD2     H13790   2.867   1.347   9.711  0.4207 -0.4959 -1.5596
  943MPD2    H113791   3.026   1.733   9.624 -1.4260 -0.0667 -0.2828
  943MPD2    H213792   3.290   1.414   9.684  0.4613  0.4817 -1.7068
  943MPD2    H313793   3.249   1.644   9.631  1.5820 -0.8643  1.1525
  943MPD2     N13794   2.796   1.595   9.673  0.5213  0.2651 -0.6342
  943MPD2    H513795   2.778   1.691   9.644 -1.2849  0.9907  2.9345
  943MPD2    N113796   3.111   1.229   9.741 -0.5410  0.2801 -0.2714
  943MPD2    H713797   3.207   1.199   9.737 -0.6959  0.0400 -2.0476
  944MPD2     C13798   3.163   0.635  11.006 -0.5606  0.0348  0.4174
  944MPD2    C113799   3.028   0.604  10.985  0.5240  0.7273  0.5020
  944MPD2    C213800   2.938   0.602  11.093 -0.4831  0.5334  0.1136
  944MPD2    C313801   2.985   0.627  11.221 -0.1269  0.4259  0.1393
  944MPD2    C413802   3.112   0.676  11.239 -0.4804 -0.8571  0.0513
  944MPD2    C513803   3.196   0.676  11.134  0.1122  0.2685  0.4315
  944MPD2     H13804   2.834   0.572  11.079 -0.4045  1.3675 -2.3542
  944MPD2    H113805   3.145   0.719  11.333 -0.4232 -1.5472  0.3451
  944MPD2    H213806   3.240   0.637  10.929 -1.3505 -0.3412 -0.3820
  944MPD2    H313807   3.299   0.708  11.146  0.3007 -0.6382  1.2403
  944MPD2     N13808   2.892   0.629  11.332  0.0090  0.0332 -0.0910
  944MPD2    H513809   2.802   0.594  11.301  0.6939 -2.2758  0.4897
  944MPD2    N113810   3.001   0.569  10.851  0.6600 -0.5434 -0.0693
  944MPD2    H713811   3.083   0.565  10.790 -0.0859  1.8128 -1.2502
    1TCq1    O113812   0.921   1.716  13.978 -0.1829 -0.0404 -0.4041
    1TCq1    C113813   1.023   1.789  14.037 -0.3006  0.2629 -0.9310
    1TCq1    O213814   1.114   1.748  14.104  0.4820  0.5426 -0.2247
    1TCq1    C213815   0.971   1.923  14.060 -0.1509 -0.4185  0.7558
    1TCq1    C313816   0.883   1.981  13.974  0.5436 -0.2392  0.3397
    1TCq1    C413817   0.840   2.105  14.000 -0.5350 -0.3239  0.0371
    1TCq1    C513818   0.856   2.163  14.120 -0.0703 -0.2169  0.1585
    1TCq1    C613819   0.939   2.100  14.208 -0.3071 -0.1023  1.0488
    1TCq1    C713820   1.004   1.987  14.179  0.1610 -0.2268  0.6131
    1TCq1    C813821   0.980   2.163  14.334  1.0446  0.4633 -0.2002
    1TCq1    O413822   1.049   2.089  14.406 -0.6620  0.5739  0.1861
    1TCq1    C913823   0.763   2.182  13.895 -0.5056  0.2110 -0.1257
    1TCq1    O513824   0.688   2.271  13.939 -0.2537  0.7734 -0.0106
    1TCq1    O613825   0.754   2.141  13.777  0.0347 -1.0107 -0.0950
    1TCq1    H113826   0.868   1.767  13.913 -0.2130  1.7398  1.0230
    1TCq1    H213827   0.846   1.937  13.882 -0.5198  1.8947 -0.2500
    1TCq1    H313828   0.811   2.259  14.143  1.7448  1.0272 -1.4801
    1TCq1    H413829   1.075   1.941  14.248 -0.4690 -2.5832 -0.2842
    2MPD2     C13830   1.095   2.558  14.617  0.3997 -0.7486 -0.8434
    2MPD2    C113831   1.005   2.600  14.523  0.3871 -0.3148 -0.1531
    2MPD2    C213832   0.943   2.506  14.447  0.3301  0.4234 -0.6068
    2MPD2    C313833   0.979   2.370  14.457  0.2788 -0.0882  0.3548
    2MPD2    C413834   1.063   2.326  14.559 -0.2965  0.9179  0.5060
    2MPD2    C513835   1.119   2.424  14.637  0.3303  1.0656 -0.5564
    2MPD2     H13836   0.870   2.532  14.371  0.1544 -1.2659 -1.0138
    2MPD2    H113837   1.081   2.222  14.583  1.1766  0.8415 -0.8967
    2MPD2    H213838   1.155   2.634  14.665 -0.7022 -1.3992  1.5540
    2MPD2    H313839   1.186   2.388  14.715 -3.1010 -0.5927  1.6557
    2MPD2     N13840   0.922   2.283  14.361 -0.1475 -1.0544  0.2517
    2MPD2    H513841   0.842   2.306  14.303  0.9786 -1.6330 -1.5735
    2MPD2    N113842   0.994   2.738  14.500  0.0284 -0.4387 -0.7706
    2MPD2    H713843   1.052   2.793  14.562 -0.2474  0.6614 -1.4994
    3TMC2    C113844   0.961   2.948  14.393 -0.2600 -0.0498 -0.9580
    3TMC2    C213845   0.999   3.007  14.509  0.6441 -0.4747 -0.0722
    3TMC2    C313846   1.053   3.125  14.489 -0.1759  0.1018  0.1960
    3TMC2    C413847   0.974   2.992  14.268  0.2761 -0.0168 -0.1357
    3TMC2    C513848   1.037   3.111  14.255 -0.0736  0.6958  0.7431
    3TMC2    C613849   1.085   3.175  14.366  0.6394 -0.8573  0.2614
    3TMC2     C13850   0.921   2.806  14.398  0.8583 -0.5099 -0.1330
    3TMC2     O13851   0.823   2.783  14.331 -0.3496  0.6045  0.4941
    3TMC2     H13852   0.966   2.970  14.605 -1.2252  0.5789 -0.3136
    3TMC2    H113853   0.924   2.945  14.184  1.8723 -0.8013 -0.6393
    3TMC2    H213854   1.119   3.277  14.363 -2.2568  0.1304  0.6960
    3TMC2    C713855   1.079   3.166  14.125 -0.5123 -0.5031 -0.2148
    3TMC2    C813856   1.115   3.182  14.602  0.0399 -0.4578  0.0020
    3TMC2    O113857   1.170   3.251  14.128  0.5596  0.1608  1.1377
    3TMC2    O213858   1.074   3.289  14.654  0.2467  0.8956 -0.5302
    3TMC2    O513859   1.163   3.081  14.678 -0.3002  0.3302  0.2685
    3TMC2    H513860   1.207   3.003  14.639 -0.5459 -0.0225  0.7033
    4MPD2     C13861   4.572   3.183  13.312 -0.0963 -0.3408 -0.1304
    4MPD2    C113862   4.638   3.250  13.209  0.3934 -0.1744 -0.3483
    4MPD2    C213863   0.046   3.227  13.193  0.2159  0.3551 -0.4333
    4MPD2    C313864   0.120   3.151  13.272  0.3130  0.1714 -0.0036
    4MPD2    C413865   0.057   3.099  13.387 -0.5537  0.0035 -0.1294
    4MPD2    C513866   4.652   3.126  13.406 -0.7497  0.3824 -0.2724
    4MPD2     H13867   0.091   3.270  13.104  0.1217 -0.0906 -0.7018
    4MPD2    H113868   0.113   3.050  13.466 -0.6569 -0.6267 -0.4488
    4MPD2    H213869   4.464   3.190  13.317  0.3104  3.4474  3.2192
    4MPD2    H313870   4.600   3.075  13.486 -0.9066  1.2678  0.1908
    4MPD2     N13871   0.255   3.146  13.244  0.2465 -0.0455 -0.3369
    4MPD2    H513872   0.285   3.191  13.159 -0.0830 -2.9685 -2.0107
    4MPD2    N113873   4.557   3.332  13.132  0.0818 -0.1575  0.2662
    4MPD2    H713874   4.460   3.345  13.160  0.1649 -0.4475  0.6801
    5TCq2    C113875   0.342   3.076  13.333 -0.7466  0.2020  0.7867
    5TCq2    O213876   0.314   3.017  13.440 -1.0667  0.1708 -0.0488
    5TCq2    C213877   0.475   3.133  13.321 -0.2245  0.4971  0.4351
    5TCq2    C313878   0.522   3.196  13.210  0.5291  0.2773 -0.2692
    5TCq2    C413879   0.655   3.244  13.213  0.4689  0.1192 -0.0081
    5TCq2    C513880   0.730   3.243  13.333  0.6465  0.3729 -0.3166
    5TCq2    C613881   0.674   3.181  13.437  0.6840  0.7403  0.3749
    5TCq2    C713882   0.547   3.129  13.436 -0.0376  0.6034 -0.1910
    5TCq2    C813883   0.746   3.164  13.558  0.0372 -0.3392  0.5021
    5TCq2    O413884   0.685   3.125  13.653  0.5632 -0.5069 -0.1619
    5TCq2    C913885   0.717   3.311  13.096  0.4108 -0.4807 -0.0431
    5TCq2    O513886   0.836   3.345  13.106 -0.0370 -0.1867 -0.1366
    5TCq2    O613887   0.633   3.339  13.002  0.1242 -0.1453  0.1676
    5TCq2    H213888   0.465   3.195  13.117  0.2007 -0.6480 -0.0585
    5TCq2    H313889   0.833   3.277  13.334  0.0044  2.3443 -0.2879
    5TCq2    H413890   0.511   3.065  13.516  1.2847  0.8163  0.5758
    6MPD1     C13891   4.190   0.395  13.559  0.1873 -0.3022 -0.5306
    6MPD1    C113892   4.314   0.380  13.507 -0.8927 -0.4069 -0.4796
    6MPD1    C213893   4.366   0.248  13.493 -0.1269 -0.1978 -0.4589
    6MPD1    C313894   4.288   0.134  13.517 -0.0781 -0.5857 -0.1424
    6MPD1    C413895   4.172   0.153  13.587 -0.5518  0.1054 -0.5730
    6MPD1    C513896   4.129   0.282  13.604  0.0163  0.9836  0.1766
    6MPD1     H13897   4.460   0.246  13.439  1.0509 -2.1933  1.6397
    6MPD1    H113898   4.112   0.070  13.623  2.1540 -1.9291 -0.7503
    6MPD1    H213899   4.144   0.492  13.576  1.3735  0.1371  0.1741
    6MPD1    H313900   4.037   0.280  13.661  0.0334 -2.5025  0.1199
    6MPD1     N13901   4.322   0.005  13.478 -1.4508  0.0019  0.3160
    6MPD1    H513902   4.255   4.658  13.503 -0.5628 -0.5636  1.0513
    6MPD1    N113903   4.390   0.495  13.483 -0.0392  0.2486 -0.8023
    6MPD1    H613904   4.342   0.582  13.464  0.5326 -0.0760 -3.6358
    6MPD1    H713905   4.464   0.488  13.413  0.1084 -2.4043 -0.3982
    7MPD2     C13906   4.214   3.944  13.507 -0.2765  0.1156  0.0609
    7MPD2    C113907   4.237   3.997  13.381 -0.4868 -0.0595 -0.0107
    7MPD2    C213908   4.233   3.909  13.272 -0.3565  0.9572 -0.8888
    7MPD2    C313909   4.219   3.775  13.292 -0.6195  0.3662 -0.3420
    7MPD2    C413910   4.180   3.725  13.415 -0.3401  0.4284  0.4253
    7MPD2    C513911   4.177   3.813  13.520 -0.2193 -0.8535 -0.4706
    7MPD2     H13912   4.249   3.955  13.175 -0.2509  0.1416 -1.2523
    7MPD2    H113913   4.156   3.620  13.421  1.5066 -0.1595 -2.6689
    7MPD2    H213914   4.207   4.010  13.593  2.3099 -0.8059  0.9767
    7MPD2    H313915   4.123   3.780  13.608  0.4711 -2.0475 -0.4923
    7MPD2     N13916   4.240   3.682  13.188 -0.1960  0.0863 -0.0907
    7MPD2    H513917   4.246   3.589  13.228  0.1146  0.2830  0.3226
    7MPD2    N113918   4.265   4.137  13.352 -0.1174 -0.5042 -0.2253
    7MPD2    H713919   4.288   4.169  13.258 -1.4158 -1.8628 -0.9939
    8TMC3    C113920   4.295   3.606  12.969 -0.0679  0.2786  0.0870
    8TMC3    C213921   4.399   3.533  13.027 -0.0073  0.0440  0.2064
    8TMC3    C313922   4.502   3.486  12.954  0.0777 -0.4359 -0.4106
    8TMC3    C413923   4.328   3.657  12.845 -0.4948 -0.3685  0.2011
    8TMC3    C513924   4.443   3.620  12.775 -0.2005  0.3034 -0.4604
    8TMC3    C613925   4.536   3.536  12.833 -0.2798  0.1805  0.2544
    8TMC3     C13926   4.254   3.719  13.054 -0.9954  0.4464 -0.1028
    8TMC3     O13927   4.240   3.826  12.997  0.5043 -0.6526  0.1054
    8TMC3     H13928   4.396   3.520  13.135  0.7979  0.8875  0.3310
    8TMC3    H113929   4.239   3.708  12.810 -0.5180  0.0765  0.9196
    8TMC3    H213930   4.633   3.511  12.791 -0.2004  0.5152  0.2423
    8TMC3    C713931   4.501   3.741  12.717 -0.2682 -0.7662 -0.5845
    8TMC3    C813932   4.594   3.382  13.009 -0.2459 -0.1432  0.4530
    8TMC3    O113933   4.582   3.723  12.622 -0.2010  0.1999  0.3074
    8TMC3    O213934   4.694   3.364  12.942 -0.3004  0.7518  0.1236
    9TMC3    C113935   4.400   4.559  13.347 -0.3396  0.2823 -0.6076
    9TMC3    C213936   4.415   4.547  13.212  0.0298  0.5111 -0.0411
    9TMC3    C313937   4.345   4.448  13.144  0.0767  0.2847  0.0250
    9TMC3    C413938   4.340   4.465  13.425 -0.1338 -0.7078  0.5017
    9TMC3    C513939   4.279   4.362  13.354  0.4207  0.2460  0.1397
    9TMC3    C613940   4.284   4.349  13.219  0.2265  0.0325 -0.0245
    9TMC3     C13941   4.434   4.687  13.406 -0.7625 -0.2020  0.1771
    9TMC3     O13942   4.525   0.022  13.351 -0.6307  0.0768  0.5390
    9TMC3     H13943   4.460   4.630  13.158  1.1994 -0.4697 -0.5745
    9TMC3    H113944   4.355   4.467  13.532  0.4977 -0.7918  0.4105
    9TMC3    H213945   4.221   4.280  13.165 -1.0951  0.5862  0.8039
    9TMC3    C713946   4.247   4.242  13.430 -0.1531  1.0978  0.2213
    9TMC3    C813947   4.388   4.404  13.011 -0.3106 -0.6085 -0.7665
    9TMC3    O113948   4.231   4.241  13.553  0.0826  0.4291  0.5297
    9TMC3    O213949   4.406   4.497  12.936 -0.2444 -0.6157 -0.1181
   10MPD2     C13950   4.568   4.035  12.684  0.6354 -0.3729  0.0356
   10MPD2    C113951   4.482   3.984  12.775 -0.5531 -0.2008  0.2623
   10MPD2    C213952   4.430   4.070  12.871 -0.7408  0.3077 -0.0203
   10MPD2    C313953   4.462   4.205  12.880 -0.9243 -0.0217  0.0326
   10MPD2    C413954   4.553   4.256  12.785 -0.1901  0.6044 -0.2229
   10MPD2    C513955   4.607   4.167  12.693 -0.1361 -0.0084  0.0388
   10MPD2     H13956   4.359   4.026  12.940 -1.4359 -0.4284 -1.1973
   10MPD2    H113957   4.586   4.360  12.783 -0.3470  0.6275 -1.5394
   10MPD2    H213958   4.622   3.978  12.610 -0.1978 -0.9834 -0.1090
   10MPD2    H313959   4.672   4.215  12.622 -0.2190  0.0363 -0.0070
   10MPD2     N13960   4.409   4.270  12.993  0.2745 -0.2101 -0.6547
   10MPD2    H513961   4.364   4.209  13.061  2.5923 -1.3007 -0.1025
   10MPD2    N113962   4.440   3.849  12.781  0.0139  0.0249 -0.5002
   10MPD2    H713963   4.368   3.827  12.849 -0.4748  2.0003 -0.3836
   11MPD2     C13964   1.168   3.169  13.845  0.0618  0.2172 -0.1539
   11MPD2    C113965   1.038   3.146  13.876  0.3032  0.0426 -0.4004
   11MPD2    C213966   0.942   3.129  13.775  0.8586 -0.2162  0.3890
   11MPD2    C313967   0.979   3.155  13.648 -0.1267 -1.0630 -0.4921
   11MPD2    C413968   1.114   3.172  13.628  0.1528 -0.3649  0.0272
   11MPD2    C513969   1.212   3.174  13.723  0.2690 -0.1444 -0.0586
   11MPD2     H13970   0.839   3.117  13.805 -0.0040 -0.3892 -2.6961
   11MPD2    H113971   1.141   3.173  13.523  0.8717  0.1771  0.2189
   11MPD2    H213972   1.241   3.180  13.925  0.7647  1.2989 -0.9392
   11MPD2    H313973   1.319   3.180  13.709 -0.1020 -2.0476 -3.6932
   11MPD2     N13974   0.883   3.169  13.538  0.3587 -0.1189 -0.1656
   11MPD2    H513975   0.922   3.182  13.445  1.3963 -0.7091  0.1793
   11MPD2    N113976   1.006   3.127  14.016  0.1504  0.0556  0.4295
   11MPD2    H713977   0.912   3.092  14.031 -0.5501  1.2431 -1.1493
    1MPD1     C13978   2.896   4.041  17.049 -0.2849 -0.4888  0.3147
    1MPD1    C113979   2.911   4.104  17.163  0.1635 -0.4991 -0.1227
    1MPD1    C213980   3.019   4.186  17.192 -0.4169 -0.2726 -0.4465
    1MPD1    C313981   3.106   4.217  17.090  0.2489 -0.3340 -0.0373
    1MPD1    C413982   3.088   4.154  16.969  0.2023 -0.8280  0.7448
    1MPD1    C513983   2.985   4.060  16.950  0.8314 -0.7023 -0.0428
    1MPD1     H13984   3.044   4.219  17.292  0.1743 -1.6503 -0.1448
    1MPD1    H113985   3.155   4.165  16.885  0.3693  3.4856  1.4443
    1MPD1    H213986   2.810   3.978  17.029 -2.3196  2.9409 -1.7155
    1MPD1    H313987   2.977   4.005  16.857  2.4471  1.2616 -1.3530
    1MPD1     N13988   3.214   4.303  17.104  0.6872  0.1437  0.3600
    1MPD1    H513989   3.275   4.309  17.023  1.1408 -1.0941  0.6203
    1MPD1    N113990   2.825   4.073  17.270  0.2527 -0.4141  0.2628
    1MPD1    H613991   2.729   4.043  17.250  0.5786 -1.2675  0.0012
    1MPD1    H713992   2.835   4.145  17.341 -2.3007  0.3911 -0.1885
    2MPD1     C13993   3.525   0.370  17.665  0.1765  0.4196 -0.5931
    2MPD1    C113994   3.412   0.363  17.576 -0.5226 -0.0325 -0.2295
    2MPD1    C213995   3.395   0.242  17.512  0.4358 -0.2351 -0.4982
    2MPD1    C313996   3.501   0.161  17.478 -0.0195 -0.1940 -0.5430
    2MPD1    C413997   3.619   0.195  17.539  0.0609 -0.3893  0.0247
    2MPD1    C513998   3.631   0.285  17.645  0.3552 -0.1632  0.2809
    2MPD1     H13999   3.299   0.218  17.470  0.6393 -1.2490 -0.3773
    2MPD1    H114000   3.705   0.132  17.521 -0.7376 -1.5714  0.3819
    2MPD1    H214001   3.532   0.458   0.022 -1.3065 -0.9392  1.4426
    2MPD1    H314002   3.724   0.294  17.700 -0.1826 -0.3793  1.2318
    2MPD1     N14003   3.484   0.057  17.384  0.5457  0.0120  0.4611
    2MPD1    H514004   3.389   0.056  17.347  1.1262  0.1137 -1.0356
    2MPD1    N114005   3.298   0.442  17.597 -0.5456  0.5923 -0.0557
    2MPD1    H614006   3.230   0.444  17.522 -0.0353  0.0369 -0.5331
    2MPD1    H714007   3.325   0.539  17.607 -0.4551  0.4295  1.2794
    3TMC3    C114008   3.520   4.612  17.222  0.4954  0.2625  0.3988
    3TMC3    C214009   3.608   4.565  17.128 -0.4705  0.5296 -0.3494
    3TMC3    C314010   3.583   4.437  17.076  1.0795 -0.3366 -0.1357
    3TMC3    C414011   3.409   4.544  17.262 -0.7479  0.4722  0.4437
    3TMC3    C514012   3.383   4.425  17.197 -0.3502  0.4422 -0.5345
    3TMC3    C614013   3.475   4.365  17.115 -0.1678  0.1444 -0.1231
    3TMC3     C14014   3.576   4.705  17.318 -0.0063 -0.5360 -0.5213
    3TMC3     O14015   3.699   4.719  17.313  0.5151 -0.4078  0.0898
    3TMC3     H14016   3.683   4.635  17.094 -0.3505  2.2796  3.5077
    3TMC3    H114017   3.328   4.584  17.322 -0.3853  0.3887  0.9856
    3TMC3    H214018   3.454   4.271  17.066  0.1802  0.2470 -0.4648
    3TMC3    C714019   3.255   4.365  17.216 -0.1328 -0.6159  0.0749
    3TMC3    C814020   3.644   4.399  16.950 -0.5530  0.5016  0.0302
    3TMC3    O114021   3.190   4.387  17.316  0.0056  0.0158  0.0717
    3TMC3    O214022   3.694   4.288  16.950  0.3303 -0.2215  0.4647
    4MPD1     C14023   3.768   4.499  16.461  0.0921  0.1822  0.3665
    4MPD1    C114024   3.668   4.588  16.497  0.2471 -0.9040 -0.5312
    4MPD1    C214025   3.605   4.573  16.618 -0.3587 -0.3164 -0.0217
    4MPD1    C314026   3.665   4.489  16.716 -0.0027 -0.3462 -0.3784
    4MPD1    C414027   3.776   4.410  16.685  0.3097  0.1882 -0.0017
    4MPD1    C514028   3.824   4.416  16.552 -0.2760 -0.0186 -0.1164
    4MPD1     H14029   3.522   4.635  16.649  0.2905  1.0268 -0.9921
    4MPD1    H114030   3.838   4.350  16.752 -1.0132 -0.8570  0.2795
    4MPD1    H214031   3.811   4.500  16.361  1.4563  0.1691  0.9511
    4MPD1    H314032   3.909   4.353  16.527  1.3755  1.1217  2.6062
    4MPD1     N14033   3.620   4.493  16.851 -0.0770  0.1436  0.3938
    4MPD1    H514034   3.552   4.564  16.876 -0.1632 -0.1983  1.1350
    4MPD1    N114035   3.605   4.660  16.398  0.0571 -0.2294  0.3547
    4MPD1    H614036   3.661   4.693  16.319  1.2628  2.2157  2.2115
    4MPD1    H714037   3.548   0.006  16.441  1.7454  0.7067  1.0273
    1TCq1    O114038   4.564   2.974  11.684  0.3715 -0.5144 -0.0182
    1TCq1    C114039   4.608   3.045  11.790 -0.2030 -0.4602  0.1215
    1TCq1    O214040   4.702   3.024  11.868 -0.5169 -0.4043 -0.2661
    1TCq1    C214041   4.513   3.156  11.788 -0.2383 -0.0423 -0.3662
    1TCq1    C314042   4.380   3.147  11.745  0.2374 -0.5468  0.3645
    1TCq1    C414043   4.308   3.258  11.730 -0.2584  0.1893  0.5291
    1TCq1    C514044   4.370   3.377  11.752 -0.0537  0.6009  0.6106
    1TCq1    C614045   4.500   3.384  11.796 -0.2636 -0.4173  0.6376
    1TCq1    C714046   4.568   3.272  11.825  0.2297  0.3043 -0.0822
    1TCq1    C814047   4.547   3.509  11.845 -0.4598 -0.7281 -0.1338
    1TCq1    O414048   4.657   3.495  11.904 -0.1913  0.6282  0.0518
    1TCq1    C914049   4.176   3.264  11.685 -0.3650  0.5845  0.7082
    1TCq1    O514050   4.130   3.377  11.645  0.4935  0.1360  0.1321
    1TCq1    O614051   4.133   3.147  11.667 -0.4752  0.3244  0.3134
    1TCq1    H114052   4.511   3.030  11.624  2.0304  1.9440  0.7883
    1TCq1    H214053   4.337   3.054  11.708 -2.1897  1.3793 -1.6468
    1TCq1    H314054   4.308   3.464  11.735 -0.5796  0.5659  2.2938
    1TCq1    H414055   4.670   3.262  11.861  0.7076 -1.4297 -1.8781
    2MPD1     C14056   4.510   4.014  11.954 -0.1704 -0.7710  0.5568
    2MPD1    C114057   4.427   3.975  11.849 -0.5296 -0.0407  0.4260
    2MPD1    C214058   4.424   3.849  11.802  0.4699 -0.2801 -0.6260
    2MPD1    C314059   4.497   3.755  11.853  0.1539 -0.0407  0.4797
    2MPD1    C414060   4.595   3.787  11.951  0.5134 -0.0208  0.3716
    2MPD1    C514061   4.591   3.919  12.000  0.1058 -0.0379  0.3372
    2MPD1     H14062   4.348   3.810  11.735  0.5082 -1.5909  0.0963
    2MPD1    H114063   4.662   3.718  12.000  0.9855  0.0838 -0.1237
    2MPD1    H214064   4.508   4.111  12.004  0.6533  0.0504 -1.0262
    2MPD1    H314065   4.657   3.940  12.084 -0.6092 -0.4646  1.0048
    2MPD1     N14066   4.482   3.622  11.803 -0.0765  0.0299 -0.8458
    2MPD1    H514067   4.419   3.607  11.725 -1.4526 -0.6003  0.3963
    2MPD1    N114068   4.330   4.067  11.804 -0.0247  0.1194 -0.1427
    2MPD1    H614069   4.305   4.047  11.708 -1.6014 -1.6695  0.6244
    2MPD1    H714070   4.369   4.161  11.810  1.1067 -0.4199  1.0365
    1TCq1    O114071   1.425   1.563   1.383 -0.1521  0.2401  0.6809
    1TCq1    C114072   1.450   1.470   1.289 -0.5885 -0.3792  0.2196
    1TCq1    O214073   1.501   1.494   1.179  0.3823  0.6178 -0.2481
    1TCq1    C214074   1.331   1.387   1.287 -0.0438 -0.0314 -0.3979
    1TCq1    C314075   1.325   1.292   1.388 -0.2362 -0.5480  1.0283
    1TCq1    C414076   1.267   1.173   1.358  0.5145  0.1764  0.3161
    1TCq1    C514077   1.225   1.150   1.231 -0.4333 -0.5797  0.5949
    1TCq1    C614078   1.207   1.246   1.140  0.0752 -0.7173  0.0284
    1TCq1    C714079   1.276   1.360   1.164 -0.8194  0.0949 -0.4034
    1TCq1    C814080   1.206   1.207   1.000 -0.7111  0.0259  0.1095
    1TCq1    O414081   1.271   1.106   0.971  0.2583  0.1192 -0.1628
    1TCq1    C914082   1.310   1.056   1.424 -0.3186  0.5204  0.0130
    1TCq1    O514083   1.348   1.057   1.546  0.1587 -0.1329  0.0827
    1TCq1    O614084   1.331   0.951   1.354  0.4577  0.3680 -0.3248
    1TCq1    H114085   1.344   1.535   1.429  0.5658 -3.2327 -0.2168
    1TCq1    H214086   1.397   1.289   1.468  0.0616  0.7807  0.8073
    1TCq1    H314087   1.186   1.052   1.208 -1.0983 -0.1296 -0.1893
    1TCq1    H414088   1.287   1.429   1.080  0.9572 -0.3348 -0.5385
    2MPD1     C14089   1.098   1.264   0.501  0.3326 -0.5627 -0.0387
    2MPD1    C114090   1.046   1.370   0.572  0.5850 -0.5850  0.0732
    2MPD1    C214091   1.051   1.372   0.709 -0.1971  0.6231 -0.0779
    2MPD1    C314092   1.124   1.279   0.779 -0.2884  0.3901  0.1868
    2MPD1    C414093   1.180   1.177   0.701 -0.6028 -0.2153  0.2511
    2MPD1    C514094   1.173   1.171   0.564  0.6858 -0.2565  0.1025
    2MPD1     H14095   1.000   1.457   0.751 -1.8187  0.4503 -1.7033
    2MPD1    H114096   1.243   1.102   0.746  2.3207  1.2902 -1.3660
    2MPD1    H214097   1.096   1.260   0.393  1.0186 -0.1609 -0.0640
    2MPD1    H314098   1.208   1.081   0.515  0.1130  1.2932 -3.0936
    2MPD1     N14099   1.140   1.291   0.915 -0.0682 -0.0552  0.2030
    2MPD1    H514100   1.085   1.367   0.955 -0.8956 -0.7117  0.2988
    2MPD1    N114101   0.955   1.463   0.510 -0.1320 -0.2505 -0.3185
    2MPD1    H614102   0.944   1.540   0.574 -2.6362 -0.0456 -1.0287
    2MPD1    H714103   0.989   1.481   0.416  0.1818  0.6273 -0.0311
    1MPD1     C14104   0.376   3.651  12.625  0.3383 -0.3680  0.3644
    1MPD1    C114105   0.471   3.550  12.608  0.5667 -0.3159 -1.0017
    1MPD1    C214106   0.593   3.586  12.557 -0.3597 -0.1943 -0.2463
    1MPD1    C314107   0.621   3.712  12.515 -0.3896 -0.4826 -0.7287
    1MPD1    C414108   0.522   3.810  12.526  0.1713  0.3462  0.1085
    1MPD1    C514109   0.397   3.773  12.565 -1.0147  0.2494 -0.0377
    1MPD1     H14110   0.667   3.507  12.556  0.2582  0.3958 -0.7209
    1MPD1    H114111   0.535   3.910  12.485  1.4312  0.9522  1.9755
    1MPD1    H214112   0.285   3.634  12.683  1.2124  0.9200  2.1340
    1MPD1    H314113   0.316   3.844  12.565 -1.3741 -0.1594  0.6900
    1MPD1     N14114   0.753   3.737  12.470  0.2002 -0.4153 -0.3628
    1MPD1    H514115   0.811   3.655  12.457  1.2311  0.6014 -2.1941
    1MPD1    N114116   0.452   3.428  12.672 -0.2346  0.4844  0.1175
    1MPD1    H614117   0.355   3.399  12.687  0.2468 -0.7302  0.8190
    1MPD1    H714118   0.496   3.351  12.624 -0.6673  1.8169 -2.4377
    2MPD1     C14119   0.576   4.255  11.580  0.1536  0.3406 -0.2183
    2MPD1    C114120   0.560   4.269  11.446 -0.3729  0.0913 -0.5501
    2MPD1    C214121   0.643   4.210  11.356  0.8412  0.4818 -0.2208
    2MPD1    C314122   0.743   4.121  11.400 -0.2434  0.2638 -0.0843
    2MPD1    C414123   0.762   4.110  11.534  0.0932 -0.2516 -0.2370
    2MPD1    C514124   0.680   4.172  11.621 -0.1907  0.0087  0.7626
    2MPD1     H14125   0.634   4.233  11.250  1.2015  1.8285  0.0500
    2MPD1    H114126   0.839   4.039  11.563  2.1621  1.7527 -0.7465
    2MPD1    H214127   0.508   4.299  11.653  0.0969  0.8642 -0.5802
    2MPD1    H314128   0.697   4.163  11.728 -0.3004  2.1694  0.9787
    2MPD1     N14129   0.825   4.043  11.313 -0.4574 -0.3778 -0.0307
    2MPD1    H514130   0.892   3.984  11.362  1.6228 -0.1271 -2.5331
    2MPD1    N114131   0.470   4.371  11.401  0.2492 -0.3579  0.4141
    2MPD1    H614132   0.392   4.391  11.464 -0.9917 -0.1619 -1.2091
    2MPD1    H714133   0.418   4.346  11.318 -1.2347  0.6429  1.0359
    3MPD1     C14134   0.647   3.584  10.440  0.7371  0.2056  0.4185
    3MPD1    C114135   0.602   3.560  10.563 -0.7127 -0.3932 -0.0311
    3MPD1    C214136   0.663   3.622  10.670 -0.8159 -0.0654 -0.1292
    3MPD1    C314137   0.780   3.701  10.656  0.2024  0.2197  0.3403
    3MPD1    C414138   0.835   3.703  10.531 -0.7113  0.6062  0.0917
    3MPD1    C514139   0.771   3.642  10.426  0.0733  0.0522 -0.4135
    3MPD1     H14140   0.618   3.606  10.768 -2.3130  0.8996 -0.6694
    3MPD1    H114141   0.928   3.750  10.502 -1.2095 -0.1117 -2.7074
    3MPD1    H214142   0.597   3.548  10.350  1.6689 -0.3379  0.1196
    3MPD1    H314143   0.818   3.659  10.330  1.3017 -1.4926 -0.0929
    3MPD1     N14144   0.837   3.759  10.770 -0.1800  0.1387  0.5473
    3MPD1    H514145   0.781   3.766  10.855  0.9658 -2.3335  1.5197
    3MPD1    N114146   0.477   3.493  10.581  0.3620 -0.4540  1.0342
    3MPD1    H614147   0.462   3.451  10.673 -0.5650 -0.3556  0.9339
    3MPD1    H714148   0.448   3.418  10.519  0.9982 -1.5201  2.0424
    4MPD2     C14149   1.332   4.153  12.024  0.7373  0.8751  0.3922
    4MPD2    C114150   1.348   4.039  12.101  0.0098 -0.0216 -0.0559
    4MPD2    C214151   1.444   3.945  12.067 -0.3694  0.7395  0.3899
    4MPD2    C314152   1.536   3.972  11.962  0.0105  0.1952  0.4083
    4MPD2    C414153   1.509   4.089  11.887 -0.7542  0.0742 -0.7449
    4MPD2    C514154   1.407   4.171  11.917  0.7808 -0.1213  0.4779
    4MPD2     H14155   1.451   3.852  12.124 -0.7223 -0.1297 -0.9997
    4MPD2    H114156   1.572   4.112  11.802  0.5011 -1.5502 -0.2575
    4MPD2    H214157   1.249   4.222  12.040 -0.2774 -0.6537  1.8318
    4MPD2    H314158   1.377   4.249  11.849 -0.1621  0.1297  1.1887
    4MPD2     N14159   1.625   3.871  11.924 -0.9522  0.0164  0.5574
    4MPD2    H514160   1.616   3.789  11.983 -2.8534  0.5327  1.0043
    4MPD2    N114161   1.263   4.007  12.203  0.1694 -0.7055  0.0212
    4MPD2    H714162   1.293   3.916  12.238  1.6671 -0.8892 -1.6937
    5TMC3    C114163   1.103   4.001  12.360  0.1346  0.3837  0.8718
    5TMC3    C214164   0.975   3.978  12.352  0.0702 -0.5563 -0.9027
    5TMC3    C314165   0.941   3.859  12.418 -0.1320 -0.3523 -0.0786
    5TMC3    C414166   1.194   3.913  12.411 -0.5824 -0.3530  0.2076
    5TMC3    C514167   1.159   3.788  12.448  0.2349 -0.4487  0.4185
    5TMC3    C614168   1.021   3.757  12.458  0.3996  0.2188 -0.0263
    5TMC3     C14169   1.158   4.071  12.256  0.6068  0.0626 -0.7480
    5TMC3     O14170   1.091   4.166  12.215  0.1460  0.8552 -0.0779
    5TMC3     H14171   0.905   4.047  12.306 -0.1852  0.2145  0.6571
    5TMC3    H114172   1.290   3.947  12.450 -0.1244 -1.3182 -0.0813
    5TMC3    H214173   1.000   3.663  12.508 -2.3286  1.0203  0.3328
    5TMC3    C714174   1.232   3.692  12.367 -0.0689  0.8602 -0.4294
    5TMC3    C814175   0.802   3.862  12.445  0.7038  0.1453 -0.1919
    5TMC3    O114176   1.338   3.734  12.325 -0.4772  0.6724 -0.2437
    5TMC3    O214177   0.754   3.975  12.470  0.2800  0.9537 -0.0433
    6TMC3    C114178   0.918   3.960  11.109  0.5102 -0.2911 -0.0447
    6TMC3    C214179   0.888   3.921  10.979  0.2138  0.6653 -0.5964
    6TMC3    C314180   0.989   3.854  10.912 -0.3387  0.1879  0.3276
    6TMC3    C414181   1.035   3.936  11.173  0.6469 -0.3648  0.1411
    6TMC3    C514182   1.125   3.857  11.105 -0.3341 -0.8002  0.1096
    6TMC3    C614183   1.112   3.825  10.968 -0.1979 -0.5906  0.1190
    6TMC3     C14184   0.816   4.036  11.175  1.0425 -0.1888 -0.2523
    6TMC3     O14185   0.718   4.068  11.108  0.2199 -0.5069 -0.1103
    6TMC3     H14186   0.802   3.963  10.929  0.4128  0.7505 -0.8645
    6TMC3    H114187   1.048   3.965  11.276  0.0971  0.8574 -0.1330
    6TMC3    H214188   1.177   3.765  10.905 -0.3948  1.3678 -1.9689
    6TMC3    C714189   1.253   3.830  11.173 -0.9146  0.1215  0.5235
    6TMC3    C814190   0.969   3.793  10.784  0.2800 -0.0067 -0.0914
    6TMC3    O114191   1.250   3.825  11.297  0.6125  0.1885  0.2288
    6TMC3    O214192   1.070   3.764  10.724  0.1356  0.2695 -0.6817
    7MPD2     C14193   1.244   3.304  12.044  0.7530  1.1468  0.0297
    7MPD2    C114194   1.329   3.417  12.040  0.1603  0.4548  0.4871
    7MPD2    C214195   1.299   3.506  12.141 -0.2488 -0.1616  0.3854
    7MPD2    C314196   1.204   3.481  12.240 -0.2558 -0.1711  0.0438
    7MPD2    C414197   1.137   3.360  12.250 -0.0540  0.6139 -0.3743
    7MPD2    C514198   1.155   3.275  12.142  0.0574  0.5192 -0.0853
    7MPD2     H14199   1.345   3.604  12.142  0.0967 -0.2603 -3.3181
    7MPD2    H114200   1.059   3.337  12.321  0.5692  0.3594  0.2293
    7MPD2    H214201   1.249   3.228  11.967  2.8929  0.8300  0.4632
    7MPD2    H314202   1.098   3.183  12.131 -1.6592  1.5280  0.2842
    7MPD2     N14203   1.161   3.578  12.340  0.5230  0.1352 -0.9371
    7MPD2    H514204   1.072   3.556  12.383  0.7198 -0.8540 -1.0303
    7MPD2    N114205   1.425   3.442  11.942  0.2080  0.4373 -0.2337
    7MPD2    H714206   1.424   3.386  11.857 -0.7593 -0.6533  0.4870
    8TMC3    C114207   1.610   3.559  11.845  0.2804  0.8361 -0.0145
    8TMC3    C214208   1.570   3.537  11.713  0.1320 -0.4308  0.3704
    8TMC3    C314209   1.641   3.609  11.611 -0.6904  0.5535  0.0602
    8TMC3    C414210   1.711   3.646  11.871 -0.2583 -0.0007 -0.2535
    8TMC3    C514211   1.750   3.735  11.772  0.5661 -0.6120  0.1461
    8TMC3    C614212   1.713   3.722  11.640  0.0732  0.2959 -0.0350
    8TMC3     C14213   1.536   3.521  11.962 -0.0741  0.1670 -0.1498
    8TMC3     O14214   1.562   3.591  12.062 -0.7746 -0.8495  0.1894
    8TMC3     H14215   1.497   3.463  11.683 -0.9309  0.7766 -0.0206
    8TMC3    H114216   1.758   3.649  11.968 -0.8861  2.3014 -0.0161
    8TMC3    H214217   1.748   3.794  11.567  2.1049  0.4717  1.1168
    8TMC3    C714218   1.707   3.867  11.816 -0.1140  0.5226 -0.0594
    8TMC3    C814219   1.600   3.592  11.476 -0.2013 -0.2469  0.4285
    8TMC3    O114220   1.739   3.962  11.749  0.3607  0.0611 -0.2666
    8TMC3    O214221   1.483   3.556  11.462 -0.1852  0.1354 -0.3109
    9MPD2     C14222   1.753   3.747  11.182 -0.3638 -0.4983  0.4771
    9MPD2    C114223   1.654   3.703  11.263 -0.3361 -0.1770  0.0872
    9MPD2    C214224   1.524   3.732  11.229 -0.0014 -0.4648 -0.4150
    9MPD2    C314225   1.496   3.805  11.117 -0.2387  0.1333  0.2054
    9MPD2    C414226   1.602   3.840  11.029 -0.1493 -0.1830 -0.4374
    9MPD2    C514227   1.732   3.806  11.058  0.2431 -0.4547 -0.3333
    9MPD2     H14228   1.448   3.700  11.299 -0.9314 -0.4102 -1.4005
    9MPD2    H114229   1.586   3.886  10.932  0.3267  2.7260  0.8518
    9MPD2    H214230   1.857   3.738  11.207 -0.5338  0.1462  1.4203
    9MPD2    H314231   1.818   3.846  11.005 -0.3438  1.3949  0.1095
    9MPD2     N14232   1.361   3.833  11.083 -0.2966  0.2634  0.8957
    9MPD2    H514233   1.345   3.869  10.990  0.0143 -0.0788  0.7116
    9MPD2    N114234   1.691   3.653  11.391 -0.3505  0.0114  0.5337
    9MPD2    H714235   1.788   3.661  11.421 -0.5858  0.8730  1.0877
    1MPD1     C14236   1.102   3.991  16.724  0.4743  0.6980  0.3595
    1MPD1    C114237   1.219   3.930  16.764 -0.3044 -0.4981 -0.1763
    1MPD1    C214238   1.211   3.799  16.808  0.0311  0.3777  0.1114
    1MPD1    C314239   1.088   3.736  16.833  0.4405 -0.3376  0.2223
    1MPD1    C414240   0.974   3.796  16.798  0.3032  0.8970 -0.1635
    1MPD1    C514241   0.984   3.923  16.747  0.7535 -0.2174  0.5926
    1MPD1     H14242   1.303   3.745  16.829  1.2629  2.3250 -0.2874
    1MPD1    H114243   0.876   3.753  16.811  1.9089 -2.6325  0.2020
    1MPD1    H214244   1.102   4.092  16.684  2.2869  0.2744 -0.7201
    1MPD1    H314245   0.888   3.963  16.716  1.2740 -0.2989 -1.0982
    1MPD1     N14246   1.079   3.606  16.895  0.2505 -0.5759  0.0700
    1MPD1    H514247   0.986   3.565  16.901  0.0284 -0.2927 -1.3200
    1MPD1    N114248   1.337   3.998  16.738 -0.6946 -0.5049 -0.2677
    1MPD1    H614249   1.328   4.100  16.732 -0.5679 -0.4694  0.1212
    1MPD1    H714250   1.405   3.967  16.806  0.4912  1.7150 -0.4297
    2MPD1     C14251   0.995   2.997  16.320  0.0863 -0.0018  0.3508
    2MPD1    C114252   1.097   3.089  16.337  0.3323  0.3940  0.0686
    2MPD1    C214253   1.113   3.144  16.464 -0.1925 -0.3468 -0.1975
    2MPD1    C314254   1.049   3.092  16.572  0.1082 -0.4382  0.5560
    2MPD1    C414255   0.952   2.994  16.557  0.3364 -0.8070 -0.2480
    2MPD1    C514256   0.924   2.955  16.431 -0.2852  0.4399 -0.2760
    2MPD1     H14257   1.195   3.212  16.483 -1.2739  0.9206 -0.0951
    2MPD1    H114258   0.889   2.967  16.641 -0.6087 -0.8570 -0.9683
    2MPD1    H214259   0.973   2.954  16.223 -0.0577  3.5214 -1.1888
    2MPD1    H314260   0.841   2.887  16.412  0.6715 -1.0190  0.7293
    2MPD1     N14261   1.092   3.149  16.691  0.4601 -1.0212 -0.2728
    2MPD1    H514262   1.162   3.223  16.691  0.3997 -0.9697  1.2761
    2MPD1    N114263   1.156   3.152  16.225 -0.1102  0.3880  0.7377
    2MPD1    H614264   1.155   3.098  16.139  2.1772  0.5713  0.6037
    2MPD1    H714265   1.256   3.164  16.240 -0.1339  0.3487  0.9299
    3TCq2    C114266   1.042   3.124  16.814  0.1602  0.4417 -0.0050
    3TCq2    O214267   0.979   3.026  16.848  0.2069 -0.4785  0.5020
    3TCq2    C214268   1.094   3.204  16.918 -0.9861 -0.0615 -0.3875
    3TCq2    C314269   1.098   3.153  17.049  0.0575 -0.1314  0.1733
    3TCq2    C414270   1.125   3.238  17.153 -0.0758  0.1123  0.3899
    3TCq2    C514271   1.175   3.367  17.124  0.3771  0.0260 -0.4818
    3TCq2    C614272   1.173   3.412  16.996 -0.5114 -0.5168  0.8861
    3TCq2    C714273   1.127   3.335  16.892  0.6621  0.3098  0.3288
    3TCq2    C814274   1.180   3.553  16.973 -0.5354  0.1926  0.0666
    3TCq2    O414275   1.282   3.606  17.018  0.3000  0.2734 -0.2476
    3TCq2    C914276   1.127   3.187  17.280  0.0515  0.1588 -0.6389
    3TCq2    O514277   1.088   3.072  17.293 -0.0003  0.3380 -0.4695
    3TCq2    O614278   1.196   3.250  17.369  0.7527  0.4463 -0.1642
    3TCq2    H214279   1.083   3.049  17.075  1.4129 -0.6992 -1.3336
    3TCq2    H314280   1.216   3.430  17.202 -1.5894  0.6564  0.0423
    3TCq2    H414281   1.123   3.374  16.791 -1.9640  0.9875  0.6894
    1TCq1    O114282   3.221   1.231  13.364  0.2002 -0.3198 -0.6132
    1TCq1    C114283   3.298   1.343  13.335 -0.2327 -0.4386  0.0236
    1TCq1    O214284   3.261   1.450  13.282  0.3357 -0.0710  0.1372
    1TCq1    C214285   3.438   1.327  13.377 -0.8147  0.3338 -0.4459
    1TCq1    C314286   3.456   1.267  13.495  0.2757  0.0295  1.1922
    1TCq1    C414287   3.574   1.293  13.556 -0.4981 -0.3009  0.0657
    1TCq1    C514288   3.672   1.361  13.486  0.0930  0.0996  0.2759
    1TCq1    C614289   3.644   1.419  13.365  0.4808  0.3730  0.4378
    1TCq1    C714290   3.522   1.408  13.309 -0.7381  0.5188 -0.1822
    1TCq1    C814291   3.756   1.486  13.299  0.2332  0.6971  0.6029
    1TCq1    O414292   3.869   1.453  13.335 -0.1658 -0.0565  0.2285
    1TCq1    C914293   3.610   1.237  13.685 -1.0106 -0.4918  0.5719
    1TCq1    O514294   3.523   1.158  13.733 -0.1836  0.0280  0.3331
    1TCq1    O614295   3.682   1.308  13.762 -0.2888 -0.9018 -0.2349
    1TCq1    H114296   3.279   1.154  13.381 -0.5683 -0.9431 -0.8059
    1TCq1    H214297   3.391   1.195  13.544  1.6891 -2.2196 -0.2324
    1TCq1    H314298   3.770   1.372  13.532  0.6333  0.3072 -0.9361
    1TCq1    H414299   3.504   1.452  13.212 -0.8162 -0.8198 -0.7704
    2MPD2     C14300   3.943   1.674  13.143 -0.4767  0.0234  0.2844
    2MPD2    C114301   3.802   1.663  13.124  0.6746 -0.1957 -0.6953
    2MPD2    C214302   3.746   1.739  13.022 -0.7114 -0.0634 -0.2974
    2MPD2    C314303   3.827   1.824  12.943 -0.4612 -0.6433  0.0827
    2MPD2    C414304   3.962   1.844  12.970 -0.1439 -0.3891 -0.4165
    2MPD2    C514305   4.014   1.769  13.072 -0.5831 -0.3580  0.3445
    2MPD2     H14306   3.641   1.732  12.995 -1.1407 -2.1805  1.9116
    2MPD2    H114307   4.027   1.911  12.914  1.1372 -1.1115  0.2101
    2MPD2    H214308   3.989   1.609  13.216 -1.0516 -1.9705 -1.1306
    2MPD2    H314309   4.120   1.770  13.093 -0.9381 -2.3146  2.2362
    2MPD2     N14310   3.760   1.876  12.831 -0.1081  0.3188 -0.1943
    2MPD2    H514311   3.659   1.865  12.826 -0.1150  0.2935  0.0334
    2MPD2    N114312   3.720   1.575  13.199 -0.6118  0.5430 -0.4504
    2MPD2    H714313   3.621   1.576  13.176 -0.9414 -0.0643  0.9870
    3TCq1    O114314   3.793   1.978  12.242 -0.2974  0.4974  0.3502
    3TCq1    C114315   3.665   1.963  12.282  0.0825  0.9752 -0.0022
    3TCq1    O214316   3.571   1.919  12.217 -0.4098 -0.2795 -0.1551
    3TCq1    C214317   3.651   2.015  12.413  0.5335  0.0048 -0.0015
    3TCq1    C314318   3.526   2.063  12.449  0.5644  1.0001  0.0117
    3TCq1    C414319   3.504   2.077  12.585 -0.3979  0.5006  0.6945
    3TCq1    C514320   3.603   2.047  12.678 -0.9000  0.2406  0.4106
    3TCq1    C614321   3.728   2.000  12.638 -0.1284 -0.4065  0.1391
    3TCq1    C714322   3.754   1.984  12.504  0.0811 -0.3145 -0.1181
    3TCq1    C814323   3.816   1.946  12.727  0.1209 -0.1784 -0.0616
    3TCq1    O414324   3.935   1.961  12.711  0.1531 -0.1483  0.3292
    3TCq1    C914325   3.371   2.089  12.624  0.8457  0.7967 -0.1182
    3TCq1    O514326   3.290   2.114  12.534  0.2201 -0.0261  0.2890
    3TCq1    O614327   3.339   2.060  12.738  0.1361 -0.1658  0.5157
    3TCq1    H114328   3.835   2.043  12.303  0.6993 -0.4275  0.6710
    3TCq1    H214329   3.446   2.072  12.376 -1.0158 -0.0827  1.6168
    3TCq1    H314330   3.587   2.058  12.784  0.8223 -2.0221  0.9172
    3TCq1    H414331   3.847   1.939  12.470  0.7935 -0.2473  1.7207
    1MPD2     C14332   4.024   3.408  14.498 -1.1867  0.7260  0.0749
    1MPD2    C114333   3.889   3.388  14.523  0.5162 -0.2039  0.2894
    1MPD2    C214334   3.831   3.267  14.500 -0.3774 -0.2311  0.0248
    1MPD2    C314335   3.907   3.155  14.458 -0.1447 -0.0212 -0.7905
    1MPD2    C414336   4.044   3.171  14.441 -0.2634 -0.6721 -0.8413
    1MPD2    C514337   4.096   3.304  14.457 -0.5280  0.5910  0.6495
    1MPD2     H14338   3.725   3.253  14.520 -0.5750 -0.0200 -0.8565
    1MPD2    H114339   4.106   3.091  14.401  0.3398 -1.1416  1.0131
    1MPD2    H214340   4.082   3.496  14.524 -0.3652  0.1434  0.1967
    1MPD2    H314341   4.196   3.331  14.426 -0.6023  1.0630  0.8277
    1MPD2     N14342   3.844   3.032  14.442 -0.3725 -0.2869 -0.3289
    1MPD2    H514343   3.893   2.944  14.431 -0.6593 -0.3691 -0.9818
    1MPD2    N114344   3.819   3.500  14.573  0.9019 -0.5900 -0.2841
    1MPD2    H714345   3.868   3.588  14.572  0.8957 -0.6013 -1.1532
    2TMC3    C114346   3.637   3.624  14.671 -0.1356 -0.2215  0.3956
    2TMC3    C214347   3.529   3.600  14.750  0.3412 -0.6674  0.2718
    2TMC3    C314348   3.404   3.648  14.712 -1.0500 -0.4572 -0.1402
    2TMC3    C414349   3.633   3.726  14.579 -1.0451 -0.3428 -0.2000
    2TMC3    C514350   3.513   3.785  14.552  0.5994  0.0865 -0.5140
    2TMC3    C614351   3.395   3.748  14.615  0.2064 -0.2027 -0.6672
    2TMC3     C14352   3.701   3.496  14.637 -0.5553  0.2300  0.3391
    2TMC3     O14353   3.636   3.398  14.674  0.4988 -0.5696 -0.1015
    2TMC3     H14354   3.544   3.544  14.842 -0.2074 -0.7387  0.3178
    2TMC3    H114355   3.723   3.752  14.524 -0.2020  0.0814  1.3631
    2TMC3    H214356   3.296   3.784  14.590  0.3591  0.1018 -0.8267
    2TMC3    C714357   3.492   3.856  14.431  0.0592 -0.2684  0.0424
    2TMC3    C814358   3.291   3.558  14.702  0.4974 -0.2466 -0.9659
    2TMC3    O114359   3.382   3.854  14.386  0.4483  0.5822  0.0403
    2TMC3    O214360   3.179   3.600  14.684  0.1514  0.3368  0.5196
    3TCq1    O114361   4.131   4.500  13.671  0.1511 -0.3148 -0.0876
    3TCq1    C114362   4.209   4.545  13.772 -1.2081  0.5752 -0.0147
    3TCq1    O214363   4.325   4.578  13.755  0.0950  0.1105 -0.3440
    3TCq1    C214364   4.166   4.485  13.898 -0.2689 -0.2900 -0.6452
    3TCq1    C314365   4.262   4.419  13.972  0.1328 -0.2565 -0.1025
    3TCq1    C414366   4.230   4.335  14.075 -0.0788 -0.4415 -0.3243
    3TCq1    C514367   4.096   4.315  14.104  0.3260 -0.2018  0.2402
    3TCq1    C614368   4.003   4.382  14.028  0.0079 -0.0420 -0.5697
    3TCq1    C714369   4.034   4.476  13.933  0.3357 -0.3789 -0.1150
    3TCq1    C814370   3.867   4.333  14.037  0.1749  0.4809  0.1351
    3TCq1    O414371   3.792   4.377  13.949 -0.2264 -0.3576  0.9146
    3TCq1    C914372   4.329   4.247  14.134  0.1912 -0.3953 -0.1012
    3TCq1    O514373   4.292   4.154  14.207  0.4348 -0.5353  0.3277
    3TCq1    O614374   4.446   4.259  14.094  0.3146  0.5323 -0.3056
    3TCq1    H114375   4.050   4.452  13.699  0.9847 -0.2454  2.4474
    3TCq1    H214376   4.365   4.431  13.941 -0.1757  0.1741 -0.9712
    3TCq1    H314377   4.069   4.244  14.181 -0.9185 -0.0166 -0.0159
    3TCq1    H414378   3.961   4.548  13.900 -1.5804 -1.7858  0.9809
    4MPD2     C14379   3.613   4.187  14.077 -0.5351  0.2131 -0.0082
    4MPD2    C114380   3.725   4.163  14.148 -0.5826  0.5258 -0.0139
    4MPD2    C214381   3.716   4.072  14.248  1.2597 -0.4090 -0.2368
    4MPD2    C314382   3.597   4.008  14.276  0.9315  0.5058  0.7155
    4MPD2    C414383   3.486   4.030  14.199 -0.3572 -0.0105 -0.8044
    4MPD2    C514384   3.497   4.116  14.096 -0.2137  0.1795 -0.3153
    4MPD2     H14385   3.798   4.057  14.317  3.2666 -2.7523 -3.1665
    4MPD2    H114386   3.395   3.971  14.203  0.7949 -1.8042 -1.0322
    4MPD2    H214387   3.604   4.269  14.007 -0.8742  0.9384  0.8731
    4MPD2    H314388   3.408   4.138  14.038  0.3192 -0.2925 -1.3075
    4MPD2     N14389   3.606   3.911  14.381 -0.3570 -0.0074 -0.4941
    4MPD2    H514390   3.699   3.891  14.417 -0.6204  0.1096  0.2293
    4MPD2    N114391   3.841   4.237  14.131  0.0222  0.1305  0.1337
    4MPD2    H714392   3.922   4.220  14.190  1.1816 -0.2680 -1.5786
    5TMC2    C114393   3.454   2.773  14.477 -0.5669 -0.0128  0.6126
    5TMC2    C214394   3.521   2.678  14.555  0.1813  0.0093 -0.1025
    5TMC2    C314395   3.657   2.693  14.574  0.1043 -0.0407  0.1760
    5TMC2    C414396   3.528   2.868  14.409 -0.5127 -0.5969 -0.5817
    5TMC2    C514397   3.664   2.880  14.424 -0.3070  0.0644 -0.0418
    5TMC2    C614398   3.734   2.794  14.504 -0.4932  0.1843  0.5670
    5TMC2     C14399   3.339   2.836  14.549 -0.0789 -0.1277  0.1544
    5TMC2     O14400   3.234   2.777  14.559  0.0475  0.1625 -0.5194
    5TMC2     H14401   3.464   2.589  14.580 -0.0869  0.4687  0.8994
    5TMC2    H114402   3.477   2.941  14.346 -1.0421 -1.8582 -1.6149
    5TMC2    H214403   3.837   2.817  14.528  0.0483 -0.7092 -0.9282
    5TMC2    C714404   3.716   3.013  14.400  0.7921  0.0093  0.3153
    5TMC2    C814405   3.715   2.581  14.649 -0.2209 -0.6845 -0.1095
    5TMC2    O114406   3.638   3.099  14.368  0.1682  0.2834 -0.2119
    5TMC2    O214407   3.658   2.470  14.661 -0.7910  0.6056 -0.5271
    5TMC2    O514408   3.845   2.619  14.665  0.5330 -0.5614  0.5931
    5TMC2    H514409   3.869   2.713  14.681  0.6939 -0.5054  0.0130
    6MPD2     C14410   3.132   3.306  14.694  0.0012  0.0616 -0.5253
    6MPD2    C114411   3.272   3.312  14.686  0.1175  0.3217 -0.4106
    6MPD2    C214412   3.346   3.198  14.663  0.5416 -0.4282  0.1884
    6MPD2    C314413   3.289   3.074  14.632  0.9088  0.3169 -0.1302
    6MPD2    C414414   3.156   3.070  14.645 -0.5572 -0.2052 -0.1594
    6MPD2    C514415   3.079   3.184  14.670  0.3883 -0.2646 -0.3300
    6MPD2     H14416   3.452   3.210  14.677  0.8057 -1.0905 -1.3383
    6MPD2    H114417   3.104   2.978  14.620  1.8978 -1.3695 -0.9618
    6MPD2    H214418   3.059   3.382  14.720  2.8331  2.8224 -0.7193
    6MPD2    H314419   2.971   3.178  14.658  0.3764  0.3461 -0.5086
    6MPD2     N14420   3.375   2.963  14.587 -0.2560  0.3555  0.2732
    6MPD2    H514421   3.473   2.984  14.576 -0.8791  3.6396  1.2526
    6MPD2    N114422   3.344   3.433  14.701  0.5088 -0.3551  0.2469
    6MPD2    H714423   3.444   3.419  14.697  0.5544  0.2504 -0.7665
  945NH3     N114424   4.688   2.507   9.003 -0.1433  0.1227  0.1173
  945NH3     H214425   0.004   2.588   8.960  1.8303 -0.5687  0.7728
  945NH3     H314426   4.611   2.471   8.947  0.3297  0.1925 -0.5736
  945NH3     H414427   0.035   2.438   9.017 -0.6246 -0.5068 -0.4824
  946SOD     NA14428   3.098   1.693  15.375 -0.5027 -0.2213  0.1909
  947SOD     NA14429   4.467   2.579  15.164 -0.3803 -0.2518 -0.4485
  948SOD     NA14430   0.776   2.698  15.541  0.3515 -0.2613  0.2435
  949SOD     NA14431   4.626   3.718  10.822  0.0537  0.1882  0.3560
  950SOD     NA14432   1.233   0.750   1.394 -0.1510  0.1358  0.5322
  951SOD     NA14433   0.538   3.219  13.827 -0.1994  0.3077  0.3640
  952SOD     NA14434   3.368   3.275  10.729  0.1344 -0.3174 -0.0678
  953SOD     NA14435   4.342   1.658  11.964 -0.1112  0.4929  0.3522
  954SOD     NA14436   0.350   2.304  13.549 -0.7113 -0.1853 -0.3613
  955SOD     NA14437   1.720   1.777  14.205  0.2881 -0.1030 -0.2347
  956SOD     NA14438   0.789   0.196   7.176  0.2433 -0.3098 -0.5240
  957SOD     NA14439   3.220   3.562  10.890  0.2342  0.1451 -0.0951
  958SOD     NA14440   0.650   0.296   1.862  0.2418 -0.6417 -0.1342
  959SOD     NA14441   1.642   3.158  15.226  0.4377  0.4568  0.1671
  960SOD     NA14442   3.543   2.680   0.443 -0.0197  0.3064 -0.7514
  961SOD     NA14443   4.166   3.799  10.641  0.1940  0.5669  0.1426
  962SOD     NA14444   2.900   1.589  10.811  0.4583  0.0432 -0.0578
  963SOD     NA14445   1.167   1.077   2.279  0.1233 -0.3780 -0.2780
  964SOD     NA14446   4.078   2.142  12.716  0.0261  0.3916  0.5647
  965SOD     NA14447   2.360   2.208   9.565  0.2845 -0.3292  0.3411
  966SOD     NA14448   3.635   2.879  13.962  0.0884 -0.3033  0.1034
  967SOD     NA14449   0.049   0.220  15.691 -0.0572 -0.0441  0.5411
  968SOD     NA14450   4.219   3.863   1.159  0.6980 -0.2843 -0.6561
  969SOD     NA14451   0.916   4.707   5.316 -0.4102  0.0356 -0.5002
  970SOD     NA14452   3.374   4.479  12.958  0.0413  0.0894  0.2514
  971SOD     NA14453   1.447   2.945  12.975  0.3299  0.3721 -0.0357
  972SOD     NA14454   0.176   2.630  11.607  0.8384 -0.4642  0.0294
  973SOD     NA14455   4.145   2.463  11.448 -0.4014 -0.2479  0.3653
  974SOD     NA14456   0.470   2.262  13.881  0.0685  0.4034 -0.3479
  975SOD     NA14457   0.702   3.267   2.488  0.0117  0.6415  0.1843
  976SOD     NA14458   0.160   0.037  14.070  0.5121  0.3396  0.1201
  977SOD     NA14459   3.105   2.133  12.661 -0.1349  0.1993 -0.1095
  978SOD     NA14460   0.075   2.276  11.619 -0.1275  0.1262  0.0320
  979SOD     NA14461   2.579   1.091  14.336  0.0144  0.2419  0.2810
  980SOD     NA14462   0.306   1.910  13.879  0.0395 -0.0030 -0.6385
  981SOD     NA14463   1.252   3.412  17.485 -0.1878 -0.0681  0.2738
  982SOD     NA14464   2.258   4.453   0.841  0.2969 -0.2094  0.3831
  983SOD     NA14465   2.131   3.571   3.174  0.1796 -0.1914  0.0260
  984SOD     NA14466   3.298   0.638  10.209 -0.3264  0.3491  0.4192
  985SOD     NA14467   2.648   2.358   9.539 -0.6304 -0.2006 -0.3415
  986SOD     NA14468   4.597   0.881   8.773 -0.3452  0.0990 -0.2378
  987SOD     NA14469   4.097   2.757   9.261  0.1339 -0.2596  0.2552
  988SOD     NA14470   4.084   3.517  11.482 -0.1613 -0.0502 -0.0251
  989SOD     NA14471   1.914   1.964   8.300  0.3815 -0.4378 -0.6165
  990SOD     NA14472   0.293   1.647   1.081  0.0138 -0.1266  0.1033
  991SOD     NA14473   1.148   2.888  15.062 -0.0919 -0.0569  0.6224
  992SOD     NA14474   4.486   2.239  11.792 -0.1424 -0.0176  0.1931
  993SOD     NA14475   3.569   0.899  10.221 -0.4003 -0.1461 -0.0994
  994SOD     NA14476   3.797   1.053  10.351 -0.1719  0.0145 -0.6121
  995SOD     NA14477   3.582   2.359  14.851 -0.1425  0.1181  0.4679
  996SOD     NA14478   0.419   0.027   1.983 -0.2723  0.2382  0.2431
  997SOD     NA14479   2.137   1.334  11.376 -0.3717  0.5865  0.2236
  998SOD     NA14480   0.572   1.630   0.845  0.3779 -0.1472 -0.0387
  999SOD     NA14481   3.694   1.562   8.651  0.0811 -0.0498  0.1047
 1000SOD     NA14482   3.823   1.222  10.641  0.2541  0.2076  0.0239
 1001SOD     NA14483   3.566   4.090   2.737  0.0159 -0.0256  0.4122
 1002SOD     NA14484   1.451   2.609  13.031 -0.7174 -0.4122 -0.4713
 1003SOD     NA14485   4.653   1.808  12.059 -0.0180  0.6832  0.4085
 1004SOD     NA14486   1.507   0.850   1.295  0.1319  0.4834  0.4829
 1005SOD     NA14487   0.976   4.352  12.177  0.2864 -0.4836 -0.3398
 1006SOD     NA14488   0.725   2.369   2.227 -0.0121 -0.4113  0.6040
 1007SOD     NA14489   1.880   4.682   9.651 -0.6620  0.0156  0.7010
 1008SOD     NA14490   4.361   4.111  15.586  0.4037 -0.1763 -0.2634
 1009SOD     NA14491   4.094   2.830   4.500 -0.0832 -0.1579 -0.1092
 1010SOD     NA14492   0.027   4.433   0.662  0.1975 -0.4629 -0.2206
 1011SOD     NA14493   3.568   1.189  10.185  0.0651  0.6095  0.1756
 1012SOL     OW14494   4.479   0.807  17.558  0.0896 -0.2985 -0.1691
 1012SOL    HW114495   4.491   0.712  17.566  1.1329  0.0705  2.4238
 1012SOL    HW214496   4.500   0.838  17.646 -0.5561  1.0507 -0.4973
 1013SOL     OW14497   4.650   3.078   7.160 -0.1110 -0.0776 -0.1807
 1013SOL    HW114498   4.600   3.130   7.223 -2.5236  0.8298 -2.8122
 1013SOL    HW214499   4.679   3.143   7.096  0.5437  0.6749  0.8940
 1014SOL     OW14500   1.106   1.558   2.994 -0.1778  0.5668 -0.4392
 1014SOL    HW114501   1.199   1.542   2.980 -0.3147 -0.6692 -0.0102
 1014SOL    HW214502   1.109   1.653   3.002 -1.9372  0.5286  0.5812
 1015SOL     OW14503   0.049   1.467   2.293 -0.1334  0.0147  0.3218
 1015SOL    HW114504   0.057   1.372   2.304 -1.0441 -0.3316 -2.1747
 1015SOL    HW214505   4.693   1.492   2.335  1.4226  2.6111  1.7989
 1016SOL     OW14506   1.120   3.157   5.108 -0.3449  0.1260 -0.7319
 1016SOL    HW114507   1.169   3.238   5.124 -1.9368  1.2596 -1.5662
 1016SOL    HW214508   1.180   3.111   5.050  0.7413  0.3847  0.1858
 1017SOL     OW14509   1.742   3.144   6.979  0.3477 -0.0474  0.6740
 1017SOL    HW114510   1.695   3.153   6.896 -0.8971  0.1653  1.4015
 1017SOL    HW214511   1.830   3.172   6.955  0.2284 -1.1424 -1.1490
 1018SOL     OW14512   0.047   2.354   3.705  0.5820 -0.0890 -0.9250
 1018SOL    HW114513   0.135   2.384   3.686  1.1557 -0.0424  1.8963
 1018SOL    HW214514   0.064   2.332   3.796  2.0688 -0.6801 -1.3445
 1019SOL     OW14515   4.623   0.408  10.236 -0.6256 -0.4016  0.1518
 1019SOL    HW114516   4.601   0.473  10.168  1.8720 -0.6171 -0.8652
 1019SOL    HW214517   4.535   0.385  10.267 -0.6527 -1.0353 -0.3991
 1020SOL     OW14518   3.152   3.492  16.842  0.0681  0.2610 -0.5169
 1020SOL    HW114519   3.207   3.414  16.835 -2.3054 -1.6378  2.2139
 1020SOL    HW214520   3.065   3.457  16.822  0.7864 -1.6643 -0.2637
 1021SOL     OW14521   3.257   3.438   2.957 -0.2111 -0.0624 -0.7520
 1021SOL    HW114522   3.179   3.456   2.905 -0.7051 -0.2523 -0.0598
 1021SOL    HW214523   3.318   3.398   2.895  1.9131 -0.4920  1.6144
 1022SOL     OW14524   1.773   2.671   3.782 -0.2958 -0.0120 -0.2895
 1022SOL    HW114525   1.771   2.739   3.715 -0.2022  0.6357  0.3610
 1022SOL    HW214526   1.707   2.701   3.845 -0.5238  0.9634 -0.9986
 1023SOL     OW14527   3.567   4.217   4.495  0.3561  0.0123 -0.1642
 1023SOL    HW114528   3.571   4.126   4.467 -0.8037 -0.1416  0.1356
 1023SOL    HW214529   3.640   4.253   4.445 -0.6199 -0.0926 -1.6465
 1024SOL     OW14530   2.282   2.751  16.402  0.3462  0.2101 -0.3804
 1024SOL    HW114531   2.188   2.764  16.414  0.1460  0.3153 -2.0027
 1024SOL    HW214532   2.307   2.662  16.427  2.9409  0.1106 -3.2601
 1025SOL     OW14533   0.373   1.778  11.736  0.5150  0.1019  0.0241
 1025SOL    HW114534   0.419   1.811  11.813  0.0066  0.9027 -0.0143
 1025SOL    HW214535   0.431   1.705  11.715 -0.3747 -0.9191  1.0601
 1026SOL     OW14536   1.190   4.605   2.689  0.4806  0.2842  0.8826
 1026SOL    HW114537   1.194   4.555   2.608 -2.4195  1.5912 -0.0640
 1026SOL    HW214538   1.279   4.592   2.722  0.8413  0.0502 -0.1904
 1027SOL     OW14539   4.256   3.600   8.300  0.5014 -0.1185  0.0121
 1027SOL    HW114540   4.255   3.621   8.393 -0.3664 -1.5343  0.3185
 1027SOL    HW214541   4.268   3.506   8.312  1.1171  0.0975  1.0571
 1028SOL     OW14542   3.881   3.068   6.163 -0.7976  0.0119 -0.3361
 1028SOL    HW114543   3.917   3.046   6.078  0.7938  1.0251  0.0862
 1028SOL    HW214544   3.850   3.157   6.147 -0.8037 -0.1734 -1.3175
 1029SOL     OW14545   0.577   3.231  12.481  0.1740  0.1540 -0.0078
 1029SOL    HW114546   0.626   3.270  12.408 -0.9807 -1.4541 -1.6472
 1029SOL    HW214547   0.617   3.144  12.485 -1.7053 -0.6053  2.1593
 1030SOL     OW14548   2.733   3.049   8.671  0.0637 -0.3600 -0.0139
 1030SOL    HW114549   2.638   3.055   8.683 -0.0073 -2.0053  0.2853
 1030SOL    HW214550   2.757   3.001   8.751  1.5047  3.9629  2.1416
 1031SOL     OW14551   4.126   2.939  13.065 -0.2341  0.0598  0.8960
 1031SOL    HW114552   4.044   2.971  13.029 -0.3112  0.2770  1.2594
 1031SOL    HW214553   4.096   2.860  13.110 -1.3068  1.4293  2.5663
 1032SOL     OW14554   4.716   3.507   4.636  0.4817  0.4841 -0.1086
 1032SOL    HW114555   0.036   3.469   4.561  1.1835 -0.3918  0.7813
 1032SOL    HW214556   4.705   3.430   4.692 -1.2036 -0.4936 -1.7636
 1033SOL     OW14557   4.365   2.692  12.288  0.0218  0.2588  0.4442
 1033SOL    HW114558   4.410   2.766  12.328  0.8213 -0.9333  1.7337
 1033SOL    HW214559   4.371   2.627  12.358  3.7006 -1.1295 -1.1498
 1034SOL     OW14560   0.949   3.272   7.191 -0.1636 -0.4440 -0.0608
 1034SOL    HW114561   0.929   3.335   7.122 -0.6242 -1.9107 -1.2623
 1034SOL    HW214562   1.042   3.296   7.202  0.0715 -0.0763 -2.8241
 1035SOL     OW14563   1.202   0.875   5.079 -0.3544  0.1374  0.1111
 1035SOL    HW114564   1.139   0.807   5.054 -0.3328  0.5111 -0.9957
 1035SOL    HW214565   1.216   0.914   4.992  0.4124 -2.2835 -0.8549
 1036SOL     OW14566   2.651   0.940   9.106  0.0473  0.1625 -0.8941
 1036SOL    HW114567   2.615   0.898   9.185  1.2940  0.3334 -0.2452
 1036SOL    HW214568   2.664   1.031   9.132  1.0117 -0.9653  2.6550
 1037SOL     OW14569   1.640   2.159   3.535 -0.1019 -0.0716 -0.0802
 1037SOL    HW114570   1.609   2.178   3.446  1.1434  2.4793  0.0337
 1037SOL    HW214571   1.582   2.084   3.546  1.7383 -2.0252 -3.6126
 1038SOL     OW14572   2.278   0.560   2.629  0.3194  0.7700 -0.0063
 1038SOL    HW114573   2.346   0.527   2.570 -1.1670 -0.4210 -1.0331
 1038SOL    HW214574   2.213   0.578   2.561 -1.5525  0.9797  1.8306
 1039SOL     OW14575   2.530   3.447   8.575 -0.0242 -0.2780  0.1065
 1039SOL    HW114576   2.508   3.395   8.653  0.2748 -1.0387 -0.3200
 1039SOL    HW214577   2.521   3.538   8.606  1.6647  0.1700 -0.7092
 1040SOL     OW14578   0.400   0.633   3.005 -0.1745 -0.0240  0.0730
 1040SOL    HW114579   0.305   0.628   3.004 -0.0323 -1.9719 -2.5502
 1040SOL    HW214580   0.424   0.610   2.916  0.7125  1.7633 -0.1548
 1041SOL     OW14581   2.032   2.041   9.114 -0.5594  0.2023  0.7496
 1041SOL    HW114582   1.984   2.068   9.192  1.6739 -1.9900  2.8644
 1041SOL    HW214583   2.093   1.978   9.152 -1.3645 -1.3275 -0.4604
 1042SOL     OW14584   0.518   3.359   1.642  0.2716  0.0089  0.3244
 1042SOL    HW114585   0.509   3.336   1.735  1.6718 -0.6703  0.2942
 1042SOL    HW214586   0.495   3.452   1.643  1.5930  0.3505 -0.9534
 1043SOL     OW14587   2.230   1.594   0.337 -0.1469  0.1698  0.9266
 1043SOL    HW114588   2.150   1.543   0.328  0.8934 -1.1973 -0.4834
 1043SOL    HW214589   2.207   1.643   0.416  1.7726 -0.3938  1.8623
 1044SOL     OW14590   2.742   2.091   6.431  0.1955  0.0721  0.3090
 1044SOL    HW114591   2.729   2.065   6.339  0.4606 -0.2095  0.3536
 1044SOL    HW214592   2.678   2.162   6.425  0.4143  0.3315  1.1367
 1045SOL     OW14593   1.299   0.717   2.488 -0.0058 -0.7627 -0.5638
 1045SOL    HW114594   1.224   0.660   2.502  0.3539 -0.8965  0.8765
 1045SOL    HW214595   1.302   0.712   2.393  1.3945 -1.3590 -0.4921
 1046SOL     OW14596   1.248   0.221   6.186 -1.0037 -0.4790 -0.1533
 1046SOL    HW114597   1.247   0.161   6.111 -2.8245 -2.8121  1.7000
 1046SOL    HW214598   1.153   0.236   6.187 -0.9639 -0.2160 -0.5170
 1047SOL     OW14599   4.381   4.155   0.391 -0.2865  0.2625  0.2653
 1047SOL    HW114600   4.456   4.112   0.350 -1.2132 -0.4187 -0.6899
 1047SOL    HW214601   4.397   4.155   0.485 -3.4201  0.7142  0.7948
 1048SOL     OW14602   4.205   4.443   8.823  0.5854  0.1135 -0.0431
 1048SOL    HW114603   4.266   4.416   8.892  0.1608 -3.3626 -1.0170
 1048SOL    HW214604   4.256   4.421   8.745 -0.9136  0.3257 -1.0805
 1049SOL     OW14605   2.580   1.897   5.001 -0.1106  0.3013  0.5325
 1049SOL    HW114606   2.587   1.990   4.980  0.7466  0.1632  0.2009
 1049SOL    HW214607   2.544   1.885   5.089  0.6103 -1.8021  0.5492
 1050SOL     OW14608   3.446   2.953  11.103  0.5754  0.1565  0.1526
 1050SOL    HW114609   3.505   2.919  11.036  0.1676 -0.8607  0.3062
 1050SOL    HW214610   3.426   2.875  11.154  0.6352 -1.1806 -1.8888
 1051SOL     OW14611   1.274   1.438  12.579  0.1213 -0.0279 -0.5314
 1051SOL    HW114612   1.248   1.522  12.617  0.6509 -1.0891  2.1358
 1051SOL    HW214613   1.185   1.416  12.553  0.1520 -1.2489  0.3901
 1052SOL     OW14614   3.941   3.226   2.390  0.1475  0.0129  0.0400
 1052SOL    HW114615   3.938   3.277   2.471  0.2967 -0.0326  0.0739
 1052SOL    HW214616   3.859   3.177   2.400 -0.2952  0.3696 -1.7416
 1053SOL     OW14617   2.333   3.895   5.729 -0.8270  0.7406 -0.0221
 1053SOL    HW114618   2.256   3.871   5.678  0.0596 -2.3232  0.0426
 1053SOL    HW214619   2.328   3.830   5.800  1.6052 -0.6128 -1.0785
 1054SOL     OW14620   2.014   0.087   7.399 -0.0674 -0.2233 -0.3212
 1054SOL    HW114621   2.032   0.167   7.448  1.8586  0.1215 -1.5799
 1054SOL    HW214622   1.961   0.117   7.325  0.0392 -1.1341 -0.7698
 1055SOL     OW14623   0.947   1.284  15.825 -0.1181 -0.3341 -0.6396
 1055SOL    HW114624   0.960   1.304  15.732 -0.0801  2.5005 -0.0346
 1055SOL    HW214625   0.979   1.363  15.870 -3.0333  0.5046 -0.0550
 1056SOL     OW14626   0.132   3.747  14.525 -0.5793 -0.2340 -0.6855
 1056SOL    HW114627   0.100   3.835  14.503  1.3983  0.6978  0.1283
 1056SOL    HW214628   0.171   3.761  14.611 -1.2656 -0.5095 -0.3326
 1057SOL     OW14629   0.983   2.247   6.679  0.1674 -0.2632 -0.4010
 1057SOL    HW114630   0.922   2.299   6.729  2.5120  1.2316  0.9052
 1057SOL    HW214631   0.998   2.293   6.596 -1.3094  0.9538  0.0206
 1058SOL     OW14632   3.982   0.107   2.527 -0.1879 -0.2454  0.2364
 1058SOL    HW114633   3.936   0.115   2.444 -2.6251 -0.5961  1.5527
 1058SOL    HW214634   4.069   0.082   2.494 -0.9202 -0.8129 -1.2511
 1059SOL     OW14635   4.406   1.362   6.307  0.4999 -0.2643 -0.0369
 1059SOL    HW114636   4.432   1.388   6.219  2.2720 -0.9495  0.2881
 1059SOL    HW214637   4.317   1.328   6.299  1.3893 -2.7109  0.5378
 1060SOL     OW14638   0.632   3.088   4.600  0.0834  0.2032  0.2075
 1060SOL    HW114639   0.711   3.088   4.654  0.2121 -0.5821  0.0219
 1060SOL    HW214640   0.632   3.176   4.561  0.9689  0.0254 -0.1859
 1061SOL     OW14641   2.227   1.056   1.235  0.6379 -0.0895  0.5381
 1061SOL    HW114642   2.147   1.005   1.236  1.3212 -1.1936 -0.6279
 1061SOL    HW214643   2.300   1.000   1.264  1.6070 -0.5892 -2.9116
 1062SOL     OW14644   2.039   1.295   2.516  0.3407  0.0829 -0.1878
 1062SOL    HW114645   2.042   1.204   2.547  0.1220 -0.2417 -1.1083
 1062SOL    HW214646   2.123   1.279   2.473  1.8976 -0.1171  2.9346
 1063SOL     OW14647   4.217   0.437   8.262 -0.5142  0.3970  0.0270
 1063SOL    HW114648   4.191   0.345   8.271 -0.6867  0.3370 -1.0600
 1063SOL    HW214649   4.307   0.432   8.293 -1.1070 -1.3209  1.4680
 1064SOL     OW14650   4.200   1.146   8.396 -0.3052 -0.5270 -0.8334
 1064SOL    HW114651   4.295   1.143   8.386 -0.2282  2.2712 -1.0174
 1064SOL    HW214652   4.173   1.156   8.304 -0.2662 -2.3888 -1.0454
 1065SOL     OW14653   4.620   1.713  13.564 -0.2136 -0.0140 -0.4795
 1065SOL    HW114654   4.650   1.794  13.603 -0.9649  0.0600 -0.0543
 1065SOL    HW214655   4.606   1.662  13.644 -2.6391 -0.2821 -1.0569
 1066SOL     OW14656   1.487   2.546  16.509  0.3677 -0.0602 -0.3638
 1066SOL    HW114657   1.408   2.495  16.489  2.0000 -2.5971 -0.3803
 1066SOL    HW214658   1.510   2.561  16.418 -1.7980 -0.2964 -0.9633
 1067SOL     OW14659   0.736   2.677   5.847  0.2475  0.3286  0.7669
 1067SOL    HW114660   0.718   2.759   5.801 -1.2091 -1.0340 -1.1145
 1067SOL    HW214661   0.651   2.634   5.838 -0.0244  1.1583 -0.8264
 1068SOL     OW14662   2.360   4.458   3.921 -0.1467  0.1677  0.5911
 1068SOL    HW114663   2.415   4.517   3.870 -0.2457 -1.1574 -1.0650
 1068SOL    HW214664   2.341   4.515   3.995  0.3140  0.4593  0.4853
 1069SOL     OW14665   0.008   3.692   0.292  0.4807 -0.0240  0.2351
 1069SOL    HW114666   0.102   3.710   0.284 -0.0333  1.6315 -1.9148
 1069SOL    HW214667   4.726   3.685   0.387  0.2965  2.7875  0.4102
 1070SOL     OW14668   3.739   1.349   4.593  0.2709 -0.5757  0.1231
 1070SOL    HW114669   3.712   1.322   4.505  0.5546 -0.2415 -0.0684
 1070SOL    HW214670   3.825   1.379   4.562  0.5705  0.0832  1.5861
 1071SOL     OW14671   3.585   3.357  14.289  0.4298 -0.1038 -0.3936
 1071SOL    HW114672   3.527   3.310  14.230 -0.7692 -1.3206  1.7463
 1071SOL    HW214673   3.604   3.289  14.354  1.3660  0.3400 -0.1957
 1072SOL     OW14674   4.077   3.055   6.363 -0.3539  0.0626  0.5691
 1072SOL    HW114675   4.009   3.032   6.300 -1.7958  1.4741  1.5840
 1072SOL    HW214676   4.134   3.120   6.324 -0.4251  0.8568  1.7853
 1073SOL     OW14677   0.831   1.250   0.216 -0.1535 -0.1630 -0.4510
 1073SOL    HW114678   0.794   1.256   0.304  1.5938 -1.3160  0.3753
 1073SOL    HW214679   0.759   1.291   0.169 -1.1092  0.4285  1.5245
 1074SOL     OW14680   2.328   4.689   9.272 -0.3856 -0.1617  0.0140
 1074SOL    HW114681   2.303   4.655   9.357 -0.6775  2.0969  0.8134
 1074SOL    HW214682   2.239   4.710   9.245 -0.6168  0.3867  1.2443
 1075SOL     OW14683   3.433   2.130   4.814  0.0927 -0.3424 -0.2204
 1075SOL    HW114684   3.486   2.166   4.885  0.8065  0.3269 -1.0860
 1075SOL    HW214685   3.415   2.041   4.845  0.0621 -0.0040  0.7433
 1076SOL     OW14686   4.164   1.503  11.343  0.4830  0.3800  0.3960
 1076SOL    HW114687   4.077   1.541  11.353  0.3221 -0.0814  0.7271
 1076SOL    HW214688   4.174   1.484  11.250 -0.2307 -1.1480  0.6304
 1077SOL     OW14689   4.433   0.417   5.305  0.4113 -0.2091 -0.3429
 1077SOL    HW114690   4.407   0.351   5.370  2.5128  0.7396  1.4450
 1077SOL    HW214691   4.397   0.389   5.221  1.6175  2.1903 -1.6478
 1078SOL     OW14692   3.289   0.255   5.837 -0.6582  0.0976 -0.1301
 1078SOL    HW114693   3.302   0.197   5.913  2.5568 -0.3343 -1.0044
 1078SOL    HW214694   3.327   0.330   5.883 -0.6835  0.6925 -1.0823
 1079SOL     OW14695   2.516   2.987   6.217 -0.1626 -0.2704 -0.7942
 1079SOL    HW114696   2.424   3.014   6.216  0.3629  1.4922 -0.7502
 1079SOL    HW214697   2.554   3.071   6.242  1.1912 -1.3581  0.7691
 1080SOL     OW14698   0.306   4.138   7.965  0.4437 -0.3088  0.2996
 1080SOL    HW114699   0.304   4.071   8.033 -0.8304 -0.4677  0.1001
 1080SOL    HW214700   0.395   4.170   7.978  1.2842 -1.9040 -1.4306
 1081SOL     OW14701   4.134   4.271   5.704  0.1101 -0.1296  0.3449
 1081SOL    HW114702   4.082   4.199   5.668 -1.3151  0.8743  0.3820
 1081SOL    HW214703   4.201   4.293   5.640 -0.0130  2.2167  1.0311
 1082SOL     OW14704   0.819   4.724   8.159 -0.0811  0.4619  1.0100
 1082SOL    HW114705   0.894   0.028   8.107 -1.8343  3.6752  0.3560
 1082SOL    HW214706   0.827   4.636   8.123  0.8492 -0.2483  2.9925
 1083SOL     OW14707   4.432   0.839   2.745 -0.2633  0.0908 -0.3864
 1083SOL    HW114708   4.440   0.747   2.768  0.7321 -0.0603 -1.4079
 1083SOL    HW214709   4.504   0.878   2.795 -1.3568 -0.1481  1.4044
 1084SOL     OW14710   1.801   1.150   1.920 -0.0851 -0.2929 -0.3322
 1084SOL    HW114711   1.840   1.140   1.834  1.7379  0.7704  0.3845
 1084SOL    HW214712   1.735   1.215   1.895 -0.3310 -2.0685 -4.2729
 1085SOL     OW14713   0.021   2.654   3.237 -0.1535  0.4440 -0.0646
 1085SOL    HW114714   0.018   2.607   3.320 -1.5038 -2.6522 -1.8759
 1085SOL    HW214715   0.110   2.633   3.209 -0.5567 -0.8422 -0.3748
 1086SOL     OW14716   1.930   1.516  12.906  0.0895 -0.0180 -0.1235
 1086SOL    HW114717   1.978   1.525  12.824 -1.5926  0.6595 -1.0465
 1086SOL    HW214718   1.924   1.421  12.901 -2.7530  0.3298 -3.5480
 1087SOL     OW14719   0.735   2.809   3.415  0.3245  0.0108 -0.3352
 1087SOL    HW114720   0.775   2.893   3.394  0.7206  0.6569  2.9834
 1087SOL    HW214721   0.647   2.830   3.384 -0.2275 -1.7793  0.0132
 1088SOL     OW14722   0.672   4.396   5.464  0.4380  0.2418 -0.1672
 1088SOL    HW114723   0.740   4.358   5.408 -0.1206 -0.3455 -0.4444
 1088SOL    HW214724   0.656   4.484   5.429  1.0451  0.4796  0.1544
 1089SOL     OW14725   1.109   0.674  15.790 -0.4115 -0.2160 -0.1860
 1089SOL    HW114726   1.203   0.660  15.799 -0.9576 -3.0634  1.3357
 1089SOL    HW214727   1.088   0.607  15.856  0.4131 -1.4012 -1.1131
 1090SOL     OW14728   1.927   2.145   2.517 -0.4571  0.0641 -0.3596
 1090SOL    HW114729   1.911   2.067   2.464 -0.5471 -0.4996  0.5094
 1090SOL    HW214730   2.022   2.153   2.516 -0.4250 -0.3996 -0.9414
 1091SOL     OW14731   2.483   1.795   6.334  0.1352  0.1634  0.1252
 1091SOL    HW114732   2.473   1.706   6.300  3.3357 -0.1777  0.0055
 1091SOL    HW214733   2.576   1.786   6.355  0.1141  1.3731  0.7095
 1092SOL     OW14734   2.959   2.122   6.666 -0.6946 -0.1530 -0.0658
 1092SOL    HW114735   3.011   2.093   6.591 -2.4104 -0.7989 -1.0048
 1092SOL    HW214736   2.869   2.106   6.637 -0.3121  0.2847 -1.4724
 1093SOL     OW14737   1.443   2.822   5.264  0.7301  0.3289 -0.2606
 1093SOL    HW114738   1.387   2.791   5.192 -0.1568 -2.5866  1.7059
 1093SOL    HW214739   1.478   2.738   5.295 -2.2503 -0.8330 -0.0826
 1094SOL     OW14740   4.057   1.137   4.445 -0.1749  0.2588  0.1581
 1094SOL    HW114741   4.017   1.214   4.486  1.1982  0.1461  1.6991
 1094SOL    HW214742   3.982   1.093   4.405 -0.2361 -1.2615  1.9374
 1095SOL     OW14743   2.806   4.648   9.481 -0.1854 -0.4098 -0.4678
 1095SOL    HW114744   2.865   4.680   9.413  0.5768 -2.3041 -0.7024
 1095SOL    HW214745   2.843   4.682   9.563 -0.7938 -2.0262  0.4830
 1096SOL     OW14746   3.618   2.476  17.694  0.3891  0.4404 -0.0181
 1096SOL    HW114747   3.544   2.415   0.001  1.8024 -1.3882 -0.5616
 1096SOL    HW214748   3.655   2.455  17.608 -0.0888  3.0961 -0.8613
 1097SOL     OW14749   3.319   4.509   8.172  0.0991  0.3085  0.0363
 1097SOL    HW114750   3.390   4.461   8.129 -1.3082 -1.4788 -0.3323
 1097SOL    HW214751   3.364   4.577   8.222  0.4812  0.6016 -0.6990
 1098SOL     OW14752   1.864   4.045   9.578 -0.0562 -0.2577 -0.1830
 1098SOL    HW114753   1.882   4.106   9.507  1.6094 -3.0327 -2.1211
 1098SOL    HW214754   1.859   3.964   9.529 -0.2108 -1.8429  2.4425
 1099SOL     OW14755   4.611   1.079  10.328 -0.1690 -0.0726 -0.6182
 1099SOL    HW114756   4.704   1.062  10.343  0.3553  1.3375 -2.2864
 1099SOL    HW214757   4.595   1.044  10.240 -0.4509 -3.1810  0.6655
 1100SOL     OW14758   0.136   1.733  13.860 -0.3056 -0.8825  0.6457
 1100SOL    HW114759   0.069   1.681  13.816  0.5130 -0.6378 -0.8946
 1100SOL    HW214760   0.183   1.661  13.903 -1.1349 -1.3660  0.7330
 1101SOL     OW14761   3.262   3.222  17.566  0.3050 -0.3761 -0.5889
 1101SOL    HW114762   3.293   3.186  17.483  1.1389 -0.0474 -0.4120
 1101SOL    HW214763   3.197   3.285  17.534 -0.3661 -1.2507 -0.9474
 1102SOL     OW14764   2.691   1.632  11.810  0.4456  0.7222 -0.0566
 1102SOL    HW114765   2.760   1.677  11.762  0.6237 -0.5626 -1.0352
 1102SOL    HW214766   2.635   1.708  11.821 -2.2738 -1.0877 -1.3633
 1103SOL     OW14767   2.429   3.141   7.403 -0.6213  0.0428  0.5266
 1103SOL    HW114768   2.381   3.160   7.483  0.9870  1.2238  1.2340
 1103SOL    HW214769   2.448   3.050   7.425  1.0893  0.4221  0.6275
 1104SOL     OW14770   0.582   3.931   3.958  0.4844  0.0415 -0.6509
 1104SOL    HW114771   0.492   3.935   3.992  1.1712 -0.4740  1.1734
 1104SOL    HW214772   0.632   3.986   4.017  1.4643 -3.0825  1.4151
 1105SOL     OW14773   3.704   1.290   4.870  0.4036 -0.2065  0.0576
 1105SOL    HW114774   3.754   1.367   4.897  0.8071 -0.5900  0.4104
 1105SOL    HW214775   3.706   1.311   4.777  1.4425 -3.0987 -0.5815
 1106SOL     OW14776   1.454   2.251   6.980  0.2577  0.1960 -0.5562
 1106SOL    HW114777   1.383   2.293   6.931 -0.1887  0.1165  0.0336
 1106SOL    HW214778   1.413   2.215   7.058 -0.2228  2.5938  0.2972
 1107SOL     OW14779   4.262   3.053   6.672 -0.6352 -0.0513 -0.2574
 1107SOL    HW114780   4.315   3.027   6.597  2.5648  3.3245  0.8268
 1107SOL    HW214781   4.187   3.074   6.616 -1.6026  2.4769  1.9696
 1108SOL     OW14782   0.714   1.501  15.426  0.0335  0.2879  0.1065
 1108SOL    HW114783   0.798   1.480  15.467 -0.0529  0.9468  0.6194
 1108SOL    HW214784   0.675   1.414  15.435 -0.1040  0.1144 -2.0982
 1109SOL     OW14785   2.933   1.428  14.802  0.5943 -0.4684  0.6733
 1109SOL    HW114786   2.871   1.482  14.753  0.2194 -3.0869 -1.7161
 1109SOL    HW214787   2.948   1.359  14.738  3.3688  0.7650 -0.0080
 1110SOL     OW14788   2.106   3.067   3.208 -0.4743 -0.0929 -0.1082
 1110SOL    HW114789   2.041   3.061   3.137 -0.0102  2.0795 -0.7099
 1110SOL    HW214790   2.178   3.119   3.173 -2.4510  4.2129  2.1642
 1111SOL     OW14791   0.019   3.181   0.196 -0.0716  0.0921 -0.0733
 1111SOL    HW114792   4.652   3.161   0.194 -0.0688  0.1032 -0.3273
 1111SOL    HW214793   0.054   3.115   0.256 -1.0933 -0.1216  0.2886
 1112SOL     OW14794   4.511   3.957   2.994  0.5893  0.3242 -0.3541
 1112SOL    HW114795   4.597   3.992   2.974  1.6169 -2.3909 -0.7414
 1112SOL    HW214796   4.459   4.036   3.011 -2.1558 -1.4216 -0.5539
 1113SOL     OW14797   4.594   1.196  10.697  0.0006  0.4012 -0.3448
 1113SOL    HW114798   4.530   1.263  10.722  0.9212 -0.4704  4.4479
 1113SOL    HW214799   4.680   1.236  10.709  0.4653 -0.2780 -1.4151
 1114SOL     OW14800   2.256   1.038  16.447 -0.0120 -0.6004  0.4148
 1114SOL    HW114801   2.236   1.045  16.541  1.4278  0.9082  0.6131
 1114SOL    HW214802   2.220   1.121  16.416 -0.5913 -1.2939 -0.7660
 1115SOL     OW14803   1.275   3.526   4.784  0.2986 -0.4429 -0.0364
 1115SOL    HW114804   1.252   3.485   4.868 -0.6439  0.3332  0.0903
 1115SOL    HW214805   1.251   3.463   4.716 -0.7739  0.1408 -0.2117
 1116SOL     OW14806   2.106   0.339   0.841 -0.1293  0.1531  0.0408
 1116SOL    HW114807   2.016   0.340   0.873 -0.5278  0.6185 -1.0865
 1116SOL    HW214808   2.150   0.298   0.915 -1.3582 -0.1641  0.6093
 1117SOL     OW14809   2.258   0.907   7.231 -0.5989 -0.2174 -0.1236
 1117SOL    HW114810   2.324   0.903   7.162 -1.3604 -2.1115 -0.7613
 1117SOL    HW214811   2.222   0.994   7.216  1.3894  0.7021  0.5401
 1118SOL     OW14812   4.470   0.768   3.749  0.2248  0.8267 -0.0641
 1118SOL    HW114813   4.476   0.685   3.796 -0.6984 -0.9209 -3.0697
 1118SOL    HW214814   4.470   0.728   3.662  0.8236  0.4202  0.1236
 1119SOL     OW14815   3.058   1.393   7.903  0.2341 -0.0381  1.0454
 1119SOL    HW114816   3.103   1.439   7.973  0.8250  1.1895 -0.1277
 1119SOL    HW214817   3.104   1.417   7.823 -0.3469  1.9639  1.3094
 1120SOL     OW14818   3.894   4.275  12.368 -0.0373  0.1558  0.3361
 1120SOL    HW114819   3.951   4.256  12.442 -0.1230 -1.4149  0.0068
 1120SOL    HW214820   3.898   4.194  12.318  1.3818 -0.4708  1.4692
 1121SOL     OW14821   4.220   0.642   7.711 -0.1270 -0.2314 -0.3859
 1121SOL    HW114822   4.130   0.670   7.691  0.1855  1.0846  0.0396
 1121SOL    HW214823   4.255   0.647   7.622  2.1663 -0.4585  0.5031
 1122SOL     OW14824   3.286   4.450  13.170 -0.0130  0.7431  0.6905
 1122SOL    HW114825   3.207   4.426  13.219 -0.7273 -0.3040 -0.9700
 1122SOL    HW214826   3.352   4.457  13.239  0.6631  0.4443  0.0676
 1123SOL     OW14827   3.978   2.644  15.174 -0.5392  0.1298 -0.5688
 1123SOL    HW114828   4.021   2.644  15.089  0.3573 -1.3739 -0.1029
 1123SOL    HW214829   4.000   2.560  15.214 -1.8639  1.4567  3.0485
 1124SOL     OW14830   2.672   0.583   4.268 -0.0604  0.0433 -0.0812
 1124SOL    HW114831   2.716   0.569   4.184 -2.5205  1.4135 -1.5938
 1124SOL    HW214832   2.740   0.633   4.312 -0.0708  0.4182 -0.4917
 1125SOL     OW14833   0.805   4.697   1.107 -0.0537 -0.3441  0.2334
 1125SOL    HW114834   0.803   0.057   1.148  0.5453  0.0294 -0.5142
 1125SOL    HW214835   0.735   4.652   1.154  1.1817 -2.1275  0.3497
 1126SOL     OW14836   3.902   0.371  15.780 -0.0708  0.0888  0.8245
 1126SOL    HW114837   3.959   0.295  15.772  0.1693  0.4043 -0.5166
 1126SOL    HW214838   3.825   0.337  15.734  0.1699  0.1300  0.3861
 1127SOL     OW14839   3.714   1.709   1.825 -0.0930  0.3715  0.6652
 1127SOL    HW114840   3.800   1.749   1.823 -0.2288  0.5587 -0.8453
 1127SOL    HW214841   3.656   1.784   1.833  2.5376  2.6783 -1.9877
 1128SOL     OW14842   1.378   0.639   9.904  0.1855 -0.3429  0.5406
 1128SOL    HW114843   1.439   0.711   9.925 -0.8873  0.2289  1.7318
 1128SOL    HW214844   1.337   0.663   9.821 -0.6105 -0.1136  1.0021
 1129SOL     OW14845   1.009   0.619   2.601  0.4332  0.1045 -0.4940
 1129SOL    HW114846   0.918   0.592   2.594  0.7101 -0.6498 -1.2287
 1129SOL    HW214847   1.044   0.529   2.603 -0.9077 -0.3910  0.0796
 1130SOL     OW14848   1.708   1.547  12.438 -0.5026 -0.0110  0.4695
 1130SOL    HW114849   1.656   1.470  12.461  1.7199 -2.0937 -1.4984
 1130SOL    HW214850   1.775   1.546  12.506 -0.2266  2.2836  0.2377
 1131SOL     OW14851   1.164   1.011   4.032  0.0148 -0.9266  0.0204
 1131SOL    HW114852   1.111   0.942   3.991  0.7217 -0.6209 -1.4041
 1131SOL    HW214853   1.178   1.061   3.951  0.8765 -1.4827 -0.1614
 1132SOL     OW14854   3.897   1.345  11.524  0.4798  0.0230 -0.1844
 1132SOL    HW114855   3.987   1.313  11.529  1.2233  1.6185 -3.2310
 1132SOL    HW214856   3.859   1.266  11.484  0.4020  0.4727 -1.0093
 1133SOL     OW14857   4.302   0.988   5.323 -0.1272 -0.0341 -0.4132
 1133SOL    HW114858   4.226   1.045   5.334 -0.1411  0.0844 -1.0945
 1133SOL    HW214859   4.362   1.019   5.390  0.5263  1.9841 -1.9372
 1134SOL     OW14860   1.188   0.358   2.364 -0.4156  0.4614  0.2105
 1134SOL    HW114861   1.152   0.310   2.439  2.5491 -1.4329  0.4177
 1134SOL    HW214862   1.195   0.291   2.296 -0.2787  0.5165  0.1719
 1135SOL     OW14863   3.979   3.163   0.851 -0.1611  0.6408 -0.0099
 1135SOL    HW114864   4.024   3.187   0.932 -0.4915 -0.4439  0.4871
 1135SOL    HW214865   3.888   3.161   0.881 -0.7329 -1.0188 -1.8778
 1136SOL     OW14866   2.105   2.970  16.198 -0.6192  0.3691  0.0162
 1136SOL    HW114867   2.051   2.922  16.136 -1.6658  0.4175  0.8897
 1136SOL    HW214868   2.051   2.972  16.277 -0.7407 -0.3936 -0.0447
 1137SOL     OW14869   2.146   0.232   3.253 -0.0890  0.6425  0.3270
 1137SOL    HW114870   2.186   0.267   3.332 -1.8212  2.8395  0.2252
 1137SOL    HW214871   2.167   0.292   3.182  0.4709  0.5423  0.4102
 1138SOL     OW14872   3.485   4.425  10.508  0.3940 -0.2804 -0.0911
 1138SOL    HW114873   3.523   4.365  10.445  0.5419 -1.1264  0.8065
 1138SOL    HW214874   3.392   4.404  10.504  0.1219  0.8655  0.1228
 1139SOL     OW14875   1.379   2.846   6.840  0.1520 -0.3988  0.2993
 1139SOL    HW114876   1.301   2.800   6.810  0.5702 -1.2808  0.5620
 1139SOL    HW214877   1.341   2.895   6.913 -1.3524  0.1372 -0.8474
 1140SOL     OW14878   3.836   4.311   0.718  0.0647 -0.0199  0.2460
 1140SOL    HW114879   3.891   4.318   0.796  2.0647 -1.0545 -1.0800
 1140SOL    HW214880   3.844   4.219   0.695  2.4263  0.2132  0.1151
 1141SOL     OW14881   1.374   2.914   6.069 -0.3552 -0.0434 -0.0241
 1141SOL    HW114882   1.297   2.918   6.126  0.5066  1.2040  1.0465
 1141SOL    HW214883   1.382   3.003   6.035  0.1860  0.5921  1.7931
 1142SOL     OW14884   0.407   2.822   4.176 -0.5912  0.0103 -0.1527
 1142SOL    HW114885   0.468   2.748   4.180 -1.3254 -0.5672  0.5641
 1142SOL    HW214886   0.472   2.881   4.140 -0.5583 -0.7125 -1.2775
 1143SOL     OW14887   3.662   0.878   2.831 -0.4320 -0.2074 -0.1756
 1143SOL    HW114888   3.592   0.904   2.771 -0.8114 -1.0050 -0.0745
 1143SOL    HW214889   3.670   0.783   2.819  2.7168  0.0157 -0.0099
 1144SOL     OW14890   1.490   2.980  17.462 -0.5494 -0.2801  0.0774
 1144SOL    HW114891   1.509   3.033  17.539 -0.8821  1.6730 -1.1708
 1144SOL    HW214892   1.499   2.891  17.495  1.1281 -0.3783 -0.6485
 1145SOL     OW14893   1.027   3.908   8.188 -0.6457 -0.3095 -0.5753
 1145SOL    HW114894   1.089   3.966   8.231 -3.2445  1.5944  0.5777
 1145SOL    HW214895   1.056   3.820   8.213 -0.5650  0.3674  1.7210
 1146SOL     OW14896   1.022   2.774   1.509  0.4507  0.0171  0.3886
 1146SOL    HW114897   1.108   2.732   1.507 -0.3235 -1.4532 -1.4897
 1146SOL    HW214898   0.980   2.730   1.583 -1.2748 -1.4810 -1.5050
 1147SOL     OW14899   3.193   2.341   5.953 -0.3395  0.9469 -0.2263
 1147SOL    HW114900   3.256   2.409   5.975  2.1322 -1.1582 -0.8137
 1147SOL    HW214901   3.148   2.383   5.880  0.2446  0.4190 -0.8935
 1148SOL     OW14902   0.245   2.718   8.249  0.0944 -0.2434  0.0165
 1148SOL    HW114903   0.260   2.676   8.165  1.7257  1.1041 -0.3696
 1148SOL    HW214904   0.150   2.707   8.252  0.0915 -0.1057  0.5248
 1149SOL     OW14905   3.648   0.941   6.062 -0.1602  0.1774 -0.7140
 1149SOL    HW114906   3.599   1.021   6.043 -1.2157  0.2916  2.5291
 1149SOL    HW214907   3.741   0.953   6.086  0.3865 -2.1726 -1.7130
 1150SOL     OW14908   1.508   3.748   3.242 -0.2824 -0.7045  0.2437
 1150SOL    HW114909   1.482   3.781   3.329  0.9065 -0.1344  0.3779
 1150SOL    HW214910   1.572   3.810   3.209 -1.7114  1.0723  0.7717
 1151SOL     OW14911   3.951   4.489   4.736  0.2443  0.4413  0.1016
 1151SOL    HW114912   3.981   4.522   4.651  0.1926  0.1108 -0.0413
 1151SOL    HW214913   3.896   4.413   4.718 -0.0049  0.7858 -0.6090
 1152SOL     OW14914   3.412   1.697   1.575  0.3882  0.4225  0.2358
 1152SOL    HW114915   3.480   1.759   1.600  0.0854  1.6051 -1.9073
 1152SOL    HW214916   3.366   1.747   1.507  1.0545 -1.9419 -1.9417
 1153SOL     OW14917   2.179   3.628  16.976 -0.2342  0.5652  0.5112
 1153SOL    HW114918   2.171   3.606  16.883  2.2424  3.7252 -0.4300
 1153SOL    HW214919   2.240   3.561  17.009 -1.2432 -0.8409 -0.5329
 1154SOL     OW14920   0.712   2.673   8.584  0.1705  0.2218  0.2899
 1154SOL    HW114921   0.765   2.601   8.619  1.0621  0.1222 -1.2427
 1154SOL    HW214922   0.762   2.747   8.619 -0.3537  0.6971  0.0432
 1155SOL     OW14923   2.905   1.638   3.385 -0.3557 -0.9628  0.4206
 1155SOL    HW114924   2.893   1.728   3.357  1.5334 -0.9366 -0.3261
 1155SOL    HW214925   2.915   1.657   3.478  0.3579  2.4203 -0.3498
 1156SOL     OW14926   2.629   3.687   1.651  0.0937  0.3759  0.4615
 1156SOL    HW114927   2.667   3.775   1.659  1.9133  0.0268 -4.5746
 1156SOL    HW214928   2.707   3.636   1.629  0.3823  0.1663  1.9208
 1157SOL     OW14929   0.293   4.124  11.552 -0.6238  0.6027  0.2624
 1157SOL    HW114930   0.316   4.208  11.591  2.3941  0.1147 -0.4742
 1157SOL    HW214931   0.259   4.152  11.467 -0.1265 -0.3155 -0.2410
 1158SOL     OW14932   1.854   2.418   8.714  0.3921 -0.0494  0.1306
 1158SOL    HW114933   1.928   2.380   8.668 -0.7097 -1.0724 -0.7950
 1158SOL    HW214934   1.909   2.478   8.764  0.3526  0.1157 -0.0225
 1159SOL     OW14935   1.825   4.711   5.596 -0.6130  0.4989 -0.4251
 1159SOL    HW114936   1.808   0.078   5.582  0.8321  0.6696 -1.0107
 1159SOL    HW214937   1.919   4.716   5.609 -0.4117 -0.8208 -1.3761
 1160SOL     OW14938   0.046   0.621  10.642  0.4642  0.0408 -0.0918
 1160SOL    HW114939   0.067   0.703  10.688 -2.5082  0.4474  0.5475
 1160SOL    HW214940   0.004   0.565  10.708 -1.7171 -0.1717 -1.6542
 1161SOL     OW14941   0.178   2.496   5.124  0.1250  0.1042  0.0710
 1161SOL    HW114942   0.251   2.466   5.179 -1.2796 -1.9976  0.7817
 1161SOL    HW214943   0.217   2.478   5.038  1.3494 -1.0622  0.8757
 1162SOL     OW14944   3.059   4.662  10.038 -0.2593  0.0269  0.9492
 1162SOL    HW114945   3.001   4.646   9.964  0.9408  0.3027 -0.0496
 1162SOL    HW214946   3.102   4.577  10.045  1.0954  0.6446  0.2171
 1163SOL     OW14947   1.455   2.431   3.679  0.1255  0.5373 -0.4886
 1163SOL    HW114948   1.424   2.341   3.670  3.0274 -0.4085 -1.0091
 1163SOL    HW214949   1.540   2.417   3.637 -0.4690 -0.7822 -1.2593
 1164SOL     OW14950   0.895   1.318   6.142  0.0576 -0.1109  0.2662
 1164SOL    HW114951   0.868   1.290   6.230  1.1175 -0.2866  0.5374
 1164SOL    HW214952   0.860   1.406   6.129  2.1707  0.4715 -1.5600
 1165SOL     OW14953   0.918   2.280  17.041 -0.2486  0.1399  0.2889
 1165SOL    HW114954   0.907   2.350  16.977  0.4865  2.4786  2.7326
 1165SOL    HW214955   0.974   2.213  17.001  0.9304  1.7990 -0.8390
 1166SOL     OW14956   4.347   0.773   6.835  0.1637  0.1205 -0.3165
 1166SOL    HW114957   4.319   0.729   6.754 -0.5516  0.1298 -0.0669
 1166SOL    HW214958   4.305   0.858   6.828  0.1557  0.1295 -0.1541
 1167SOL     OW14959   2.927   2.122   5.478 -0.6137  0.1141  0.5103
 1167SOL    HW114960   3.007   2.084   5.441 -0.4890 -1.4815  2.4627
 1167SOL    HW214961   2.864   2.072   5.426  0.8692 -0.7475 -0.4757
 1168SOL     OW14962   3.672   1.643   0.483 -0.4540  0.3145 -0.3036
 1168SOL    HW114963   3.662   1.552   0.455 -0.3356 -0.0455  0.8174
 1168SOL    HW214964   3.691   1.683   0.398  1.1772 -2.1947 -1.1252
 1169SOL     OW14965   3.151   0.359   7.698  0.0883  0.4837 -0.4402
 1169SOL    HW114966   3.085   0.304   7.740 -0.9012  0.9167 -1.4105
 1169SOL    HW214967   3.171   0.307   7.621  0.2235 -0.8652  0.5016
 1170SOL     OW14968   3.702   2.588   7.240  0.1487 -0.0022 -0.1335
 1170SOL    HW114969   3.786   2.625   7.265 -0.4364  1.7875 -0.7640
 1170SOL    HW214970   3.713   2.497   7.267  0.3799 -0.6846 -2.4937
 1171SOL     OW14971   1.706   3.549  15.342 -0.4234  0.4564  0.0043
 1171SOL    HW114972   1.656   3.629  15.326  0.6967  0.8171 -1.5931
 1171SOL    HW214973   1.727   3.570  15.433 -0.8694 -3.7236  1.0726
 1172SOL     OW14974   3.895   3.690   9.972 -0.4271  0.0195  0.1205
 1172SOL    HW114975   3.841   3.757   9.931 -0.9497  0.3692  1.3734
 1172SOL    HW214976   3.969   3.747   9.993  0.4900 -0.4226 -1.9433
 1173SOL     OW14977   1.772   0.858   2.123  0.0632 -0.4161  0.6505
 1173SOL    HW114978   1.738   0.927   2.065 -0.7864 -0.8314  0.6630
 1173SOL    HW214979   1.759   0.903   2.207 -0.1240 -0.2251  0.5171
 1174SOL     OW14980   3.996   3.712   1.977 -0.3718 -0.3900  0.3751
 1174SOL    HW114981   3.907   3.677   1.976 -0.7767  0.6288  0.6736
 1174SOL    HW214982   4.034   3.653   2.042 -3.3783 -2.4928  0.1885
 1175SOL     OW14983   4.577   0.837   7.571  0.1404  0.0141  0.0207
 1175SOL    HW114984   4.626   0.810   7.648 -0.6934  0.3508  0.6594
 1175SOL    HW214985   4.643   0.890   7.526  0.4846 -0.0699  0.4306
 1176SOL     OW14986   4.055   2.173   2.577  0.2723 -0.1054 -0.1576
 1176SOL    HW114987   4.149   2.158   2.582  0.3479  0.3081 -0.3574
 1176SOL    HW214988   4.052   2.265   2.550 -0.9113 -0.1017  0.0047
 1177SOL     OW14989   3.683   0.143   3.794 -0.3900  1.0860  0.3784
 1177SOL    HW114990   3.625   0.073   3.764 -0.8694  1.4281  0.5173
 1177SOL    HW214991   3.671   0.149   3.888  0.5000 -1.8987  0.6970
 1178SOL     OW14992   1.641   0.982   8.577  0.2407  0.2896  0.0972
 1178SOL    HW114993   1.657   0.888   8.571  1.3642  0.6204 -2.1485
 1178SOL    HW214994   1.566   0.975   8.636 -1.4110  1.3502 -1.8621
 1179SOL     OW14995   2.126   1.775  11.271 -0.3412 -0.2330  0.0298
 1179SOL    HW114996   2.180   1.777  11.192 -1.7814  1.4608 -0.9170
 1179SOL    HW214997   2.041   1.779  11.228 -0.9062  2.4808  1.4763
 1180SOL     OW14998   0.694   2.633   6.996 -0.4953  0.5013  0.6174
 1180SOL    HW114999   0.707   2.722   7.029 -2.9477  0.7962  0.7972
 1180SOL    HW215000   0.650   2.605   7.076  0.4322  0.9378  1.2778
 1181SOL     OW15001   2.885   1.620   5.226 -0.3423  0.0644 -0.5478
 1181SOL    HW115002   2.932   1.694   5.189  1.7578 -0.1070  1.7449
 1181SOL    HW215003   2.923   1.619   5.314 -0.8614  1.2602 -0.3116
 1182SOL     OW15004   2.620   0.822   8.457 -0.1766  0.2838  0.3736
 1182SOL    HW115005   2.571   0.866   8.388  2.9140  1.7987 -0.8458
 1182SOL    HW215006   2.697   0.778   8.421 -1.0643  0.1422 -1.3284
 1183SOL     OW15007   2.519   3.785   7.055 -0.7757  0.5133  0.1160
 1183SOL    HW115008   2.604   3.781   7.100 -1.0027 -0.7172  0.4449
 1183SOL    HW215009   2.462   3.813   7.127  0.1755 -2.3531  1.9943
 1184SOL     OW15010   3.907   1.460   8.641  1.0913 -0.0650  0.2281
 1184SOL    HW115011   3.925   1.380   8.591 -0.3394 -0.0126 -0.3632
 1184SOL    HW215012   3.954   1.427   8.719 -1.3842 -0.6525  1.4695
 1185SOL     OW15013   2.218   2.116  16.349 -0.0699 -0.1979 -0.3094
 1185SOL    HW115014   2.220   2.125  16.444  2.3405 -2.5364 -0.1298
 1185SOL    HW215015   2.240   2.203  16.317  1.9915 -0.2981  0.8963
 1186SOL     OW15016   0.138   4.549   9.146  0.2542 -0.6480 -0.0882
 1186SOL    HW115017   0.043   4.562   9.146  0.3739  0.5861 -5.5986
 1186SOL    HW215018   0.152   4.455   9.154  2.0573 -0.3341  0.3372
 1187SOL     OW15019   2.992   3.070  10.934 -0.1971 -0.2015 -0.2559
 1187SOL    HW115020   2.966   3.002  10.996  0.5595 -0.7231 -0.5258
 1187SOL    HW215021   2.906   3.083  10.892  1.0404  1.7031 -2.2363
 1188SOL     OW15022   2.750   3.576   0.776 -0.0143 -0.7860 -0.1306
 1188SOL    HW115023   2.777   3.636   0.707  0.4764 -0.0703  0.6944
 1188SOL    HW215024   2.676   3.538   0.728  0.4276 -0.5423 -0.9941
 1189SOL     OW15025   2.888   1.010   5.203  0.7394 -0.6858  0.7750
 1189SOL    HW115026   2.846   0.995   5.119 -1.4919 -2.1199  2.1650
 1189SOL    HW215027   2.963   1.066   5.182 -0.8760  0.4861 -1.8207
 1190SOL     OW15028   1.264   0.704  16.163  0.1583  0.6051 -0.0838
 1190SOL    HW115029   1.318   0.650  16.221 -0.0157  1.0252  0.4703
 1190SOL    HW215030   1.236   0.644  16.094 -0.7600 -0.0254  0.8360
 1191SOL     OW15031   2.519   3.759  11.404 -0.0623  0.1706  0.0022
 1191SOL    HW115032   2.607   3.752  11.369  1.0691  0.1099  2.8131
 1191SOL    HW215033   2.531   3.707  11.484 -0.3740  0.9907  0.5809
 1192SOL     OW15034   0.221   1.151   2.801  0.1584 -0.3458 -0.1250
 1192SOL    HW115035   0.214   1.216   2.731  0.8561 -0.9100 -0.7175
 1192SOL    HW215036   0.292   1.183   2.856 -1.1202 -1.6191  2.2620
 1193SOL     OW15037   2.220   3.145   2.785 -0.2470  0.6308  0.7124
 1193SOL    HW115038   2.226   3.067   2.841  0.6419  0.6027  0.5719
 1193SOL    HW215039   2.270   3.110   2.712 -1.0735 -1.5865  1.1933
 1194SOL     OW15040   2.555   2.108  16.110 -0.0839  0.2712  0.4343
 1194SOL    HW115041   2.631   2.086  16.163 -0.1558  1.8096  1.1641
 1194SOL    HW215042   2.556   2.020  16.070 -0.3495  0.1481  0.7016
 1195SOL     OW15043   0.189   1.746   9.272  0.3127  0.1945 -0.3657
 1195SOL    HW115044   0.234   1.830   9.264 -0.9787  0.6825 -2.3955
 1195SOL    HW215045   0.255   1.688   9.310 -1.9931 -2.3805 -0.3011
 1196SOL     OW15046   4.219   4.680   3.660 -0.2323 -0.2600  0.0952
 1196SOL    HW115047   4.296   4.705   3.609 -0.2746  3.3680  1.7519
 1196SOL    HW215048   4.268   4.655   3.738 -4.0383 -0.2492  2.5143
 1197SOL     OW15049   3.156   3.819   8.777 -0.3379 -0.1191  0.4502
 1197SOL    HW115050   3.211   3.861   8.843 -0.3351 -0.5876  0.7470
 1197SOL    HW215051   3.182   3.866   8.697  2.1618  0.7001  1.7384
 1198SOL     OW15052   3.726   1.147   9.573 -0.6150 -0.3653 -0.1692
 1198SOL    HW115053   3.814   1.118   9.549  0.0148  1.6307 -0.1958
 1198SOL    HW215054   3.686   1.065   9.543  0.4516 -0.8989 -0.1511
 1199SOL     OW15055   3.422   1.799   5.473 -0.4042  0.2728  0.3440
 1199SOL    HW115056   3.508   1.757   5.465  0.7832  2.2657  2.6596
 1199SOL    HW215057   3.402   1.804   5.380  0.7662  0.2463  0.0906
 1200SOL     OW15058   4.366   1.101   7.091  0.6079 -0.0906  0.0186
 1200SOL    HW115059   4.317   1.025   7.121  3.2171 -1.9250 -0.2843
 1200SOL    HW215060   4.307   1.148   7.032  0.0954  1.1598  1.5533
 1201SOL     OW15061   3.918   3.525   3.849  0.4547 -0.2035 -0.3761
 1201SOL    HW115062   3.848   3.587   3.868 -1.8774 -3.7699  2.6559
 1201SOL    HW215063   3.871   3.442   3.857 -0.4874  0.5302  1.7373
 1202SOL     OW15064   0.521   3.928  11.301  0.2037  0.4189 -0.4042
 1202SOL    HW115065   0.537   4.022  11.295 -0.7595  0.5692 -0.6187
 1202SOL    HW215066   0.442   3.915  11.354  1.5090 -1.2142  1.1351
 1203SOL     OW15067   4.540   2.040   6.728  0.1862  0.5957  0.0402
 1203SOL    HW115068   4.504   2.115   6.775  1.6852  1.7922 -0.7099
 1203SOL    HW215069   4.464   1.992   6.695 -0.1553  0.3502  1.2015
 1204SOL     OW15070   4.065   4.690  10.100 -0.1196 -0.1216  0.1555
 1204SOL    HW115071   4.120   4.620  10.063  0.5545  0.2245  0.5247
 1204SOL    HW215072   4.082   0.032  10.035  0.2233 -0.6982 -0.3647
 1205SOL     OW15073   1.473   3.429  17.400  0.4701 -0.0616 -0.0295
 1205SOL    HW115074   1.541   3.497  17.406 -0.2278  0.5584  0.8266
 1205SOL    HW215075   1.524   3.357  17.363 -0.3633  0.7686 -2.7889
 1206SOL     OW15076   3.148   3.612   9.751 -0.4460  0.0569 -0.2422
 1206SOL    HW115077   3.221   3.635   9.809 -1.8733 -0.4203  1.7403
 1206SOL    HW215078   3.072   3.652   9.792 -0.6628  0.5095 -1.0689
 1207SOL     OW15079   2.216   1.348  12.988  0.1671  0.1191 -0.1129
 1207SOL    HW115080   2.259   1.323  12.905 -0.7746 -0.7257 -0.3410
 1207SOL    HW215081   2.126   1.324  12.966 -0.0801  1.7619 -0.8654
 1208SOL     OW15082   1.444   0.423   9.596 -0.0173 -0.0788 -0.1787
 1208SOL    HW115083   1.460   0.349   9.537 -0.6763 -1.1548  1.0021
 1208SOL    HW215084   1.533   0.456   9.603 -0.2136  0.1473  1.2623
 1209SOL     OW15085   2.115   3.014   0.186  0.2064  0.0008  0.3054
 1209SOL    HW115086   2.056   2.963   0.242  1.9167 -0.8819  1.2873
 1209SOL    HW215087   2.147   3.070   0.256  0.3156  0.0792  0.1933
 1210SOL     OW15088   2.295   0.581   1.239  0.4286  0.1836  0.0155
 1210SOL    HW115089   2.270   0.571   1.330  1.3507  1.1485  0.3780
 1210SOL    HW215090   2.261   0.664   1.205 -0.1221  0.0015  0.1235
 1211SOL     OW15091   1.869   2.901   8.175  0.0012 -0.2473 -0.6824
 1211SOL    HW115092   1.776   2.885   8.163  0.0214 -1.4053  0.6978
 1211SOL    HW215093   1.884   2.965   8.106 -0.1794 -0.5413 -0.9957
 1212SOL     OW15094   0.588   3.149   8.471 -0.1956 -0.3557  0.4980
 1212SOL    HW115095   0.590   3.245   8.461  0.0394 -0.5518 -1.2808
 1212SOL    HW215096   0.507   3.142   8.522 -1.1093 -0.0668 -0.8845
 1213SOL     OW15097   4.430   0.794   4.357  0.1054  0.1660 -0.2572
 1213SOL    HW115098   4.423   0.820   4.266  0.0374 -0.0866 -0.3238
 1213SOL    HW215099   4.350   0.742   4.363  0.1708  0.1455  0.5463
 1214SOL     OW15100   0.591   2.046   9.745  0.0468 -0.1097 -0.0478
 1214SOL    HW115101   0.618   2.110   9.680 -1.0659  0.4206  0.0021
 1214SOL    HW215102   0.603   2.097   9.825 -0.4385  2.5764 -1.7117
 1215SOL     OW15103   4.414   2.474  11.489 -0.4220  1.1004 -0.0037
 1215SOL    HW115104   4.467   2.420  11.549 -2.4204  0.4867  1.2282
 1215SOL    HW215105   4.459   2.558  11.490  0.2079  0.7660 -1.0312
 1216SOL     OW15106   2.065   3.370   9.125 -0.5212  0.1557  0.5147
 1216SOL    HW115107   2.093   3.443   9.069  1.8907 -1.9936 -1.1171
 1216SOL    HW215108   2.002   3.420   9.176  0.9322  0.1643  2.3203
 1217SOL     OW15109   0.349   2.901   6.759 -0.1081  0.3471 -0.6344
 1217SOL    HW115110   0.358   2.984   6.805  0.8710  0.4729 -1.0539
 1217SOL    HW215111   0.397   2.921   6.678 -1.6217 -1.5734 -2.0139
 1218SOL     OW15112   3.977   1.816   5.488  0.4980  0.2892  0.2717
 1218SOL    HW115113   4.073   1.816   5.483  0.3137  0.7625 -2.7370
 1218SOL    HW215114   3.965   1.873   5.564  0.4817  0.5456  0.0759
 1219SOL     OW15115   2.586   2.489   3.202  0.0253 -0.0474 -0.3181
 1219SOL    HW115116   2.609   2.448   3.118 -0.4439  0.8123 -0.8614
 1219SOL    HW215117   2.512   2.437   3.233  0.0519  0.8233  1.2006
 1220SOL     OW15118   2.468   0.434   1.734 -0.3506  0.7837  0.1149
 1220SOL    HW115119   2.536   0.412   1.798  1.3832  4.1055 -0.5642
 1220SOL    HW215120   2.514   0.461   1.655 -2.6592  1.4651 -1.0035
 1221SOL     OW15121   4.352   0.668  11.574  0.3622  0.2214 -0.7420
 1221SOL    HW115122   4.269   0.716  11.570  0.5627  0.7895  2.0684
 1221SOL    HW215123   4.410   0.739  11.547  2.0890 -0.7064  0.5466
 1222SOL     OW15124   3.430   0.189  16.457 -0.4384  0.2459  0.4349
 1222SOL    HW115125   3.510   0.218  16.501 -0.4075 -0.8344  1.1147
 1222SOL    HW215126   3.416   0.261  16.396  1.0393  1.6747  1.7766
 1223SOL     OW15127   0.285   3.919   7.611 -0.3257  0.3691 -0.3714
 1223SOL    HW115128   0.250   3.929   7.523 -1.3226  0.2966  0.0252
 1223SOL    HW215129   0.360   3.862   7.590 -1.1832 -0.9022  0.0522
 1224SOL     OW15130   0.179   1.064   3.101  0.0777  0.1720 -0.2911
 1224SOL    HW115131   0.188   1.006   3.026 -1.9759 -0.5971  0.0613
 1224SOL    HW215132   0.264   1.106   3.094  0.3880 -0.2820  0.7675
 1225SOL     OW15133   0.549   4.684   3.220 -0.1771 -0.1451  0.7098
 1225SOL    HW115134   0.545   0.026   3.287 -2.5195  0.6359 -0.2198
 1225SOL    HW215135   0.470   4.708   3.171 -0.2663  2.8992  2.3048
 1226SOL     OW15136   4.618   3.200   2.901  0.2171 -0.2234 -0.2320
 1226SOL    HW115137   4.567   3.203   2.820 -2.7605 -2.8873  1.5456
 1226SOL    HW215138   4.662   3.115   2.895  2.0963  0.8573 -1.6168
 1227SOL     OW15139   2.870   1.077   3.506 -0.4956 -0.3942 -1.0457
 1227SOL    HW115140   2.930   1.142   3.543 -0.4393 -1.3298  0.4725
 1227SOL    HW215141   2.847   1.136   3.433 -0.1440  0.1123 -0.7474
 1228SOL     OW15142   4.135   1.630  12.047  0.0348  0.4363  0.1360
 1228SOL    HW115143   4.085   1.696  12.095  0.4336  1.1599 -0.4590
 1228SOL    HW215144   4.075   1.557  12.062 -0.8612  1.1605  0.0721
 1229SOL     OW15145   3.116   2.553   9.004  0.3464  0.2192  0.6915
 1229SOL    HW115146   3.058   2.486   9.042  0.5842 -0.1960  0.3144
 1229SOL    HW215147   3.199   2.506   9.008 -0.3615 -1.1017 -0.2581
 1230SOL     OW15148   0.673   3.255  12.773 -0.5602 -0.2816  0.1809
 1230SOL    HW115149   0.673   3.285  12.864 -1.8657  0.4035 -0.0462
 1230SOL    HW215150   0.613   3.325  12.744  0.9762  0.9046 -0.1440
 1231SOL     OW15151   2.418   2.707   6.144 -0.0375  0.0006 -0.7570
 1231SOL    HW115152   2.457   2.792   6.164 -0.0427 -0.1247 -0.2239
 1231SOL    HW215153   2.354   2.741   6.082 -1.4904 -2.3324 -0.5350
 1232SOL     OW15154   4.160   2.379  16.371  0.4478 -0.5032 -0.8480
 1232SOL    HW115155   4.145   2.424  16.288 -2.4027  0.0451 -0.0126
 1232SOL    HW215156   4.089   2.316  16.365  3.2240 -3.8160  0.9627
 1233SOL     OW15157   2.897   0.585  15.457 -0.1366  0.1125 -0.1512
 1233SOL    HW115158   2.916   0.635  15.377  1.7584 -1.9513 -0.9790
 1233SOL    HW215159   2.840   0.651  15.497 -0.0389 -1.0196  1.8189
 1234SOL     OW15160   0.166   1.928   0.215  0.4892 -0.6346 -0.6055
 1234SOL    HW115161   0.216   1.874   0.276  2.7382  2.5891  0.3868
 1234SOL    HW215162   0.091   1.868   0.203 -0.9786  1.0746  0.0268
 1235SOL     OW15163   2.247   1.991   7.147  0.1617 -0.2341  0.7438
 1235SOL    HW115164   2.285   2.053   7.085 -1.1570  0.1420  0.3201
 1235SOL    HW215165   2.320   1.930   7.156  0.6179  0.1786 -0.1584
 1236SOL     OW15166   3.391   0.435  10.838  0.2136  0.9128 -0.0448
 1236SOL    HW115167   3.434   0.382  10.770 -1.7500 -1.5641  0.6428
 1236SOL    HW215168   3.333   0.494  10.790  0.1632 -0.2771 -1.4641
 1237SOL     OW15169   3.513   0.075   8.545 -0.4694 -0.7196  0.0606
 1237SOL    HW115170   3.598   0.118   8.552 -0.1703 -0.8684 -2.4782
 1237SOL    HW215171   3.452   0.126   8.598  0.0061  0.6058 -0.6709
 1238SOL     OW15172   0.158   3.282  17.692  0.1472 -0.1430  0.0670
 1238SOL    HW115173   0.122   3.243   0.066  0.3725 -0.2467  0.1165
 1238SOL    HW215174   0.085   3.343  17.678  0.5116  0.0830 -0.8496
 1239SOL     OW15175   1.351   1.607  11.261 -0.3638  0.3012  0.3325
 1239SOL    HW115176   1.300   1.582  11.184 -1.1506 -4.2809  2.3783
 1239SOL    HW215177   1.421   1.654  11.216  1.0655 -0.5126  1.7593
 1240SOL     OW15178   0.177   1.544   8.082  0.1576 -0.0363 -0.0986
 1240SOL    HW115179   0.132   1.500   8.154  0.0425  1.0790  0.5016
 1240SOL    HW215180   0.130   1.526   8.000  1.7593 -0.8236 -0.8641
 1241SOL     OW15181   3.035   1.433   0.116 -0.2908 -0.1016  0.0783
 1241SOL    HW115182   3.077   1.353   0.081 -0.8182 -0.6968  0.8050
 1241SOL    HW215183   3.103   1.486   0.156 -1.1735  1.0690  0.0097
 1242SOL     OW15184   3.659   1.417   7.998 -0.1738  0.0588  0.2412
 1242SOL    HW115185   3.615   1.448   7.918 -0.5561 -0.4552  0.2522
 1242SOL    HW215186   3.721   1.356   7.957  0.3844  0.4871  0.4438
 1243SOL     OW15187   4.414   2.631   0.164 -0.2315 -0.0664 -0.0416
 1243SOL    HW115188   4.420   2.662   0.255 -2.2846  0.4534 -0.0905
 1243SOL    HW215189   4.504   2.649   0.136 -0.5525  0.1306 -0.9452
 1244SOL     OW15190   1.897   0.845   1.554 -0.6205 -0.1051 -0.1697
 1244SOL    HW115191   1.812   0.847   1.510 -0.2883 -0.3334 -0.8265
 1244SOL    HW215192   1.881   0.780   1.622  1.3669  2.1129  2.4023
 1245SOL     OW15193   0.287   1.462  10.376  0.2383  0.3436  0.2548
 1245SOL    HW115194   0.311   1.552  10.401  1.4818  0.8322 -2.7492
 1245SOL    HW215195   0.194   1.473  10.361 -0.1778 -2.4998  0.7942
 1246SOL     OW15196   1.053   1.727  11.311 -0.1864  0.8925 -0.7327
 1246SOL    HW115197   1.022   1.676  11.386  0.8635 -0.4047 -1.1921
 1246SOL    HW215198   1.083   1.654  11.257 -1.1419  1.2057 -1.7022
 1247SOL     OW15199   3.508   0.381  10.494  0.5797 -0.0153 -0.2678
 1247SOL    HW115200   3.492   0.299  10.449  2.4090  0.6738 -2.1887
 1247SOL    HW215201   3.584   0.366  10.551 -1.8805 -0.8602  2.7719
 1248SOL     OW15202   2.394   0.684   2.235  0.0550  0.4529 -0.0856
 1248SOL    HW115203   2.438   0.745   2.177 -1.6376  0.1917 -1.6687
 1248SOL    HW215204   2.310   0.667   2.191  0.0866 -1.0833  0.4311
 1249SOL     OW15205   3.618   0.832   4.169  1.0233 -1.1315 -0.5251
 1249SOL    HW115206   3.563   0.753   4.172 -2.4531  1.3689  2.0554
 1249SOL    HW215207   3.555   0.904   4.163  0.7689 -1.1823  1.4441
 1250SOL     OW15208   2.710   3.629   7.352  0.1673 -0.0243 -0.1725
 1250SOL    HW115209   2.734   3.566   7.284 -1.4689  1.2121 -1.8919
 1250SOL    HW215210   2.668   3.563   7.408 -0.8265 -1.0164 -2.1146
 1251SOL     OW15211   1.828   0.770   3.518 -0.3234  0.8931  0.4436
 1251SOL    HW115212   1.809   0.755   3.426 -0.9462 -0.0786  0.7371
 1251SOL    HW215213   1.875   0.854   3.512  1.5922 -0.0158  2.6502
 1252SOL     OW15214   0.375   3.460   6.168  0.1686  0.0340 -0.0031
 1252SOL    HW115215   0.306   3.527   6.164  0.0684  0.0682  1.9159
 1252SOL    HW215216   0.448   3.509   6.130 -1.1518  1.4065 -0.7696
 1253SOL     OW15217   0.154   0.682   7.440  0.0277  0.0795  0.0540
 1253SOL    HW115218   0.109   0.600   7.458  0.2363  0.0677  0.5296
 1253SOL    HW215219   0.184   0.662   7.351  1.5973 -1.6465  0.9790
 1254SOL     OW15220   2.752   1.771   1.422 -1.3149 -0.2304 -0.1090
 1254SOL    HW115221   2.823   1.836   1.425  0.2228 -2.0570  3.1617
 1254SOL    HW215222   2.678   1.831   1.434  0.7407  2.3865 -0.3764
 1255SOL     OW15223   0.733   4.612   6.106  0.2388  0.1847 -0.1867
 1255SOL    HW115224   0.712   4.569   6.189  0.7368  0.3587  0.0339
 1255SOL    HW215225   0.658   4.669   6.089  1.3214  2.5762  3.0813
 1256SOL     OW15226   2.189   1.573   6.459 -0.2106  0.7809 -0.3025
 1256SOL    HW115227   2.113   1.515   6.449  0.1917  0.2748 -0.4464
 1256SOL    HW215228   2.251   1.507   6.488 -0.0384  2.0692  2.1941
 1257SOL     OW15229   2.725   2.234   9.231  0.0879  0.0136  0.6675
 1257SOL    HW115230   2.745   2.326   9.251  0.0671 -0.2176  1.7485
 1257SOL    HW215231   2.633   2.243   9.205  0.3214  3.1730  0.8754
 1258SOL     OW15232   2.020   4.425   5.905 -0.1031  0.1243 -0.1877
 1258SOL    HW115233   2.100   4.465   5.870 -1.6822  2.6241 -0.9544
 1258SOL    HW215234   1.950   4.476   5.865  0.6795  0.0280 -1.6830
 1259SOL     OW15235   0.048   0.650   6.609 -0.2962  0.3472  0.3311
 1259SOL    HW115236   4.715   0.658   6.535  1.1975 -0.7551 -0.9708
 1259SOL    HW215237   4.716   0.680   6.680  1.2506 -0.0837  1.7857
 1260SOL     OW15238   3.534   3.682   3.472  0.3852 -1.5581  0.6349
 1260SOL    HW115239   3.608   3.637   3.429 -0.0129 -1.9343  0.3435
 1260SOL    HW215240   3.466   3.630   3.429  0.5362  0.0131 -1.5077
 1261SOL     OW15241   0.832   1.716   2.156 -0.3439  0.1455  0.0907
 1261SOL    HW115242   0.799   1.780   2.220  0.6688  2.1034 -1.3293
 1261SOL    HW215243   0.925   1.739   2.155 -0.0437 -1.0652  0.5622
 1262SOL     OW15244   1.140   3.102   4.750  0.1332  0.6456  0.0421
 1262SOL    HW115245   1.193   3.056   4.816 -1.7140 -0.3798  0.8150
 1262SOL    HW215246   1.203   3.092   4.678 -1.7306 -0.5154 -1.4179
 1263SOL     OW15247   4.055   2.565  14.891 -0.5133  0.1419  0.9092
 1263SOL    HW115248   3.983   2.505  14.909 -2.8960  2.6159 -0.2986
 1263SOL    HW215249   4.010   2.621  14.828  2.5476 -0.1185 -1.4753
 1264SOL     OW15250   3.376   1.860   4.630  0.4798  0.3061  0.9997
 1264SOL    HW115251   3.353   1.780   4.582 -1.8975  2.1649 -0.9593
 1264SOL    HW215252   3.294   1.901   4.656 -0.0821  0.4194 -0.9163
 1265SOL     OW15253   3.586   3.666   4.812 -0.0564  0.2489 -0.3837
 1265SOL    HW115254   3.559   3.727   4.880 -0.8024 -1.3983  0.7896
 1265SOL    HW215255   3.680   3.652   4.822 -0.3057 -0.8246  0.4388
 1266SOL     OW15256   4.195   1.581  10.125 -0.1413  0.3729 -0.4069
 1266SOL    HW115257   4.246   1.638  10.183  3.1948 -2.0393 -1.0106
 1266SOL    HW215258   4.268   1.536  10.083  0.0660 -0.5814  0.9655
 1267SOL     OW15259   1.998   0.269  16.480 -0.6131 -0.1369  0.0522
 1267SOL    HW115260   2.021   0.358  16.453 -1.2890  0.0617  0.1415
 1267SOL    HW215261   2.011   0.226  16.395 -1.5874 -2.4665  1.1009
 1268SOL     OW15262   1.499   4.663  16.878  0.5413 -0.2298  0.2317
 1268SOL    HW115263   1.508   4.725  16.806 -1.8521  1.0511  1.0271
 1268SOL    HW215264   1.428   4.702  16.928 -0.1568 -0.6442 -0.4312
 1269SOL     OW15265   2.471   3.763  12.091 -0.3569  0.2584  0.0170
 1269SOL    HW115266   2.381   3.771  12.124  0.6556  0.2526  2.7551
 1269SOL    HW215267   2.515   3.750  12.175 -0.5885 -0.3200  0.0512
 1270SOL     OW15268   3.499   4.680   3.721  0.0566 -0.1904 -0.1140
 1270SOL    HW115269   3.443   4.694   3.644  0.5842 -1.6597 -0.7490
 1270SOL    HW215270   3.556   4.617   3.678 -0.8249 -1.2071  0.2035
 1271SOL     OW15271   1.914   1.322   9.180 -0.5625  0.2478 -0.2744
 1271SOL    HW115272   1.961   1.347   9.260  0.4771 -2.4402 -0.0510
 1271SOL    HW215273   1.987   1.296   9.124 -0.0325  0.1265  0.4627
 1272SOL     OW15274   0.133   1.054  16.725  0.3921 -0.3726 -0.0072
 1272SOL    HW115275   0.068   1.119  16.751  0.0606 -1.2927  1.4877
 1272SOL    HW215276   0.183   1.038  16.806  1.6823 -2.9279 -1.3176
 1273SOL     OW15277   0.628   1.445   5.263  0.4650  0.8177 -0.0033
 1273SOL    HW115278   0.706   1.492   5.234  0.1501  1.7953  0.7475
 1273SOL    HW215279   0.656   1.397   5.341  1.3313  0.3962 -0.5723
 1274SOL     OW15280   3.701   0.253   2.690  0.1364 -0.2034  0.3991
 1274SOL    HW115281   3.677   0.164   2.665  0.1031 -0.2051  0.4361
 1274SOL    HW215282   3.775   0.257   2.630 -0.7588 -2.1003 -0.8542
 1275SOL     OW15283   0.940   1.838   5.369  0.3420  0.1647 -0.5450
 1275SOL    HW115284   1.006   1.852   5.301  0.6017  1.0007 -0.1111
 1275SOL    HW215285   0.966   1.755   5.411 -0.4656  0.2578  0.1315
 1276SOL     OW15286   1.559   2.959   7.811  0.7506 -0.5141  0.0347
 1276SOL    HW115287   1.602   2.905   7.745  3.1830  2.5763 -0.9448
 1276SOL    HW215288   1.588   2.922   7.895  3.1559  2.1022  0.3787
 1277SOL     OW15289   2.797   4.245   2.845 -0.0915  0.3926  0.2157
 1277SOL    HW115290   2.772   4.206   2.761  0.0026 -1.0694  0.8577
 1277SOL    HW215291   2.892   4.245   2.834 -0.1486 -0.2124 -0.2382
 1278SOL     OW15292   1.937   0.515  12.335  0.1128 -0.0280 -0.1166
 1278SOL    HW115293   1.946   0.424  12.363  0.3248 -0.3307 -1.1894
 1278SOL    HW215294   1.863   0.525  12.275  0.3159 -0.4335 -0.4363
 1279SOL     OW15295   3.147   1.690   0.486  0.0404  0.0446  0.1585
 1279SOL    HW115296   3.165   1.650   0.401 -3.2587  0.1489 -0.5908
 1279SOL    HW215297   3.061   1.648   0.485  1.1855 -2.3332  0.0674
 1280SOL     OW15298   2.558   0.425   3.187  0.0299 -0.6005  0.1700
 1280SOL    HW115299   2.505   0.492   3.144 -0.9152 -1.6998 -0.3595
 1280SOL    HW215300   2.647   0.446   3.159  0.5087 -1.7502  0.8017
 1281SOL     OW15301   1.524   2.366  17.500 -0.4584  0.0656  0.2253
 1281SOL    HW115302   1.450   2.422  17.477  0.3255  1.7826  1.7893
 1281SOL    HW215303   1.596   2.428  17.509 -0.3854  0.6662 -4.6556
 1282SOL     OW15304   2.057   1.787   8.333  0.3477  0.4820  0.6095
 1282SOL    HW115305   2.065   1.697   8.366  0.7621 -0.7331 -2.8033
 1282SOL    HW215306   2.040   1.766   8.241 -0.1752  0.0137  0.8111
 1283SOL     OW15307   0.560   4.351   2.409 -0.1241  0.0310 -0.0923
 1283SOL    HW115308   0.584   4.384   2.322 -2.0294  1.9602  0.1258
 1283SOL    HW215309   0.651   4.349   2.440  0.1427  3.5166 -0.6011
 1284SOL     OW15310   4.329   2.702   8.976  0.1327 -0.0456  0.2610
 1284SOL    HW115311   4.401   2.764   8.960 -0.9378  0.6832 -1.6792
 1284SOL    HW215312   4.314   2.718   9.070  1.3911  1.2626  0.2448
 1285SOL     OW15313   2.061   4.661   4.524  0.7582 -0.8787 -0.2262
 1285SOL    HW115314   2.074   0.013   4.577 -0.9803 -0.4955 -0.3426
 1285SOL    HW215315   2.092   4.597   4.588  1.4447 -0.4285 -0.1057
 1286SOL     OW15316   4.520   0.570   7.220 -0.0292 -0.3291  0.2063
 1286SOL    HW115317   4.591   0.634   7.217 -0.8605  0.5775 -0.2259
 1286SOL    HW215318   4.487   0.562   7.130 -2.3331  2.5488  0.7680
 1287SOL     OW15319   1.245   0.872  15.485 -0.2512 -0.3988 -0.0872
 1287SOL    HW115320   1.278   0.858  15.574  1.0042 -0.8052 -0.6113
 1287SOL    HW215321   1.300   0.949  15.467  0.5935 -0.9786  0.0340
 1288SOL     OW15322   4.495   2.852   9.555  0.2351  0.3109  0.4095
 1288SOL    HW115323   4.561   2.849   9.485 -1.7639  1.3239 -1.5256
 1288SOL    HW215324   4.475   2.763   9.583  1.0925 -0.9762 -3.0804
 1289SOL     OW15325   0.584   2.359   8.390 -0.0204  0.3915  0.3758
 1289SOL    HW115326   0.615   2.317   8.310 -2.1941  0.5826 -0.5670
 1289SOL    HW215327   0.534   2.428   8.347 -2.7240 -1.3962  0.6661
 1290SOL     OW15328   3.355   1.313   2.978 -0.5792 -0.0903 -0.1377
 1290SOL    HW115329   3.378   1.404   2.962 -0.3379 -0.2676 -0.7845
 1290SOL    HW215330   3.388   1.259   2.906  0.3222 -0.5910  0.6534
 1291SOL     OW15331   1.989   1.814   5.775 -0.0758 -0.3315  0.6013
 1291SOL    HW115332   1.979   1.904   5.743  0.0214 -1.3621 -2.3784
 1291SOL    HW215333   2.085   1.808   5.781  0.0664  0.5588 -0.5499
 1292SOL     OW15334   0.488   2.970   3.364 -0.0041  0.0988  0.3543
 1292SOL    HW115335   0.453   3.050   3.402 -1.1511  0.1652 -0.8534
 1292SOL    HW215336   0.456   2.902   3.423  2.2519 -0.3408  1.0886
 1293SOL     OW15337   0.759   0.091   5.464 -0.0162  0.4463  0.1120
 1293SOL    HW115338   0.671   0.058   5.479 -0.2446  0.1627 -1.8173
 1293SOL    HW215339   0.784   0.135   5.546 -0.6405  1.2495 -0.1251
 1294SOL     OW15340   2.164   2.200  15.339  0.5408 -0.3957 -0.2288
 1294SOL    HW115341   2.116   2.121  15.314  0.7010  0.1864 -2.4229
 1294SOL    HW215342   2.145   2.190  15.432  0.6579 -0.1784 -0.1835
 1295SOL     OW15343   3.062   2.718  14.016  0.0252 -0.3049  0.0823
 1295SOL    HW115344   3.096   2.629  14.026 -4.1972 -1.7839  1.1264
 1295SOL    HW215345   3.070   2.745  14.108  1.2132  2.6902 -0.9161
 1296SOL     OW15346   0.146   3.000   6.541  0.2235  0.5582 -0.6186
 1296SOL    HW115347   0.147   2.938   6.614 -2.2261  1.5893  0.2641
 1296SOL    HW215348   0.233   2.989   6.501 -0.0740 -1.1429 -0.8173
 1297SOL     OW15349   2.207   0.972  14.543  0.3671  0.0093 -0.3889
 1297SOL    HW115350   2.300   0.993  14.530  0.0249  0.7385 -1.6587
 1297SOL    HW215351   2.204   0.946  14.635  0.0019  2.5615  0.3234
 1298SOL     OW15352   3.581   3.041  13.828 -0.8089  0.1016 -0.8986
 1298SOL    HW115353   3.614   3.129  13.814  0.7433  0.2168  3.6372
 1298SOL    HW215354   3.486   3.049  13.813 -1.3002 -0.9662  1.6553
 1299SOL     OW15355   2.025   0.301  12.524  0.3329  0.1419 -0.1835
 1299SOL    HW115356   2.025   0.207  12.506 -1.6013  0.3717 -1.4806
 1299SOL    HW215357   1.932   0.310  12.546 -0.1326  2.2078 -2.9248
 1300SOL     OW15358   1.167   0.389   2.669 -0.4758 -0.3647 -0.3192
 1300SOL    HW115359   1.252   0.378   2.711 -0.8253  2.9124  1.2932
 1300SOL    HW215360   1.139   0.303   2.640 -1.1477  0.6155 -2.5806
 1301SOL     OW15361   1.063   1.571   4.020 -0.5703  0.4796 -0.1888
 1301SOL    HW115362   0.977   1.529   4.015 -0.2557 -0.1802 -0.0789
 1301SOL    HW215363   1.127   1.502   4.000 -0.1229  1.1960 -1.2093
 1302SOL     OW15364   2.536   1.027   7.686 -0.6782 -0.1104  0.2851
 1302SOL    HW115365   2.447   0.993   7.682 -1.2885  1.5042  0.2481
 1302SOL    HW215366   2.525   1.122   7.683 -0.4174 -0.1109 -1.0573
 1303SOL     OW15367   1.107   0.375  11.049  0.1085 -0.3108 -0.1630
 1303SOL    HW115368   1.043   0.345  10.984  2.5721 -0.1616 -2.6228
 1303SOL    HW215369   1.126   0.303  11.109 -0.5535 -0.6155 -0.3199
 1304SOL     OW15370   0.876   2.215   1.786 -0.3466 -0.1033 -0.3643
 1304SOL    HW115371   0.804   2.178   1.836 -2.1427 -0.8096 -3.5538
 1304SOL    HW215372   0.824   2.272   1.730 -0.7129  0.0248  0.1071
 1305SOL     OW15373   4.231   0.110   1.357  0.5668  0.4265  0.1287
 1305SOL    HW115374   4.157   0.163   1.325  2.2366  1.6078 -1.7521
 1305SOL    HW215375   4.277   0.081   1.277  0.0663  0.4138 -0.1578
 1306SOL     OW15376   3.681   3.968   3.019 -0.1975 -0.2613  0.0975
 1306SOL    HW115377   3.759   3.913   3.015  0.9223  1.2985  0.4645
 1306SOL    HW215378   3.703   4.026   3.092 -1.5892 -0.9365  1.0411
 1307SOL     OW15379   0.000   4.156   3.372 -0.9099  0.4303 -0.2603
 1307SOL    HW115380   4.666   4.084   3.391 -1.4478  1.4179  1.6953
 1307SOL    HW215381   4.666   4.230   3.366  1.2065  2.1927  0.2165
 1308SOL     OW15382   1.118   4.228   4.328 -0.4944  0.6544  0.0395
 1308SOL    HW115383   1.048   4.278   4.286 -1.2700 -0.8961 -0.5133
 1308SOL    HW215384   1.188   4.292   4.338 -1.1373  1.4234 -0.4269
 1309SOL     OW15385   3.476   2.919   2.680 -0.3838  0.1981 -0.2350
 1309SOL    HW115386   3.452   2.833   2.644  1.1268 -0.6689  0.8516
 1309SOL    HW215387   3.439   2.976   2.612  0.4276  0.8633 -0.1231
 1310SOL     OW15388   2.606   2.752   5.748  0.2070  0.2993 -0.3813
 1310SOL    HW115389   2.595   2.800   5.830  0.4877  0.6412 -0.5416
 1310SOL    HW215390   2.516   2.744   5.717  0.7060 -1.1642 -1.4186
 1311SOL     OW15391   2.807   1.010  15.214 -0.0496 -0.5622 -0.0330
 1311SOL    HW115392   2.823   1.015  15.120  1.1735 -0.6436  0.1639
 1311SOL    HW215393   2.878   1.066  15.246 -1.3661  0.7139  0.6084
 1312SOL     OW15394   2.085   0.763   8.848  0.0231 -0.1183  0.5504
 1312SOL    HW115395   2.131   0.840   8.815  0.8036 -0.6245  0.4786
 1312SOL    HW215396   2.094   0.706   8.772  0.8139  1.4885 -0.5590
 1313SOL     OW15397   3.143   2.160   6.308  0.2063  0.1818  0.1460
 1313SOL    HW115398   3.102   2.234   6.264  0.7518  0.5858  0.3131
 1313SOL    HW215399   3.211   2.148   6.241 -0.6914  1.4547 -0.9946
 1314SOL     OW15400   3.322   0.496  11.767 -0.2259 -0.9690  0.8083
 1314SOL    HW115401   3.319   0.407  11.732 -0.4581 -0.7705  0.3276
 1314SOL    HW215402   3.266   0.484  11.844  0.8558 -2.0411  1.4184
 1315SOL     OW15403   4.043   1.704  16.035 -0.3803  0.3222 -0.2430
 1315SOL    HW115404   3.991   1.642  16.086 -0.0527 -0.2977 -0.6571
 1315SOL    HW215405   4.130   1.665  16.042 -0.1093  0.7882 -1.0222
 1316SOL     OW15406   2.910   4.133   4.753 -0.0649 -0.0316 -0.5744
 1316SOL    HW115407   2.850   4.115   4.681 -0.8750 -0.0106  0.0973
 1316SOL    HW215408   2.985   4.159   4.699 -0.4833  4.4254  1.0600
 1317SOL     OW15409   0.202   3.091  12.905 -0.5221 -0.4576  0.3980
 1317SOL    HW115410   0.239   3.024  12.963 -0.8806  0.6942  1.9474
 1317SOL    HW215411   0.230   3.176  12.940  2.1801 -1.0971 -0.2108
 1318SOL     OW15412   1.304   3.001   4.981  0.2222 -0.5619  0.2711
 1318SOL    HW115413   1.306   2.907   4.996 -0.3953 -0.5692  0.2999
 1318SOL    HW215414   1.379   3.026   5.035  0.4792 -2.1339  0.6330
 1319SOL     OW15415   1.740   2.124   8.695  0.4543  0.0331  0.4516
 1319SOL    HW115416   1.648   2.100   8.707  0.9108 -1.1554  1.4318
 1319SOL    HW215417   1.754   2.186   8.767 -0.2008 -1.9830  2.3079
 1320SOL     OW15418   3.733   2.224   8.825 -0.0156 -0.7960 -0.1972
 1320SOL    HW115419   3.822   2.194   8.810  0.3783  0.0801  0.4605
 1320SOL    HW215420   3.741   2.303   8.878  0.9290 -0.7892 -0.3648
 1321SOL     OW15421   3.738   1.749   6.481  0.3384 -0.2536 -0.0083
 1321SOL    HW115422   3.658   1.719   6.437  1.8179 -0.5939 -2.4464
 1321SOL    HW215423   3.797   1.768   6.408  1.3357  2.4067  1.5027
 1322SOL     OW15424   3.158   0.785   8.903  0.3652  0.4081  0.1888
 1322SOL    HW115425   3.093   0.715   8.901 -0.6712  1.3981 -0.6355
 1322SOL    HW215426   3.123   0.853   8.961 -1.1898 -0.2041 -0.0331
 1323SOL     OW15427   0.530   1.244   6.784 -0.3662 -0.0122  0.3684
 1323SOL    HW115428   0.598   1.177   6.789  0.2089  0.6311  1.1981
 1323SOL    HW215429   0.524   1.251   6.689 -0.2218  0.5552  0.4012
 1324SOL     OW15430   1.641   4.228   3.345 -0.4444 -0.6069  0.2628
 1324SOL    HW115431   1.583   4.304   3.338  1.5551  0.7487 -1.5616
 1324SOL    HW215432   1.588   4.149   3.351 -2.4541  0.8853  1.9602
 1325SOL     OW15433   2.969   1.620   1.184 -0.5862  0.1503 -0.0479
 1325SOL    HW115434   2.971   1.639   1.090 -0.5231 -2.0371 -0.4994
 1325SOL    HW215435   2.903   1.684   1.207 -0.5508 -0.2740  1.2254
 1326SOL     OW15436   2.243   4.683   3.242  0.0524 -0.5239  0.2008
 1326SOL    HW115437   2.199   4.682   3.327 -0.3815 -0.4784 -0.0174
 1326SOL    HW215438   2.278   0.046   3.240 -0.5841 -0.2058  3.0081
 1327SOL     OW15439   0.960   1.879   8.113 -0.0211  0.3216 -0.8340
 1327SOL    HW115440   0.921   1.919   8.191  1.2113  1.3521 -0.7557
 1327SOL    HW215441   1.051   1.906   8.121  0.3928 -1.4074  0.2674
 1328SOL     OW15442   3.801   3.088   5.651 -0.0545 -0.4221  0.3170
 1328SOL    HW115443   3.713   3.120   5.630 -0.5077 -0.5681  2.0622
 1328SOL    HW215444   3.787   2.995   5.637 -0.5566 -0.1521 -1.0643
 1329SOL     OW15445   3.234   1.670  12.780 -0.4233 -0.6167 -0.3118
 1329SOL    HW115446   3.206   1.596  12.835 -0.2012 -0.2737  0.2551
 1329SOL    HW215447   3.264   1.612  12.709 -1.5416 -1.8292  0.1988
 1330SOL     OW15448   3.382   1.129   9.611  0.9802 -0.4811 -0.0942
 1330SOL    HW115449   3.449   1.128   9.679  1.7237 -0.9058 -0.8305
 1330SOL    HW215450   3.395   1.211   9.565  0.2693 -0.8635 -0.9943
 1331SOL     OW15451   3.507   1.714  10.277  0.0068  0.4559 -0.4276
 1331SOL    HW115452   3.448   1.756  10.215  0.5774  2.5837  0.4818
 1331SOL    HW215453   3.540   1.791  10.323 -0.4687 -1.0355  2.3811
 1332SOL     OW15454   3.087   2.444  14.098  0.1400 -0.3581  0.1821
 1332SOL    HW115455   3.104   2.452  14.192 -0.5068 -0.9766  0.3511
 1332SOL    HW215456   3.015   2.381  14.097  1.1438 -1.4887 -0.8251
 1333SOL     OW15457   1.336   2.070  14.406 -0.6357  0.3411  0.2401
 1333SOL    HW115458   1.376   2.144  14.363 -0.3454 -1.6521 -2.9078
 1333SOL    HW215459   1.244   2.092  14.390 -0.9214  0.6971  2.3531
 1334SOL     OW15460   3.696   1.606   6.932  0.1871 -0.0606 -0.4818
 1334SOL    HW115461   3.772   1.602   6.875  0.4790 -1.2386 -0.0050
 1334SOL    HW215462   3.629   1.647   6.876 -0.2434 -0.4904 -0.2806
 1335SOL     OW15463   0.818   0.706   1.911  0.2482 -0.2220 -0.0729
 1335SOL    HW115464   0.872   0.782   1.889  1.3097 -1.3217 -1.2414
 1335SOL    HW215465   0.742   0.723   1.856  0.2465  0.8979  0.2775
 1336SOL     OW15466   0.552   0.447   2.468  0.1807  0.9084 -0.6038
 1336SOL    HW115467   0.530   0.473   2.379 -0.5057 -0.2953 -0.7812
 1336SOL    HW215468   0.498   0.374   2.497  0.8367  0.7387  0.2011
 1337SOL     OW15469   2.883   4.130   7.370  0.2248  0.1612  0.0376
 1337SOL    HW115470   2.823   4.200   7.397  2.4633  1.9991  0.3216
 1337SOL    HW215471   2.887   4.160   7.280  0.5712 -2.4652 -0.8072
 1338SOL     OW15472   3.561   3.141   5.564 -0.2423  0.8455  0.2774
 1338SOL    HW115473   3.559   3.088   5.485  0.2543 -0.1596  0.9440
 1338SOL    HW215474   3.494   3.097   5.617  0.1121  1.0216  0.8743
 1339SOL     OW15475   4.021   2.459   2.448  0.2835 -0.1019  0.1655
 1339SOL    HW115476   4.033   2.545   2.407  1.4953 -0.1933  0.3185
 1339SOL    HW215477   4.003   2.483   2.539 -0.7787  1.8936 -0.5676
 1340SOL     OW15478   1.176   2.059  17.268  0.1070 -0.5942 -0.0898
 1340SOL    HW115479   1.155   2.117  17.341 -2.5015 -2.0410  0.2804
 1340SOL    HW215480   1.211   2.125  17.208  0.3372  0.3521  1.0944
 1341SOL     OW15481   1.370   2.758  12.856 -0.3345 -0.0338 -0.0620
 1341SOL    HW115482   1.409   2.720  12.777 -1.7517 -0.3800 -0.5963
 1341SOL    HW215483   1.283   2.781  12.825 -0.0945  1.6514  0.5399
 1342SOL     OW15484   0.975   1.920  14.572  0.4100 -0.5057  0.3691
 1342SOL    HW115485   0.895   1.894  14.526 -0.0661 -1.0674  1.5191
 1342SOL    HW215486   1.002   2.001  14.530  0.6388 -1.2387 -0.9045
 1343SOL     OW15487   1.948   2.714   4.125 -0.1382 -0.1389 -0.9134
 1343SOL    HW115488   2.009   2.750   4.061  1.9884  0.3924  1.4417
 1343SOL    HW215489   1.878   2.773   4.097 -0.2234  0.0139 -0.3793
 1344SOL     OW15490   0.345   2.007   6.853  0.3421  0.0972 -0.0701
 1344SOL    HW115491   0.360   1.919   6.819 -0.5438 -0.5241  1.1613
 1344SOL    HW215492   0.434   2.029   6.879 -1.3109  1.3410  4.5264
 1345SOL     OW15493   1.560   3.214  11.837 -0.1037 -0.1058  0.0273
 1345SOL    HW115494   1.649   3.222  11.803 -1.0877  0.8887 -2.3567
 1345SOL    HW215495   1.581   3.235  11.928 -2.1043 -0.4325  0.5516
 1346SOL     OW15496   0.260   1.639   6.369  0.1141  0.5145  0.0824
 1346SOL    HW115497   0.316   1.562   6.379  1.0292  1.3046  0.9496
 1346SOL    HW215498   0.220   1.639   6.456  0.9862  3.7719  0.4537
 1347SOL     OW15499   4.221   0.675   5.530  0.5855 -0.0857 -0.3138
 1347SOL    HW115500   4.284   0.602   5.534  0.6928 -0.1166 -2.3057
 1347SOL    HW215501   4.273   0.748   5.562  0.1715 -1.3405  3.2535
 1348SOL     OW15502   0.755   4.105   2.495 -0.3404  0.4881  1.0271
 1348SOL    HW115503   0.837   4.056   2.506 -0.1951  0.2333 -1.1817
 1348SOL    HW215504   0.793   4.192   2.483  0.4525 -0.0010 -0.0240
 1349SOL     OW15505   4.490   2.968   5.166  0.8239 -0.1324  0.3221
 1349SOL    HW115506   4.486   3.061   5.143 -1.4420 -0.5060 -0.8388
 1349SOL    HW215507   4.585   2.960   5.174  0.5794 -0.9049  2.4044
 1350SOL     OW15508   2.306   3.019   6.664  0.0358 -0.4957 -0.3476
 1350SOL    HW115509   2.221   2.995   6.627  0.5415 -1.0729 -1.1647
 1350SOL    HW215510   2.284   3.076   6.737 -1.3105 -0.4276 -0.8010
 1351SOL     OW15511   0.480   1.155   5.580  0.3751 -0.0970 -0.0017
 1351SOL    HW115512   0.508   1.146   5.489  3.1907 -4.4548  1.2843
 1351SOL    HW215513   0.460   1.248   5.580 -1.3585 -0.4785 -0.3570
 1352SOL     OW15514   2.335   3.498   3.105 -0.0884 -0.0773  0.2461
 1352SOL    HW115515   2.403   3.551   3.146 -0.1549 -1.4824  2.1600
 1352SOL    HW215516   2.357   3.486   3.012 -0.0232  0.8147  0.1418
 1353SOL     OW15517   0.285   0.924   8.259 -0.2008 -0.0395 -0.3570
 1353SOL    HW115518   0.293   0.892   8.349 -0.4401 -1.1258 -0.7138
 1353SOL    HW215519   0.241   0.846   8.224  0.9007 -0.8843  0.1456
 1354SOL     OW15520   3.908   1.517   5.424 -0.3967 -0.2966 -0.0131
 1354SOL    HW115521   3.975   1.528   5.356  0.9017 -1.9582  1.0196
 1354SOL    HW215522   3.959   1.512   5.505 -0.2769  1.7680  0.0494
 1355SOL     OW15523   2.199   3.086  17.256 -0.1687  0.2898 -0.0831
 1355SOL    HW115524   2.208   3.181  17.257 -1.9995  0.4762 -2.3656
 1355SOL    HW215525   2.227   3.070  17.166 -0.8783 -2.5409  0.1841
 1356SOL     OW15526   4.247   2.381   7.904 -0.1436 -0.3441 -0.6565
 1356SOL    HW115527   4.285   2.377   7.992  1.3837  1.1744 -1.2413
 1356SOL    HW215528   4.260   2.290   7.878  1.5192 -0.4057  0.4004
 1357SOL     OW15529   1.220   3.863   3.153 -0.1785  0.1188  0.6874
 1357SOL    HW115530   1.181   3.841   3.238  0.1216 -2.4039  0.1741
 1357SOL    HW215531   1.286   3.797   3.135  1.2974  1.4480  1.3008
 1358SOL     OW15532   2.560   1.878  15.415  0.1132  0.6442  0.3993
 1358SOL    HW115533   2.616   1.828  15.355 -1.2136  2.5523 -2.4573
 1358SOL    HW215534   2.471   1.852  15.391 -0.7720  1.8399  2.4600
 1359SOL     OW15535   4.575   0.292   6.534 -0.6219 -0.2751  0.6624
 1359SOL    HW115536   4.485   0.266   6.514 -0.6249  0.1187  0.1790
 1359SOL    HW215537   4.568   0.312   6.627 -0.3726 -2.5870  1.1932
 1360SOL     OW15538   0.162   2.415   2.763 -0.4590 -0.0651  0.7567
 1360SOL    HW115539   0.180   2.433   2.855 -2.8713  0.5611  1.0944
 1360SOL    HW215540   0.071   2.389   2.775 -1.1744  0.9694 -2.4578
 1361SOL     OW15541   4.500   1.737   7.522  0.3462  0.0286  0.1273
 1361SOL    HW115542   4.587   1.754   7.484  1.3327 -1.6427  1.6084
 1361SOL    HW215543   4.451   1.699   7.450 -1.2446  1.6000  0.3873
 1362SOL     OW15544   0.766   3.893   0.713 -0.0001 -0.2631 -0.1601
 1362SOL    HW115545   0.857   3.914   0.689 -0.3572  1.3645 -0.0485
 1362SOL    HW215546   0.720   3.896   0.630 -0.6623  0.3672  0.2395
 1363SOL     OW15547   1.067   2.087  14.875 -0.1929  0.2250  0.2240
 1363SOL    HW115548   1.034   2.043  14.796 -0.3326 -0.0361  0.4293
 1363SOL    HW215549   0.989   2.122  14.919  0.5310 -0.1172  1.7539
 1364SOL     OW15550   3.075   2.705   6.649 -0.2665  1.0076 -0.0547
 1364SOL    HW115551   3.071   2.800   6.642  1.3287  1.1565  0.9827
 1364SOL    HW215552   3.014   2.690   6.577 -0.5972 -0.4331  0.5201
 1365SOL     OW15553   4.564   0.705   8.602  0.2506 -0.1975  0.2294
 1365SOL    HW115554   4.602   0.717   8.515  0.5739 -2.0603  0.1025
 1365SOL    HW215555   4.479   0.666   8.585  0.4733 -1.0700  1.0626
 1366SOL     OW15556   3.433   1.707   0.207  0.3289  0.6210 -0.0915
 1366SOL    HW115557   3.482   1.746   0.136  2.3034 -1.7277 -0.0282
 1366SOL    HW215558   3.434   1.783   0.266 -4.4165  0.6090 -0.0151
 1367SOL     OW15559   4.711   2.201   3.182 -0.4377 -0.2267 -0.3681
 1367SOL    HW115560   4.701   2.130   3.119 -1.6982 -0.6741  0.3270
 1367SOL    HW215561   0.050   2.163   3.241 -0.2026 -1.4581 -1.4309
 1368SOL     OW15562   4.114   0.400  17.002  0.7237  0.4493 -0.0065
 1368SOL    HW115563   4.198   0.370  16.967  0.8120  0.5852  0.0874
 1368SOL    HW215564   4.120   0.350  17.084  0.6182  1.5646  0.6838
 1369SOL     OW15565   0.217   1.814   8.029  0.9993  0.0998 -0.0136
 1369SOL    HW115566   0.210   1.718   8.036 -0.1792  0.2699  0.9207
 1369SOL    HW215567   0.158   1.831   7.955 -0.5931  2.9266  1.9373
 1370SOL     OW15568   2.980   4.479  13.348  0.5629  0.0211  0.3831
 1370SOL    HW115569   3.063   4.460  13.391  1.6804 -0.3322 -1.9148
 1370SOL    HW215570   2.934   4.396  13.358 -1.8056  1.5798  2.3714
 1371SOL     OW15571   0.119   3.713   4.379  0.1469 -0.4293  0.0213
 1371SOL    HW115572   0.057   3.777   4.415 -1.6150 -1.9553 -0.2848
 1371SOL    HW215573   0.072   3.683   4.301 -0.4031 -0.5519  0.4014
 1372SOL     OW15574   0.267   1.172   6.813 -0.7135  0.1201  0.2227
 1372SOL    HW115575   0.263   1.095   6.757 -0.9211  0.3144 -0.0274
 1372SOL    HW215576   0.349   1.216   6.789 -0.4607 -0.5547 -0.1438
 1373SOL     OW15577   4.091   1.415   5.066  0.0578  0.3495 -0.1809
 1373SOL    HW115578   4.034   1.370   5.128  0.9466 -0.1392  0.2765
 1373SOL    HW215579   4.035   1.450   4.996  1.8244  0.2771 -1.6233
 1374SOL     OW15580   4.257   1.585  11.752 -0.2637 -0.4370 -0.2962
 1374SOL    HW115581   4.259   1.518  11.684  1.2794  1.0022 -1.6703
 1374SOL    HW215582   4.162   1.596  11.752 -0.1940  0.1680  0.8371
 1375SOL     OW15583   3.400   2.873  11.870  0.1928  0.0760  0.5702
 1375SOL    HW115584   3.437   2.867  11.958  1.0891 -1.1959  0.1113
 1375SOL    HW215585   3.416   2.967  11.866  3.8949 -0.6863 -2.3233
 1376SOL     OW15586   1.044   3.446   2.169  0.1084 -0.4663  0.1174
 1376SOL    HW115587   1.033   3.533   2.208  2.4652 -0.6486  1.1675
 1376SOL    HW215588   1.097   3.445   2.090 -0.9214  0.1564 -0.5777
 1377SOL     OW15589   3.108   1.240   5.753  0.4228  0.4810  0.2628
 1377SOL    HW115590   3.182   1.190   5.718  0.2280  1.7582 -1.9847
 1377SOL    HW215591   3.039   1.184   5.718  1.2574 -0.4290  0.0918
 1378SOL     OW15592   1.934   3.170  12.082 -0.4090 -0.4373  0.1719
 1378SOL    HW115593   1.967   3.084  12.109  0.2239 -0.0328  0.6921
 1378SOL    HW215594   1.950   3.164  11.988  1.1682  1.3099  0.3444
 1379SOL     OW15595   3.899   1.423   7.365 -0.2525 -0.1170  0.1110
 1379SOL    HW115596   3.926   1.476   7.440 -3.1582  0.5375  0.6882
 1379SOL    HW215597   3.808   1.396   7.376 -0.1445 -0.7372 -0.5317
 1380SOL     OW15598   2.426   2.165  15.245 -0.3125 -0.1971  0.8056
 1380SOL    HW115599   2.393   2.090  15.196 -0.5638  1.0906 -1.0033
 1380SOL    HW215600   2.349   2.192  15.295 -0.5407  0.6848 -0.0373
 1381SOL     OW15601   1.253   0.810   1.619 -0.3283 -0.0738  0.4674
 1381SOL    HW115602   1.275   0.903   1.612  0.8096 -0.2306  1.9210
 1381SOL    HW215603   1.183   0.817   1.684 -0.2199 -0.3023  0.6072
 1382SOL     OW15604   4.025   2.433   4.127 -0.0916  0.4930  0.1496
 1382SOL    HW115605   3.983   2.517   4.110  2.1979  1.7429  0.6702
 1382SOL    HW215606   4.058   2.449   4.216  0.1269  0.4199  0.0809
 1383SOL     OW15607   1.249   1.554  11.891  0.1340  0.2121  0.4250
 1383SOL    HW115608   1.320   1.590  11.945 -1.0047  1.4313  1.1027
 1383SOL    HW215609   1.190   1.628  11.881  1.4084  1.1258 -0.3789
 1384SOL     OW15610   2.386   1.950  16.770  0.6260 -0.2025  0.4269
 1384SOL    HW115611   2.443   1.989  16.837  1.3264 -0.7253  0.1411
 1384SOL    HW215612   2.443   1.886  16.728  0.7524 -0.8082  1.5161
 1385SOL     OW15613   0.272   0.180   8.129  0.0390  0.2192 -0.3627
 1385SOL    HW115614   0.365   0.181   8.107  0.8298  1.3026  2.9758
 1385SOL    HW215615   0.261   0.102   8.184 -1.5761 -0.5868 -1.8268
 1386SOL     OW15616   3.961   1.401   0.795 -0.3847 -0.1930 -0.0334
 1386SOL    HW115617   3.949   1.424   0.887 -1.5333 -0.3999 -0.1295
 1386SOL    HW215618   4.046   1.441   0.778  0.8883 -2.4241  1.1194
 1387SOL     OW15619   3.503   1.221   0.978  1.3213  0.5893 -0.0699
 1387SOL    HW115620   3.423   1.172   0.999  0.9624  1.4354  0.5457
 1387SOL    HW215621   3.552   1.152   0.933 -0.0360 -0.6924  0.4024
 1388SOL     OW15622   1.134   1.681   1.289 -0.0147  0.1761  0.0727
 1388SOL    HW115623   1.104   1.702   1.378  0.6166 -1.1913  0.6065
 1388SOL    HW215624   1.214   1.734   1.287 -0.1625  0.3896 -0.2289
 1389SOL     OW15625   0.149   3.490   5.002  0.0085 -0.1261  0.3011
 1389SOL    HW115626   0.199   3.489   4.921  3.0478 -1.2391  2.2172
 1389SOL    HW215627   0.096   3.410   5.007 -2.0296  1.3557  2.6317
 1390SOL     OW15628   2.372   1.320   3.762 -0.4158 -0.1839 -0.5641
 1390SOL    HW115629   2.390   1.408   3.796  2.1928 -0.4038 -1.4006
 1390SOL    HW215630   2.448   1.316   3.704 -0.8996  0.5589 -1.2439
 1391SOL     OW15631   1.158   0.770   1.178 -0.0266 -0.1163  0.0617
 1391SOL    HW115632   1.160   0.853   1.131  1.1606  0.0715  0.4215
 1391SOL    HW215633   1.077   0.725   1.158 -0.0345 -0.2908  0.4827
 1392SOL     OW15634   2.572   2.943  14.932  0.0888  0.2986 -0.7166
 1392SOL    HW115635   2.577   2.966  15.025 -0.5899  0.6095 -0.7549
 1392SOL    HW215636   2.623   2.862  14.935 -0.4112  0.0358  0.5475
 1393SOL     OW15637   0.423   2.894  15.421  0.1355  0.6357 -0.2759
 1393SOL    HW115638   0.403   2.859  15.334 -0.3911 -0.2644  0.2076
 1393SOL    HW215639   0.350   2.955  15.424 -0.3817  0.0361 -0.7054
 1394SOL     OW15640   2.557   3.838   7.346 -0.4854  0.0865 -0.6418
 1394SOL    HW115641   2.609   3.759   7.358 -0.4776 -0.1795 -2.5769
 1394SOL    HW215642   2.558   3.885   7.430  1.0053  1.5971 -1.5049
 1395SOL     OW15643   1.756   3.370  17.124 -0.3865 -0.6862 -0.0971
 1395SOL    HW115644   1.665   3.397  17.125 -0.5585 -1.1730 -1.8705
 1395SOL    HW215645   1.766   3.325  17.208 -0.9676 -0.3157  0.1683
 1396SOL     OW15646   4.640   3.232   2.373  0.7060  0.1153  0.3649
 1396SOL    HW115647   4.696   3.298   2.413  1.6291 -0.2494 -0.3349
 1396SOL    HW215648   4.572   3.282   2.328 -1.4070 -2.2889  0.9298
 1397SOL     OW15649   3.246   4.590   5.516  0.2818 -0.3907 -0.2205
 1397SOL    HW115650   3.246   4.567   5.423 -3.2249 -0.6892 -0.1392
 1397SOL    HW215651   3.153   4.608   5.532  0.6362  0.8212  0.4748
 1398SOL     OW15652   4.483   2.025   5.941  0.3128  0.2010  0.2350
 1398SOL    HW115653   4.542   1.967   5.989  0.0195 -0.8532 -0.6704
 1398SOL    HW215654   4.552   2.077   5.900 -0.1776  2.4936  2.3303
 1399SOL     OW15655   2.445   0.872   6.000 -0.4607  0.4687 -0.2352
 1399SOL    HW115656   2.455   0.777   5.986 -1.4551  0.4018 -0.5012
 1399SOL    HW215657   2.536   0.902   6.003 -1.0492  2.2601 -0.5334
 1400SOL     OW15658   3.355   3.610   3.736 -0.3089  0.1195  0.0837
 1400SOL    HW115659   3.275   3.646   3.777 -0.0891 -0.4573  1.0377
 1400SOL    HW215660   3.394   3.690   3.701  1.9621  0.3775  3.2621
 1401SOL     OW15661   0.672   2.640  15.194 -0.5049  0.4329  0.4367
 1401SOL    HW115662   0.718   2.709  15.242  1.1973  0.2871 -0.9848
 1401SOL    HW215663   0.735   2.569  15.208  0.9228  1.8680  1.3471
 1402SOL     OW15664   2.387   1.121  14.232  0.4470 -0.2821 -0.1218
 1402SOL    HW115665   2.345   1.180  14.169 -0.8522 -0.6134  0.4190
 1402SOL    HW215666   2.313   1.063  14.249  0.4957 -0.4483 -0.4915
 1403SOL     OW15667   4.486   1.886   4.692  0.2478  0.4685 -0.3859
 1403SOL    HW115668   4.523   1.827   4.758  0.2938  0.8266 -0.0905
 1403SOL    HW215669   4.400   1.911   4.726 -0.3199 -0.5537 -1.0796
 1404SOL     OW15670   2.722   3.163   5.389  0.0395 -0.5109  0.7750
 1404SOL    HW115671   2.766   3.155   5.474  2.0052 -3.0680 -0.4643
 1404SOL    HW215672   2.678   3.247   5.399  2.3961  0.7373  0.6486
 1405SOL     OW15673   3.550   1.458   8.471 -0.0784  0.3363  0.7128
 1405SOL    HW115674   3.466   1.412   8.474 -0.1989  0.4631 -0.6685
 1405SOL    HW215675   3.579   1.478   8.382 -2.1668  0.7740  0.1081
 1406SOL     OW15676   3.407   3.180   3.696  0.7638 -0.0874 -0.3467
 1406SOL    HW115677   3.396   3.221   3.610 -0.2215  1.6562  0.5993
 1406SOL    HW215678   3.363   3.095   3.695 -0.4382  0.5517 -2.4345
 1407SOL     OW15679   0.562   2.302  13.671 -0.6468 -0.1834  0.3499
 1407SOL    HW115680   0.637   2.245  13.689 -0.3272 -0.2795 -1.2582
 1407SOL    HW215681   0.601   2.387  13.649  0.8261 -1.0927 -0.5533
 1408SOL     OW15682   4.683   0.112   2.482 -0.8060  0.1440  0.5342
 1408SOL    HW115683   0.023   0.142   2.419 -1.3902 -2.2879 -1.2396
 1408SOL    HW215684   0.007   0.111   2.564 -1.6347  1.7746  1.0470
 1409SOL     OW15685   3.465   2.164   7.700 -0.4923  0.3364  0.1200
 1409SOL    HW115686   3.456   2.086   7.755 -1.2608  0.4828  0.1996
 1409SOL    HW215687   3.397   2.215   7.743 -0.4331  1.3274 -0.9791
 1410SOL     OW15688   0.781   0.730   4.241 -0.2678 -0.7062 -0.8816
 1410SOL    HW115689   0.843   0.799   4.216 -0.2029 -0.9044 -1.2541
 1410SOL    HW215690   0.818   0.654   4.196  0.6018 -1.8300  1.7513
 1411SOL     OW15691   1.554   3.024   5.161 -0.0329  0.6657  0.3171
 1411SOL    HW115692   1.516   2.945   5.200 -1.0274  0.0216 -1.9522
 1411SOL    HW215693   1.647   3.025   5.183  0.2366  1.7616 -0.9085
 1412SOL     OW15694   1.295   3.220   0.783  0.0960 -0.0992 -0.2260
 1412SOL    HW115695   1.254   3.190   0.864  1.0148 -1.8169 -0.4095
 1412SOL    HW215696   1.211   3.226   0.736 -0.2406  2.2984  0.6751
 1413SOL     OW15697   4.199   2.633   0.490 -0.2404 -0.3451 -0.0041
 1413SOL    HW115698   4.145   2.693   0.438 -0.2013 -0.2727  0.0400
 1413SOL    HW215699   4.290   2.649   0.466 -0.4495 -2.1918 -2.0451
 1414SOL     OW15700   1.943   0.132   1.129 -0.2854 -0.1563 -0.0787
 1414SOL    HW115701   1.999   0.090   1.064 -1.3209  0.5043 -1.3944
 1414SOL    HW215702   1.870   0.158   1.072  0.3836  0.2633 -0.7349
 1415SOL     OW15703   4.619   2.848   6.692 -0.3725 -0.1183 -0.0057
 1415SOL    HW115704   4.582   2.760   6.685 -1.1834  0.1355  1.1307
 1415SOL    HW215705   4.695   2.833   6.749 -0.6218 -0.6021  0.1990
 1416SOL     OW15706   2.387   1.650   5.709 -0.2480 -0.1528  0.2381
 1416SOL    HW115707   2.334   1.571   5.718  0.3250 -0.6104 -0.4407
 1416SOL    HW215708   2.437   1.631   5.630 -1.3209 -1.1516 -0.2000
 1417SOL     OW15709   2.773   4.378   4.056  0.2056  0.3270  0.3449
 1417SOL    HW115710   2.740   4.360   3.967 -0.4867 -1.2168  0.9205
 1417SOL    HW215711   2.805   4.468   4.056 -1.0026  0.7562 -0.6868
 1418SOL     OW15712   1.234   2.366   4.459  0.5825 -0.5850  0.3369
 1418SOL    HW115713   1.166   2.299   4.459  0.2658 -0.2611 -0.2075
 1418SOL    HW215714   1.204   2.418   4.534  0.8144 -0.1920  0.1562
 1419SOL     OW15715   1.119   1.816   4.337 -0.1881  0.2168  0.6576
 1419SOL    HW115716   1.155   1.735   4.301  1.6358  1.4064 -0.1846
 1419SOL    HW215717   1.056   1.779   4.399  1.1966 -1.1317  1.2458
 1420SOL     OW15718   0.637   2.803   8.333  0.0900  0.7178 -0.6106
 1420SOL    HW115719   0.675   2.740   8.395 -1.5252  0.3746  0.0429
 1420SOL    HW215720   0.571   2.849   8.385  0.5112  1.9142 -1.1333
 1421SOL     OW15721   3.181   4.703   7.603  0.3069  0.1132  0.2631
 1421SOL    HW115722   3.141   0.058   7.572  0.7448  0.3948  0.4300
 1421SOL    HW215723   3.176   4.706   7.698  1.6387 -2.1374  0.4235
 1422SOL     OW15724   3.676   3.897   0.395 -0.2509 -0.3535  0.1225
 1422SOL    HW115725   3.589   3.860   0.408 -0.6208  1.2459  2.0549
 1422SOL    HW215726   3.714   3.819   0.353 -1.1288 -1.4170  1.3086
 1423SOL     OW15727   1.602   4.550   5.570  0.3324 -0.5401  0.0943
 1423SOL    HW115728   1.689   4.572   5.538  0.2448  0.2388  0.3936
 1423SOL    HW215729   1.564   4.539   5.484  0.2090  0.0381  0.0753
 1424SOL     OW15730   0.860   1.223   3.839  0.5056 -0.1029  0.1164
 1424SOL    HW115731   0.941   1.230   3.788 -0.0720 -0.3832 -0.8364
 1424SOL    HW215732   0.864   1.128   3.848 -0.4843 -0.0369  1.2445
 1425SOL     OW15733   1.537   3.296   8.272  0.1179 -0.4932  0.2408
 1425SOL    HW115734   1.588   3.215   8.278 -2.1177 -1.8217  1.4867
 1425SOL    HW215735   1.510   3.302   8.364 -2.2955  2.2997 -0.6545
 1426SOL     OW15736   1.312   2.158   8.656  0.3991 -0.4493  0.4600
 1426SOL    HW115737   1.289   2.087   8.596  0.0721 -0.6654  0.8397
 1426SOL    HW215738   1.248   2.228   8.640  2.8596  1.8512  0.6437
 1427SOL     OW15739   0.430   4.458   0.765 -0.1967 -0.0265  0.0399
 1427SOL    HW115740   0.478   4.504   0.833  0.3798 -0.9494  0.2677
 1427SOL    HW215741   0.494   4.392   0.734  1.9029  1.8736  0.3340
 1428SOL     OW15742   2.930   2.876  11.132  0.0794 -0.4499 -0.3902
 1428SOL    HW115743   2.981   2.816  11.187  0.6599  1.9834  1.7643
 1428SOL    HW215744   2.865   2.909  11.195 -1.8056 -1.4561 -1.8333
 1429SOL     OW15745   2.275   3.768  17.250 -0.2129 -0.3890  0.1125
 1429SOL    HW115746   2.350   3.709  17.239 -0.7122 -1.3729  2.0023
 1429SOL    HW215747   2.299   3.798  17.338 -0.3789 -0.9446  0.3480
 1430SOL     OW15748   3.381   1.713   6.661 -0.4416  0.0391  0.2100
 1430SOL    HW115749   3.296   1.670   6.658 -0.0271 -0.8558  1.3850
 1430SOL    HW215750   3.376   1.767   6.740 -0.5190 -0.0841  0.2871
 1431SOL     OW15751   0.673   3.381  13.817  0.3948 -0.0788  0.2070
 1431SOL    HW115752   0.759   3.413  13.789 -0.5304  1.5299 -0.7622
 1431SOL    HW215753   0.644   3.462  13.859  1.4276 -0.3539  1.4487
 1432SOL     OW15754   4.558   1.696   2.336  0.2031  0.6797  0.0225
 1432SOL    HW115755   4.634   1.735   2.380 -0.3020  0.9172  0.6703
 1432SOL    HW215756   4.539   1.637   2.409  0.1229  0.2668 -0.3320
 1433SOL     OW15757   1.102   4.194   2.844  0.4717 -0.9087 -0.4264
 1433SOL    HW115758   1.060   4.205   2.759  0.2636 -2.4491 -0.5281
 1433SOL    HW215759   1.126   4.101   2.842  0.3981 -0.9184 -0.8964
 1434SOL     OW15760   2.566   0.468   4.896  0.1255  0.1194 -0.0880
 1434SOL    HW115761   2.596   0.421   4.974 -0.3429  1.2063  0.7432
 1434SOL    HW215762   2.570   0.558   4.927  0.7034  0.3071 -0.7149
 1435SOL     OW15763   4.253   3.359  16.367  0.3682  0.5322 -0.0490
 1435SOL    HW115764   4.186   3.290  16.370 -0.6770  1.4761 -1.3479
 1435SOL    HW215765   4.323   3.299  16.341  1.7642  1.9871  0.4023
 1436SOL     OW15766   1.818   4.693  13.469  0.1184  0.4576  0.3650
 1436SOL    HW115767   1.878   0.018  13.415 -0.0002 -0.0360 -0.2366
 1436SOL    HW215768   1.883   4.640  13.516 -1.3786 -1.0095  0.8025
 1437SOL     OW15769   2.767   3.248   7.471  0.0593  0.2260 -0.0909
 1437SOL    HW115770   2.802   3.232   7.559  0.7051 -2.0238 -0.7662
 1437SOL    HW215771   2.677   3.263   7.499 -0.1007 -1.0470  0.1095
 1438SOL     OW15772   3.826   2.983  14.068 -0.1573  0.3039  0.7987
 1438SOL    HW115773   3.899   3.011  14.012  0.0190 -0.5434  0.6069
 1438SOL    HW215774   3.866   2.908  14.112 -0.5668 -0.1174  0.4499
 1439SOL     OW15775   2.734   1.088   1.034 -0.1054 -0.1138 -0.1157
 1439SOL    HW115776   2.762   1.014   1.088 -0.6444 -0.9066 -0.9262
 1439SOL    HW215777   2.707   1.147   1.104 -1.1212 -0.3371 -0.3298
 1440SOL     OW15778   1.661   3.276   6.105  0.0069 -0.3977 -0.4692
 1440SOL    HW115779   1.607   3.243   6.177 -0.7396 -0.8759 -1.2428
 1440SOL    HW215780   1.611   3.228   6.039  0.2837 -1.2047 -0.0870
 1441SOL     OW15781   3.993   2.233  16.746  1.2480  0.2939  0.3908
 1441SOL    HW115782   4.065   2.280  16.703 -0.6975  2.5003 -0.4420
 1441SOL    HW215783   4.030   2.146  16.737 -0.0304 -0.1372 -0.5924
 1442SOL     OW15784   1.427   3.549   5.465  0.2925 -1.2803 -0.5498
 1442SOL    HW115785   1.497   3.601   5.504 -1.1871  0.2934 -0.0114
 1442SOL    HW215786   1.464   3.467   5.432  2.2186 -0.8381  0.4735
 1443SOL     OW15787   3.889   2.010   1.888 -0.2319  0.1128  0.3382
 1443SOL    HW115788   3.942   2.086   1.916  0.4883 -1.0670  2.1663
 1443SOL    HW215789   3.953   1.956   1.840 -0.9796 -0.2512 -0.2529
 1444SOL     OW15790   2.332   2.932   2.922  0.0762 -0.2117 -0.5098
 1444SOL    HW115791   2.375   2.848   2.941 -2.0909 -1.2260 -0.0085
 1444SOL    HW215792   2.246   2.896   2.901  0.1880 -1.8140  1.7228
 1445SOL     OW15793   1.641   4.608   4.744  0.0511  0.1410  0.0038
 1445SOL    HW115794   1.592   4.526   4.745  0.4077 -0.0377  1.8800
 1445SOL    HW215795   1.629   4.643   4.833 -2.3638 -0.0720 -0.2401
 1446SOL     OW15796   1.738   3.296   5.633  0.7943 -0.1305 -0.1151
 1446SOL    HW115797   1.678   3.236   5.588  2.3041 -1.8229  0.1595
 1446SOL    HW215798   1.680   3.324   5.704 -0.6196  0.0759 -1.3492
 1447SOL     OW15799   0.492   2.246  12.267 -1.0013  0.2737  0.0285
 1447SOL    HW115800   0.471   2.317  12.328  0.0035  1.9839 -1.5937
 1447SOL    HW215801   0.515   2.175  12.327 -1.5834  0.8669  0.9681
 1448SOL     OW15802   1.241   2.313   5.909 -0.2327 -0.1606 -0.4482
 1448SOL    HW115803   1.303   2.365   5.960 -3.2424  1.9720  1.0068
 1448SOL    HW215804   1.292   2.302   5.828 -0.5392  0.6642 -0.7480
 1449SOL     OW15805   1.265   3.564  13.822 -0.5555 -0.1482  0.2499
 1449SOL    HW115806   1.200   3.539  13.887 -0.2358  0.8155  0.9289
 1449SOL    HW215807   1.201   3.596  13.758  0.1541 -0.4886 -0.6428
 1450SOL     OW15808   0.038   1.806   5.366 -0.0933 -0.4323 -0.1249
 1450SOL    HW115809   4.703   1.770   5.429 -0.4180 -0.5728 -0.5172
 1450SOL    HW215810   0.108   1.831   5.426 -1.1031  3.8212 -0.7403
 1451SOL     OW15811   0.465   2.199   2.830 -0.3604  0.6045  0.6322
 1451SOL    HW115812   0.503   2.165   2.749 -1.7166 -1.1411  0.7271
 1451SOL    HW215813   0.474   2.293   2.814  1.3308  0.2096 -0.6894
 1452SOL     OW15814   1.300   4.562   7.774 -0.2185  0.4554  0.8485
 1452SOL    HW115815   1.248   4.502   7.721  1.8206  0.4950 -1.1993
 1452SOL    HW215816   1.352   4.499   7.824  0.0086  0.7637  0.9989
 1453SOL     OW15817   4.018   3.420  12.791 -0.1170 -0.2759  0.1987
 1453SOL    HW115818   4.079   3.437  12.719  0.7672 -1.9141  0.5726
 1453SOL    HW215819   4.073   3.362  12.844  0.6850  0.7809  0.5462
 1454SOL     OW15820   2.594   3.088  15.160 -0.6342 -0.3269 -0.4672
 1454SOL    HW115821   2.601   3.120  15.250 -0.6959  1.2150 -1.0204
 1454SOL    HW215822   2.674   3.119  15.119 -0.3308  0.9874  1.1558
 1455SOL     OW15823   3.977   4.601   2.733 -0.0187 -0.2063 -0.2523
 1455SOL    HW115824   3.910   4.631   2.671 -0.6194 -2.4365 -0.6653
 1455SOL    HW215825   4.001   4.685   2.773 -0.7805  0.7258 -1.7366
 1456SOL     OW15826   2.676   3.755   2.294 -0.3879  1.1675  0.1998
 1456SOL    HW115827   2.670   3.851   2.289  1.2511  1.2087 -1.0779
 1456SOL    HW215828   2.768   3.747   2.266 -0.0135  0.5761  1.6030
 1457SOL     OW15829   3.705   0.273   5.782 -0.5239  0.1125  0.8882
 1457SOL    HW115830   3.656   0.224   5.716  1.8537  0.6688 -1.2886
 1457SOL    HW215831   3.773   0.315   5.730  0.3057 -2.2365  0.0846
 1458SOL     OW15832   3.111   0.193   3.641  0.1432  0.8251 -0.3994
 1458SOL    HW115833   3.096   0.248   3.718  0.3692  2.3481 -1.4478
 1458SOL    HW215834   3.200   0.223   3.627  0.2659  0.7133  0.1550
 1459SOL     OW15835   2.089   4.195   3.988 -0.3681 -0.6926  0.5692
 1459SOL    HW115836   2.049   4.156   3.911  0.3044  0.1054 -0.1937
 1459SOL    HW215837   2.116   4.281   3.956 -2.0307 -1.2696 -2.3818
 1460SOL     OW15838   3.378   1.333   0.342 -0.2410  0.0407  0.1513
 1460SOL    HW115839   3.338   1.263   0.291  0.2209  0.7018 -1.1008
 1460SOL    HW215840   3.463   1.350   0.301 -0.4478 -2.4168 -1.2774
 1461SOL     OW15841   0.542   2.514  10.720  0.1112 -0.2004  0.0337
 1461SOL    HW115842   0.615   2.519  10.657 -1.8557  1.6371 -2.0943
 1461SOL    HW215843   0.547   2.427  10.760 -2.1287  0.5718  1.9539
 1462SOL     OW15844   0.952   0.871   8.993 -0.3558 -0.2058 -0.1425
 1462SOL    HW115845   1.016   0.941   8.980  0.1819 -0.7490 -0.4224
 1462SOL    HW215846   0.932   0.836   8.906 -1.4320 -0.5053  0.2206
 1463SOL     OW15847   3.953   0.319   9.371  0.8085  0.2032  0.0994
 1463SOL    HW115848   3.920   0.248   9.427  1.5114  0.7837  1.2406
 1463SOL    HW215849   3.883   0.378   9.398  0.6173 -0.4714  1.0941
 1464SOL     OW15850   1.377   3.094  12.809  0.2496  0.0361 -0.2290
 1464SOL    HW115851   1.362   3.093  12.714  1.6515  0.8010 -0.4693
 1464SOL    HW215852   1.338   3.179  12.832  1.2943  0.2680  0.6810
 1465SOL     OW15853   0.881   0.992   5.742 -0.0865 -0.1138  0.0690
 1465SOL    HW115854   0.899   1.079   5.777 -0.9576 -0.5043  1.4755
 1465SOL    HW215855   0.972   0.980   5.716  0.4271 -0.4853  2.0544
 1466SOL     OW15856   3.456   2.283   3.310  0.0059  0.4291  0.2906
 1466SOL    HW115857   3.470   2.200   3.265  1.5996 -0.2826  2.0741
 1466SOL    HW215858   3.455   2.246   3.398 -1.6530  0.3153  0.2130
 1467SOL     OW15859   3.118   0.731  12.421 -0.0277 -0.6060  0.0049
 1467SOL    HW115860   3.087   0.640  12.419 -0.6351 -0.4082  0.2901
 1467SOL    HW215861   3.171   0.728  12.341 -0.3489 -4.2271 -0.0804
 1468SOL     OW15862   4.030   1.182   5.632 -0.4389 -0.1968  0.0459
 1468SOL    HW115863   3.990   1.095   5.628  1.0774 -1.0329  3.1058
 1468SOL    HW215864   4.073   1.185   5.547 -1.1231  2.1993 -0.2103
 1469SOL     OW15865   1.984   0.786   7.226  0.1555  0.4858 -0.2442
 1469SOL    HW115866   2.077   0.767   7.217  0.5198  1.7815  0.7804
 1469SOL    HW215867   1.981   0.817   7.317 -0.3323 -0.0902 -0.0561
 1470SOL     OW15868   0.494   3.738  16.422 -0.4906 -0.4096  0.3450
 1470SOL    HW115869   0.578   3.782  16.428 -1.0795  0.9273 -0.9839
 1470SOL    HW215870   0.490   3.738  16.326 -0.6639  0.9378  0.3465
 1471SOL     OW15871   1.351   3.570   2.497 -0.0145 -0.0461  0.0403
 1471SOL    HW115872   1.429   3.586   2.444 -1.3350  4.4268 -0.5883
 1471SOL    HW215873   1.295   3.648   2.496  0.2675  0.1515 -0.5029
 1472SOL     OW15874   4.095   2.263  17.197 -0.9244 -0.1963  0.4012
 1472SOL    HW115875   4.022   2.263  17.135 -0.5564  0.7618 -0.0205
 1472SOL    HW215876   4.062   2.334  17.252 -1.6655  1.5968 -2.3729
 1473SOL     OW15877   1.314   1.686  17.286 -0.5874 -0.1230 -0.3160
 1473SOL    HW115878   1.285   1.728  17.205 -0.9968  0.4336  0.1236
 1473SOL    HW215879   1.245   1.619  17.294 -1.8546  1.5079  2.4037
 1474SOL     OW15880   4.124   1.464   5.634 -0.4240  0.1469 -0.6283
 1474SOL    HW115881   4.101   1.374   5.612  0.1269  0.0245 -0.7177
 1474SOL    HW215882   4.207   1.462   5.682 -0.2503  1.5266 -0.8724
 1475SOL     OW15883   1.600   1.703   5.786 -0.8043 -0.1488 -0.2268
 1475SOL    HW115884   1.583   1.736   5.875 -0.3789 -1.3849  0.3082
 1475SOL    HW215885   1.646   1.623   5.809 -1.7471 -0.4087  0.7430
 1476SOL     OW15886   3.885   4.510   4.140  0.6472 -0.1468  0.2978
 1476SOL    HW115887   3.897   4.548   4.053 -1.3162 -1.7659 -0.6859
 1476SOL    HW215888   3.834   4.582   4.177 -0.7951 -0.0951 -1.7639
 1477SOL     OW15889   3.234   0.755   9.593 -0.6609 -0.6240  0.2860
 1477SOL    HW115890   3.191   0.681   9.551 -0.5798 -0.3244 -0.3281
 1477SOL    HW215891   3.195   0.828   9.544  0.8750 -0.5960 -0.8816
 1478SOL     OW15892   0.418   2.591   3.403 -0.5464  0.2159 -0.4570
 1478SOL    HW115893   0.425   2.664   3.464  0.4522 -0.2980  0.0282
 1478SOL    HW215894   0.507   2.558   3.394 -1.1852 -1.6785  0.2820
 1479SOL     OW15895   3.734   1.118   5.645 -0.3711 -0.2999 -0.2095
 1479SOL    HW115896   3.771   1.033   5.669 -0.5960  0.1116  1.5763
 1479SOL    HW215897   3.660   1.093   5.590 -1.4357  1.0694  0.6074
 1480SOL     OW15898   1.177   0.126   4.535 -0.2637 -0.2538  0.0623
 1480SOL    HW115899   1.201   0.173   4.455  0.3155  0.0786  0.4300
 1480SOL    HW215900   1.254   0.071   4.541 -0.9255 -1.4414 -2.2247
 1481SOL     OW15901   0.974   1.184   4.823  0.1905 -0.5606 -0.1510
 1481SOL    HW115902   1.043   1.119   4.826  0.3863 -0.4181 -1.6173
 1481SOL    HW215903   1.019   1.267   4.808 -1.9778  0.5962 -0.3853
 1482SOL     OW15904   3.770   3.201  14.793 -0.8372 -0.0044  0.3093
 1482SOL    HW115905   3.727   3.278  14.757  1.7152  0.4636 -1.6955
 1482SOL    HW215906   3.861   3.227  14.779 -0.2411 -3.7303 -2.8616
 1483SOL     OW15907   1.782   2.407  16.415  0.0526 -0.3809 -0.3637
 1483SOL    HW115908   1.739   2.393  16.499  1.3543  2.6204  0.7815
 1483SOL    HW215909   1.813   2.318  16.397 -0.8642 -0.3923 -1.9339
 1484SOL     OW15910   2.019   1.059   2.081  0.2128 -0.4329 -0.0337
 1484SOL    HW115911   2.047   1.030   1.993 -0.3007  0.9716 -0.6508
 1484SOL    HW215912   1.948   1.119   2.058 -2.3488 -2.9389  1.3245
 1485SOL     OW15913   1.889   1.634  14.163 -0.4560  0.1881 -0.8536
 1485SOL    HW115914   1.929   1.553  14.195 -0.6992  0.4255  0.0530
 1485SOL    HW215915   1.907   1.627  14.069 -1.8683 -1.7153 -0.9867
 1486SOL     OW15916   1.949   2.521  15.513 -0.1527 -0.0658 -0.3008
 1486SOL    HW115917   1.963   2.429  15.538  1.5285 -0.0426 -1.1235
 1486SOL    HW215918   1.978   2.562  15.595 -0.7677  0.3110 -0.2715
 1487SOL     OW15919   2.276   3.296   8.539  0.0143  0.2690  0.2077
 1487SOL    HW115920   2.197   3.311   8.591 -1.3140  1.5680 -2.1813
 1487SOL    HW215921   2.248   3.307   8.448 -0.3092 -0.3856  0.2299
 1488SOL     OW15922   1.245   1.850  11.856 -0.3647  0.0781  0.3566
 1488SOL    HW115923   1.329   1.893  11.870 -0.2349  0.7514 -2.3478
 1488SOL    HW215924   1.194   1.901  11.919  0.5858  0.7788  0.5573
 1489SOL     OW15925   3.400   2.281   6.885  0.2248  0.7475 -0.6249
 1489SOL    HW115926   3.459   2.344   6.927  1.9251 -0.4051 -1.3020
 1489SOL    HW215927   3.398   2.213   6.952 -1.2837 -2.1246 -3.6039
 1490SOL     OW15928   4.201   1.313  16.548 -0.9309 -0.7205  0.1009
 1490SOL    HW115929   4.166   1.373  16.482  2.0569 -0.8557 -1.6181
 1490SOL    HW215930   4.172   1.350  16.631 -3.3984 -0.9579 -0.6566
 1491SOL     OW15931   0.612   2.387   5.915  0.6162 -0.8721  0.0219
 1491SOL    HW115932   0.530   2.360   5.874  1.8902 -0.3640 -2.8591
 1491SOL    HW215933   0.629   2.460   5.856 -1.0538  1.2026  2.1067
 1492SOL     OW15934   2.045   0.198   0.054  0.0264  0.2199  0.3189
 1492SOL    HW115935   2.072   0.289   0.061  1.8351 -0.2750 -0.2051
 1492SOL    HW215936   2.009   0.184  17.673 -0.5253  0.7382  0.4689
 1493SOL     OW15937   1.248   2.099   8.132  0.1399  0.2657  0.2452
 1493SOL    HW115938   1.236   2.128   8.042  1.7153  0.6480  0.1462
 1493SOL    HW215939   1.322   2.155   8.157 -1.2677  0.5750  3.7308
 1494SOL     OW15940   0.988   3.945   2.505 -0.7528  0.7064  0.2502
 1494SOL    HW115941   1.047   3.888   2.554 -1.2741 -1.2189 -1.3293
 1494SOL    HW215942   1.014   4.035   2.525  4.1908 -0.8546  0.8324
 1495SOL     OW15943   0.812   4.274   6.315  0.1194  0.6823  0.0812
 1495SOL    HW115944   0.776   4.246   6.231 -0.5576  1.5505  0.0748
 1495SOL    HW215945   0.759   4.352   6.333 -1.7136 -1.1228  2.4377
 1496SOL     OW15946   1.432   0.940   8.750  0.2495 -0.1497 -0.2317
 1496SOL    HW115947   1.414   0.965   8.840 -0.1354  0.7211 -0.5442
 1496SOL    HW215948   1.444   0.845   8.748 -0.2890 -0.2513  2.2373
 1497SOL     OW15949   0.929   2.242   5.262 -0.2511 -0.2585  0.3294
 1497SOL    HW115950   0.843   2.199   5.255  0.1278 -0.9104 -0.3200
 1497SOL    HW215951   0.907   2.331   5.235 -0.6999 -0.2030  0.8845
 1498SOL     OW15952   3.194   2.323  11.666 -0.4278  0.0225 -0.0947
 1498SOL    HW115953   3.183   2.354  11.756  2.1191  1.9565 -0.4495
 1498SOL    HW215954   3.131   2.385  11.629 -0.4078 -0.4420 -0.9137
 1499SOL     OW15955   1.935   3.446  12.164 -0.0798 -0.0875 -0.7226
 1499SOL    HW115956   1.842   3.460  12.186  0.4077 -1.2027  2.0213
 1499SOL    HW215957   1.933   3.357  12.129  0.3985 -0.3119 -0.1768
 1500SOL     OW15958   2.492   1.500   4.987  0.1616 -0.2445  0.2906
 1500SOL    HW115959   2.557   1.497   4.917 -2.6931 -0.4225 -2.3498
 1500SOL    HW215960   2.490   1.591   5.016  2.5218  0.4046 -1.5075
 1501SOL     OW15961   2.961   2.415   6.428 -0.4478  0.6055 -0.3969
 1501SOL    HW115962   2.952   2.395   6.335 -2.2549  0.5821 -0.2215
 1501SOL    HW215963   2.870   2.396   6.452 -0.3165 -1.8204 -1.9265
 1502SOL     OW15964   1.770   0.326   9.234  0.3435 -0.2277  0.1957
 1502SOL    HW115965   1.695   0.382   9.253  0.3588  0.1628 -0.9412
 1502SOL    HW215966   1.816   0.361   9.158 -1.8512  0.1151 -0.9783
 1503SOL     OW15967   0.828   3.843   1.298  0.2060  0.2972 -0.5350
 1503SOL    HW115968   0.879   3.841   1.217  0.2862 -1.1573 -0.4397
 1503SOL    HW215969   0.812   3.937   1.304  1.5583  0.4748  0.1851
 1504SOL     OW15970   0.765   2.143   2.700 -0.0715 -0.2219 -0.7191
 1504SOL    HW115971   0.806   2.156   2.614  1.1383  2.1764  0.2089
 1504SOL    HW215972   0.681   2.105   2.674  0.7843 -1.0151 -2.3108
 1505SOL     OW15973   2.396   1.130   1.834 -0.3952  0.2213  0.1598
 1505SOL    HW115974   2.460   1.108   1.767  0.6616  0.9161  0.9482
 1505SOL    HW215975   2.454   1.170   1.899 -0.7431 -0.1897  0.7178
 1506SOL     OW15976   3.719   3.791   6.536 -0.3800  0.4635 -0.2052
 1506SOL    HW115977   3.795   3.738   6.558 -1.2392  0.1371  1.9897
 1506SOL    HW215978   3.756   3.849   6.470 -2.5957  0.3375 -1.5775
 1507SOL     OW15979   1.936   4.111  11.708 -0.4249 -0.3404 -0.6719
 1507SOL    HW115980   1.862   4.054  11.730 -1.2056  0.8588 -0.1933
 1507SOL    HW215981   1.958   4.161  11.787  1.5612 -1.6784 -0.3843
 1508SOL     OW15982   1.599   0.873   1.806 -0.1995  0.7019  0.2476
 1508SOL    HW115983   1.595   0.909   1.717  2.7231  1.1923  0.3165
 1508SOL    HW215984   1.634   0.954   1.844  1.3981  0.7290 -1.3270
 1509SOL     OW15985   2.526   2.530  16.001 -0.1527  0.1369 -0.6234
 1509SOL    HW115986   2.534   2.458  15.937  0.1355  0.5165 -1.0176
 1509SOL    HW215987   2.484   2.599  15.951 -1.6971 -2.4772 -2.9384
 1510SOL     OW15988   2.600   1.651  11.228  0.4719 -0.3557 -0.0825
 1510SOL    HW115989   2.638   1.563  11.223 -0.7501 -0.9668  1.1090
 1510SOL    HW215990   2.519   1.632  11.181 -0.6388  1.8177  0.9606
 1511SOL     OW15991   2.993   2.649  15.188  0.6603 -0.2250 -0.3219
 1511SOL    HW115992   3.081   2.685  15.196  1.3510 -2.0321  0.1384
 1511SOL    HW215993   2.980   2.633  15.094  0.4512  0.3322 -0.3882
 1512SOL     OW15994   0.793   4.169  15.890 -0.0933 -0.1093 -0.2296
 1512SOL    HW115995   0.760   4.207  15.972  2.1880  1.7895 -0.1635
 1512SOL    HW215996   0.791   4.241  15.827 -1.8951  0.7263  0.7647
 1513SOL     OW15997   2.872   3.988   9.000  0.1746 -0.4514 -0.7525
 1513SOL    HW115998   2.883   3.894   8.987  0.3023 -0.4115 -0.9210
 1513SOL    HW215999   2.948   4.017   8.950  1.8961 -0.9128  1.6003
 1514SOL     OW16000   2.503   0.989  11.294 -0.1775  0.1517 -0.0029
 1514SOL    HW116001   2.506   0.895  11.278 -0.9177  0.9153 -4.4835
 1514SOL    HW216002   2.562   0.982  11.369 -0.3155  0.7038  0.1595
 1515SOL     OW16003   0.110   0.701   5.524  0.1658 -0.2438 -0.1847
 1515SOL    HW116004   0.175   0.631   5.533  0.1400 -0.1666  0.6562
 1515SOL    HW216005   0.176   0.770   5.533  1.0903 -1.1814  0.3221
 1516SOL     OW16006   1.424   3.331  16.741 -0.6261  0.5335 -0.2309
 1516SOL    HW116007   1.508   3.311  16.783 -0.0404 -0.4862 -1.8882
 1516SOL    HW216008   1.413   3.422  16.769  1.0266  0.8426 -0.5634
 1517SOL     OW16009   2.961   2.379   2.910  0.1609  0.4619  0.3027
 1517SOL    HW116010   2.939   2.369   3.003  0.4694  0.0503  0.3374
 1517SOL    HW216011   2.894   2.324   2.870  1.2852 -0.7436  0.0862
 1518SOL     OW16012   3.068   2.621  11.216 -0.0997  0.1752 -0.2223
 1518SOL    HW116013   3.100   2.578  11.137 -0.8629 -2.5021  0.9515
 1518SOL    HW216014   2.987   2.576  11.238  0.6630 -0.8991  0.3604
 1519SOL     OW16015   1.705   2.721   7.695 -0.3571 -0.0472 -0.5940
 1519SOL    HW116016   1.685   2.632   7.722  0.2057  0.5270  1.7246
 1519SOL    HW216017   1.724   2.697   7.604  1.2704 -0.9514 -0.0182
 1520SOL     OW16018   1.637   2.862   2.588  0.2545  0.2845 -0.0396
 1520SOL    HW116019   1.693   2.881   2.664 -2.4758 -1.3680  2.3508
 1520SOL    HW216020   1.704   2.836   2.525  2.1015  1.1552  1.5483
 1521SOL     OW16021   3.472   2.355   2.668 -0.1503 -0.4077  0.1513
 1521SOL    HW116022   3.484   2.288   2.736 -0.5703 -1.0293 -0.3910
 1521SOL    HW216023   3.386   2.385   2.697 -0.5554  0.3229 -1.8185
 1522SOL     OW16024   3.703   3.106   1.433 -0.0786  0.1495  0.1575
 1522SOL    HW116025   3.619   3.063   1.415 -0.2850  0.5706  0.1270
 1522SOL    HW216026   3.750   3.055   1.499 -1.4784 -1.2277  0.1026
 1523SOL     OW16027   4.533   1.778   5.014  0.1599 -0.7805 -0.2763
 1523SOL    HW116028   4.624   1.757   5.035 -0.7184 -1.3143  2.9828
 1523SOL    HW216029   4.517   1.703   4.957  0.8282  1.6251 -3.6192
 1524SOL     OW16030   0.776   3.379   5.760  0.4870  0.0943 -0.2483
 1524SOL    HW116031   0.694   3.409   5.799 -0.6706 -2.5841 -0.6586
 1524SOL    HW216032   0.770   3.409   5.670  0.0830  1.0697  0.1016
 1525SOL     OW16033   1.419   4.007   0.790  0.2211  0.3834  0.4558
 1525SOL    HW116034   1.337   4.043   0.759 -0.9143 -2.0666  0.6152
 1525SOL    HW216035   1.452   3.959   0.714 -1.3802  0.8164 -0.5005
 1526SOL     OW16036   2.562   1.593   6.897  0.1066 -0.4013  0.3723
 1526SOL    HW116037   2.590   1.507   6.927  1.6380 -0.6253 -1.6244
 1526SOL    HW216038   2.602   1.607   6.811  1.4919  0.0853  1.0995
 1527SOL     OW16039   1.839   4.565   6.844 -0.3700  0.4262 -0.0171
 1527SOL    HW116040   1.923   4.598   6.812  1.0705 -2.5789  0.6328
 1527SOL    HW216041   1.794   4.633   6.894  1.5183  0.9819  0.9508
 1528SOL     OW16042   2.978   3.190   6.520  0.0041 -0.0953 -0.5912
 1528SOL    HW116043   2.978   3.279   6.556  2.4771 -0.4318  0.3036
 1528SOL    HW216044   3.071   3.195   6.496  0.4267 -0.3808  0.9517
 1529SOL     OW16045   4.113   1.471  16.321  0.0355 -1.3324 -0.2233
 1529SOL    HW116046   4.019   1.471  16.303 -0.0305  0.9217  0.1419
 1529SOL    HW216047   4.163   1.463  16.239  1.2299 -1.1663  0.4925
 1530SOL     OW16048   2.997   1.807  13.202 -0.2223  0.5477 -0.4702
 1530SOL    HW116049   3.065   1.747  13.172 -0.5567  0.7007 -1.5425
 1530SOL    HW216050   2.925   1.765  13.154 -0.0495 -0.1143 -0.1456
 1531SOL     OW16051   2.120   0.171  12.779 -0.4468  0.6055 -0.8084
 1531SOL    HW116052   2.079   0.224  12.848  1.0950  0.1554  0.4466
 1531SOL    HW216053   2.068   0.191  12.701 -0.9748  0.5084 -0.4855
 1532SOL     OW16054   4.009   2.627  17.601 -0.5869  0.2386 -0.0368
 1532SOL    HW116055   4.089   2.580  17.627 -2.2773 -0.8382  3.2348
 1532SOL    HW216056   4.000   2.676  17.683 -1.7244  0.2541 -0.1699
 1533SOL     OW16057   3.411   4.575   4.453 -0.0905  0.5998  0.3697
 1533SOL    HW116058   3.503   4.587   4.475 -0.4818 -0.0983  2.4702
 1533SOL    HW216059   3.396   4.490   4.496 -0.0197 -0.5803 -1.9775
 1534SOL     OW16060   1.186   2.154   7.655  0.9454  0.6313  0.2008
 1534SOL    HW116061   1.216   2.176   7.744 -1.9001 -0.8086  1.5448
 1534SOL    HW216062   1.179   2.243   7.619 -0.2723 -0.4232 -2.1772
 1535SOL     OW16063   3.196   2.147   2.830  0.2668 -0.2049 -0.2797
 1535SOL    HW116064   3.225   2.078   2.770  1.7456  1.5946 -1.6304
 1535SOL    HW216065   3.111   2.169   2.791 -0.1624  0.4040  0.9895
 1536SOL     OW16066   0.145   0.420   1.866 -0.4535  0.5539 -0.4005
 1536SOL    HW116067   0.128   0.363   1.791  0.6574 -0.8891  0.4446
 1536SOL    HW216068   0.147   0.507   1.825  0.4357  0.6813 -0.0974
 1537SOL     OW16069   3.379   2.322   5.075 -0.9327 -0.3782  0.5568
 1537SOL    HW116070   3.393   2.229   5.091  0.3182  0.0321  1.8412
 1537SOL    HW216071   3.334   2.348   5.156 -0.4436  2.0258  0.0689
 1538SOL     OW16072   4.578   0.663   6.191  0.1326  0.4133 -0.0139
 1538SOL    HW116073   4.519   0.592   6.162  1.2425  0.6413 -2.8706
 1538SOL    HW216074   4.579   0.660   6.286 -1.1274  0.6075  0.0112
 1539SOL     OW16075   1.727   1.024   3.960 -0.2728 -0.1929  0.0190
 1539SOL    HW116076   1.769   0.993   4.041 -1.6189  0.3445  0.9121
 1539SOL    HW216077   1.733   0.946   3.904 -0.4109  0.1009 -0.3963
 1540SOL     OW16078   1.124   3.148  17.611  0.9090  0.3687  0.2251
 1540SOL    HW116079   1.126   3.183  17.522  0.9999 -0.8366 -0.2401
 1540SOL    HW216080   1.114   3.055  17.593  0.6735  0.2457  0.9616
 1541SOL     OW16081   0.228   0.931   6.713  0.1023 -0.3852  0.3301
 1541SOL    HW116082   0.225   0.849   6.762  1.0879 -1.3081 -1.1505
 1541SOL    HW216083   0.224   0.906   6.621  0.5614 -1.1661  0.5254
 1542SOL     OW16084   4.183   1.249   0.183 -0.1114  0.1678  0.6688
 1542SOL    HW116085   4.184   1.336   0.143  1.3211 -0.2149 -0.1343
 1542SOL    HW216086   4.170   1.283   0.272 -0.1735  0.5413  0.5169
 1543SOL     OW16087   2.222   4.378   6.941  0.3436 -0.6106 -0.1149
 1543SOL    HW116088   2.218   4.289   6.907  2.5162 -0.3719 -1.0270
 1543SOL    HW216089   2.222   4.362   7.036 -2.6049 -3.0562 -0.5580
 1544SOL     OW16090   1.219   2.063   3.361 -0.6660  0.0599  0.4986
 1544SOL    HW116091   1.247   2.081   3.272 -1.5675  1.2184  0.4498
 1544SOL    HW216092   1.175   2.143   3.392  1.2709  0.9776  0.8821
 1545SOL     OW16093   4.540   1.122  14.061 -0.1387 -0.2551  0.2432
 1545SOL    HW116094   4.579   1.034  14.058  1.7526  0.5761  0.9792
 1545SOL    HW216095   4.449   1.109  14.035 -0.3568  0.9241  0.4182
 1546SOL     OW16096   3.222   0.173  12.233  0.1494 -0.0794 -0.5110
 1546SOL    HW116097   3.207   0.263  12.204 -4.6644 -0.5626  0.4513
 1546SOL    HW216098   3.315   0.175  12.211  0.5591  2.2835  1.4833
 1547SOL     OW16099   1.993   1.260   3.541  0.3767 -0.2001 -0.0694
 1547SOL    HW116100   1.975   1.353   3.529 -0.9476 -0.5031 -0.4198
 1547SOL    HW216101   1.910   1.226   3.573 -0.4848  1.5802 -0.4305
 1548SOL     OW16102   1.939   1.702   4.792  0.3743  0.1318 -0.1019
 1548SOL    HW116103   2.035   1.708   4.796  0.4955 -1.5278 -0.6300
 1548SOL    HW216104   1.919   1.765   4.723  2.3866  0.3939 -0.4664
 1549SOL     OW16105   3.012   0.182  12.548  0.3353  0.1098  0.3897
 1549SOL    HW116106   3.048   0.100  12.512  0.1794  0.4529 -0.5497
 1549SOL    HW216107   3.011   0.228  12.464 -0.2248 -2.3802 -0.9895
 1550SOL     OW16108   4.075   2.489   7.160 -0.0649 -0.0272  0.3238
 1550SOL    HW116109   4.025   2.556   7.207 -0.4525 -1.9689  2.7507
 1550SOL    HW216110   3.998   2.444   7.124 -0.8118  1.0162  0.6105
 1551SOL     OW16111   0.726   2.983   8.680  0.3876  0.6609  0.6590
 1551SOL    HW116112   0.696   3.049   8.618  1.3909  0.4493 -0.0485
 1551SOL    HW216113   0.793   3.040   8.718  2.0236 -1.6861  1.3202
 1552SOL     OW16114   1.018   0.533   3.223  0.1593 -0.3401 -0.0899
 1552SOL    HW116115   0.924   0.516   3.214 -0.0358 -0.1734  1.7546
 1552SOL    HW216116   1.052   0.444   3.212  0.7603  0.1748 -2.3691
 1553SOL     OW16117   1.479   2.196   2.406  0.2687  0.0005 -0.0881
 1553SOL    HW116118   1.495   2.160   2.318 -0.7341 -1.7786  0.4629
 1553SOL    HW216119   1.393   2.237   2.397  0.1448 -0.5227 -1.3325
 1554SOL     OW16120   2.330   2.919   4.725 -0.2321 -0.0266  0.2765
 1554SOL    HW116121   2.419   2.899   4.756 -0.2601 -0.9772 -0.2633
 1554SOL    HW216122   2.298   2.834   4.693 -2.4213  1.2932 -1.0076
 1555SOL     OW16123   3.522   3.251  16.308  0.1712 -0.5023  0.0086
 1555SOL    HW116124   3.604   3.252  16.358 -0.3165  0.7598  0.8032
 1555SOL    HW216125   3.468   3.312  16.359 -0.2172 -1.0212  0.2081
 1556SOL     OW16126   1.584   3.503   4.852  0.1057  0.0107 -0.1702
 1556SOL    HW116127   1.608   3.526   4.762 -0.2310  0.6136 -0.1096
 1556SOL    HW216128   1.494   3.534   4.853  0.1022 -0.0619  1.1677
 1557SOL     OW16129   1.529   0.857   6.455 -0.4357  0.0086 -0.1676
 1557SOL    HW116130   1.531   0.806   6.536 -0.2098  0.5504  0.1667
 1557SOL    HW216131   1.620   0.884   6.445 -0.3020 -0.7842 -1.0866
 1558SOL     OW16132   3.116   0.243   8.030 -0.1806 -0.3619  0.4398
 1558SOL    HW116133   3.177   0.274   7.963 -1.2613 -0.1045 -0.4277
 1558SOL    HW216134   3.081   0.330   8.050  0.8009  0.5540 -1.8746
 1559SOL     OW16135   0.103   4.437   6.737  0.1972  0.1185  0.7913
 1559SOL    HW116136   0.158   4.505   6.775 -1.1284  1.2908  0.6440
 1559SOL    HW216137   0.140   4.426   6.650 -1.1812  0.6997  0.1375
 1560SOL     OW16138   3.648   3.866  13.954  0.4890 -0.5068 -0.0976
 1560SOL    HW116139   3.643   3.958  13.979 -1.2763 -0.6371 -0.0343
 1560SOL    HW216140   3.630   3.875  13.861 -0.9063 -0.4884  0.1831
 1561SOL     OW16141   3.566   1.355   0.122 -0.0827 -0.6100 -0.9465
 1561SOL    HW116142   3.506   1.405   0.067  0.2553 -0.1305 -0.8819
 1561SOL    HW216143   3.576   1.274   0.073  0.8592 -1.4048  0.5600
 1562SOL     OW16144   2.695   0.369   4.417 -0.3096  0.1121  0.6020
 1562SOL    HW116145   2.688   0.434   4.347 -0.8503  1.2683  1.7542
 1562SOL    HW216146   2.706   0.423   4.495  2.6959  0.6019 -0.1402
 1563SOL     OW16147   1.341   0.771   1.930 -0.3638  0.2006 -0.3122
 1563SOL    HW116148   1.410   0.815   1.880 -0.6347  1.4605  0.4374
 1563SOL    HW216149   1.348   0.683   1.893 -0.1775  0.1866 -0.2442
 1564SOL     OW16150   2.693   3.882   4.625 -0.0440 -0.3849 -0.6425
 1564SOL    HW116151   2.725   3.833   4.549  0.8369 -1.0603  0.1612
 1564SOL    HW216152   2.770   3.862   4.679  0.2022  1.0631 -0.4582
 1565SOL     OW16153   3.763   3.731   7.534 -0.3951 -0.1765 -0.0957
 1565SOL    HW116154   3.834   3.727   7.470 -1.1512  2.8057 -1.1005
 1565SOL    HW216155   3.803   3.673   7.599 -0.0343  1.3537  1.0611
 1566SOL     OW16156   4.361   0.179   1.107  0.0456  0.5224  0.4293
 1566SOL    HW116157   4.304   0.254   1.124  2.0073  2.0847  0.0370
 1566SOL    HW216158   4.390   0.197   1.018 -0.8161 -1.7287 -0.3323
 1567SOL     OW16159   3.075   4.715  12.373  0.2798  0.1459  0.8852
 1567SOL    HW116160   2.988   4.723  12.332 -0.3378  0.5398  2.2821
 1567SOL    HW216161   3.131   0.022  12.303 -0.9736  2.5180  0.9863
 1568SOL     OW16162   0.702   3.713   0.351 -0.0127  0.3387 -0.1949
 1568SOL    HW116163   0.614   3.678   0.333  0.6718 -2.1825  1.2888
 1568SOL    HW216164   0.695   3.806   0.329  4.6421  0.3214 -1.8533
 1569SOL     OW16165   1.012   1.558   2.352 -0.1687  0.4621 -0.5084
 1569SOL    HW116166   1.056   1.604   2.424 -1.1707 -0.0103  0.3998
 1569SOL    HW216167   1.007   1.472   2.394 -0.2632  1.1563  0.8768
 1570SOL     OW16168   2.299   3.922  17.011  0.1151 -0.3514  0.7297
 1570SOL    HW116169   2.236   3.862  17.051  4.3271 -3.1553  3.0914
 1570SOL    HW216170   2.240   3.974  16.955  1.1431 -0.0863 -0.1144
 1571SOL     OW16171   2.839   3.660   4.995  0.5859  0.1480  1.1834
 1571SOL    HW116172   2.761   3.702   5.032 -0.4362  0.4501 -1.2846
 1571SOL    HW216173   2.851   3.730   4.932  2.7368  0.1175  1.5854
 1572SOL     OW16174   2.012   1.844   7.377  0.0231  0.0108 -0.2311
 1572SOL    HW116175   1.959   1.768   7.399  1.4437 -0.1964  2.4247
 1572SOL    HW216176   2.099   1.803   7.382 -0.5248 -1.2604 -1.1345
 1573SOL     OW16177   1.168   2.545   1.387  0.4986  0.2656 -0.4914
 1573SOL    HW116178   1.261   2.524   1.379  0.7653  1.6609 -1.1029
 1573SOL    HW216179   1.158   2.586   1.301 -0.0010  1.2698  0.0390
 1574SOL     OW16180   3.198   2.389   0.990  0.1932  0.3001  0.2757
 1574SOL    HW116181   3.189   2.430   0.905  1.0898 -2.2406 -1.0542
 1574SOL    HW216182   3.257   2.315   0.974 -1.5224 -1.4026  1.8378
 1575SOL     OW16183   4.023   0.783   3.818  0.3355 -0.0443  0.3199
 1575SOL    HW116184   3.960   0.822   3.878 -0.3454  1.7409 -1.5793
 1575SOL    HW216185   4.055   0.704   3.862 -1.1240 -0.1149  1.2594
 1576SOL     OW16186   0.166   4.549   7.089  0.1581 -0.2298  0.2553
 1576SOL    HW116187   0.119   4.489   7.148 -0.2239  0.2430  0.4324
 1576SOL    HW216188   0.252   4.509   7.100  0.8729  1.2326 -0.1425
 1577SOL     OW16189   1.095   2.598   6.987 -0.4402  0.2697 -0.0304
 1577SOL    HW116190   1.077   2.649   6.908 -1.3059  0.9563  0.6125
 1577SOL    HW216191   1.077   2.509   6.959 -0.7494  0.5633 -0.7711
 1578SOL     OW16192   2.560   0.237   5.965  0.1943 -0.3308  0.1016
 1578SOL    HW116193   2.499   0.311   5.965  1.7315  0.9259  2.3549
 1578SOL    HW216194   2.620   0.250   6.038  0.0498 -3.7865  0.8631
 1579SOL     OW16195   2.653   4.350  10.472 -0.1619 -0.2852 -0.8761
 1579SOL    HW116196   2.730   4.307  10.509 -1.2061 -0.1980  1.4419
 1579SOL    HW216197   2.670   4.444  10.474  0.6045 -0.4420  0.0372
 1580SOL     OW16198   1.159   1.870   7.874 -0.0517  0.2196  0.4868
 1580SOL    HW116199   1.141   1.827   7.790  2.0458  0.9425 -0.3281
 1580SOL    HW216200   1.069   1.885   7.902  0.0195  1.3064  0.1324
 1581SOL     OW16201   4.168   3.231   1.026 -0.2542 -1.0035 -0.2074
 1581SOL    HW116202   4.191   3.138   1.023 -0.5423 -1.1978  3.4042
 1581SOL    HW216203   4.240   3.263   1.079 -1.4134  0.9332  0.2111
 1582SOL     OW16204   2.430   1.384   6.481  0.1415 -0.0543 -0.3254
 1582SOL    HW116205   2.428   1.415   6.571  0.0805  0.1768 -0.4044
 1582SOL    HW216206   2.448   1.296   6.513  0.4777  0.8996  2.0942
 1583SOL     OW16207   2.320   2.697   8.176  0.2849 -0.4312  0.0045
 1583SOL    HW116208   2.314   2.776   8.229 -0.4847  0.2117 -1.0417
 1583SOL    HW216209   2.229   2.669   8.176 -0.1224  0.9004 -0.6073
 1584SOL     OW16210   4.210   0.185   6.097  0.1461 -0.3140  0.1578
 1584SOL    HW116211   4.163   0.186   6.014 -0.1584  0.0591  0.3328
 1584SOL    HW216212   4.251   0.271   6.103 -0.2953 -0.1635  1.0846
 1585SOL     OW16213   1.776   1.871  14.403  0.2320  0.1432  0.0194
 1585SOL    HW116214   1.727   1.953  14.403  1.9603  1.1571  1.2975
 1585SOL    HW216215   1.787   1.850  14.496 -1.9294  2.6098  0.8330
 1586SOL     OW16216   0.851   1.260   6.980 -0.1839  0.5611  0.3581
 1586SOL    HW116217   0.781   1.201   6.953  1.4963 -0.2721 -2.1647
 1586SOL    HW216218   0.919   1.244   6.915  0.3045  1.1419  0.7332
 1587SOL     OW16219   1.664   3.879   3.058 -0.2605 -0.0542 -0.5576
 1587SOL    HW116220   1.584   3.921   3.027 -0.2914 -0.4125 -0.9603
 1587SOL    HW216221   1.678   3.826   2.980  0.8474  0.8138 -0.9433
 1588SOL     OW16222   1.578   2.712   6.152 -0.1924  0.4646  0.2762
 1588SOL    HW116223   1.540   2.798   6.132 -1.8454 -0.0076  1.3735
 1588SOL    HW216224   1.671   2.731   6.166 -0.1411 -0.7037  1.5036
 1589SOL     OW16225   0.744   3.677   4.168 -0.1324  0.6951 -0.4947
 1589SOL    HW116226   0.817   3.739   4.157  1.2641 -0.5508  1.7573
 1589SOL    HW216227   0.673   3.723   4.213  0.3610 -0.9929  1.9962
 1590SOL     OW16228   1.364   3.679   4.029 -0.4299 -0.4746  0.0225
 1590SOL    HW116229   1.288   3.651   4.078 -0.7051 -1.1201 -0.7824
 1590SOL    HW216230   1.369   3.767   4.068 -0.7414 -0.4499  0.0033
 1591SOL     OW16231   1.040   0.698  16.410 -0.0492  0.0116  0.2372
 1591SOL    HW116232   1.067   0.788  16.432  0.4341 -0.0647 -0.0504
 1591SOL    HW216233   1.079   0.648  16.482  1.6298  1.4425  0.3273
 1592SOL     OW16234   3.112   0.367  11.958  0.2448 -0.4031  0.3659
 1592SOL    HW116235   3.172   0.395  12.028  3.6771 -2.4427 -1.7450
 1592SOL    HW216236   3.118   0.272  11.955  0.3898 -0.4064  0.6771
 1593SOL     OW16237   2.192   2.211   4.868  0.4738  0.0385  0.0857
 1593SOL    HW116238   2.140   2.133   4.848  0.5846 -0.0753  0.2413
 1593SOL    HW216239   2.188   2.205   4.963  0.8747 -1.6724  0.0043
 1594SOL     OW16240   0.971   1.670   4.508  0.1442  0.6239  0.3238
 1594SOL    HW116241   0.978   1.576   4.526 -1.1958  0.5865  0.6730
 1594SOL    HW216242   1.017   1.707   4.583  1.4126  2.6300 -1.4535
 1595SOL     OW16243   4.407   1.677   5.364 -0.0759  0.0297 -0.1090
 1595SOL    HW116244   4.381   1.714   5.449 -1.9716 -1.0180 -0.2389
 1595SOL    HW216245   4.434   1.761   5.328 -1.2639 -0.0297 -1.1007
 1596SOL     OW16246   0.237   2.242  16.703 -0.2577 -0.1818  0.2876
 1596SOL    HW116247   0.267   2.202  16.784 -0.9430 -0.1003  0.5839
 1596SOL    HW216248   0.166   2.184  16.677  1.3636 -2.5260  1.1296
 1597SOL     OW16249   3.853   4.259   7.246  0.1160  0.2155  0.3723
 1597SOL    HW116250   3.911   4.196   7.289 -0.5167 -0.4524  0.2551
 1597SOL    HW216251   3.860   4.336   7.303  0.3707  0.1351  0.4504
 1598SOL     OW16252   1.560   3.077   5.617  0.1208 -0.5679  0.2498
 1598SOL    HW116253   1.582   3.014   5.686  1.2709 -0.8374 -0.3618
 1598SOL    HW216254   1.503   3.032   5.556 -1.0301 -0.3999  1.2004
 1599SOL     OW16255   0.264   4.533   7.588  0.1814  0.0099 -0.4594
 1599SOL    HW116256   0.197   4.597   7.565  0.2051  0.0336 -0.4632
 1599SOL    HW216257   0.205   4.459   7.603  0.1488 -0.1919 -1.6332
 1600SOL     OW16258   2.490   4.086  12.721  0.7371 -0.1159 -0.1023
 1600SOL    HW116259   2.552   4.048  12.784  0.4616  0.7090  0.6556
 1600SOL    HW216260   2.405   4.069  12.762  0.5432  0.9648 -0.0674
 1601SOL     OW16261   4.648   1.265  11.673 -0.3281  0.4396  0.0595
 1601SOL    HW116262   4.631   1.270  11.579  1.2482  0.1314 -0.2395
 1601SOL    HW216263   4.586   1.194  11.687 -0.8538  1.1268  1.2171
 1602SOL     OW16264   1.681   0.767   7.228  0.0220 -0.8894  0.0665
 1602SOL    HW116265   1.660   0.852   7.266 -2.2818 -0.4499 -2.1404
 1602SOL    HW216266   1.775   0.775   7.210  0.3676  2.1276  3.3255
 1603SOL     OW16267   1.658   4.033  11.459  0.3479  0.0333  0.2939
 1603SOL    HW116268   1.711   4.018  11.537 -1.6501  0.4806  1.7229
 1603SOL    HW216269   1.697   4.118  11.436  0.2185 -0.2721 -1.0599
 1604SOL     OW16270   1.102   1.809   8.567  0.0188  1.0265  0.0002
 1604SOL    HW116271   1.032   1.761   8.522  1.4828 -2.4250  1.4710
 1604SOL    HW216272   1.081   1.795   8.659  1.9845 -0.2147  0.2478
 1605SOL     OW16273   2.205   2.455   6.626 -0.1805  0.1514 -0.7302
 1605SOL    HW116274   2.230   2.491   6.541 -0.7102  0.3591 -0.8005
 1605SOL    HW216275   2.266   2.501   6.684 -2.7664  2.1771  0.3864
 1606SOL     OW16276   2.153   1.655   3.148 -0.2088  0.1656 -0.6491
 1606SOL    HW116277   2.063   1.676   3.124 -0.3392  0.2338 -0.0917
 1606SOL    HW216278   2.204   1.714   3.091  1.6683 -0.8028  0.0152
 1607SOL     OW16279   2.492   1.619   4.451  0.6278  0.7447  0.4919
 1607SOL    HW116280   2.500   1.707   4.415  0.4904  0.3015 -0.6054
 1607SOL    HW216281   2.427   1.583   4.392  1.7542 -1.5774  0.6771
 1608SOL     OW16282   3.754   1.290  16.151  0.3832  0.2689 -0.5979
 1608SOL    HW116283   3.749   1.286  16.247  1.2285  0.4595 -0.5437
 1608SOL    HW216284   3.840   1.251  16.134  0.2590  0.9372 -2.6959
 1609SOL     OW16285   0.048   4.521  16.485  0.3048  0.0984  0.0141
 1609SOL    HW116286   0.069   4.603  16.529 -0.2453  1.4978 -2.2990
 1609SOL    HW216287   0.117   4.464  16.519  0.1937  0.4620  0.8537
 1610SOL     OW16288   1.719   3.596  13.636  0.7394 -0.2773 -0.3725
 1610SOL    HW116289   1.764   3.511  13.637 -0.5693 -0.9837 -0.7343
 1610SOL    HW216290   1.741   3.630  13.722  2.5164  0.3304 -1.0742
 1611SOL     OW16291   2.696   3.251  13.616 -0.5811 -0.0716  0.4916
 1611SOL    HW116292   2.679   3.319  13.551  1.0743 -1.3397 -1.2689
 1611SOL    HW216293   2.667   3.171  13.572  0.4935 -0.4576  0.5003
 1612SOL     OW16294   4.267   2.009   7.519  0.3078 -0.0819  0.1872
 1612SOL    HW116295   4.325   2.084   7.505 -1.0761  0.9287 -0.1177
 1612SOL    HW216296   4.314   1.957   7.584  0.4248  0.8124  0.8138
 1613SOL     OW16297   4.383   3.155   4.623 -0.0038  0.4730 -0.4392
 1613SOL    HW116298   4.288   3.147   4.625  0.2184 -1.4764  3.0855
 1613SOL    HW216299   4.401   3.179   4.532  1.2971  0.0014 -0.3108
 1614SOL     OW16300   3.969   2.239   3.633 -0.2031 -0.2856 -0.2047
 1614SOL    HW116301   3.989   2.276   3.719  3.1930 -1.4773 -0.4596
 1614SOL    HW216302   4.024   2.305   3.590  0.8144  0.2979  1.9948
 1615SOL     OW16303   3.572   4.467  13.817 -0.2097 -0.2284  0.2085
 1615SOL    HW116304   3.549   4.417  13.739  0.8342 -0.6905  0.1955
 1615SOL    HW216305   3.654   4.435  13.855  0.8886 -0.0198 -1.9859
 1616SOL     OW16306   2.703   2.396   5.361 -0.4745 -0.1135  0.1241
 1616SOL    HW116307   2.708   2.313   5.313  2.7113 -0.4372  1.0906
 1616SOL    HW216308   2.752   2.461   5.311 -0.7556  0.0731  0.0901
 1617SOL     OW16309   1.931   3.573   7.807  0.1794  0.2079 -0.0992
 1617SOL    HW116310   1.902   3.503   7.748  0.7890 -0.7820  0.7630
 1617SOL    HW216311   1.860   3.585   7.870  1.7876  1.3663  1.4727
 1618SOL     OW16312   4.590   4.508  11.527 -0.4291  0.3231  0.2934
 1618SOL    HW116313   4.630   4.595  11.533  1.1995 -0.3681 -0.3719
 1618SOL    HW216314   4.658   4.446  11.556 -0.6762  0.6421  1.5516
 1619SOL     OW16315   1.552   3.407   5.813  0.5410 -0.4231 -0.5539
 1619SOL    HW116316   1.462   3.395   5.842  0.7765  0.7052  0.6284
 1619SOL    HW216317   1.560   3.502   5.812  1.5547 -0.5245 -1.9099
 1620SOL     OW16318   3.558   2.454  16.348 -0.4376 -0.3926 -0.4599
 1620SOL    HW116319   3.583   2.365  16.326 -2.1853 -0.2186 -3.0482
 1620SOL    HW216320   3.574   2.488  16.260  3.9769 -0.7957  0.1629
 1621SOL     OW16321   4.521   4.565   6.644 -0.3199 -0.3227  0.4671
 1621SOL    HW116322   4.533   4.470   6.635  0.8760 -0.3602  2.5069
 1621SOL    HW216323   4.598   4.594   6.595 -0.7613 -2.3199 -1.4396
 1622SOL     OW16324   3.699   2.561  12.571  0.0467 -0.1534  0.1056
 1622SOL    HW116325   3.779   2.615  12.573 -0.3041  0.3686  0.1054
 1622SOL    HW216326   3.743   2.477  12.566  1.0518  0.5146 -2.1288
 1623SOL     OW16327   2.146   2.905   3.995  0.3159 -0.3166  0.0484
 1623SOL    HW116328   2.166   2.813   3.974  2.8703  0.2603  0.0490
 1623SOL    HW216329   2.108   2.933   3.912 -1.2275  0.7058  1.0923
 1624SOL     OW16330   1.684   2.905   2.960 -0.2001 -0.7642  0.1179
 1624SOL    HW116331   1.642   2.981   2.919  1.8263  0.2449 -0.1268
 1624SOL    HW216332   1.622   2.895   3.032 -1.8153  0.2840 -1.1175
 1625SOL     OW16333   2.584   1.144   6.442  0.7513 -0.1410 -0.0600
 1625SOL    HW116334   2.532   1.105   6.371  0.6109 -1.5412  0.7971
 1625SOL    HW216335   2.669   1.116   6.409  0.8977 -0.9486  1.0078
 1626SOL     OW16336   2.427   3.453  16.981  0.2293  0.1175  0.0859
 1626SOL    HW116337   2.487   3.388  17.017  1.5038  0.6374 -1.0927
 1626SOL    HW216338   2.404   3.498  17.062  1.9704  0.7077  0.2567
 1627SOL     OW16339   0.434   4.191   3.630  0.2220 -0.2409  0.1376
 1627SOL    HW116340   0.372   4.119   3.621 -0.0916  0.1230 -0.6522
 1627SOL    HW216341   0.445   4.231   3.544  1.8946  1.1533  1.0098
 1628SOL     OW16342   3.643   0.855  12.537  0.0204 -0.0702  0.4811
 1628SOL    HW116343   3.681   0.941  12.553 -0.2500 -0.6818  4.3450
 1628SOL    HW216344   3.597   0.851  12.621  2.2429 -0.2049  1.6698
 1629SOL     OW16345   3.567   4.698   3.207 -0.5715  0.0870  0.3621
 1629SOL    HW116346   3.630   4.713   3.137 -1.2606  1.3465  0.0145
 1629SOL    HW216347   3.621   4.689   3.286  1.0449  2.0645 -0.5224
 1630SOL     OW16348   0.340   0.143   5.282 -0.1494 -0.4037  0.0277
 1630SOL    HW116349   0.332   0.238   5.271 -0.9620 -0.4019  0.6370
 1630SOL    HW216350   0.345   0.135   5.377  0.3484  0.3660  0.0573
 1631SOL     OW16351   3.603   2.944   2.054 -0.1271 -0.1380  0.3281
 1631SOL    HW116352   3.571   3.003   2.122 -0.5648 -1.1035  0.9593
 1631SOL    HW216353   3.539   2.956   1.984 -0.8553  1.5357  1.3073
 1632SOL     OW16354   1.436   2.324   5.317 -0.3136  0.4124 -0.7772
 1632SOL    HW116355   1.434   2.301   5.224  1.9454  0.3739 -0.8242
 1632SOL    HW216356   1.345   2.313   5.343  0.3620 -1.8292  0.6075
 1633SOL     OW16357   3.803   1.860   3.611  0.4650  0.0573 -0.0392
 1633SOL    HW116358   3.787   1.948   3.576  3.2130 -0.6832 -3.2180
 1633SOL    HW216359   3.879   1.883   3.664 -0.1114  1.9344 -0.0201
 1634SOL     OW16360   2.282   3.620   2.229  0.1743 -0.6846  0.3692
 1634SOL    HW116361   2.236   3.540   2.203 -0.5384  0.0281 -0.5654
 1634SOL    HW216362   2.369   3.602   2.192  0.0952  0.4330 -0.3569
 1635SOL     OW16363   2.759   0.357  16.496  0.7440  0.0719 -0.3315
 1635SOL    HW116364   2.794   0.271  16.518  1.1499  0.6673  1.3437
 1635SOL    HW216365   2.743   0.328  16.406 -1.8986  0.6318 -0.0362
 1636SOL     OW16366   1.608   3.745   4.152  0.1870 -0.0887  0.3990
 1636SOL    HW116367   1.701   3.724   4.144  0.4925  0.7428  1.8274
 1636SOL    HW216368   1.571   3.669   4.108  0.7848  0.6979 -1.4298
 1637SOL     OW16369   2.563   2.233   1.051  0.1947 -0.0851  0.6389
 1637SOL    HW116370   2.570   2.275   1.138 -3.8291 -2.5747  2.1352
 1637SOL    HW216371   2.492   2.283   1.011  0.7011 -0.0156 -0.1691
 1638SOL     OW16372   2.188   0.546  12.017  0.1391  0.7284 -0.6078
 1638SOL    HW116373   2.216   0.576  11.930  0.3158  1.3265 -0.3442
 1638SOL    HW216374   2.264   0.564  12.072 -1.0804 -0.7277  1.5495
 1639SOL     OW16375   1.018   2.918   3.889 -0.4333  0.7407  0.2314
 1639SOL    HW116376   1.052   2.924   3.978  1.3247 -0.6160 -0.3360
 1639SOL    HW216377   0.936   2.871   3.897 -0.1056 -0.1854 -1.8239
 1640SOL     OW16378   0.352   0.821   3.411  0.0654 -0.4058 -0.4529
 1640SOL    HW116379   0.266   0.817   3.368  0.4991  0.9947 -1.4478
 1640SOL    HW216380   0.325   0.774   3.490  1.8969 -0.3160  0.2143
 1641SOL     OW16381   1.647   0.556   7.390  0.3148 -0.0763 -0.3818
 1641SOL    HW116382   1.740   0.568   7.408  0.7085 -0.6262 -2.0651
 1641SOL    HW216383   1.636   0.641   7.348 -0.9448  0.2168  0.5641
 1642SOL     OW16384   2.434   1.282  13.135 -0.3961 -0.4854  0.4297
 1642SOL    HW116385   2.408   1.190  13.129  0.2932 -0.7470  1.5358
 1642SOL    HW216386   2.358   1.323  13.093 -0.1475 -1.1166 -0.6392
 1643SOL     OW16387   1.567   3.696   5.880  0.6859 -0.4120  0.4469
 1643SOL    HW116388   1.610   3.753   5.943 -0.6176  0.6187  0.3900
 1643SOL    HW216389   1.500   3.662   5.939  0.3900 -3.6285 -1.7655
 1644SOL     OW16390   2.527   2.340  11.408  0.0605 -0.2600  0.9315
 1644SOL    HW116391   2.578   2.413  11.371 -0.6299  0.0241  0.5165
 1644SOL    HW216392   2.531   2.352  11.503 -2.1481  2.6680  0.6521
 1645SOL     OW16393   2.883   3.661   3.762  0.2369 -0.1805 -0.2680
 1645SOL    HW116394   2.788   3.669   3.765  0.3878  1.6473 -0.5806
 1645SOL    HW216395   2.898   3.580   3.811 -3.2378 -0.6208  0.0985
 1646SOL     OW16396   0.071   0.693   4.379 -0.2067 -0.1154  0.2206
 1646SOL    HW116397   0.068   0.769   4.436 -1.3894 -0.2543  0.3548
 1646SOL    HW216398   0.125   0.636   4.434 -0.3548  2.3641  2.9143
 1647SOL     OW16399   3.876   1.540   4.931  0.0280 -0.9947  0.2795
 1647SOL    HW116400   3.825   1.587   4.865  0.8442 -0.9372 -0.3059
 1647SOL    HW216401   3.854   1.584   5.014 -2.6278 -1.6340 -0.1068
 1648SOL     OW16402   4.661   1.540   5.680 -0.1931 -0.1796  0.2321
 1648SOL    HW116403   4.620   1.621   5.651  1.1691  1.1394  2.0179
 1648SOL    HW216404   4.725   1.580   5.739  0.6701 -2.5375  0.9066
 1649SOL     OW16405   3.144   2.150   1.458  0.5776  0.7199  0.1619
 1649SOL    HW116406   3.160   2.244   1.460  2.7189  0.3756 -0.4758
 1649SOL    HW216407   3.156   2.143   1.363  1.8396  1.7248  0.2511
 1650SOL     OW16408   3.728   1.038   4.907 -0.2556 -0.1369 -0.2267
 1650SOL    HW116409   3.722   1.133   4.898  2.9437 -0.1909 -2.7575
 1650SOL    HW216410   3.635   1.014   4.908 -0.6389  1.3437 -0.4026
 1651SOL     OW16411   1.032   2.101   3.926 -0.0189  0.0962  0.5019
 1651SOL    HW116412   1.043   2.015   3.884 -0.2328  0.3394 -0.0433
 1651SOL    HW216413   1.119   2.105   3.965  0.4051 -0.5781 -0.3751
 1652SOL     OW16414   2.490   2.161   5.083  0.0587 -0.9354 -0.1683
 1652SOL    HW116415   2.472   2.214   5.005  0.8440 -0.2786  0.0973
 1652SOL    HW216416   2.405   2.149   5.126 -0.1281 -1.2948 -0.6365
 1653SOL     OW16417   2.447   3.272  12.089 -0.5765  0.2265 -0.5687
 1653SOL    HW116418   2.517   3.301  12.147 -0.9656 -0.9965  0.5110
 1653SOL    HW216419   2.507   3.237  12.023 -2.1155 -0.7028 -1.4672
 1654SOL     OW16420   0.621   3.856   6.676  0.0419 -0.4328  0.4211
 1654SOL    HW116421   0.567   3.907   6.737  1.7445  1.9798 -0.0627
 1654SOL    HW216422   0.580   3.772   6.658 -0.8120 -0.4413  2.4421
 1655SOL     OW16423   2.491   3.688  17.700  0.1183  0.3723  0.2898
 1655SOL    HW116424   2.528   3.758  17.646 -0.8968 -0.5814 -1.6642
 1655SOL    HW216425   2.564   3.634   0.024 -1.0477 -1.9152 -0.9880
 1656SOL     OW16426   4.446   4.178   0.642  0.2448 -0.3824 -0.5862
 1656SOL    HW116427   4.382   4.160   0.711  0.8182  0.7164  0.2286
 1656SOL    HW216428   4.476   4.262   0.675  1.5822 -1.1987  0.2707
 1657SOL     OW16429   1.738   3.526   8.431  0.3873 -0.1067  0.5391
 1657SOL    HW116430   1.785   3.607   8.451 -0.3315  1.2908 -3.5640
 1657SOL    HW216431   1.736   3.482   8.517 -0.4734  0.6004  0.8799
 1658SOL     OW16432   3.895   1.546  16.196 -0.2362 -0.7374 -0.1246
 1658SOL    HW116433   3.844   1.482  16.145  0.8134 -0.7673 -1.1494
 1658SOL    HW216434   3.826   1.586  16.249  0.7534  0.0560  0.5588
 1659SOL     OW16435   2.501   0.156   3.213  0.3843 -0.6205  0.0954
 1659SOL    HW116436   2.526   0.248   3.199  0.6821 -1.0388 -2.1210
 1659SOL    HW216437   2.584   0.110   3.196  0.7790 -0.0596  0.4934
 1660SOL     OW16438   3.070   1.141   4.752 -0.6534  0.0294 -0.2586
 1660SOL    HW116439   3.139   1.077   4.768 -0.0844  0.5811 -0.4957
 1660SOL    HW216440   2.995   1.085   4.729 -0.4376  0.2077 -1.3915
 1661SOL     OW16441   4.416   4.530   4.139 -0.0220 -0.1002  0.3856
 1661SOL    HW116442   4.370   4.526   4.223 -2.5699  1.1715 -0.9591
 1661SOL    HW216443   4.479   4.598   4.165  2.0328 -2.4080  1.4960
 1662SOL     OW16444   3.567   1.860  13.390 -0.3389  0.1553 -0.5853
 1662SOL    HW116445   3.501   1.792  13.375  1.0534 -1.3339  0.1165
 1662SOL    HW216446   3.590   1.842  13.481 -0.6290  0.9422 -0.3483
 1663SOL     OW16447   2.489   0.045  13.578 -0.2685  0.5658 -0.1539
 1663SOL    HW116448   2.436   0.092  13.643 -0.3569 -1.4589  1.2528
 1663SOL    HW216449   2.542   4.712  13.631  1.6344  2.3456 -0.0533
 1664SOL     OW16450   2.023   3.613  10.723  0.4439  0.2986  0.0552
 1664SOL    HW116451   2.070   3.629  10.642  0.5161  1.3839  0.3122
 1664SOL    HW216452   1.973   3.533  10.703 -0.8782  0.6804  1.7983
 1665SOL     OW16453   0.007   0.996   7.412  0.3142 -0.1784  0.1072
 1665SOL    HW116454   4.686   1.056   7.353 -0.4651 -1.9465 -1.0444
 1665SOL    HW216455   0.094   0.997   7.374  0.5423 -1.5854  0.6077
 1666SOL     OW16456   3.449   2.124  11.118  0.4140 -0.0504  0.0146
 1666SOL    HW116457   3.517   2.058  11.129  0.9383  0.1716 -1.7564
 1666SOL    HW216458   3.382   2.077  11.167  1.9194 -2.9303 -0.6846
 1667SOL     OW16459   4.360   1.340   7.822 -0.0725  0.0735 -0.8561
 1667SOL    HW116460   4.418   1.375   7.754 -2.2269  3.9651 -0.6730
 1667SOL    HW216461   4.429   1.340   7.888 -1.6787  0.5495  0.8238
 1668SOL     OW16462   2.662   1.178  16.550 -0.5728  0.0096  0.1440
 1668SOL    HW116463   2.749   1.143  16.528 -0.8208 -0.1968 -0.5131
 1668SOL    HW216464   2.650   1.170  16.645  0.4619  0.2149  0.2853
 1669SOL     OW16465   4.644   1.109   2.556  0.5217 -0.2878 -0.3058
 1669SOL    HW116466   4.683   1.180   2.608  0.0758 -0.7263  0.6119
 1669SOL    HW216467   4.708   1.041   2.535  2.5328  1.0504  1.3511
 1670SOL     OW16468   3.228   2.812   6.178  0.0197 -0.4340  0.0303
 1670SOL    HW116469   3.198   2.873   6.245  0.3147 -0.7201  0.4169
 1670SOL    HW216470   3.182   2.732   6.203  1.3495 -0.8609  1.1013
 1671SOL     OW16471   4.650   1.020   6.652 -0.4103 -0.5318 -0.5090
 1671SOL    HW116472   0.017   1.039   6.659 -0.4846 -0.1213 -0.5871
 1671SOL    HW216473   4.608   1.055   6.731  2.1226 -2.6740  1.7600
 1672SOL     OW16474   4.258   1.403   4.406 -0.0202 -0.0021 -0.1371
 1672SOL    HW116475   4.263   1.330   4.468 -0.0678 -0.1295 -0.2843
 1672SOL    HW216476   4.294   1.369   4.324 -1.5615 -2.2388  0.1164
 1673SOL     OW16477   4.596   2.464  13.158 -0.6505 -1.1035  0.2870
 1673SOL    HW116478   4.667   2.527  13.150 -2.4164  0.9098  0.5705
 1673SOL    HW216479   4.603   2.434  13.248  0.1651 -2.6252 -0.2825
 1674SOL     OW16480   1.948   0.722   7.614  0.4322  0.1132  0.0065
 1674SOL    HW116481   1.969   0.814   7.597  1.1287 -0.2113 -0.8640
 1674SOL    HW216482   1.968   0.714   7.707 -0.8087 -4.4632 -0.1259
 1675SOL     OW16483   3.582   3.117  17.373  0.1695  0.0987  0.0118
 1675SOL    HW116484   3.587   3.210  17.394  1.3941  0.0627 -0.1429
 1675SOL    HW216485   3.487   3.117  17.362  0.4936 -2.0703 -2.8329
 1676SOL     OW16486   2.626   3.196   7.203 -0.1053  0.1670 -0.2178
 1676SOL    HW116487   2.662   3.283   7.224 -2.7465  1.3092 -0.4457
 1676SOL    HW216488   2.565   3.184   7.276 -0.7126  0.1914 -0.7178
 1677SOL     OW16489   2.783   2.762  16.041  0.2200  0.5143 -0.4301
 1677SOL    HW116490   2.727   2.737  16.115  0.3042  0.8937 -0.2352
 1677SOL    HW216491   2.750   2.693  15.984  0.3300  1.6303 -1.8208
 1678SOL     OW16492   1.978   2.991  11.888  0.1747  0.8032  0.5884
 1678SOL    HW116493   2.057   3.007  11.837 -0.5737  0.2548 -0.7560
 1678SOL    HW216494   1.989   2.897  11.903  0.9986  0.1523 -4.1614
 1679SOL     OW16495   1.810   2.478   1.179 -0.3598 -0.4416  0.4149
 1679SOL    HW116496   1.743   2.520   1.125 -0.4647 -2.1732 -0.8099
 1679SOL    HW216497   1.824   2.548   1.243 -1.9036 -0.2268  0.5164
 1680SOL     OW16498   0.759   0.698   6.833  0.2182 -0.6335 -0.2707
 1680SOL    HW116499   0.671   0.728   6.808  0.1853  0.2222  0.8262
 1680SOL    HW216500   0.735   0.666   6.920  3.1789  0.3816  0.9151
 1681SOL     OW16501   1.314   4.278   7.375 -0.2708 -0.4641 -0.0780
 1681SOL    HW116502   1.354   4.275   7.462  1.1701  0.1554 -0.7077
 1681SOL    HW216503   1.225   4.291   7.407 -0.1732  1.8763 -0.7489
 1682SOL     OW16504   0.873   2.917   1.962  0.2446  0.2187  0.4582
 1682SOL    HW116505   0.869   2.925   1.866  0.5815 -0.6237  0.3737
 1682SOL    HW216506   0.966   2.932   1.975  0.0019  2.2180 -0.0425
 1683SOL     OW16507   4.195   4.158  12.033 -0.3409  0.7430 -0.3646
 1683SOL    HW116508   4.272   4.189  12.082  1.4273 -0.4537 -2.3854
 1683SOL    HW216509   4.230   4.102  11.964 -0.2782  0.4725 -0.1118
 1684SOL     OW16510   3.736   1.263   2.275 -0.2199  0.1264 -0.6482
 1684SOL    HW116511   3.677   1.189   2.288  1.8330 -1.3031  0.4237
 1684SOL    HW216512   3.709   1.291   2.187 -1.3798 -0.2456 -0.4113
 1685SOL     OW16513   3.137   1.376   1.974 -0.3308  0.4400 -0.4930
 1685SOL    HW116514   3.188   1.319   2.032 -0.5232 -1.9545 -2.6636
 1685SOL    HW216515   3.099   1.312   1.914 -1.4691  1.6358 -1.0262
 1686SOL     OW16516   2.274   4.541   5.762  0.2245  0.3841  0.2100
 1686SOL    HW116517   2.323   4.588   5.829 -0.9031 -1.3868  2.3135
 1686SOL    HW216518   2.349   4.515   5.708 -0.2384 -1.4007  0.4077
 1687SOL     OW16519   1.373   0.498   1.862  0.2734  0.0538 -0.1635
 1687SOL    HW116520   1.327   0.475   1.781  2.9002  1.4109 -2.0393
 1687SOL    HW216521   1.307   0.465   1.923 -0.9353  0.7832 -1.0809
 1688SOL     OW16522   4.587   3.242   7.816 -0.2901  0.8407  0.2942
 1688SOL    HW116523   4.597   3.323   7.765 -1.0314 -0.5751 -2.0863
 1688SOL    HW216524   4.612   3.179   7.748  0.9618  0.3707  1.1929
 1689SOL     OW16525   1.120   1.505   5.217 -0.2050 -0.0445  0.0115
 1689SOL    HW116526   1.214   1.498   5.234 -0.1619 -3.6665 -1.5237
 1689SOL    HW216527   1.137   1.553   5.136  1.4592  0.0546  0.4204
 1690SOL     OW16528   0.914   0.007  10.793 -0.5816  0.1093 -0.1809
 1690SOL    HW116529   0.912   0.101  10.811 -1.1376 -0.2867  1.8004
 1690SOL    HW216530   1.003   4.723  10.762 -0.8773 -0.0806 -0.9633
 1691SOL     OW16531   1.157   0.054   9.977  0.1105  0.5061  0.4939
 1691SOL    HW116532   1.246   0.038  10.008  0.0973 -0.4787  0.0328
 1691SOL    HW216533   1.120   4.691   9.976  0.6802  0.2708  0.3869
 1692SOL     OW16534   4.170   3.311   3.865 -0.0432 -0.9699 -0.7583
 1692SOL    HW116535   4.119   3.253   3.808  0.8671 -1.2015 -1.3438
 1692SOL    HW216536   4.160   3.269   3.950  0.1842 -0.5108 -0.5090
 1693SOL     OW16537   2.955   0.088  15.340 -0.6723 -0.5520  0.5964
 1693SOL    HW116538   3.018   0.097  15.411  0.8191 -1.7559 -0.5542
 1693SOL    HW216539   2.940   0.178  15.312  1.7554 -0.2076  0.3658
 1694SOL     OW16540   4.154   0.266   5.360 -0.6443  0.5741  0.3831
 1694SOL    HW116541   4.226   0.250   5.420  2.6635 -0.3183 -3.8020
 1694SOL    HW216542   4.156   0.193   5.298 -2.2437  0.0635  0.9351
 1695SOL     OW16543   3.736   0.181   1.935  0.8274 -0.9583  0.5107
 1695SOL    HW116544   3.773   0.102   1.895  1.2173  1.5441 -4.0223
 1695SOL    HW216545   3.706   0.149   2.020  2.9309 -0.6962  1.3593
 1696SOL     OW16546   3.887   3.678   9.121 -0.0001 -0.7018  0.0146
 1696SOL    HW116547   3.894   3.757   9.068  0.7342 -1.6191 -1.2507
 1696SOL    HW216548   3.828   3.626   9.067 -0.2322  1.0341 -1.3971
 1697SOL     OW16549   2.935   4.066   4.177  0.1666  0.4378  0.0380
 1697SOL    HW116550   2.983   3.988   4.207  0.4192  0.2232 -0.9213
 1697SOL    HW216551   2.846   4.032   4.189  1.3270 -2.6329 -0.0375
 1698SOL     OW16552   3.841   2.670  10.862  0.3749  0.0973 -0.1375
 1698SOL    HW116553   3.867   2.666  10.770 -3.2719  0.1691 -1.1487
 1698SOL    HW216554   3.834   2.576  10.879 -0.3063 -0.3847 -3.1821
 1699SOL     OW16555   3.781   1.638   2.295 -0.1020  0.3781  0.1733
 1699SOL    HW116556   3.839   1.660   2.222 -0.8262 -1.2782 -0.9105
 1699SOL    HW216557   3.701   1.637   2.242 -0.1516 -0.7520  0.2754
 1700SOL     OW16558   2.827   2.189  11.707 -0.0421  0.6641  0.2429
 1700SOL    HW116559   2.890   2.253  11.676 -0.0547 -0.6539 -2.4737
 1700SOL    HW216560   2.741   2.231  11.697  0.1066 -0.2238 -4.8146
 1701SOL     OW16561   0.055   2.066   3.687  0.4332 -0.1463  0.8883
 1701SOL    HW116562   0.068   2.151   3.646  3.4517 -1.8884 -1.7869
 1701SOL    HW216563   0.147   2.050   3.707  0.6706  0.9898  0.6797
 1702SOL     OW16564   3.391   3.023   7.386  0.3489  0.1830  0.4481
 1702SOL    HW116565   3.419   2.932   7.378 -0.8710 -0.3517  2.3007
 1702SOL    HW216566   3.413   3.058   7.473 -1.1502  2.4512 -0.0724
 1703SOL     OW16567   0.117   2.739   1.881  0.0789  0.0290  0.6374
 1703SOL    HW116568   0.162   2.807   1.832  0.3666 -1.3740 -1.0228
 1703SOL    HW216569   0.041   2.719   1.826 -0.6086 -0.1701  1.6606
 1704SOL     OW16570   4.511   3.828   7.007 -0.0939  0.0910  0.2744
 1704SOL    HW116571   4.440   3.824   6.944 -0.3109 -1.0619  0.5866
 1704SOL    HW216572   4.544   3.916   6.990  2.4884 -0.7449  0.8134
 1705SOL     OW16573   3.558   2.644   8.764 -0.3243 -0.1411  0.1810
 1705SOL    HW116574   3.558   2.552   8.738 -0.5526 -0.5488  1.6196
 1705SOL    HW216575   3.470   2.677   8.744  0.0242  1.4319  1.2554
 1706SOL     OW16576   2.119   0.235   9.575 -0.0087  0.2945  0.6917
 1706SOL    HW116577   2.078   0.321   9.570 -0.1840  0.1258 -0.6216
 1706SOL    HW216578   2.071   0.189   9.645 -0.2835  1.0504  1.0005
 1707SOL     OW16579   4.161   1.830  17.625  0.2700 -0.3132 -0.1590
 1707SOL    HW116580   4.142   1.913  17.583  0.4207 -0.4605 -0.5130
 1707SOL    HW216581   4.144   1.767  17.555 -2.5217  1.7147 -1.3125
 1708SOL     OW16582   0.746   2.440   4.861 -0.5517 -0.2103  0.4119
 1708SOL    HW116583   0.824   2.405   4.818 -0.2358 -0.7855  1.4529
 1708SOL    HW216584   0.702   2.493   4.795 -0.5204 -0.3166  0.3039
 1709SOL     OW16585   1.196   3.783   4.712  0.1873 -0.4247 -0.3027
 1709SOL    HW116586   1.216   3.695   4.746 -1.5985 -0.7566 -0.0722
 1709SOL    HW216587   1.101   3.785   4.723  0.2884 -1.1977  0.7934
 1710SOL     OW16588   4.488   3.396   8.527 -0.3097  0.1132 -0.5691
 1710SOL    HW116589   4.417   3.424   8.585 -0.9011  0.7378 -1.6203
 1710SOL    HW216590   4.449   3.376   8.443  2.7818 -0.2627 -1.9214
 1711SOL     OW16591   0.811   3.137   0.232 -0.2830  0.4152  0.5373
 1711SOL    HW116592   0.833   3.184   0.151 -0.8722  0.1447  0.2171
 1711SOL    HW216593   0.886   3.081   0.250  0.6148  2.0775  2.0003
 1712SOL     OW16594   0.724   3.118   9.583  0.2044  0.4431  0.1103
 1712SOL    HW116595   0.754   3.058   9.651  1.8967  0.5319 -0.5409
 1712SOL    HW216596   0.681   3.063   9.519  0.9725  1.9207 -1.6668
 1713SOL     OW16597   4.001   4.155   4.609 -0.0743 -0.0775  0.1853
 1713SOL    HW116598   4.051   4.167   4.529  0.3800 -1.5674  0.2580
 1713SOL    HW216599   3.923   4.206   4.589  0.5242  1.2892  1.3517
 1714SOL     OW16600   2.429   0.017  14.274 -0.0794 -0.1557  0.6783
 1714SOL    HW116601   2.515   4.715  14.242 -1.1143  0.9080 -2.9465
 1714SOL    HW216602   2.407   0.089  14.216  2.3899  0.7296  0.8146
 1715SOL     OW16603   2.935   0.490  13.220 -0.0621  0.5780  0.0559
 1715SOL    HW116604   3.018   0.521  13.183  0.4514 -1.3982 -0.4278
 1715SOL    HW216605   2.954   0.467  13.311  0.9123 -1.1837 -0.5945
 1716SOL     OW16606   2.108   4.419   2.258 -0.1065 -0.0884 -0.1278
 1716SOL    HW116607   2.113   4.486   2.190  1.1885 -0.0709 -0.0167
 1716SOL    HW216608   2.168   4.352   2.225 -0.5391 -0.1400 -0.8142
 1717SOL     OW16609   0.232   1.747   7.002 -1.1031 -0.1366  0.4879
 1717SOL    HW116610   0.221   1.692   6.925  1.5410 -1.5341  1.1098
 1717SOL    HW216611   0.326   1.760   6.992 -1.0487 -0.0829  1.0733
 1718SOL     OW16612   3.613   3.708   2.437 -0.0989 -0.1050 -0.5625
 1718SOL    HW116613   3.649   3.728   2.350 -2.2214  1.7270 -1.0180
 1718SOL    HW216614   3.688   3.672   2.484 -0.0628 -0.0160 -0.5532
 1719SOL     OW16615   2.731   2.738  16.479  0.0342 -0.7599 -0.2307
 1719SOL    HW116616   2.652   2.742  16.425 -0.1414  2.2531  0.2493
 1719SOL    HW216617   2.804   2.763  16.423 -1.1112 -0.8957 -1.7737
 1720SOL     OW16618   0.358   4.189   5.392  0.1430  0.0847  0.2280
 1720SOL    HW116619   0.322   4.177   5.480  1.0588  3.5253  1.0498
 1720SOL    HW216620   0.452   4.185   5.412 -0.5422  1.7117  3.7422
 1721SOL     OW16621   0.213   2.167  14.687  0.1107 -0.1294  0.3444
 1721SOL    HW116622   0.231   2.076  14.666  2.2522  0.6395 -1.1630
 1721SOL    HW216623   0.118   2.159  14.699 -0.2428  2.4244 -0.7594
 1722SOL     OW16624   4.579   0.394  12.818  0.3400 -0.3962  0.3868
 1722SOL    HW116625   4.575   0.302  12.843 -2.1895 -0.6641 -0.9032
 1722SOL    HW216626   4.528   0.435  12.887 -0.2856  3.3438 -2.2555
 1723SOL     OW16627   2.972   0.998  16.701  0.2177 -0.0285  0.3409
 1723SOL    HW116628   3.012   1.020  16.784  0.8508  0.1328 -0.0070
 1723SOL    HW216629   2.883   0.969  16.724 -0.4546  1.1077 -0.7958
 1724SOL     OW16630   2.395   3.990  15.316  0.6568 -0.1608  0.2259
 1724SOL    HW116631   2.311   4.034  15.313  0.7314  0.0352  1.1095
 1724SOL    HW216632   2.394   3.946  15.231  0.9492 -0.6739  0.4880
 1725SOL     OW16633   0.418   0.026   7.259 -0.1635  0.1131 -0.1667
 1725SOL    HW116634   0.331   0.064   7.273  0.3367  1.5722 -1.0557
 1725SOL    HW216635   0.458   0.034   7.345  1.6427 -1.6699 -0.8452
 1726SOL     OW16636   3.995   4.293   8.765 -0.2359  0.1580  0.0577
 1726SOL    HW116637   3.963   4.339   8.688 -0.9853  0.6542  0.6650
 1726SOL    HW216638   4.070   4.349   8.787  0.2123  0.0825 -1.2801
 1727SOL     OW16639   0.901   3.494   1.177 -0.7142 -0.1145  0.7033
 1727SOL    HW116640   0.950   3.537   1.107 -0.1985 -1.0891  0.4671
 1727SOL    HW216641   0.943   3.409   1.181  0.0803  0.3804  2.9653
 1728SOL     OW16642   0.177   2.796   6.317 -0.6158  0.2461 -1.2934
 1728SOL    HW116643   0.196   2.704   6.337  0.3765  0.5581 -0.8171
 1728SOL    HW216644   0.247   2.850   6.354 -0.7413 -0.6312  0.2204
 1729SOL     OW16645   2.524   1.398  14.808  0.0350 -0.1452 -0.3593
 1729SOL    HW116646   2.579   1.440  14.741 -1.8827  0.7755 -1.3692
 1729SOL    HW216647   2.533   1.452  14.886 -1.4297 -1.8835  1.0248
 1730SOL     OW16648   2.064   2.209   6.898  0.5559  0.1654 -0.1599
 1730SOL    HW116649   2.129   2.141   6.881  0.3029 -0.0802 -0.1517
 1730SOL    HW216650   2.029   2.239   6.814  0.9136  2.2463  0.4298
 1731SOL     OW16651   2.557   0.328   6.986  0.0259  0.1211 -0.8817
 1731SOL    HW116652   2.465   0.307   7.000 -0.4859  3.0723  0.1127
 1731SOL    HW216653   2.566   0.292   6.898  3.6064  0.7936 -0.7942
 1732SOL     OW16654   0.783   3.032   8.333 -0.5663 -0.4413  0.0503
 1732SOL    HW116655   0.722   3.082   8.387 -1.0580  1.9793 -2.7560
 1732SOL    HW216656   0.730   2.954   8.320 -0.0099 -0.9604  0.8576
 1733SOL     OW16657   1.391   4.637  13.610  0.7647 -0.4054  0.4869
 1733SOL    HW116658   1.448   4.710  13.583 -0.0573  0.2209  0.4496
 1733SOL    HW216659   1.306   4.677  13.623  1.4276  0.7631  1.2251
 1734SOL     OW16660   4.551   4.428   7.427 -0.4393 -0.3825  0.0183
 1734SOL    HW116661   4.608   4.407   7.500  1.2376  0.3671 -1.0684
 1734SOL    HW216662   4.470   4.385   7.454  0.2899 -2.7883 -1.6630
 1735SOL     OW16663   1.316   1.060   9.625 -0.3533  0.6490 -0.3534
 1735SOL    HW116664   1.275   0.974   9.636  0.3498  0.2200 -1.1300
 1735SOL    HW216665   1.386   1.047   9.689 -0.3956  0.6191 -0.3132
 1736SOL     OW16666   2.558   0.839   1.787 -0.0620  0.0908 -0.2430
 1736SOL    HW116667   2.495   0.839   1.716 -1.5200 -0.7776  1.0711
 1736SOL    HW216668   2.616   0.766   1.764  1.7323  0.4348  3.1109
 1737SOL     OW16669   2.533   1.239  13.606 -0.0565  0.2369 -0.2391
 1737SOL    HW116670   2.479   1.315  13.587 -1.0656 -0.0528  1.5030
 1737SOL    HW216671   2.466   1.196  13.659  0.4824 -0.2800  0.0281
 1738SOL     OW16672   3.427   4.463   2.383  0.1828 -0.3102  0.2668
 1738SOL    HW116673   3.350   4.443   2.330  0.6875  1.0536 -0.9796
 1738SOL    HW216674   3.495   4.442   2.319 -0.5593  1.8661 -1.2260
 1739SOL     OW16675   0.584   2.398   9.906  0.2423  0.4805 -0.2641
 1739SOL    HW116676   0.535   2.395   9.824  2.2434 -0.2265 -1.4528
 1739SOL    HW216677   0.563   2.312   9.940 -1.0615  0.8445 -0.1664
 1740SOL     OW16678   2.533   1.915   2.741 -0.0989 -0.0032  0.7192
 1740SOL    HW116679   2.539   1.884   2.651  0.5564 -0.0568  0.7788
 1740SOL    HW216680   2.477   1.992   2.730 -0.4779 -0.3082  0.5046
 1741SOL     OW16681   0.316   0.672   9.182  0.0073  0.3193  0.1930
 1741SOL    HW116682   0.238   0.719   9.213 -1.4539  0.7604 -4.1729
 1741SOL    HW216683   0.357   0.741   9.130 -1.3631  1.2334  0.3137
 1742SOL     OW16684   2.294   4.344   9.735 -0.1282  0.2843  0.0061
 1742SOL    HW116685   2.301   4.334   9.829  1.6861 -0.4880 -0.2196
 1742SOL    HW216686   2.382   4.318   9.708 -0.3789 -0.3183 -0.2369
 1743SOL     OW16687   2.696   2.559  13.293 -0.0141 -0.1133  0.1754
 1743SOL    HW116688   2.776   2.574  13.242 -1.1829 -1.9494 -2.2208
 1743SOL    HW216689   2.697   2.463  13.298 -0.5630  0.0236  2.6031
 1744SOL     OW16690   4.716   0.009   6.513  0.1789 -0.2134  0.5631
 1744SOL    HW116691   0.070   4.722   6.563  2.0501 -0.8608 -2.5761
 1744SOL    HW216692   4.691   0.089   6.558  0.7894  1.9153 -2.8949
 1745SOL     OW16693   3.970   2.527   1.079  0.9997 -0.5547 -0.5730
 1745SOL    HW116694   3.930   2.489   1.158 -1.4166 -0.5283 -1.7841
 1745SOL    HW216695   4.047   2.568   1.118  0.9935 -1.2568  0.2010
 1746SOL     OW16696   3.179   3.416  10.187 -0.7558  0.2713  0.3829
 1746SOL    HW116697   3.167   3.510  10.173  1.2251  0.5016  0.1772
 1746SOL    HW216698   3.143   3.403  10.275  2.7649 -1.7932  1.5283
 1747SOL     OW16699   0.242   4.405   6.514 -0.8805  0.5386  0.3110
 1747SOL    HW116700   0.318   4.349   6.528  0.0039  1.4873 -0.7294
 1747SOL    HW216701   0.212   4.375   6.428  1.8146  1.4359 -0.9246
 1748SOL     OW16702   0.385   3.664   3.853 -0.1021 -0.7938 -0.4826
 1748SOL    HW116703   0.454   3.730   3.846 -1.6972  0.9964  0.9083
 1748SOL    HW216704   0.430   3.587   3.817  1.4943 -0.8131  1.5320
 1749SOL     OW16705   0.504   3.331   1.929  0.2778 -0.4169 -0.5656
 1749SOL    HW116706   0.522   3.416   1.970  2.3120 -1.3995  0.5772
 1749SOL    HW216707   0.581   3.285   1.964  1.3788  0.9260 -1.2366
 1750SOL     OW16708   2.910   3.752  16.714 -0.2436 -0.0482  0.4731
 1750SOL    HW116709   2.875   3.838  16.734 -0.4708 -0.2166  0.7830
 1750SOL    HW216710   2.958   3.772  16.633 -0.0485  0.5267  0.7293
 1751SOL     OW16711   3.820   3.484   4.237  0.2452  0.1150  0.1603
 1751SOL    HW116712   3.895   3.471   4.295 -0.3002 -0.2289  0.8083
 1751SOL    HW216713   3.764   3.412   4.268  2.5226 -1.1071  1.4624
 1752SOL     OW16714   1.296   2.988   7.861 -0.2680 -0.3563  0.3710
 1752SOL    HW116715   1.293   3.083   7.851 -1.5400 -0.5022 -0.5848
 1752SOL    HW216716   1.387   2.979   7.831 -0.4782 -0.8751 -0.1207
 1753SOL     OW16717   4.438   1.307   6.041  0.4977  0.1351 -0.3697
 1753SOL    HW116718   4.371   1.241   6.025 -0.2667  1.2219 -1.6819
 1753SOL    HW216719   4.484   1.300   5.956 -0.4557 -1.1732 -0.7787
 1754SOL     OW16720   3.147   3.246   9.245  0.7232  0.4274  0.2304
 1754SOL    HW116721   3.142   3.339   9.221 -0.9046  0.3839  0.3835
 1754SOL    HW216722   3.054   3.223   9.245  0.9556 -0.5030 -2.4187
 1755SOL     OW16723   0.749   1.896  14.327  0.0991  0.1904 -0.0415
 1755SOL    HW116724   0.705   1.981  14.321  0.3346  0.4225  1.6398
 1755SOL    HW216725   0.712   1.853  14.404 -1.1777 -1.4853 -1.5883
 1756SOL     OW16726   4.082   1.906  11.136  0.2666  0.3696 -0.3779
 1756SOL    HW116727   4.167   1.871  11.109  0.1045 -0.2404 -0.1009
 1756SOL    HW216728   4.094   1.955  11.217 -2.5214  0.8612 -0.2568
 1757SOL     OW16729   0.737   0.576   1.462  0.2248  0.2204  0.2886
 1757SOL    HW116730   0.651   0.556   1.424 -0.1588  1.2902  0.5903
 1757SOL    HW216731   0.712   0.643   1.526 -1.3685 -1.3212  1.2775
 1758SOL     OW16732   3.275   0.321   8.635  0.0806  0.3994 -0.0577
 1758SOL    HW116733   3.274   0.378   8.712  0.5462 -0.5508  0.6532
 1758SOL    HW216734   3.267   0.385   8.565 -0.2499 -2.1116 -2.2994
 1759SOL     OW16735   3.539   2.479   9.153 -0.0991 -0.0505 -0.4058
 1759SOL    HW116736   3.528   2.415   9.224  1.5924 -0.6113 -0.6364
 1759SOL    HW216737   3.598   2.546   9.188  1.6911 -0.7017 -2.1844
 1760SOL     OW16738   3.097   0.342   4.441  0.3423 -0.3103  0.4696
 1760SOL    HW116739   3.191   0.328   4.447  0.2959 -1.5674 -1.7855
 1760SOL    HW216740   3.060   0.258   4.413  1.6537 -0.1666 -1.6925
 1761SOL     OW16741   0.037   2.530   7.333 -0.3780  0.1960 -0.5461
 1761SOL    HW116742   0.033   2.511   7.239 -0.0070 -0.1453 -0.4910
 1761SOL    HW216743   0.127   2.562   7.341 -0.5568 -0.2739  3.1225
 1762SOL     OW16744   0.836   0.041  11.267 -0.1029  0.3636  0.0178
 1762SOL    HW116745   0.777   4.692  11.257  0.5152 -0.1307  0.0602
 1762SOL    HW216746   0.851   0.058  11.174  1.0456 -2.1104 -0.2410
 1763SOL     OW16747   3.181   3.364   4.984  0.2631  0.1419 -0.6706
 1763SOL    HW116748   3.225   3.286   5.018 -1.2223 -0.5777 -0.3995
 1763SOL    HW216749   3.250   3.416   4.943 -0.7882  2.5049  0.5472
 1764SOL     OW16750   2.848   1.571  11.045 -0.2919 -0.0333  0.3409
 1764SOL    HW116751   2.805   1.493  11.080  0.4154 -0.8027 -0.4921
 1764SOL    HW216752   2.811   1.638  11.103 -0.5223 -1.8156  2.2293
 1765SOL     OW16753   0.418   4.518   0.423 -0.0717  0.5256 -0.3181
 1765SOL    HW116754   0.437   4.544   0.333 -0.4720  2.0157  0.0207
 1765SOL    HW216755   0.475   4.579   0.470  0.4215 -0.4192  0.2997
 1766SOL     OW16756   0.466   0.941   4.071 -0.1463 -0.3873 -0.6090
 1766SOL    HW116757   0.526   0.869   4.091  0.7403  0.4839 -0.1155
 1766SOL    HW216758   0.379   0.904   4.056 -0.1331 -2.2460  3.9714
 1767SOL     OW16759   2.491   4.320   6.468 -0.7711 -0.3696  0.3380
 1767SOL    HW116760   2.468   4.323   6.375  0.2310 -1.2648  0.0676
 1767SOL    HW216761   2.522   4.230   6.474  1.1413  0.0708 -2.6496
 1768SOL     OW16762   3.230   4.707  14.646 -0.3664 -0.2202  0.2111
 1768SOL    HW116763   3.214   0.003  14.738 -0.5683  0.1582  0.0855
 1768SOL    HW216764   3.215   4.613  14.643  2.2037 -0.6786  1.8892
 1769SOL     OW16765   0.613   2.826   5.551 -0.1691 -0.9074  0.0178
 1769SOL    HW116766   0.614   2.878   5.631  0.0840  0.2701 -0.7451
 1769SOL    HW216767   0.548   2.756   5.554 -2.3395  0.9705 -2.8643
 1770SOL     OW16768   0.533   1.864   0.730 -0.5058 -0.2783 -0.3357
 1770SOL    HW116769   0.442   1.875   0.702 -0.2159  1.6117 -0.5498
 1770SOL    HW216770   0.567   1.938   0.679 -0.6656 -0.2599 -0.4163
 1771SOL     OW16771   1.734   2.740   0.792  0.5103 -0.0295  0.3677
 1771SOL    HW116772   1.680   2.683   0.738  0.5662 -0.3748  0.6745
 1771SOL    HW216773   1.781   2.780   0.719  0.7701 -0.1906  0.4466
 1772SOL     OW16774   1.820   2.339  13.585  0.3687 -0.2568  0.0657
 1772SOL    HW116775   1.882   2.316  13.515 -1.8451  0.2932 -2.0956
 1772SOL    HW216776   1.795   2.429  13.565 -0.2819 -0.0457  1.8849
 1773SOL     OW16777   2.623   0.979   4.706  0.3028 -0.1933 -0.0014
 1773SOL    HW116778   2.565   0.916   4.664 -0.6638  0.3497  0.5209
 1773SOL    HW216779   2.573   1.059   4.687  0.4979 -0.6027 -2.1647
 1774SOL     OW16780   2.288   4.166   6.050  0.4060  0.2133 -0.6488
 1774SOL    HW116781   2.235   4.088   6.035 -1.2717  0.7421  2.6050
 1774SOL    HW216782   2.375   4.130   6.037  0.1896 -1.4864  2.4707
 1775SOL     OW16783   3.942   3.170   5.425 -0.3941 -0.7162  0.2012
 1775SOL    HW116784   3.882   3.169   5.499 -1.1613  1.0601 -0.3797
 1775SOL    HW216785   3.976   3.081   5.419 -1.3001 -0.9934 -0.9379
 1776SOL     OW16786   3.564   2.218  11.386  0.3574 -0.2699  0.3195
 1776SOL    HW116787   3.471   2.199  11.372  0.2712  1.3270 -1.2200
 1776SOL    HW216788   3.566   2.241  11.479 -0.4030  1.1669 -0.0127
 1777SOL     OW16789   0.670   2.199  15.589 -0.6443 -0.2270 -0.4697
 1777SOL    HW116790   0.594   2.167  15.541 -0.2801 -2.2419  0.2830
 1777SOL    HW216791   0.664   2.168  15.679  0.1844  0.8460 -0.0414
 1778SOL     OW16792   0.685   0.696   4.839  0.4593  0.2245 -0.2044
 1778SOL    HW116793   0.625   0.758   4.798  1.5161  0.5613 -1.2521
 1778SOL    HW216794   0.769   0.738   4.819 -0.2547  1.9242  0.3853
 1779SOL     OW16795   2.366   2.658  16.810 -1.1482 -0.0153  0.3984
 1779SOL    HW116796   2.286   2.668  16.758 -2.4037  0.9813  2.5350
 1779SOL    HW216797   2.380   2.566  16.784  0.0086  0.8436 -1.9856
 1780SOL     OW16798   3.710   2.079   3.877 -0.5945 -0.2877 -0.4100
 1780SOL    HW116799   3.751   2.118   3.953  0.4943  0.4396 -1.3740
 1780SOL    HW216800   3.786   2.033   3.842  0.3954  1.1581 -0.1629
 1781SOL     OW16801   2.380   2.245  12.615  0.0091 -0.5916 -0.2064
 1781SOL    HW116802   2.400   2.151  12.623  1.1875 -0.3653 -0.4506
 1781SOL    HW216803   2.463   2.280  12.649 -0.4198  0.1557  0.0645
 1782SOL     OW16804   3.334   4.588   3.119  0.0471 -0.1599 -0.0858
 1782SOL    HW116805   3.428   4.609   3.120 -0.9497  4.3545  1.6566
 1782SOL    HW216806   3.333   4.523   3.190 -1.7482 -1.3211 -1.1892
 1783SOL     OW16807   0.645   4.599   3.790 -0.2981  0.2804  0.0484
 1783SOL    HW116808   0.639   4.504   3.776 -2.4531  0.4033  0.0399
 1783SOL    HW216809   0.595   4.600   3.871  0.4514  1.0575  0.4948
 1784SOL     OW16810   0.259   3.248   8.073 -0.3339 -0.3384  0.4151
 1784SOL    HW116811   0.264   3.172   8.131 -0.5312 -0.0273  0.8333
 1784SOL    HW216812   0.261   3.203   7.988  0.7502  3.2197 -1.4199
 1785SOL     OW16813   2.809   2.885   4.590  0.0870 -0.0361  0.0098
 1785SOL    HW116814   2.753   2.958   4.565 -0.0461 -0.1128  0.0849
 1785SOL    HW216815   2.874   2.930   4.644  1.1155 -1.3498 -0.1317
 1786SOL     OW16816   2.382   2.449   2.606  0.4791  0.3682  0.6662
 1786SOL    HW116817   2.345   2.449   2.517 -1.3981  0.5215  1.4429
 1786SOL    HW216818   2.441   2.524   2.595  0.0083  0.1883 -3.2678
 1787SOL     OW16819   0.427   2.307   3.934 -0.0576  0.1369  0.0543
 1787SOL    HW116820   0.447   2.242   3.867 -0.1808 -1.3878  1.5187
 1787SOL    HW216821   0.454   2.265   4.015 -1.3534  0.4180  0.6245
 1788SOL     OW16822   2.207   1.821   6.350  0.1143 -0.5477  0.0557
 1788SOL    HW116823   2.302   1.814   6.349  0.1969  0.7996 -0.6440
 1788SOL    HW216824   2.179   1.741   6.396 -1.3383 -0.5969 -0.9155
 1789SOL     OW16825   0.381   4.390  10.156  0.1158  0.6154  0.4461
 1789SOL    HW116826   0.403   4.298  10.139  2.0605  1.2455 -0.4168
 1789SOL    HW216827   0.454   4.423  10.104 -1.5015 -0.2017 -2.3288
 1790SOL     OW16828   3.621   1.978   9.616 -0.7629 -0.2776  0.2225
 1790SOL    HW116829   3.639   1.940   9.703 -0.8645  0.3996  0.5384
 1790SOL    HW216830   3.551   2.039   9.639 -1.1784 -0.4702 -0.5344
 1791SOL     OW16831   0.638   2.802   2.423  0.3005  0.6338 -0.6121
 1791SOL    HW116832   0.635   2.839   2.335 -0.0826  1.4879 -0.2291
 1791SOL    HW216833   0.549   2.823   2.450 -0.9599 -4.4564 -0.7835
 1792SOL     OW16834   3.470   4.441  16.285  0.8111  0.2693 -1.1143
 1792SOL    HW116835   3.392   4.493  16.306  0.7690  0.2037 -1.1089
 1792SOL    HW216836   3.533   4.495  16.333  0.5598 -0.8818  0.5149
 1793SOL     OW16837   4.311   0.325   5.073 -0.2442  0.0509  0.3648
 1793SOL    HW116838   4.278   0.239   5.098  0.5745 -1.2661 -3.1626
 1793SOL    HW216839   4.234   0.379   5.056  0.8508  1.9204  1.3417
 1794SOL     OW16840   2.315   2.410   7.736  0.5945  0.0456  0.0052
 1794SOL    HW116841   2.358   2.454   7.809  0.0060  0.8336 -0.1164
 1794SOL    HW216842   2.235   2.367   7.767 -0.3572  1.4348 -0.5184
 1795SOL     OW16843   0.157   4.018  16.060  0.5220  0.6458  0.1417
 1795SOL    HW116844   0.079   4.004  16.114  0.2578 -1.0055 -0.6924
 1795SOL    HW216845   0.199   3.933  16.054  0.3622  0.9641 -5.0524
 1796SOL     OW16846   3.183   0.948   3.750  0.1179  0.4390 -0.3578
 1796SOL    HW116847   3.172   1.029   3.800  1.6421 -0.5212  1.5332
 1796SOL    HW216848   3.277   0.935   3.767 -0.2286 -1.2931  0.1751
 1797SOL     OW16849   4.361   0.033   6.248  0.5672  0.5908  0.2060
 1797SOL    HW116850   4.307   0.089   6.193  1.7249  0.9621 -0.5537
 1797SOL    HW216851   4.322   4.672   6.241  0.6390  0.5335  0.5185
 1798SOL     OW16852   4.242   0.998  14.976 -0.3474  0.4147  0.3650
 1798SOL    HW116853   4.168   0.939  14.958 -0.3769  0.1839  1.2537
 1798SOL    HW216854   4.310   0.938  14.946  0.9489  1.5229  1.1023
 1799SOL     OW16855   0.312   3.642   5.253  0.1697 -0.0407 -0.0729
 1799SOL    HW116856   0.304   3.679   5.165  2.3455 -1.4306 -0.8579
 1799SOL    HW216857   0.232   3.590   5.264  0.2885  0.2433  2.0374
 1800SOL     OW16858   2.073   1.641   2.077  0.6669 -0.5037  0.4943
 1800SOL    HW116859   2.057   1.573   2.011  0.9880 -1.3479  1.2931
 1800SOL    HW216860   1.998   1.635   2.136 -0.3156  1.2174 -0.5556
 1801SOL     OW16861   2.078   4.658   3.460  0.0106 -0.2339  0.3573
 1801SOL    HW116862   2.068   4.646   3.555  2.8279 -1.7473  0.4640
 1801SOL    HW216863   2.103   4.568   3.441 -1.0492  0.1713 -2.9971
 1802SOL     OW16864   3.450   1.982   9.318 -0.2643 -0.2905  1.0015
 1802SOL    HW116865   3.377   2.017   9.267 -0.0967 -0.4540  0.6423
 1802SOL    HW216866   3.406   1.954   9.398 -1.6886 -0.2128  0.2393
 1803SOL     OW16867   2.020   2.804   1.530 -0.1047  0.1486  0.2695
 1803SOL    HW116868   2.101   2.762   1.502 -0.5099 -1.0026  0.8331
 1803SOL    HW216869   2.052   2.889   1.562 -0.4225 -0.4106  2.0960
 1804SOL     OW16870   1.811   0.013   5.324  0.0352  0.1526 -0.2333
 1804SOL    HW116871   1.817   0.054   5.410  0.7843 -1.8598  0.6897
 1804SOL    HW216872   1.901   0.019   5.292 -0.3938  1.3267 -1.1794
 1805SOL     OW16873   2.430   0.524   7.567  0.0007 -0.4216  0.1311
 1805SOL    HW116874   2.389   0.455   7.515 -1.7364  1.4865 -1.0123
 1805SOL    HW216875   2.420   0.598   7.508 -1.4588  1.0674  2.2265
 1806SOL     OW16876   1.622   0.359   1.799  0.1759  0.0436  0.3830
 1806SOL    HW116877   1.531   0.381   1.818  0.8004  2.8373  0.0785
 1806SOL    HW216878   1.621   0.357   1.703 -0.6277  0.5528  0.3822
 1807SOL     OW16879   1.624   4.473   7.864 -0.0524 -0.0764 -0.3018
 1807SOL    HW116880   1.588   4.454   7.777 -0.6289  1.9061 -0.4882
 1807SOL    HW216881   1.627   4.386   7.904  0.2640  0.1681  0.1960
 1808SOL     OW16882   3.743   3.145  10.953  0.0260  0.0124  0.1696
 1808SOL    HW116883   3.686   3.181  10.885  0.3081 -0.7589 -0.4677
 1808SOL    HW216884   3.730   3.211  11.021  0.4436 -2.5163  2.7081
 1809SOL     OW16885   1.731   2.754  17.369 -0.9895 -0.6261  0.0767
 1809SOL    HW116886   1.753   2.842  17.399 -2.1787 -1.3466  2.9860
 1809SOL    HW216887   1.738   2.763  17.273  2.1572  0.2967  0.3851
 1810SOL     OW16888   3.130   4.179   4.589  0.1129  0.4277  0.3961
 1810SOL    HW116889   3.198   4.118   4.617 -0.9838 -0.3467  1.3757
 1810SOL    HW216890   3.128   4.167   4.494 -1.4726  1.4913  0.2972
 1811SOL     OW16891   3.952   4.703   5.451  0.1988 -0.0945  0.7182
 1811SOL    HW116892   3.941   0.072   5.444 -0.5862 -0.3475 -1.4918
 1811SOL    HW216893   3.865   4.671   5.429  0.0473 -0.7486  2.2900
 1812SOL     OW16894   3.652   0.578   7.204 -0.4835 -0.1561  0.1564
 1812SOL    HW116895   3.622   0.631   7.129 -0.2383 -1.4566 -0.8500
 1812SOL    HW216896   3.571   0.533   7.225  0.5072 -1.2671  1.5242
 1813SOL     OW16897   0.477   2.530   5.208 -0.0644 -0.0389  0.2219
 1813SOL    HW116898   0.488   2.500   5.118 -0.4167  0.7140 -0.0677
 1813SOL    HW216899   0.519   2.451   5.244 -0.1319 -0.3628 -0.4057
 1814SOL     OW16900   0.866   1.740   0.088 -0.1128  0.2541 -0.4433
 1814SOL    HW116901   0.849   1.833   0.071 -1.8714  0.1400  0.6908
 1814SOL    HW216902   0.953   1.727   0.050 -1.2266 -0.0360 -2.8726
 1815SOL     OW16903   3.283   1.864  13.088 -0.4116 -0.2279  0.1099
 1815SOL    HW116904   3.239   1.797  13.035  0.7131 -0.8707 -0.0244
 1815SOL    HW216905   3.228   1.939  13.066 -0.0312  0.0918  0.2588
 1816SOL     OW16906   0.229   3.198   4.828 -0.0292  0.1540  0.1046
 1816SOL    HW116907   0.274   3.281   4.841  1.3150 -0.1621 -2.5753
 1816SOL    HW216908   0.148   3.224   4.872 -0.0132  0.2379  0.0837
 1817SOL     OW16909   1.538   4.307   8.411  0.0820 -0.0187 -0.6014
 1817SOL    HW116910   1.628   4.312   8.378  0.2074 -0.7164 -0.3745
 1817SOL    HW216911   1.501   4.377   8.358  0.7373  1.0949  0.4081
 1818SOL     OW16912   3.442   3.416  16.543  0.1853  0.2315 -0.2618
 1818SOL    HW116913   3.415   3.377  16.626  2.3841 -0.6417  0.0427
 1818SOL    HW216914   3.484   3.500  16.559 -1.4145  1.3669 -1.9778
 1819SOL     OW16915   3.699   1.703   5.445 -0.8554 -0.0520 -0.2314
 1819SOL    HW116916   3.768   1.637   5.438 -1.3557 -0.3396 -2.6181
 1819SOL    HW216917   3.759   1.778   5.446 -1.0035  0.0006  2.3514
 1820SOL     OW16918   0.793   4.226   8.731  0.4736  0.0780 -0.1222
 1820SOL    HW116919   0.888   4.236   8.731  0.6288 -1.3722  0.0586
 1820SOL    HW216920   0.766   4.315   8.709 -2.1356  0.4010  4.4021
 1821SOL     OW16921   0.647   4.199   4.129 -0.2315  0.0129 -0.1880
 1821SOL    HW116922   0.713   4.265   4.151  0.9317 -1.2857  0.1314
 1821SOL    HW216923   0.633   4.155   4.213 -0.4133 -2.2886 -1.4291
 1822SOL     OW16924   4.034   0.722   2.854  0.4497 -0.2716 -0.1331
 1822SOL    HW116925   3.993   0.720   2.940  0.1438 -0.9021 -0.2970
 1822SOL    HW216926   4.093   0.797   2.865 -1.5797  1.1078  1.2964
 1823SOL     OW16927   0.392   2.598   3.904  0.2095 -0.1990 -0.1543
 1823SOL    HW116928   0.367   2.514   3.943  3.5433 -1.5256 -0.8608
 1823SOL    HW216929   0.479   2.578   3.869  0.2894 -2.1136  1.1055
 1824SOL     OW16930   0.765   4.359   6.651 -0.7246  0.5364  0.3072
 1824SOL    HW116931   0.824   4.426   6.685 -1.1165  1.5223 -0.9635
 1824SOL    HW216932   0.827   4.290   6.632  0.3447  1.2607  1.1738
 1825SOL     OW16933   0.214   2.285   3.417 -0.1744  0.0460 -0.0484
 1825SOL    HW116934   0.306   2.291   3.444 -0.5371  0.9664  0.9769
 1825SOL    HW216935   0.224   2.219   3.348  0.0770 -1.6150  1.5905
 1826SOL     OW16936   4.294   3.463   4.302 -0.3020  0.2637 -0.3850
 1826SOL    HW116937   4.292   3.557   4.317 -1.3275 -0.1360  1.9041
 1826SOL    HW216938   4.261   3.467   4.212 -1.3069  1.7848  0.0632
 1827SOL     OW16939   2.312   0.172  13.763  0.8318  0.5369  0.4281
 1827SOL    HW116940   2.296   0.263  13.788  1.3204  0.5445  0.7135
 1827SOL    HW216941   2.220   0.144  13.768  1.0021  0.3201  2.3952
 1828SOL     OW16942   2.796   0.428   8.422  0.3083  0.1825 -0.3615
 1828SOL    HW116943   2.762   0.436   8.511  1.5840 -3.4057  0.4157
 1828SOL    HW216944   2.822   0.518   8.402 -0.3990  0.5754  0.5096
 1829SOL     OW16945   0.363   4.179   6.141  0.4318  0.2521 -1.1128
 1829SOL    HW116946   0.270   4.200   6.129 -0.4285 -1.4242  2.7668
 1829SOL    HW216947   0.370   4.115   6.070  2.4587 -0.9228  0.1504
 1830SOL     OW16948   0.633   2.155  14.357  0.2450  0.1446 -0.7113
 1830SOL    HW116949   0.608   2.219  14.289 -0.5967 -0.0911 -0.6300
 1830SOL    HW216950   0.585   2.188  14.433 -1.4761 -2.3638 -0.7073
 1831SOL     OW16951   2.675   3.243   5.802  0.2875 -0.2303  0.2234
 1831SOL    HW116952   2.746   3.196   5.845 -0.0613 -0.7463  0.2277
 1831SOL    HW216953   2.722   3.303   5.744 -0.5003 -0.0002 -0.1742
 1832SOL     OW16954   1.826   1.140   3.262  0.9598  0.1752  0.0745
 1832SOL    HW116955   1.843   1.074   3.195 -1.9295 -0.9512  0.4038
 1832SOL    HW216956   1.860   1.220   3.223 -1.7912  1.6788  0.6930
 1833SOL     OW16957   3.434   1.702   3.495 -0.0465 -0.5684 -0.1505
 1833SOL    HW116958   3.400   1.616   3.520  0.9520 -1.6400 -2.4621
 1833SOL    HW216959   3.493   1.676   3.424  0.6589  0.1698  0.1744
 1834SOL     OW16960   4.624   2.460   6.034 -0.1262 -0.5379 -0.1337
 1834SOL    HW116961   4.573   2.539   6.049 -0.0453 -0.1476 -1.9107
 1834SOL    HW216962   4.705   2.499   6.002  1.0132 -1.0350  2.1034
 1835SOL     OW16963   2.108   3.949   5.986  0.1807  0.6344  0.3226
 1835SOL    HW116964   2.107   3.939   5.890  0.5141 -1.4686  0.5237
 1835SOL    HW216965   2.058   4.028   6.003 -0.4055  0.2283  0.4703
 1836SOL     OW16966   0.394   2.707   4.829  0.2507 -0.4921  0.2087
 1836SOL    HW116967   0.326   2.733   4.767  2.6428 -0.7781 -2.5576
 1836SOL    HW216968   0.460   2.776   4.821  0.9046 -0.9218  1.8994
 1837SOL     OW16969   2.033   2.440   5.434 -0.0218 -0.4765 -0.2265
 1837SOL    HW116970   2.125   2.459   5.412  0.2692 -2.4201 -0.7475
 1837SOL    HW216971   2.027   2.362   5.378  0.8396 -0.0360 -0.9386
 1838SOL     OW16972   2.847   3.944   5.317  0.7510 -0.1275 -0.2216
 1838SOL    HW116973   2.788   3.869   5.316  0.5086  0.0456  0.5074
 1838SOL    HW216974   2.855   3.975   5.408 -2.4869  0.3885 -0.1320
 1839SOL     OW16975   0.551   3.814   4.970 -0.6433  0.1623  0.4020
 1839SOL    HW116976   0.462   3.785   4.991 -0.9457  0.4970 -0.4281
 1839SOL    HW216977   0.527   3.906   4.957  1.9853  0.4243 -2.4162
 1840SOL     OW16978   1.049   1.188  16.065 -0.0410 -0.1502 -0.0891
 1840SOL    HW116979   1.011   1.213  15.981 -0.1543  0.9933  0.2948
 1840SOL    HW216980   1.037   1.093  16.065 -0.9852 -0.0316  1.8125
 1841SOL     OW16981   2.830   3.744   4.424  0.1522 -0.0836  0.0151
 1841SOL    HW116982   2.853   3.651   4.435 -1.1059 -0.1221  2.2726
 1841SOL    HW216983   2.912   3.787   4.403 -1.3891  2.6334 -0.5115
 1842SOL     OW16984   4.650   2.458  15.488 -0.8251 -0.7245 -0.0503
 1842SOL    HW116985   4.639   2.545  15.450  0.7895 -1.5083 -2.2534
 1842SOL    HW216986   4.715   2.465  15.558 -2.1335  1.2533  0.9805
 1843SOL     OW16987   1.138   0.871  16.783  0.0259  0.8625  0.2920
 1843SOL    HW116988   1.197   0.819  16.730 -1.9302 -0.0890 -0.9621
 1843SOL    HW216989   1.134   0.833  16.871  3.1856 -0.3269 -0.0869
 1844SOL     OW16990   2.156   1.288   1.399  0.6190  0.1057  0.4831
 1844SOL    HW116991   2.168   1.214   1.339  0.2207 -0.3059  0.9060
 1844SOL    HW216992   2.237   1.281   1.449 -0.8951 -0.6736  2.8131
 1845SOL     OW16993   3.722   2.729   1.494 -0.4613 -0.7221 -0.3710
 1845SOL    HW116994   3.684   2.692   1.414  1.5683 -0.4562 -1.4509
 1845SOL    HW216995   3.659   2.795   1.525 -0.2177 -0.0386 -1.3403
 1846SOL     OW16996   1.234   0.957  16.247 -0.2987 -0.4490 -0.4745
 1846SOL    HW116997   1.186   0.930  16.325 -0.4309  0.1210 -0.3554
 1846SOL    HW216998   1.252   0.872  16.207 -0.6860 -0.3986 -0.7515
 1847SOL     OW16999   4.034   2.846  17.158 -0.1196 -0.1239  0.5971
 1847SOL    HW117000   4.033   2.940  17.170  1.9297 -0.1635  1.0541
 1847SOL    HW217001   3.948   2.824  17.193 -0.1970 -2.8263 -1.1998
 1848SOL     OW17002   1.882   2.499   0.296 -0.1226 -0.1991  0.1425
 1848SOL    HW117003   1.832   2.516   0.376  0.8586  1.0206  0.5178
 1848SOL    HW217004   1.962   2.458   0.329 -0.7281 -0.3135  1.4867
 1849SOL     OW17005   4.114   3.561   2.180  0.1249  0.2087 -0.5154
 1849SOL    HW117006   4.065   3.637   2.212 -0.7028 -0.7426  0.4663
 1849SOL    HW217007   4.156   3.531   2.261 -0.5690  0.7611  0.0458
 1850SOL     OW17008   4.455   3.188   2.678  0.1510  0.4563  0.2356
 1850SOL    HW117009   4.367   3.172   2.644  0.9811 -1.0595 -1.2445
 1850SOL    HW217010   4.510   3.164   2.603  0.0551 -2.1269  0.9883
 1851SOL     OW17011   2.543   1.023   3.200 -0.3024  0.2626  0.4461
 1851SOL    HW117012   2.558   1.113   3.172  1.5865 -0.0776  0.3430
 1851SOL    HW217013   2.493   1.029   3.281  0.7096  0.5344  1.0549
 1852SOL     OW17014   3.467   4.698   5.632  0.0566 -0.3823  0.2527
 1852SOL    HW117015   3.522   4.628   5.668 -0.3071 -1.4062 -1.1569
 1852SOL    HW217016   3.391   4.642   5.617 -0.9370  0.9813  0.1974
 1853SOL     OW17017   4.714   2.122   0.208  0.2191 -0.2620  0.3277
 1853SOL    HW117018   4.635   2.073   0.232  0.3938 -0.9528 -0.4917
 1853SOL    HW217019   0.051   2.051   0.199 -1.6320 -1.8793  0.2284
 1854SOL     OW17020   1.239   0.285   5.825  0.2735  0.0323  0.3100
 1854SOL    HW117021   1.172   0.243   5.771 -0.3698 -1.0706  1.9932
 1854SOL    HW217022   1.243   0.368   5.778  1.4586  0.3172  0.9233
 1855SOL     OW17023   2.910   0.083   7.263  0.8390 -0.1050  0.5154
 1855SOL    HW117024   2.969   0.153   7.290 -1.7388  2.6104 -0.9437
 1855SOL    HW217025   2.856   0.070   7.340 -0.6668 -0.7142 -0.6354
 1856SOL     OW17026   3.713   2.888   4.770 -0.2122 -0.8554  0.3220
 1856SOL    HW117027   3.695   2.811   4.715 -2.9169 -0.1196  0.1677
 1856SOL    HW217028   3.775   2.850   4.831  2.0455 -1.1877 -2.1471
 1857SOL     OW17029   1.646   0.710   5.782 -0.4769  0.1509 -0.7795
 1857SOL    HW117030   1.688   0.633   5.821 -0.5135 -0.5855 -2.1844
 1857SOL    HW217031   1.653   0.780   5.847  2.8925 -1.7508  0.8913
 1858SOL     OW17032   2.552   3.955   3.638  0.5082 -0.1519  0.1891
 1858SOL    HW117033   2.582   3.994   3.720 -1.6544 -3.8166  2.7174
 1858SOL    HW217034   2.556   4.031   3.579  1.0572 -1.0869 -0.9766
 1859SOL     OW17035   2.386   1.140   4.371  0.6782  0.1470 -0.3979
 1859SOL    HW117036   2.443   1.149   4.295  0.1617 -1.7956 -1.0061
 1859SOL    HW217037   2.441   1.147   4.449  0.8516  1.4237 -0.6303
 1860SOL     OW17038   0.650   3.991  17.453  0.9935 -0.2760 -0.2624
 1860SOL    HW117039   0.639   3.939  17.532 -1.5194  2.1428  0.9599
 1860SOL    HW217040   0.563   4.030  17.444  0.3466 -1.8672 -0.9363
 1861SOL     OW17041   4.166   3.342   3.019  0.5631  0.2960 -0.2315
 1861SOL    HW117042   4.140   3.251   3.031  3.1434 -0.7802 -2.8598
 1861SOL    HW217043   4.090   3.375   2.971 -0.7235 -0.3772  1.3540
 1862SOL     OW17044   3.511   4.589  11.886 -0.0968  0.2385  0.2879
 1862SOL    HW117045   3.427   4.549  11.908 -0.2408  0.2364 -0.2626
 1862SOL    HW217046   3.551   4.597  11.972  0.1715  2.0746 -0.0024
 1863SOL     OW17047   2.605   2.567   6.007  0.2125  0.0883 -0.0526
 1863SOL    HW117048   2.569   2.601   5.925 -2.8981  0.3538  1.4358
 1863SOL    HW217049   2.542   2.610   6.064  0.2605 -0.3344  0.3117
 1864SOL     OW17050   1.976   2.132   5.922  0.1818  0.1600  0.3830
 1864SOL    HW117051   1.909   2.081   5.969  1.1826 -0.3186  1.3036
 1864SOL    HW217052   1.928   2.208   5.890 -1.1933 -0.3295  1.2525
 1865SOL     OW17053   2.527   4.513   5.483 -0.2817 -0.0607 -0.2575
 1865SOL    HW117054   2.484   4.593   5.511 -0.0001  0.4078 -1.1821
 1865SOL    HW217055   2.469   4.491   5.410  0.4610  0.1033 -0.8949
 1866SOL     OW17056   0.136   3.100   5.549 -0.3422 -0.5168  0.7630
 1866SOL    HW117057   0.145   3.117   5.455  1.3442  1.1948  1.2392
 1866SOL    HW217058   0.224   3.067   5.572 -0.8519 -2.2667  0.2025
 1867SOL     OW17059   1.365   3.281  17.648 -0.0748 -0.5534 -0.0861
 1867SOL    HW117060   1.439   3.221  17.653 -1.4029 -2.0218  1.9402
 1867SOL    HW217061   1.286   3.229  17.657 -1.2016  1.2578  0.5561
 1868SOL     OW17062   0.498   4.101   9.069 -0.4468 -0.1323 -0.1120
 1868SOL    HW117063   0.542   4.184   9.052  1.4461 -0.7630  1.7184
 1868SOL    HW217064   0.411   4.124   9.035 -2.2707 -2.7062  2.8708
 1869SOL     OW17065   4.612   4.059  13.104  0.4499 -0.3831 -0.4005
 1869SOL    HW117066   4.629   4.049  13.010 -3.1718  0.2086 -1.1505
 1869SOL    HW217067   4.651   4.143  13.128 -1.1042  0.9192 -2.3655
 1870SOL     OW17068   1.196   0.006   2.293  0.3691 -0.1854  0.0082
 1870SOL    HW117069   1.101   0.003   2.288  0.3832 -1.4962  0.5008
 1870SOL    HW217070   1.219   0.053   2.213 -1.1553  0.4191 -0.0656
 1871SOL     OW17071   2.127   1.936   9.563 -0.1827 -0.1981  0.7509
 1871SOL    HW117072   2.068   2.001   9.603  0.3537 -0.6089  2.2227
 1871SOL    HW217073   2.213   1.973   9.583 -0.7590  2.4060 -1.5936
 1872SOL     OW17074   4.466   0.954   6.218 -0.4723 -0.4050 -0.2820
 1872SOL    HW117075   4.461   0.943   6.313  0.9484  1.5465  0.0141
 1872SOL    HW217076   4.506   0.871   6.194  1.7158  0.3686  0.7475
 1873SOL     OW17077   0.722   1.764  10.210 -0.5232 -0.3437  0.0474
 1873SOL    HW117078   0.723   1.668  10.214  1.5024 -0.4047 -1.7449
 1873SOL    HW217079   0.776   1.779  10.132  1.2730 -3.3367  0.6835
 1874SOL     OW17080   3.423   4.517   8.585  0.3221 -0.0818 -0.2141
 1874SOL    HW117081   3.396   4.433   8.624 -0.3342 -0.0323 -0.5540
 1874SOL    HW217082   3.392   4.584   8.646  0.3844  0.5326 -0.8699
 1875SOL     OW17083   1.033   0.950  11.856 -0.0407 -0.6576  0.2248
 1875SOL    HW117084   0.973   1.015  11.893 -0.3376  0.1141 -1.5964
 1875SOL    HW217085   1.119   0.985  11.876 -1.3149  0.8492  3.0326
 1876SOL     OW17086   0.647   2.332   3.708  0.7062  0.2110 -0.2334
 1876SOL    HW117087   0.590   2.257   3.689  0.7439 -0.0484  0.6679
 1876SOL    HW217088   0.730   2.297   3.674 -1.1390  0.5529 -5.1185
 1877SOL     OW17089   2.709   3.535   8.076 -0.2668  0.4638 -0.0459
 1877SOL    HW117090   2.679   3.523   8.166  0.8510  0.4167  0.3155
 1877SOL    HW217091   2.800   3.507   8.082 -0.5639 -0.2999  0.7290
 1878SOL     OW17092   4.714   2.188   5.551 -0.0361  0.5434  0.3409
 1878SOL    HW117093   0.011   2.134   5.475 -3.0559  0.2721 -0.4183
 1878SOL    HW217094   0.068   2.227   5.584 -1.1421  2.0330  1.3018
 1879SOL     OW17095   2.013   1.959  15.297  0.1140  0.8230  0.7542
 1879SOL    HW117096   1.996   1.869  15.271 -2.6877  1.1989  1.2722
 1879SOL    HW217097   1.932   1.991  15.257  0.9750  0.6304 -1.0968
 1880SOL     OW17098   0.341   2.180  14.056 -0.6620  0.2614 -0.4344
 1880SOL    HW117099   0.369   2.091  14.073 -1.2334  0.4336  1.4300
 1880SOL    HW217100   0.251   2.174  14.088  0.1807 -0.2206  1.8568
 1881SOL     OW17101   4.260   2.666   7.365 -0.3350 -0.3007 -0.2622
 1881SOL    HW117102   4.224   2.658   7.276  0.4355 -0.7543 -0.5414
 1881SOL    HW217103   4.352   2.649   7.344 -0.3830  1.3721 -1.8731
 1882SOL     OW17104   2.583   2.832   4.808 -0.5995  0.3500  0.2537
 1882SOL    HW117105   2.634   2.874   4.739  0.2183  2.3070  2.0553
 1882SOL    HW217106   2.643   2.852   4.880 -1.3574 -0.6441  1.1517
 1883SOL     OW17107   3.651   3.122   7.382 -0.6597 -0.1813 -0.5200
 1883SOL    HW117108   3.565   3.096   7.350 -0.4736 -2.5837  1.0224
 1883SOL    HW217109   3.671   3.183   7.310  0.2560  0.5883  0.3875
 1884SOL     OW17110   3.543   3.096   4.442  0.7642 -0.3999  0.1702
 1884SOL    HW117111   3.529   3.044   4.521  0.3968 -1.0335 -0.3092
 1884SOL    HW217112   3.476   3.058   4.385  0.3518  1.6782 -0.7312
 1885SOL     OW17113   4.718   3.287   8.633  0.0687 -0.4983 -0.5229
 1885SOL    HW117114   4.692   3.196   8.615 -0.9371  0.1218 -2.1687
 1885SOL    HW217115   4.642   3.331   8.595 -0.0814  0.9199  1.4547
 1886SOL     OW17116   4.226   2.669  13.571 -0.4731 -0.3472  0.0469
 1886SOL    HW117117   4.214   2.672  13.666  2.3821 -2.5881  0.4722
 1886SOL    HW217118   4.264   2.582  13.558  0.2080  0.0177 -0.3308
 1887SOL     OW17119   1.025   1.245   3.603 -0.5173 -0.4689  0.5513
 1887SOL    HW117120   1.081   1.198   3.541 -3.1937  2.5407 -4.1263
 1887SOL    HW217121   0.957   1.272   3.541 -2.4762 -0.9824  2.4832
 1888SOL     OW17122   4.170   3.718  15.249 -0.4762  0.2745  0.0400
 1888SOL    HW117123   4.204   3.652  15.189 -0.7597  0.3179 -0.1670
 1888SOL    HW217124   4.188   3.678  15.334 -0.3913 -0.9403 -0.5421
 1889SOL     OW17125   4.574   1.200   6.875  0.2117  0.1662 -0.6271
 1889SOL    HW117126   4.622   1.126   6.914 -3.6638 -1.1651  1.6493
 1889SOL    HW217127   4.555   1.255   6.951  0.9523 -0.7319  0.2247
 1890SOL     OW17128   0.866   3.454   0.823  0.1250  0.1015  0.1249
 1890SOL    HW117129   0.851   3.539   0.864  1.0495  1.7114 -2.7845
 1890SOL    HW217130   0.858   3.476   0.730 -0.1317  2.2906  0.6501
 1891SOL     OW17131   2.147   3.351   2.457  0.1690 -0.7289 -0.2978
 1891SOL    HW117132   2.119   3.350   2.366  3.0785  0.4124 -1.2241
 1891SOL    HW217133   2.231   3.306   2.452  0.4850 -0.5268  3.0556
 1892SOL     OW17134   3.034   4.634   4.120  0.2914 -0.6048  0.4862
 1892SOL    HW117135   2.953   4.650   4.072 -0.9976 -0.2855  2.7259
 1892SOL    HW217136   3.105   4.649   4.058 -0.8984 -1.6670 -1.1141
 1893SOL     OW17137   2.221   1.043  10.843  0.2543 -0.5809 -0.0504
 1893SOL    HW117138   2.182   0.960  10.816  0.1867 -0.5049 -0.1893
 1893SOL    HW217139   2.314   1.020  10.848  0.8644  2.1540  1.1482
 1894SOL     OW17140   0.598   0.263   6.089 -0.5715 -0.5065 -0.0307
 1894SOL    HW117141   0.577   0.285   6.180  1.1595  0.7729  0.0571
 1894SOL    HW217142   0.649   0.339   6.063 -1.4771 -0.9121 -3.0519
 1895SOL     OW17143   4.631   1.407   7.042  0.4154  0.3712  0.6623
 1895SOL    HW117144   4.659   1.490   7.079 -1.7015  1.3313  0.1249
 1895SOL    HW217145   4.691   1.415   6.968  0.6863  1.7854  1.0471
 1896SOL     OW17146   1.789   3.109  16.272  0.0820  0.2259  0.1693
 1896SOL    HW117147   1.718   3.171  16.255  0.0192 -0.1571 -1.0126
 1896SOL    HW217148   1.864   3.152  16.231 -0.4079 -0.8163 -1.8249
 1897SOL     OW17149   3.131   0.839  14.905 -0.0285  0.2087 -0.1363
 1897SOL    HW117150   3.082   0.845  14.823  2.9055 -2.0632 -2.1083
 1897SOL    HW217151   3.102   0.753  14.935 -0.7078  1.2722  2.2590
 1898SOL     OW17152   3.453   2.936   6.785 -0.4513 -0.7673 -0.2879
 1898SOL    HW117153   3.539   2.968   6.760  0.0082 -2.1914 -0.5682
 1898SOL    HW217154   3.477   2.843   6.783 -2.0566 -1.2176  1.2884
 1899SOL     OW17155   3.610   0.938   4.537 -0.6142  0.0380 -0.1382
 1899SOL    HW117156   3.551   0.932   4.462 -1.7039  0.3778  0.7000
 1899SOL    HW217157   3.625   0.847   4.562  0.7740  0.3425  0.1389
 1900SOL     OW17158   0.946   0.254   9.553  0.6316  0.2154 -0.1008
 1900SOL    HW117159   0.920   0.165   9.531 -3.4050  1.1618  0.8195
 1900SOL    HW217160   0.872   0.271   9.612  1.8326  0.8244  1.2259
 1901SOL     OW17161   2.222   1.412   9.143  0.2764 -0.2359  0.4534
 1901SOL    HW117162   2.200   1.388   9.233  0.3242 -2.2551 -0.0819
 1901SOL    HW217163   2.181   1.497   9.126  0.6721 -0.1342  0.0303
 1902SOL     OW17164   2.240   2.357  14.201  0.3097  0.2064  0.2812
 1902SOL    HW117165   2.258   2.396  14.115  2.0402 -1.7806 -0.2762
 1902SOL    HW217166   2.171   2.293  14.183 -0.8234  0.4105  3.8982
 1903SOL     OW17167   0.055   2.191   4.531  0.5156 -0.9473 -0.2977
 1903SOL    HW117168   0.006   2.119   4.492  0.5896 -0.5734 -1.0960
 1903SOL    HW217169   4.707   2.247   4.555  0.5178 -1.1776  0.2432
 1904SOL     OW17170   2.022   1.185  11.533  0.5019  0.1010 -0.3699
 1904SOL    HW117171   1.946   1.136  11.501  0.1682 -2.1164  3.8261
 1904SOL    HW217172   2.029   1.147  11.620 -1.9407  0.3812 -0.0485
 1905SOL     OW17173   3.889   4.659   6.653  0.7487 -0.1458 -0.4381
 1905SOL    HW117174   3.922   4.593   6.714  1.2105 -0.7301 -1.3249
 1905SOL    HW217175   3.935   4.620   6.579  1.1821 -0.0294 -0.2247
 1906SOL     OW17176   4.010   4.622   7.324  0.0702  0.2735  0.1831
 1906SOL    HW117177   4.070   4.681   7.369  1.1051 -1.7149  1.3960
 1906SOL    HW217178   3.968   4.677   7.258 -2.4491 -2.0224 -0.1530
 1907SOL     OW17179   3.757   2.164   2.163 -0.0103 -0.2071 -0.4103
 1907SOL    HW117180   3.721   2.194   2.246  3.4156 -0.8771  1.3127
 1907SOL    HW217181   3.838   2.214   2.158  0.0694 -0.4104 -1.0684
 1908SOL     OW17182   0.787   2.412   6.839 -0.3706 -0.5655 -0.6512
 1908SOL    HW117183   0.776   2.498   6.880  2.5093 -0.6461  0.3260
 1908SOL    HW217184   0.721   2.358   6.881  0.1546  0.3847  1.3796
 1909SOL     OW17185   0.909   0.840   8.671  0.8976 -1.0039 -0.2993
 1909SOL    HW117186   1.000   0.827   8.699  0.2011  1.0169  2.8033
 1909SOL    HW217187   0.879   0.753   8.643  0.0691 -1.3624  1.7227
 1910SOL     OW17188   2.544   0.875   2.069  0.4589 -0.5068 -0.0802
 1910SOL    HW117189   2.527   0.892   1.976 -4.6020  0.4185  0.9867
 1910SOL    HW217190   2.604   0.801   2.060 -0.6046 -1.0533 -2.6187
 1911SOL     OW17191   0.091   2.088   0.733 -0.4133 -0.6599  0.0410
 1911SOL    HW117192   0.031   2.124   0.798 -0.6439  0.8476 -1.0046
 1911SOL    HW217193   0.163   2.150   0.746 -2.5605  1.9947 -0.8662
 1912SOL     OW17194   1.823   3.362   3.347  0.3177  0.5681 -0.2061
 1912SOL    HW117195   1.780   3.423   3.408 -0.6261  1.7725 -2.0522
 1912SOL    HW217196   1.823   3.273   3.381 -0.4754 -0.4443 -2.9000
 1913SOL     OW17197   4.485   1.982   0.100  0.5801  0.6115  0.4000
 1913SOL    HW117198   4.404   1.953   0.142  0.9325  1.2818  1.5470
 1913SOL    HW217199   4.504   1.902   0.051  0.5220  1.2631 -0.6730
 1914SOL     OW17200   3.253   0.811   7.811 -0.5159  0.0663  0.4357
 1914SOL    HW117201   3.284   0.733   7.766  0.6738  0.4280  0.6227
 1914SOL    HW217202   3.331   0.865   7.824 -0.1373 -0.3441 -0.1450
 1915SOL     OW17203   2.458   1.745   7.599  0.1860 -0.6705  0.5649
 1915SOL    HW117204   2.507   1.783   7.526  0.5323 -0.3108  0.9825
 1915SOL    HW217205   2.422   1.828   7.632 -0.9867 -0.5178 -1.0760
 1916SOL     OW17206   1.993   1.403   7.388  0.5150 -0.5941  0.2196
 1916SOL    HW117207   2.019   1.347   7.461  2.2854 -1.0404 -0.7386
 1916SOL    HW217208   1.962   1.348   7.315  0.8047  0.1260 -0.4463
 1917SOL     OW17209   2.444   2.700  11.939  0.1026  0.1984 -0.3570
 1917SOL    HW117210   2.388   2.733  11.869 -0.9103 -2.4342 -0.7581
 1917SOL    HW217211   2.532   2.699  11.899 -0.2129 -1.1047 -1.0073
 1918SOL     OW17212   2.378   3.875  12.516 -0.1291  0.0572  0.1784
 1918SOL    HW117213   2.395   3.898  12.607 -0.2341 -1.0851  0.4857
 1918SOL    HW217214   2.349   3.957  12.477 -0.3868  0.2436  0.7594
 1919SOL     OW17215   4.250   3.647   5.917  0.0357  0.9439  0.4531
 1919SOL    HW117216   4.171   3.667   5.866  0.8737  0.6924 -0.9498
 1919SOL    HW217217   4.305   3.697   5.856  0.3760 -1.4720 -1.2187
 1920SOL     OW17218   0.613   1.175   5.824  0.3139 -0.2375 -0.1884
 1920SOL    HW117219   0.552   1.156   5.752  0.4774 -1.6974  0.0576
 1920SOL    HW217220   0.675   1.234   5.782 -1.0867  1.2338 -0.2189
 1921SOL     OW17221   1.952   2.045  15.635 -0.0791  0.0227 -0.2237
 1921SOL    HW117222   1.996   2.127  15.656 -2.4649  1.1342  0.3689
 1921SOL    HW217223   1.899   2.074  15.561  0.8980  0.1469 -0.8666
 1922SOL     OW17224   0.807   1.456   4.004  0.5384  0.4535  0.0017
 1922SOL    HW117225   0.818   1.370   3.964 -0.9813 -0.2336  1.0357
 1922SOL    HW217226   0.751   1.501   3.940 -0.2730  0.8495  0.9752
 1923SOL     OW17227   2.095   1.620  16.045  0.6603 -0.6732 -0.3801
 1923SOL    HW117228   2.041   1.587  16.117  2.6932  0.8042  1.8080
 1923SOL    HW217229   2.161   1.551  16.041  3.0241  1.5685  0.1168
 1924SOL     OW17230   1.215   1.153  11.921  0.0502 -0.5264  0.3943
 1924SOL    HW117231   1.238   1.188  11.835 -1.1783  0.7863  0.5888
 1924SOL    HW217232   1.302   1.150  11.962  0.3516  0.0020 -0.2165
 1925SOL     OW17233   3.527   1.732   2.120 -0.3817 -0.1175  0.1614
 1925SOL    HW117234   3.568   1.803   2.072  0.2063 -0.7280 -0.2515
 1925SOL    HW217235   3.436   1.761   2.120 -0.3829 -0.1194  0.2243
 1926SOL     OW17236   0.189   0.218   8.714  0.0804 -0.3151  0.4413
 1926SOL    HW117237   0.167   0.283   8.648 -0.3957 -0.9654 -0.0439
 1926SOL    HW217238   0.284   0.209   8.707  0.1805 -0.0421  1.4128
 1927SOL     OW17239   3.783   2.455   1.268 -0.5964  0.3616  0.0223
 1927SOL    HW117240   3.716   2.520   1.248  0.2236  1.5768  1.2932
 1927SOL    HW217241   3.768   2.447   1.362  1.4801 -0.0702  0.3118
 1928SOL     OW17242   3.977   1.886   6.931 -0.0644 -1.0607 -0.4783
 1928SOL    HW117243   3.909   1.894   6.864 -1.0935  0.1751  0.6938
 1928SOL    HW217244   4.030   1.815   6.897 -0.0926 -2.2544  1.9364
 1929SOL     OW17245   3.513   2.695   6.820 -0.4013  0.4009 -0.0243
 1929SOL    HW117246   3.519   2.641   6.899  4.3318 -0.3985 -0.9508
 1929SOL    HW217247   3.444   2.644   6.778  0.1438  1.0600 -1.6909
 1930SOL     OW17248   3.550   0.899   7.857 -0.3289  0.3918 -0.3237
 1930SOL    HW117249   3.620   0.857   7.807 -0.2444 -0.0968  0.2097
 1930SOL    HW217250   3.600   0.948   7.922 -0.6917 -0.5432  0.6522
 1931SOL     OW17251   1.338   3.373   1.235  0.3476 -0.4206  0.3059
 1931SOL    HW117252   1.257   3.340   1.196  0.9667  1.6710 -2.7979
 1931SOL    HW217253   1.337   3.465   1.209  3.1547 -0.9941 -1.8781
 1932SOL     OW17254   2.836   4.371   5.175 -0.1249 -0.1878  0.5339
 1932SOL    HW117255   2.757   4.320   5.159 -1.1299  2.5651 -3.3566
 1932SOL    HW217256   2.865   4.372   5.083  0.0453  1.3929  0.6072
 1933SOL     OW17257   0.282   0.272  10.895 -0.5997  0.1167  0.2923
 1933SOL    HW117258   0.248   0.358  10.921 -1.1120  0.3861 -1.2441
 1933SOL    HW217259   0.243   0.264  10.808 -0.1948 -2.0576  0.3149
 1934SOL     OW17260   1.182   2.462   4.716 -0.5626 -0.0151  0.5939
 1934SOL    HW117261   1.114   2.397   4.697 -0.3735 -0.2165  0.6046
 1934SOL    HW217262   1.203   2.436   4.806 -2.0073 -3.4079 -0.0279
 1935SOL     OW17263   1.309   3.843   4.273 -0.0086 -0.3349  0.0598
 1935SOL    HW117264   1.252   3.918   4.254  0.0937 -0.2294  0.1664
 1935SOL    HW217265   1.242   3.794   4.320 -1.2458  1.1396 -0.1862
 1936SOL     OW17266   2.044   0.320   8.560 -0.1653  0.0377  0.4456
 1936SOL    HW117267   2.013   0.387   8.622 -0.6267 -0.8233  1.1391
 1936SOL    HW217268   2.042   0.246   8.620 -1.4310 -1.2271 -1.1630
 1937SOL     OW17269   3.731   1.703   2.850  0.0331  0.3844  0.3513
 1937SOL    HW117270   3.685   1.678   2.930  1.0770 -1.3165  0.4324
 1937SOL    HW217271   3.814   1.657   2.863 -0.8189 -1.0168  0.7613
 1938SOL     OW17272   0.416   2.601   5.460 -0.3338  0.5172  0.3270
 1938SOL    HW117273   0.388   2.600   5.369  1.9483 -1.0107 -0.3532
 1938SOL    HW217274   0.489   2.540   5.456 -0.6769  0.0390  1.2312
 1939SOL     OW17275   0.203   3.888   7.368 -0.2322 -0.4967  0.0599
 1939SOL    HW117276   0.238   3.955   7.310 -1.5554 -0.0561 -0.2237
 1939SOL    HW217277   0.214   3.814   7.309 -2.6400  0.0779 -1.1175
 1940SOL     OW17278   4.292   1.627  10.624 -0.5490 -0.1108 -0.5085
 1940SOL    HW117279   4.374   1.670  10.600 -0.6545 -0.0622 -0.7865
 1940SOL    HW217280   4.271   1.572  10.548 -0.6665 -1.4052  0.4545
 1941SOL     OW17281   1.925   3.829   6.167  0.1378 -0.2126  0.5574
 1941SOL    HW117282   1.936   3.737   6.142 -0.4418  0.1062 -0.8352
 1941SOL    HW217283   2.008   3.867   6.137  1.6307 -0.7834  3.8542
 1942SOL     OW17284   2.340   1.744   2.979 -0.0736  0.0068 -0.1863
 1942SOL    HW117285   2.383   1.681   2.921  1.3473 -0.3478  1.2799
 1942SOL    HW217286   2.316   1.813   2.917  1.9875 -0.0766 -1.0479
 1943SOL     OW17287   0.212   2.471   6.685 -0.1702  0.1578  0.8586
 1943SOL    HW117288   0.217   2.379   6.714 -1.3267 -0.3055 -0.4177
 1943SOL    HW217289   0.261   2.522   6.749 -0.1352 -0.2885  1.1887
 1944SOL     OW17290   1.997   1.707   2.914  0.3795  0.3207 -0.2167
 1944SOL    HW117291   1.917   1.759   2.910  0.3578  0.1870 -1.6174
 1944SOL    HW217292   2.044   1.745   2.840  2.4098  0.2469  1.0180
 1945SOL     OW17293   1.741   1.551  16.493 -0.1404 -0.3003  0.2206
 1945SOL    HW117294   1.786   1.586  16.570 -1.9989  0.5291  0.9417
 1945SOL    HW217295   1.791   1.561  16.412  1.6431 -2.6311  1.0173
 1946SOL     OW17296   1.823   2.410   2.970  0.2173 -0.0450  0.1102
 1946SOL    HW117297   1.799   2.394   2.879 -3.4713  2.1493  0.6907
 1946SOL    HW217298   1.774   2.342   3.017  0.4230 -1.0509 -1.1388
 1947SOL     OW17299   1.536   3.200   2.357 -0.0833  0.3791 -0.4127
 1947SOL    HW117300   1.457   3.235   2.316 -1.2847  0.1222  1.6727
 1947SOL    HW217301   1.604   3.254   2.317  0.3549  1.2291  1.4492
 1948SOL     OW17302   4.511   0.643   5.802 -0.3284 -0.5499  0.4108
 1948SOL    HW117303   4.593   0.602   5.830 -0.6917 -0.1874  2.0011
 1948SOL    HW217304   4.491   0.600   5.719 -0.0948 -0.1958  0.1718
 1949SOL     OW17305   4.271   2.305  10.039  0.2640 -0.6569  0.1538
 1949SOL    HW117306   4.284   2.391  10.079  0.6968 -0.3211 -0.7368
 1949SOL    HW217307   4.230   2.257  10.112  1.6243  2.9101  3.2458
 1950SOL     OW17308   2.078   3.250   6.388 -0.2808 -0.0838  0.1323
 1950SOL    HW117309   2.077   3.166   6.434 -0.9084  0.3436  0.8887
 1950SOL    HW217310   1.987   3.273   6.403  0.3326  1.9755  0.7798
 1951SOL     OW17311   0.847   3.469  14.106 -0.0128  0.1146 -0.2260
 1951SOL    HW117312   0.791   3.394  14.126 -2.1702  2.3413  2.0834
 1951SOL    HW217313   0.884   3.487  14.192 -0.7637  2.1946 -0.3206
 1952SOL     OW17314   2.593   2.798   8.478  0.0879 -0.0336  0.4681
 1952SOL    HW117315   2.593   2.750   8.560  0.1723 -0.2605  0.3353
 1952SOL    HW217316   2.561   2.884   8.506 -1.0191 -0.4917  0.5938
 1953SOL     OW17317   2.326   1.633   8.219 -0.2492  0.0950  0.2531
 1953SOL    HW117318   2.392   1.604   8.283  0.2930 -2.0319 -1.2943
 1953SOL    HW217319   2.256   1.590   8.269  0.0432 -1.3491 -0.5793
 1954SOL     OW17320   2.498   0.974  10.071 -0.1843  0.1565  0.3856
 1954SOL    HW117321   2.487   0.880  10.084  1.0557  0.2130  1.8416
 1954SOL    HW217322   2.555   0.975   9.994 -2.2367  0.2760 -1.1286
 1955SOL     OW17323   0.716   1.273   2.025  0.2955  0.0839 -0.1070
 1955SOL    HW117324   0.633   1.318   2.039 -0.7367 -1.6506 -0.6170
 1955SOL    HW217325   0.784   1.333   2.054 -2.0065  2.2186  0.8815
 1956SOL     OW17326   3.471   4.114   8.557 -0.0100 -0.0476 -0.2552
 1956SOL    HW117327   3.562   4.089   8.544  1.3444  3.6702  1.8040
 1956SOL    HW217328   3.457   4.166   8.478  1.6091 -0.7085 -0.9691
 1957SOL     OW17329   2.860   3.072   6.282  0.6061  0.2783  0.2043
 1957SOL    HW117330   2.782   3.120   6.253 -0.0514  0.0868  1.6374
 1957SOL    HW217331   2.866   3.105   6.371 -1.9681 -2.0534  1.2522
 1958SOL     OW17332   1.154   2.139  16.882  0.4795  0.1536 -0.4597
 1958SOL    HW117333   1.189   2.200  16.817 -1.6940  0.9975 -0.8338
 1958SOL    HW217334   1.217   2.151  16.953 -0.8478 -1.3896  0.9993
 1959SOL     OW17335   3.917   2.022   5.665 -0.6617  0.3661 -0.3013
 1959SOL    HW117336   3.958   2.069   5.737 -1.7426  1.4576 -0.4094
 1959SOL    HW217337   3.825   2.047   5.665 -0.8502 -0.3503  2.0696
 1960SOL     OW17338   1.480   3.644   9.317 -0.7232  0.0744 -0.0713
 1960SOL    HW117339   1.520   3.576   9.372 -1.5506  0.5021  1.0435
 1960SOL    HW217340   1.445   3.706   9.381 -1.1894 -0.0430 -0.2170
 1961SOL     OW17341   0.271   1.446  16.408 -0.2881  0.6136 -0.4951
 1961SOL    HW117342   0.359   1.414  16.429 -0.1800  1.1504 -0.1464
 1961SOL    HW217343   0.236   1.359  16.385  0.9822  0.7013 -2.7517
 1962SOL     OW17344   3.720   2.390  15.454 -0.5557  0.5723  0.0494
 1962SOL    HW117345   3.633   2.350  15.447 -0.0288 -0.6637  0.6615
 1962SOL    HW217346   3.705   2.471  15.406  1.2710 -0.0211 -1.4783
 1963SOL     OW17347   1.835   0.548   2.794 -0.3566  0.7873 -0.6929
 1963SOL    HW117348   1.838   0.472   2.736  0.8206  0.6848 -0.5070
 1963SOL    HW217349   1.745   0.551   2.827  0.8503 -0.9968  2.7652
 1964SOL     OW17350   4.329   0.225  15.711  0.2125 -0.2793  0.7886
 1964SOL    HW117351   4.234   0.232  15.722  0.5160  1.6493  2.2010
 1964SOL    HW217352   4.355   0.261  15.796  1.9785 -1.3204  0.6952
 1965SOL     OW17353   3.221   2.860  11.395  0.2571  0.4643 -0.1832
 1965SOL    HW117354   3.252   2.780  11.353  1.4577  1.0571 -0.4346
 1965SOL    HW217355   3.299   2.893  11.440 -0.8804  1.8899  0.7735
 1966SOL     OW17356   0.830   4.678   8.627  0.1607  0.0383 -0.0280
 1966SOL    HW117357   0.919   4.657   8.597  0.0626  3.4295 -2.6876
 1966SOL    HW217358   0.787   0.008   8.563  0.4412 -2.5504 -2.4741
 1967SOL     OW17359   0.869   0.299   8.437 -0.2804 -0.3128  0.1081
 1967SOL    HW117360   0.804   0.233   8.461  1.2811 -1.2124  1.8437
 1967SOL    HW217361   0.954   0.261   8.413  0.2055  1.6945 -1.3846
 1968SOL     OW17362   2.201   1.918   8.493  0.1788  0.0158 -0.0049
 1968SOL    HW117363   2.138   1.877   8.434  0.0931  0.3396 -0.1365
 1968SOL    HW217364   2.238   1.990   8.443  2.1299 -1.1904 -0.2750
 1969SOL     OW17365   1.686   1.804   7.976  0.3767  0.2507  0.4045
 1969SOL    HW117366   1.605   1.818   7.926  0.6319 -1.4675 -0.4917
 1969SOL    HW217367   1.679   1.710   7.992 -3.6193  0.4004 -0.4444
 1970SOL     OW17368   1.691   2.368   7.097 -0.1838  0.6479 -0.3495
 1970SOL    HW117369   1.754   2.403   7.033  0.0863  3.5382  1.4554
 1970SOL    HW217370   1.615   2.333   7.052 -0.4908 -0.2145  0.8393
 1971SOL     OW17371   3.173   1.488   7.626  0.1151 -0.1592  0.6485
 1971SOL    HW117372   3.152   1.450   7.541 -0.5331 -1.6671  1.4818
 1971SOL    HW217373   3.254   1.444   7.651 -0.0807 -0.4050  0.8419
 1972SOL     OW17374   4.098   4.195   4.366 -0.7789  0.3376 -0.7812
 1972SOL    HW117375   4.159   4.138   4.319 -0.9734 -1.0426  0.6773
 1972SOL    HW217376   4.154   4.272   4.381 -0.5551  0.7122 -3.4914
 1973SOL     OW17377   0.932   2.537   0.269 -0.2621  0.1710 -0.4058
 1973SOL    HW117378   0.951   2.466   0.208  0.5593 -0.6140  0.7910
 1973SOL    HW217379   0.883   2.598   0.212 -0.2118  0.7271  0.1451
 1974SOL     OW17380   3.762   3.125   9.077  0.1193  0.2159 -0.2146
 1974SOL    HW117381   3.730   3.081   9.156  0.4490  0.5944  0.1241
 1974SOL    HW217382   3.687   3.163   9.030 -0.6213  1.3725  1.8845
 1975SOL     OW17383   2.755   4.407  17.197  0.4575  0.2140  0.0680
 1975SOL    HW117384   2.800   4.376  17.276  1.7373 -2.1058 -1.5937
 1975SOL    HW217385   2.752   4.331  17.140  0.8094  0.7068 -0.6059
 1976SOL     OW17386   4.317   0.061   3.343  0.8172  0.4925  0.5614
 1976SOL    HW117387   4.267   0.094   3.268  1.3154 -0.2816 -0.1231
 1976SOL    HW217388   4.247   0.063   3.408  0.0465  2.9823 -0.3463
 1977SOL     OW17389   1.942   2.798   0.260  0.1190  0.1702 -0.2590
 1977SOL    HW117390   1.922   2.763   0.347 -0.5419  0.7515 -0.1782
 1977SOL    HW217391   2.009   2.741   0.223  0.6780  0.5358  0.1807
 1978SOL     OW17392   0.423   1.195   8.928 -0.3028  0.0299  0.4998
 1978SOL    HW117393   0.478   1.188   9.006  0.6808 -0.7173 -0.2542
 1978SOL    HW217394   0.332   1.175   8.948 -1.0832  1.7934 -1.3167
 1979SOL     OW17395   1.230   0.939   6.380  0.1028 -0.4523 -0.4713
 1979SOL    HW117396   1.323   0.943   6.402  0.5624  0.9803 -2.6516
 1979SOL    HW217397   1.234   0.913   6.288 -0.3844 -0.2044 -0.5622
 1980SOL     OW17398   2.031   0.109  13.723  0.0184 -0.2084  0.0869
 1980SOL    HW117399   1.961   0.170  13.703 -0.9875 -1.5238 -0.4502
 1980SOL    HW217400   1.995   0.026  13.691  0.5104  1.1069 -3.8111
 1981SOL     OW17401   1.107   0.753   5.589  0.2004 -0.0604  0.3581
 1981SOL    HW117402   1.112   0.845   5.567 -0.0338  0.0987  0.9642
 1981SOL    HW217403   1.047   0.712   5.526  0.3784 -1.8856  1.3494
 1982SOL     OW17404   1.958   2.840  17.558 -0.1906  0.7365 -0.3424
 1982SOL    HW117405   2.043   2.876  17.535  0.6534 -1.0875 -0.1025
 1982SOL    HW217406   1.984   2.748  17.559 -1.4841  0.3733  0.9618
 1983SOL     OW17407   2.836   0.368   3.328  0.2682 -0.0099 -0.5110
 1983SOL    HW117408   2.869   0.441   3.381  4.3055 -0.2935 -2.6279
 1983SOL    HW217409   2.843   0.296   3.390 -0.6554  1.5584  1.4055
 1984SOL     OW17410   1.489   4.307   6.615  0.2452  0.1849  0.2483
 1984SOL    HW117411   1.557   4.357   6.660  0.7388  0.7612 -1.1390
 1984SOL    HW217412   1.434   4.304   6.693  0.1252  0.2369  0.1647
 1985SOL     OW17413   0.339   3.574   4.454  0.2350  0.4813 -0.2048
 1985SOL    HW117414   0.324   3.483   4.479  1.3222 -0.3400 -2.5218
 1985SOL    HW217415   0.250   3.605   4.438 -0.2496 -1.1914 -0.8216
 1986SOL     OW17416   0.626   2.072   6.794 -0.1157  0.3082 -0.0502
 1986SOL    HW117417   0.680   2.009   6.842  0.1617 -0.3218 -1.1786
 1986SOL    HW217418   0.630   2.154   6.843  1.4694 -0.4324  1.0783
 1987SOL     OW17419   2.555   0.028  10.596  0.2918 -0.0914 -0.0089
 1987SOL    HW117420   2.593   4.696  10.530  0.2903  0.0061 -0.0963
 1987SOL    HW217421   2.574   0.109  10.547  0.1464  0.1874  0.3976
 1988SOL     OW17422   4.676   2.539   7.055  0.6901  0.0574  0.1516
 1988SOL    HW117423   4.685   2.628   7.089 -0.6003  0.8539 -1.5951
 1988SOL    HW217424   4.587   2.524   7.085  0.6955  0.4838  0.3928
 1989SOL     OW17425   0.002   2.058   5.244 -0.2004  0.0088  0.0209
 1989SOL    HW117426   0.015   1.983   5.302  3.3199  1.7911  1.5618
 1989SOL    HW217427   0.073   2.042   5.181  0.8824 -1.2907  1.5621
 1990SOL     OW17428   4.332   2.173   5.138 -0.1586 -0.3441  0.5544
 1990SOL    HW117429   4.262   2.194   5.077  2.4417 -1.1009 -2.6645
 1990SOL    HW217430   4.408   2.164   5.080  0.4024  1.1413  1.0390
 1991SOL     OW17431   3.417   1.765  16.277 -0.0166  0.2868  0.2352
 1991SOL    HW117432   3.345   1.748  16.216  1.0151  1.0913 -1.2147
 1991SOL    HW217433   3.403   1.705  16.351  0.1704  0.0105  0.0489
 1992SOL     OW17434   4.481   2.072   3.401  0.2657  0.2315  0.4261
 1992SOL    HW117435   4.537   2.001   3.433  1.9594  0.4902 -1.9458
 1992SOL    HW217436   4.494   2.135   3.471  1.8506  0.8924 -0.4840
 1993SOL     OW17437   1.560   1.816   6.644 -0.1633  0.0569  1.1185
 1993SOL    HW117438   1.569   1.908   6.667 -0.2725  0.1938  0.6256
 1993SOL    HW217439   1.640   1.822   6.592 -1.4769 -1.7328 -1.1091
 1994SOL     OW17440   3.138   4.476   4.605 -0.4612  0.1434 -0.1732
 1994SOL    HW117441   3.155   4.382   4.617 -0.3799  0.1129 -0.5236
 1994SOL    HW217442   3.085   4.470   4.526 -0.5254 -3.2447  0.1205
 1995SOL     OW17443   3.573   3.441   7.782  0.0947 -0.0371  0.1723
 1995SOL    HW117444   3.606   3.529   7.794 -2.0495  0.9273 -1.0206
 1995SOL    HW217445   3.489   3.454   7.736  1.2033  0.4287 -1.7244
 1996SOL     OW17446   2.933   3.864   4.788  0.3198  0.3893  0.0434
 1996SOL    HW117447   2.906   3.954   4.804  0.0476  0.4916 -0.9909
 1996SOL    HW217448   3.029   3.861   4.781  0.3377 -1.2417  0.7817
 1997SOL     OW17449   2.174   0.395   6.353 -0.2312 -0.1382 -0.4437
 1997SOL    HW117450   2.169   0.300   6.343 -1.1754 -0.0365 -0.9796
 1997SOL    HW217451   2.083   0.413   6.378  0.0576  0.1604  0.4089
 1998SOL     OW17452   1.536   2.961   6.598 -0.1497 -0.7577 -0.4449
 1998SOL    HW117453   1.530   2.869   6.573 -0.5051 -1.3656  1.8075
 1998SOL    HW217454   1.467   2.962   6.664  1.8964 -0.6460  1.7138
 1999SOL     OW17455   2.939   3.593   2.590  0.1984  0.3443  0.0880
 1999SOL    HW117456   2.892   3.514   2.564 -1.3547  1.0818  0.6132
 1999SOL    HW217457   3.032   3.575   2.579 -0.1608 -0.2218 -2.0825
 2000SOL     OW17458   4.314   2.134   5.700 -0.9001  0.5445  0.2836
 2000SOL    HW117459   4.382   2.094   5.646 -3.0352 -0.3238 -1.7992
 2000SOL    HW217460   4.337   2.121   5.792  0.7773 -3.1081 -0.6687
 2001SOL     OW17461   3.098   3.462   3.902 -0.2611 -0.0174  0.5271
 2001SOL    HW117462   3.086   3.426   3.814 -1.4642  0.1788  0.6097
 2001SOL    HW217463   3.059   3.392   3.954  0.4991  0.5200  1.8019
 2002SOL     OW17464   1.295   0.670   6.641 -1.0162  0.3551 -0.1644
 2002SOL    HW117465   1.368   0.729   6.658 -0.6340 -0.1738  0.0156
 2002SOL    HW217466   1.346   0.620   6.577 -1.1310 -0.8434  0.6886
 2003SOL     OW17467   4.415   2.584   4.725 -0.6695 -0.4717  0.1465
 2003SOL    HW117468   4.374   2.609   4.808 -1.9173 -1.0482 -0.2910
 2003SOL    HW217469   4.389   2.493   4.707  1.1531 -0.3733 -2.9672
 2004SOL     OW17470   0.967   0.197  13.478 -0.3786  0.3306  0.2529
 2004SOL    HW117471   0.941   0.250  13.554 -1.0526 -0.1783  0.3805
 2004SOL    HW217472   0.879   0.169  13.452  0.2187 -0.8892 -0.4351
 2005SOL     OW17473   3.047   0.540   9.834  0.6257  0.2220  0.4442
 2005SOL    HW117474   3.039   0.453   9.795  1.4162 -0.1512  1.1131
 2005SOL    HW217475   3.010   0.601   9.769 -1.4901 -0.4216  1.0342
 2006SOL     OW17476   3.353   3.957   7.480  0.6279 -0.3900  0.0539
 2006SOL    HW117477   3.336   4.050   7.466  0.9791 -0.6810 -2.3110
 2006SOL    HW217478   3.372   3.972   7.573  1.2933 -0.1984 -0.1155
 2007SOL     OW17479   3.975   3.556  16.780  0.1985 -0.0934  0.1699
 2007SOL    HW117480   4.050   3.496  16.785  0.4659  0.3218  1.1165
 2007SOL    HW217481   4.006   3.606  16.705  0.8378 -1.2247 -0.3262
 2008SOL     OW17482   4.492   2.355  10.403 -0.7659  0.2935 -0.3210
 2008SOL    HW117483   4.535   2.415  10.342 -0.3869  0.2814 -0.0661
 2008SOL    HW217484   4.503   2.272  10.356 -1.2392  0.3307 -0.4966
 2009SOL     OW17485   0.877   4.127   1.316 -0.1676  0.5648 -0.7954
 2009SOL    HW117486   0.942   4.194   1.339 -0.3980  0.9419 -1.2534
 2009SOL    HW217487   0.808   4.183   1.280 -2.5717 -0.0983  2.7411
 2010SOL     OW17488   4.326   2.941   2.262 -0.0625  0.1277 -0.2195
 2010SOL    HW117489   4.252   2.944   2.323  0.3291  3.5285  0.0948
 2010SOL    HW217490   4.337   2.847   2.246 -1.0686 -0.1593  0.7863
 2011SOL     OW17491   3.335   0.107   5.297 -0.4850 -0.2930 -0.8161
 2011SOL    HW117492   3.257   0.072   5.341  1.6647 -2.2491  1.3901
 2011SOL    HW217493   3.294   0.177   5.246 -0.1222 -1.5377 -2.8468
 2012SOL     OW17494   1.923   2.352   2.330  0.0964  0.7150  0.3311
 2012SOL    HW117495   1.994   2.410   2.358 -1.1313  2.2841  0.2175
 2012SOL    HW217496   1.915   2.298   2.408  0.1796 -0.9977 -0.8474
 2013SOL     OW17497   4.174   1.396  17.517 -0.2258 -0.2016  0.5412
 2013SOL    HW117498   4.232   1.321  17.526  0.3605 -0.1444 -2.8562
 2013SOL    HW217499   4.188   1.428  17.428  0.3619  0.7291  0.9655
 2014SOL     OW17500   3.601   3.328   7.191  0.1850  0.2866 -0.9224
 2014SOL    HW117501   3.541   3.347   7.118  2.9748  1.1693 -3.0035
 2014SOL    HW217502   3.667   3.397   7.179  2.0077 -0.5754  4.4309
 2015SOL     OW17503   4.402   0.197  11.743 -0.5192 -0.5140  0.2019
 2015SOL    HW117504   4.350   0.255  11.687  1.9005  1.9940  0.5662
 2015SOL    HW217505   4.401   0.108  11.709 -0.9506 -0.4690  0.0975
 2016SOL     OW17506   0.916   0.740   4.682 -0.1454  0.5309 -0.1981
 2016SOL    HW117507   0.862   0.816   4.662  1.5037  1.4626 -1.1029
 2016SOL    HW217508   0.975   0.733   4.606 -0.7607 -1.8273 -0.4707
 2017SOL     OW17509   0.195   3.317   4.159 -0.4654  0.9310  0.6958
 2017SOL    HW117510   0.226   3.404   4.136  0.4574  0.7768  1.3233
 2017SOL    HW217511   0.275   3.263   4.159 -2.1202 -1.5253  1.1847
 2018SOL     OW17512   4.286   4.518  12.224  0.0775  0.0844 -0.0088
 2018SOL    HW117513   4.248   4.497  12.309 -2.1418 -1.5303 -1.3959
 2018SOL    HW217514   4.329   4.436  12.199  0.3464  0.2844 -0.1913
 2019SOL     OW17515   2.367   2.156   6.970 -0.2281  0.5971 -0.3253
 2019SOL    HW117516   2.406   2.100   6.903  2.6322  1.1013  0.9120
 2019SOL    HW217517   2.429   2.228   6.984  0.0846 -0.2308  2.6976
 2020SOL     OW17518   3.509   2.280   1.129 -0.5207  0.5076  0.2703
 2020SOL    HW117519   3.568   2.209   1.153 -0.0925  0.4673 -0.9084
 2020SOL    HW217520   3.534   2.355   1.183 -3.0866  0.7505  1.1258
 2021SOL     OW17521   4.322   1.571   3.829  0.6133 -0.0931 -0.5308
 2021SOL    HW117522   4.227   1.567   3.818  0.4334 -0.0109  0.9632
 2021SOL    HW217523   4.353   1.598   3.743  0.0792  0.0672 -0.6711
 2022SOL     OW17524   4.241   2.620   1.967  0.2366 -0.5763  0.0481
 2022SOL    HW117525   4.260   2.714   1.966 -0.2410 -0.4756 -0.0434
 2022SOL    HW217526   4.192   2.613   1.884  0.4508  0.6049 -0.1754
 2023SOL     OW17527   0.981   4.561   5.488 -0.3484 -0.2800  0.0537
 2023SOL    HW117528   1.049   4.495   5.495 -0.4498 -0.5072 -1.1682
 2023SOL    HW217529   0.927   4.532   5.562 -1.0543 -2.0484 -1.1708
 2024SOL     OW17530   1.748   3.722   8.035  0.2483 -0.3412 -0.3736
 2024SOL    HW117531   1.761   3.770   7.953 -0.1661 -1.3364 -1.0297
 2024SOL    HW217532   1.752   3.794   8.098 -1.8522 -1.0718  0.5808
 2025SOL     OW17533   1.458   1.610   4.079  0.5749  0.0180 -0.2803
 2025SOL    HW117534   1.479   1.518   4.063  0.2283  0.0045 -0.6852
 2025SOL    HW217535   1.544   1.644   4.103  0.8885 -0.0407 -1.3097
 2026SOL     OW17536   2.587   1.290   8.728  0.0749 -0.0545 -0.7600
 2026SOL    HW117537   2.523   1.298   8.799  0.5112  0.6719 -0.4467
 2026SOL    HW217538   2.666   1.291   8.781 -0.6226 -1.0374  0.2957
 2027SOL     OW17539   1.912   1.130   4.455  0.2977  0.1273 -0.0712
 2027SOL    HW117540   1.876   1.070   4.520  1.4835 -0.7334 -0.2228
 2027SOL    HW217541   1.833   1.147   4.403  1.4779  4.5238 -0.3824
 2028SOL     OW17542   0.734   3.302   7.377  0.0010  0.1483  0.1352
 2028SOL    HW117543   0.762   3.234   7.439 -1.7040  0.2158  0.9737
 2028SOL    HW217544   0.815   3.309   7.328  2.1441  0.3099  3.6754
 2029SOL     OW17545   3.208   3.126   7.955  0.2322  0.5603  0.0520
 2029SOL    HW117546   3.222   3.207   7.905  0.7289 -0.8347 -2.0737
 2029SOL    HW217547   3.292   3.106   7.996  0.9925  0.8865 -1.3448
 2030SOL     OW17548   2.319   4.684   6.252  0.5027 -0.3134 -0.4968
 2030SOL    HW117549   2.362   4.693   6.166  0.0227  0.9394 -0.6078
 2030SOL    HW217550   2.259   4.611   6.242  2.0729 -1.5482 -0.9137
 2031SOL     OW17551   1.577   3.244   3.595 -0.4044 -0.3811  0.3497
 2031SOL    HW117552   1.501   3.281   3.551 -0.4612  1.3999  1.9796
 2031SOL    HW217553   1.581   3.149   3.583 -0.5695 -0.2923 -0.4095
 2032SOL     OW17554   0.261   4.159   4.797  0.2218  0.0824  0.3838
 2032SOL    HW117555   0.205   4.103   4.850  1.8304 -1.6878  0.2466
 2032SOL    HW217556   0.286   4.101   4.724  0.3510 -0.8927  1.2096
 2033SOL     OW17557   0.185   1.205   1.872 -0.7202  0.2957 -0.4690
 2033SOL    HW117558   0.106   1.199   1.927 -0.2833 -1.8947 -0.0679
 2033SOL    HW217559   0.146   1.236   1.791 -0.1198  1.0127 -0.4832
 2034SOL     OW17560   2.176   3.411   8.262  0.4860 -0.0890 -0.3176
 2034SOL    HW117561   2.145   3.500   8.242 -2.1212 -0.7572  0.8153
 2034SOL    HW217562   2.261   3.408   8.217  0.3971  1.1600 -0.5710
 2035SOL     OW17563   0.631   1.152   4.530 -0.0668 -0.5959  0.1852
 2035SOL    HW117564   0.645   1.149   4.436  0.2396 -1.5833  0.2649
 2035SOL    HW217565   0.542   1.188   4.528 -0.7391 -2.2059  1.3589
 2036SOL     OW17566   2.033   0.673   0.036  0.3076  0.5963 -0.2616
 2036SOL    HW117567   1.970   0.677  17.670 -2.0245  0.6091  1.8035
 2036SOL    HW217568   2.004   0.745   0.092 -0.0478 -1.1500  1.7933
 2037SOL     OW17569   1.663   4.425  10.790  0.0897 -0.3869  0.1502
 2037SOL    HW117570   1.751   4.389  10.802  0.4159  0.8885  1.6298
 2037SOL    HW217571   1.637   4.381  10.709  1.1149  0.3158 -0.5558
 2038SOL     OW17572   1.186   1.541   6.722  0.1336 -0.0631 -0.2873
 2038SOL    HW117573   1.219   1.606   6.660  0.6112  1.5601  1.6635
 2038SOL    HW217574   1.094   1.549   6.698 -0.0799 -1.0516  0.1806
 2039SOL     OW17575   3.170   0.650   5.314  0.3203  0.0045 -0.1809
 2039SOL    HW117576   3.155   0.663   5.407  2.2281 -0.5830  0.2213
 2039SOL    HW217577   3.255   0.604   5.311  0.3873  0.0753  0.8031
 2040SOL     OW17578   2.955   2.672   3.172  0.7153 -0.1256 -0.0467
 2040SOL    HW117579   2.919   2.725   3.102 -0.3847 -2.0067 -0.8721
 2040SOL    HW217580   3.033   2.721   3.198  0.1110  0.4531  0.6713
 2041SOL     OW17581   0.684   2.944   2.164  0.4885  0.1227 -0.2507
 2041SOL    HW117582   0.744   2.922   2.092 -0.6797 -1.6110 -0.7109
 2041SOL    HW217583   0.604   2.950   2.112  0.9801  0.5245 -0.9624
 2042SOL     OW17584   4.058   3.115   3.681  0.0140  0.0750 -0.0086
 2042SOL    HW117585   4.127   3.096   3.617  0.6281  0.0038  0.6716
 2042SOL    HW217586   3.991   3.135   3.616  1.7885 -0.7674 -2.1173
 2043SOL     OW17587   0.003   1.770   7.861  0.0594  0.4199  0.6195
 2043SOL    HW117588   4.638   1.760   7.886 -0.0045 -1.6189 -0.4510
 2043SOL    HW217589   0.019   1.717   7.783  0.0856  1.4943 -0.1036
 2044SOL     OW17590   4.184   2.632   3.758 -0.1563  0.1625  0.6525
 2044SOL    HW117591   4.234   2.551   3.748  0.5680  0.7054 -0.0404
 2044SOL    HW217592   4.093   2.605   3.749  0.2934 -0.5412 -1.5534
 2045SOL     OW17593   2.234   2.658   4.643  0.8236  0.0515  0.1234
 2045SOL    HW117594   2.163   2.645   4.580 -0.7652 -0.5287  2.0358
 2045SOL    HW217595   2.224   2.587   4.706 -0.3276 -0.4360 -0.6200
 2046SOL     OW17596   2.763   1.060  10.889  0.4141 -0.0938 -0.0340
 2046SOL    HW117597   2.833   1.016  10.938 -1.8228 -2.0745  1.3837
 2046SOL    HW217598   2.722   1.108  10.961  2.5144 -0.9083  1.7176
 2047SOL     OW17599   1.630   3.369  15.137 -0.3355 -0.9072  0.1726
 2047SOL    HW117600   1.655   3.436  15.201  3.7058 -1.4721 -0.7839
 2047SOL    HW217601   1.564   3.418  15.088 -1.3106 -3.8518 -1.4925
 2048SOL     OW17602   3.503   0.708  11.851  0.7047 -0.2935  0.0421
 2048SOL    HW117603   3.443   0.647  11.807  1.8007 -1.0520 -0.4180
 2048SOL    HW217604   3.452   0.758  11.915 -1.7490  0.0052 -2.1419
 2049SOL     OW17605   4.472   1.523   2.834 -0.2958 -0.0468 -0.6139
 2049SOL    HW117606   4.444   1.480   2.915 -1.8324  0.1464 -1.0429
 2049SOL    HW217607   4.389   1.522   2.786 -1.2724  3.0496  0.9933
 2050SOL     OW17608   4.119   1.332   5.967 -0.0299 -0.0616  0.2721
 2050SOL    HW117609   4.098   1.399   5.902  1.2382  1.0747  1.0497
 2050SOL    HW217610   4.213   1.321   5.950 -0.3785 -0.7000 -1.3180
 2051SOL     OW17611   2.471   4.059   4.569 -0.4501  0.5937  0.7542
 2051SOL    HW117612   2.497   4.151   4.573 -1.2026  0.8917 -1.3097
 2051SOL    HW217613   2.547   4.012   4.603  1.1676  2.5580 -0.1940
 2052SOL     OW17614   4.400   0.849  10.300 -0.6691 -0.1637  0.0962
 2052SOL    HW117615   4.453   0.789  10.352 -2.0355 -1.9265 -0.5560
 2052SOL    HW217616   4.312   0.820  10.324  0.5097 -2.1963  1.9968
 2053SOL     OW17617   2.386   3.005   3.475  0.1921 -0.0737 -0.4340
 2053SOL    HW117618   2.355   2.917   3.454  0.9693 -0.8199  1.5517
 2053SOL    HW217619   2.461   2.982   3.530  1.2602  1.3616 -1.2845
 2054SOL     OW17620   4.552   2.847   9.033  0.0450  0.5646  0.1851
 2054SOL    HW117621   4.617   2.915   9.013  0.1302  0.2173 -0.7242
 2054SOL    HW217622   4.524   2.875   9.120  2.3782  1.6954  0.5825
 2055SOL     OW17623   2.341   3.210  15.306  0.8101 -0.0752 -0.0187
 2055SOL    HW117624   2.397   3.287  15.295  1.0359 -0.0117  1.5554
 2055SOL    HW217625   2.394   3.151  15.253  1.8597  0.9634 -0.1271
 2056SOL     OW17626   2.512   2.549   4.710  0.2886  0.2618  0.0809
 2056SOL    HW117627   2.593   2.498   4.717  0.2809  0.2240 -0.0957
 2056SOL    HW217628   2.530   2.623   4.768  2.8052 -0.5366  0.3112
 2057SOL     OW17629   2.701   4.323   8.679 -0.7467  0.2763  0.1127
 2057SOL    HW117630   2.769   4.390   8.670  1.2831 -1.1041  5.1408
 2057SOL    HW217631   2.638   4.362   8.740 -0.3519  1.4634 -0.2446
 2058SOL     OW17632   1.760   1.420   5.540  0.2367  0.3817 -0.7934
 2058SOL    HW117633   1.679   1.424   5.592 -0.1974  0.2764 -1.4580
 2058SOL    HW217634   1.826   1.422   5.609  0.6375  0.5037 -1.1828
 2059SOL     OW17635   2.865   3.835   8.120  0.5293 -0.9183 -0.6236
 2059SOL    HW117636   2.827   3.815   8.206 -1.0181 -0.2779 -1.1525
 2059SOL    HW217637   2.948   3.790   8.135  0.8938  0.4942  1.5778
 2060SOL     OW17638   1.020   3.265   7.753 -0.2733 -0.4526 -0.4119
 2060SOL    HW117639   1.116   3.265   7.748 -0.4160  2.6579 -3.3407
 2060SOL    HW217640   1.009   3.266   7.848 -0.9929 -1.1462 -0.4831
 2061SOL     OW17641   1.866   1.060  16.136 -0.3018  0.0640  0.0449
 2061SOL    HW117642   1.851   1.154  16.138  1.2684  0.3728 -1.8571
 2061SOL    HW217643   1.851   1.027  16.224  1.4227 -2.1967 -0.4965
 2062SOL     OW17644   3.756   4.498   7.646  0.2893 -0.2324 -0.2502
 2062SOL    HW117645   3.753   4.536   7.734  2.0174 -0.3165 -0.1530
 2062SOL    HW217646   3.665   4.507   7.617 -0.3987 -0.6610  1.8107
 2063SOL     OW17647   1.766   2.855   1.618 -0.5772  0.4195  0.2610
 2063SOL    HW117648   1.858   2.847   1.593 -0.4432 -0.2874  0.9809
 2063SOL    HW217649   1.768   2.926   1.681 -2.5866 -0.2044  1.0552
 2064SOL     OW17650   0.731   0.447   4.016 -0.1474  0.3876  0.3366
 2064SOL    HW117651   0.814   0.478   4.054 -0.7109  1.5729  0.5966
 2064SOL    HW217652   0.731   0.502   3.938 -0.1547  0.1567  0.1722
 2065SOL     OW17653   0.830   0.317   6.966  0.0082 -1.0577 -0.1803
 2065SOL    HW117654   0.815   0.406   6.997  0.2904 -1.3446  0.7880
 2065SOL    HW217655   0.828   0.331   6.872  1.1231 -0.2624 -0.0968
 2066SOL     OW17656   4.035   3.896   4.702  0.1271 -0.1333  0.6249
 2066SOL    HW117657   4.023   3.983   4.662 -0.3582  0.2889  1.6710
 2066SOL    HW217658   4.034   3.923   4.794  2.9067  0.5948  0.4213
 2067SOL     OW17659   4.501   4.055  13.943  0.7645  0.7078  0.1849
 2067SOL    HW117660   4.481   4.136  13.989 -1.7600 -0.5985  1.3893
 2067SOL    HW217661   4.478   4.084  13.855  2.3789 -0.9889 -0.7977
 2068SOL     OW17662   2.433   2.409  16.687 -0.1236  0.8044  0.0078
 2068SOL    HW117663   2.405   2.434  16.599  2.2058  2.4181 -0.2527
 2068SOL    HW217664   2.522   2.375  16.675 -0.3254  0.1758  0.2836
 2069SOL     OW17665   3.964   0.914  11.504  0.7352  0.1772 -0.0290
 2069SOL    HW117666   3.930   0.824  11.503 -2.7563  1.4567  1.0782
 2069SOL    HW217667   4.040   0.893  11.449 -0.7725 -1.0337 -1.6701
 2070SOL     OW17668   2.620   3.155   9.402  0.4664  0.6712 -0.0748
 2070SOL    HW117669   2.690   3.131   9.463  0.4509  1.8969  0.4191
 2070SOL    HW217670   2.603   3.244   9.433  0.0600 -0.2506  2.3024
 2071SOL     OW17671   2.686   2.083   0.495  0.7873 -0.5042  0.0968
 2071SOL    HW117672   2.678   2.036   0.578  1.2084  0.6367  0.7823
 2071SOL    HW217673   2.616   2.050   0.438  0.2567  1.3261 -0.3230
 2072SOL     OW17674   2.728   4.117  16.494 -0.4367  0.0409  0.4957
 2072SOL    HW117675   2.650   4.101  16.441 -0.7352  1.9373  0.3575
 2072SOL    HW217676   2.708   4.064  16.572  0.6039  1.5368  1.7809
 2073SOL     OW17677   3.781   1.316   6.164 -0.4405  0.2869  0.1470
 2073SOL    HW117678   3.697   1.323   6.209  0.0762 -2.9966  1.6696
 2073SOL    HW217679   3.761   1.281   6.077  2.8988  1.5210 -1.1030
 2074SOL     OW17680   0.031   0.155   2.783  0.2722 -0.0039 -0.1300
 2074SOL    HW117681   4.670   0.192   2.770  0.2363  1.1586  3.5665
 2074SOL    HW217682   0.065   0.206   2.857 -4.2511  3.4228 -0.4490
 2075SOL     OW17683   1.196   4.490   2.446 -0.4164  0.4083  0.2907
 2075SOL    HW117684   1.272   4.437   2.421 -2.0207 -2.6171  1.8112
 2075SOL    HW217685   1.218   4.561   2.385  2.7948 -0.6366  0.2604
 2076SOL     OW17686   2.832   4.707  13.388  0.1276 -0.0856  0.0459
 2076SOL    HW117687   2.784   4.699  13.470  0.0548  2.5687  0.2823
 2076SOL    HW217688   2.859   4.619  13.362  1.2550 -0.3191  1.9630
 2077SOL     OW17689   2.688   4.270   0.695 -0.0013  0.1083 -0.3565
 2077SOL    HW117690   2.769   4.300   0.653  1.7995 -0.7110  2.5200
 2077SOL    HW217691   2.707   4.177   0.708 -0.4724  0.1276  0.4660
 2078SOL     OW17692   4.019   2.742   2.518 -0.1907 -0.4892 -0.3097
 2078SOL    HW117693   4.101   2.757   2.565  1.0943 -1.9029 -2.1128
 2078SOL    HW217694   4.018   2.826   2.472  1.1640 -0.9482 -1.1814
 2079SOL     OW17695   4.502   1.507  11.923 -0.1661 -0.1027  0.0302
 2079SOL    HW117696   4.484   1.413  11.930 -0.7702  0.2072  2.8313
 2079SOL    HW217697   4.597   1.497  11.922 -0.1277  0.3009 -0.2181
 2080SOL     OW17698   3.597   2.776  15.038  0.0269 -0.3798 -0.9309
 2080SOL    HW117699   3.630   2.747  15.123 -0.5349 -1.5598 -1.1203
 2080SOL    HW217700   3.676   2.809  14.995 -0.9246  0.4838 -2.0257
 2081SOL     OW17701   0.536   0.102  13.920 -0.6892 -0.2659  0.1843
 2081SOL    HW117702   0.468   0.135  13.863  1.8295  1.9025 -1.5702
 2081SOL    HW217703   0.607   0.075  13.862  0.4304  4.7714 -0.7442
 2082SOL     OW17704   2.102   0.013   1.524 -0.2791 -0.3872  0.0568
 2082SOL    HW117705   2.118   0.079   1.456  1.9734 -3.1892 -2.1391
 2082SOL    HW217706   2.193   4.708   1.528 -0.8416 -1.7936  1.7317
 2083SOL     OW17707   0.243   0.110   2.612  0.1797  0.0460 -0.2030
 2083SOL    HW117708   0.309   0.107   2.682 -0.1927 -1.3989  0.0855
 2083SOL    HW217709   0.163   0.105   2.665  0.0021 -2.2128 -0.6891
 2084SOL     OW17710   3.084   1.571   4.312 -0.2130 -0.2194 -0.2909
 2084SOL    HW117711   3.042   1.532   4.236  1.0130 -1.2691 -0.4448
 2084SOL    HW217712   3.057   1.663   4.309  1.5951  0.3083 -0.4305
 2085SOL     OW17713   3.211   3.724   7.000  0.2963  0.2361  0.0594
 2085SOL    HW117714   3.223   3.661   7.071  0.1454 -2.3839 -2.2861
 2085SOL    HW217715   3.250   3.800   7.045  0.5102  0.0905  0.1201
 2086SOL     OW17716   2.408   2.690   5.541  0.0397  0.0246  0.1591
 2086SOL    HW117717   2.433   2.715   5.452 -0.5832  1.0507  0.2724
 2086SOL    HW217718   2.416   2.595   5.548  1.5252  0.2221  0.9665
 2087SOL     OW17719   1.493   4.701   8.116  0.1049 -0.0328 -0.0010
 2087SOL    HW117720   1.424   4.712   8.050  0.3794  0.0750 -0.2667
 2087SOL    HW217721   1.524   0.064   8.132 -1.0958  0.3620  0.1126
 2088SOL     OW17722   2.978   2.859   7.546 -0.7541 -0.2436  0.1338
 2088SOL    HW117723   2.988   2.824   7.458  0.9300 -1.1145  0.6635
 2088SOL    HW217724   2.886   2.884   7.536  0.1374  3.2073  0.4169
 2089SOL     OW17725   4.332   2.803   9.248  0.2081 -0.1092 -0.0388
 2089SOL    HW117726   4.379   2.882   9.275  0.6273 -0.3262 -0.1382
 2089SOL    HW217727   4.378   2.740   9.304  1.6633  2.0985  1.2473
 2090SOL     OW17728   2.299   4.281   0.992 -0.1454 -0.2483 -0.3295
 2090SOL    HW117729   2.390   4.253   0.987 -0.1279 -0.2884  0.2899
 2090SOL    HW217730   2.271   4.227   1.066  2.3826  0.7517  1.3521
 2091SOL     OW17731   3.580   1.821   8.982 -0.3816  0.0665  0.5325
 2091SOL    HW117732   3.581   1.915   8.998  0.1993  0.0275  0.7246
 2091SOL    HW217733   3.491   1.811   8.949 -0.3775  3.0862 -0.3557
 2092SOL     OW17734   3.039   2.476   5.772 -0.3135 -0.2474  0.1245
 2092SOL    HW117735   3.035   2.510   5.682  0.7177 -0.3167  0.0531
 2092SOL    HW217736   3.006   2.549   5.825 -1.0274  0.0540 -0.7221
 2093SOL     OW17737   0.670   0.497  14.730  0.0372 -0.6927 -0.6614
 2093SOL    HW117738   0.578   0.513  14.710  0.7728  1.2310 -2.4820
 2093SOL    HW217739   0.704   0.464  14.647  2.1388 -2.0609  0.7670
 2094SOL     OW17740   0.471   2.904   4.550  0.5017  0.4984 -0.1088
 2094SOL    HW117741   0.522   2.981   4.573  1.0042  0.5088 -1.2460
 2094SOL    HW217742   0.395   2.933   4.500 -0.2102 -1.6787 -0.2632
 2095SOL     OW17743   3.362   0.814   4.437  0.0723 -0.3218  0.3766
 2095SOL    HW117744   3.345   0.771   4.521  0.5301 -1.9598 -0.3598
 2095SOL    HW217745   3.360   0.741   4.375 -3.6832  0.6572 -0.6940
 2096SOL     OW17746   0.653   2.643   8.113 -0.1587 -0.5015 -0.1893
 2096SOL    HW117747   0.663   2.698   8.192  2.1511 -1.0822 -0.0612
 2096SOL    HW217748   0.744   2.626   8.089  0.3829 -1.4382  2.4770
 2097SOL     OW17749   1.157   0.634   7.535  0.2622  0.2614 -0.1228
 2097SOL    HW117750   1.250   0.639   7.512 -0.0928  0.9200 -1.4496
 2097SOL    HW217751   1.136   0.727   7.539 -0.6382  0.1316 -1.6009
 2098SOL     OW17752   2.984   1.491   6.640  0.1459 -0.9454 -0.3037
 2098SOL    HW117753   3.053   1.503   6.706 -0.3370 -0.3871  0.1047
 2098SOL    HW217754   3.029   1.529   6.565  2.6806  0.6128  1.9827
 2099SOL     OW17755   3.022   0.616   6.250 -0.5481  0.5044 -0.4428
 2099SOL    HW117756   3.091   0.614   6.183  0.5786 -2.3864  0.7990
 2099SOL    HW217757   3.016   0.526   6.284  0.0531  0.3940 -0.6322
 2100SOL     OW17758   4.223   3.475   2.416  0.0538  0.6479 -0.0110
 2100SOL    HW117759   4.283   3.535   2.460  0.4964  0.4918 -0.4044
 2100SOL    HW217760   4.173   3.443   2.491 -1.7525 -1.3642 -2.0438
 2101SOL     OW17761   0.699   2.261   5.606 -0.0315  0.4899  0.5366
 2101SOL    HW117762   0.648   2.206   5.666  0.3320 -0.7767 -0.3227
 2101SOL    HW217763   0.786   2.224   5.624 -0.3512 -0.0429  1.0013
 2102SOL     OW17764   2.216   0.139   0.301 -0.3933 -0.5513 -0.5800
 2102SOL    HW117765   2.193   0.164   0.211  1.6737  0.6167 -0.7621
 2102SOL    HW217766   2.124   0.137   0.329  0.4787 -2.4876  2.0777
 2103SOL     OW17767   3.595   2.558  12.837 -0.3937 -0.1084 -0.9332
 2103SOL    HW117768   3.635   2.546  12.751  3.2228 -0.7347  0.8104
 2103SOL    HW217769   3.537   2.482  12.847 -0.2065 -0.3167 -1.4095
 2104SOL     OW17770   0.190   2.611   1.576 -0.3970 -0.3963  0.0326
 2104SOL    HW117771   0.242   2.686   1.605  1.0443 -0.9220 -1.1851
 2104SOL    HW217772   0.256   2.543   1.588  0.2941  0.3079  0.2481
 2105SOL     OW17773   4.168   0.102   7.848 -0.0156  0.3027 -0.3739
 2105SOL    HW117774   4.108   0.028   7.850 -0.9773  1.0744 -1.3421
 2105SOL    HW217775   4.110   0.173   7.823 -0.3010  1.0171  2.2996
 2106SOL     OW17776   4.324   2.140   3.955 -0.5797  0.3134  0.1253
 2106SOL    HW117777   4.403   2.091   3.978 -0.9346 -1.2166 -1.8709
 2106SOL    HW217778   4.252   2.077   3.957  0.5354 -0.9950 -1.2243
 2107SOL     OW17779   3.795   0.568   4.010 -0.2068 -0.2015 -0.2473
 2107SOL    HW117780   3.822   0.658   4.030  0.1877 -0.7389  1.6282
 2107SOL    HW217781   3.739   0.546   4.084  1.1604  0.7315  1.0653
 2108SOL     OW17782   4.501   1.035  11.703 -0.3381  0.7530  0.0889
 2108SOL    HW117783   4.542   1.005  11.784  1.0782  0.6767 -0.6575
 2108SOL    HW217784   4.418   1.064  11.739  0.9453 -0.3704  3.9664
 2109SOL     OW17785   0.535   0.541   8.976 -0.5858  0.3138  0.0496
 2109SOL    HW117786   0.521   0.634   8.989  1.4763  0.6372 -0.0491
 2109SOL    HW217787   0.443   0.520   8.993 -0.1376 -1.3543  0.4881
 2110SOL     OW17788   1.179   3.519  11.119 -0.4874 -0.3680 -0.6887
 2110SOL    HW117789   1.243   3.451  11.100  0.6013 -0.4456  3.1570
 2110SOL    HW217790   1.106   3.493  11.062 -0.8341  1.0939 -0.9231
 2111SOL     OW17791   4.420   3.728  17.304 -0.4274 -0.3437  0.3322
 2111SOL    HW117792   4.384   3.646  17.272 -1.3329 -0.0497  0.6155
 2111SOL    HW217793   4.346   3.769  17.348 -0.7263 -2.6777  2.0143
 2112SOL     OW17794   0.635   3.385   5.391 -0.4727  0.1216  0.0285
 2112SOL    HW117795   0.653   3.444   5.464 -0.9418 -1.4948  1.4517
 2112SOL    HW217796   0.618   3.442   5.316 -2.2301  0.3005  0.5707
 2113SOL     OW17797   3.226   2.920   9.455  0.8642 -0.5023  0.1366
 2113SOL    HW117798   3.157   2.908   9.520  0.8289  0.7084  0.3278
 2113SOL    HW217799   3.303   2.886   9.501 -0.5120 -0.1506  2.6535
 2114SOL     OW17800   1.110   2.130  16.063 -0.6109  0.4510  0.1462
 2114SOL    HW117801   1.197   2.113  16.029 -0.3249  2.6419 -0.1912
 2114SOL    HW217802   1.143   2.121  16.153 -0.3431 -0.4635 -0.0419
 2115SOL     OW17803   4.377   2.856  10.710  0.3317 -0.6883  0.1223
 2115SOL    HW117804   4.374   2.767  10.746 -2.3004  0.1769  2.0236
 2115SOL    HW217805   4.301   2.895  10.753 -0.2218 -2.0262  0.3668
 2116SOL     OW17806   0.771   3.063   6.683 -1.0364 -0.0632 -0.4831
 2116SOL    HW117807   0.808   3.121   6.616  1.0149  0.9210  1.5012
 2116SOL    HW217808   0.815   2.982   6.656  2.6019  0.5707  3.5550
 2117SOL     OW17809   3.564   0.007   5.377 -0.5144 -0.6669  0.3144
 2117SOL    HW117810   3.512   4.707   5.453 -1.5420 -2.1595 -0.9036
 2117SOL    HW217811   3.486   0.040   5.332  0.5571  1.6351  0.1297
 2118SOL     OW17812   2.394   0.146   9.545 -0.3607 -0.7462  0.1263
 2118SOL    HW117813   2.430   0.082   9.606  1.3966  0.9620  0.8561
 2118SOL    HW217814   2.301   0.120   9.547 -0.3319 -0.8201  0.5402
 2119SOL     OW17815   3.131   2.950   2.523 -0.8890 -0.7671  0.6803
 2119SOL    HW117816   3.047   2.960   2.568 -1.5994 -1.6255 -0.4649
 2119SOL    HW217817   3.102   2.923   2.436 -1.2331 -1.5788  1.0470
 2120SOL     OW17818   0.201   3.674   4.707 -0.2395 -0.4575 -0.0167
 2120SOL    HW117819   0.235   3.694   4.620  0.2137 -1.1930 -0.0133
 2120SOL    HW217820   0.112   3.640   4.695 -0.8665  0.8318  0.9096
 2121SOL     OW17821   4.627   2.976   5.528 -0.0697  0.4385  0.2068
 2121SOL    HW117822   4.717   3.007   5.529 -0.2259  0.8758  0.4933
 2121SOL    HW217823   4.639   2.891   5.570  0.3124 -0.1736 -1.1295
 2122SOL     OW17824   1.373   3.897   2.385 -0.4400  0.4093 -0.1693
 2122SOL    HW117825   1.388   3.989   2.362  2.8442  0.5445  2.4985
 2122SOL    HW217826   1.321   3.898   2.466 -1.1604 -2.1046 -0.6100
 2123SOL     OW17827   0.558   1.029   2.851  0.3654 -0.1247  0.0274
 2123SOL    HW117828   0.593   0.941   2.845 -1.8641 -1.1634  2.2161
 2123SOL    HW217829   0.558   1.055   2.759  0.0135 -0.7299 -0.1460
 2124SOL     OW17830   3.319   2.408   9.001  0.6747  0.7359 -0.4467
 2124SOL    HW117831   3.369   2.379   8.924  0.6801  0.5425 -0.3698
 2124SOL    HW217832   3.389   2.427   9.063 -0.5298  3.6013  0.0475
 2125SOL     OW17833   2.580   0.183   7.542 -0.4218  0.0079  0.4767
 2125SOL    HW117834   2.629   0.264   7.558  1.6371 -1.1392 -0.0038
 2125SOL    HW217835   2.579   0.181   7.446 -1.1398 -0.1059  0.4905
 2126SOL     OW17836   4.185   3.500   6.625  0.6259 -0.3241  0.3983
 2126SOL    HW117837   4.230   3.530   6.546 -0.9178  0.6336 -0.1152
 2126SOL    HW217838   4.096   3.521   6.597  0.7706 -0.5676 -0.2490
 2127SOL     OW17839   3.038   3.913  12.764 -0.1575  0.0758  0.2575
 2127SOL    HW117840   3.004   3.859  12.835  1.6454  1.7212  2.3906
 2127SOL    HW217841   3.126   3.877  12.750 -0.1857  0.6063 -1.3024
 2128SOL     OW17842   2.199   1.242   3.129  0.0154  0.1988  0.5788
 2128SOL    HW117843   2.140   1.316   3.115  0.5777  0.4390 -0.5918
 2128SOL    HW217844   2.222   1.243   3.222  2.2062  2.2397  0.0173
 2129SOL     OW17845   4.334   0.825   4.083  0.0020  0.6717 -0.0730
 2129SOL    HW117846   4.269   0.865   4.141  0.0172 -0.4406  0.7141
 2129SOL    HW217847   4.328   0.883   4.008  0.1037  1.9292  0.8925
 2130SOL     OW17848   0.903   3.900   6.747  0.1304  0.5035 -0.4055
 2130SOL    HW117849   0.815   3.877   6.720 -0.8088  2.8385  0.6231
 2130SOL    HW217850   0.918   3.975   6.690 -3.0096  0.5373 -1.1605
 2131SOL     OW17851   2.509   1.856  10.731  0.8764  0.0771  0.4705
 2131SOL    HW117852   2.455   1.834  10.807  1.7320 -2.2218  0.3926
 2131SOL    HW217853   2.582   1.890  10.783  0.0591  0.8476  1.1068
 2132SOL     OW17854   3.051   0.909   1.794 -0.2555  0.2185  0.6200
 2132SOL    HW117855   3.010   0.895   1.708 -2.3981  1.2812  1.4620
 2132SOL    HW217856   3.142   0.914   1.765 -1.2781 -0.3595 -2.7315
 2133SOL     OW17857   3.960   2.704  13.055  0.4554 -0.3608  0.3560
 2133SOL    HW117858   4.028   2.645  13.024  0.2391 -0.6053  0.3450
 2133SOL    HW217859   3.909   2.723  12.977 -0.4873 -1.9512  0.6001
 2134SOL     OW17860   3.252   0.910  11.673 -0.2209 -0.1904 -0.1197
 2134SOL    HW117861   3.289   0.958  11.599  0.1699  0.6596  0.6159
 2134SOL    HW217862   3.260   0.824  11.633  1.0292 -0.2519  0.2656
 2135SOL     OW17863   1.698   1.368  14.204 -0.3900 -0.4492  0.4951
 2135SOL    HW117864   1.748   1.386  14.125 -0.3941 -3.2028 -0.1339
 2135SOL    HW217865   1.663   1.281  14.184  1.9133 -1.5895  1.5207
 2136SOL     OW17866   2.664   1.608   2.017 -0.1685  0.0550 -0.2865
 2136SOL    HW117867   2.722   1.534   1.999 -1.7504 -1.1139 -0.6002
 2136SOL    HW217868   2.620   1.626   1.934  1.0085 -0.7315 -1.0861
 2137SOL     OW17869   3.590   3.963  12.294 -0.9505  0.4354 -0.4938
 2137SOL    HW117870   3.636   3.924  12.219  0.8763  1.4251  0.1330
 2137SOL    HW217871   3.557   4.046  12.262 -0.0442  0.3139 -1.7746
 2138SOL     OW17872   1.698   4.213   7.945 -0.0896 -0.0402 -0.7933
 2138SOL    HW117873   1.762   4.193   8.013 -0.0673  1.8567 -0.2318
 2138SOL    HW217874   1.754   4.235   7.871  0.3627  1.9206  0.1091
 2139SOL     OW17875   1.989   2.309   6.322  0.6571  0.3016 -0.2902
 2139SOL    HW117876   2.049   2.239   6.294  0.4107  0.0433 -0.1719
 2139SOL    HW217877   2.038   2.378   6.278  2.9173 -1.4916 -0.6198
 2140SOL     OW17878   1.548   3.591  12.410 -0.2279  0.2024 -0.2329
 2140SOL    HW117879   1.468   3.631  12.375 -0.1140 -0.2492 -0.9990
 2140SOL    HW217880   1.551   3.629  12.498  2.2815  0.3088 -0.3558
 2141SOL     OW17881   3.990   2.193   0.974 -0.0312 -0.5569 -0.4385
 2141SOL    HW117882   4.080   2.170   0.954  0.4383 -0.3370  1.4985
 2141SOL    HW217883   3.990   2.249   1.052  2.1742  0.0778 -0.9014
 2142SOL     OW17884   1.401   1.891  11.010  0.4225  0.2481  0.6530
 2142SOL    HW117885   1.364   1.874  10.923 -0.0274  1.4029  0.6231
 2142SOL    HW217886   1.398   1.987  11.013  2.4106  0.3982 -1.5969
 2143SOL     OW17887   3.582   1.911   1.636  0.2209 -0.0246 -0.1704
 2143SOL    HW117888   3.657   1.969   1.645  2.2183 -2.9287  1.8711
 2143SOL    HW217889   3.512   1.960   1.593  0.2037 -1.5955 -1.9265
 2144SOL     OW17890   0.489   1.298  13.707  0.0284  0.8924  0.0677
 2144SOL    HW117891   0.556   1.232  13.725  0.7483  1.5310 -0.2588
 2144SOL    HW217892   0.477   1.282  13.614 -3.2697 -0.7216  0.7908
 2145SOL     OW17893   0.390   0.485   0.045  0.6697 -0.0917 -0.2251
 2145SOL    HW117894   0.330   0.411   0.050  0.7947 -0.1720  0.1588
 2145SOL    HW217895   0.414   0.504   0.136  1.4669 -2.1614  0.0101
 2146SOL     OW17896   3.445   3.607   6.413 -0.1039  0.4997 -0.1101
 2146SOL    HW117897   3.466   3.616   6.506  2.0719 -1.5382 -0.4076
 2146SOL    HW217898   3.474   3.692   6.379  1.2134 -0.1138 -0.4916
 2147SOL     OW17899   3.524   3.335  13.919 -0.5301 -0.3688  0.1222
 2147SOL    HW117900   3.533   3.428  13.897  4.2112 -1.0572 -0.9954
 2147SOL    HW217901   3.606   3.319  13.966  0.7700 -1.4783 -2.5230
 2148SOL     OW17902   0.946   1.029   1.888 -0.3259 -0.1280  0.5196
 2148SOL    HW117903   0.957   1.109   1.940 -0.4246  0.6630 -0.6870
 2148SOL    HW217904   0.858   1.043   1.853  0.1489 -0.2959 -0.7316
 2149SOL     OW17905   2.303   4.619   0.421  0.3888 -0.1773  0.9147
 2149SOL    HW117906   2.282   4.653   0.509 -1.0069 -1.4577  1.0632
 2149SOL    HW217907   2.286   4.697   0.368 -1.7323 -1.4200 -0.1941
 2150SOL     OW17908   0.960   2.836  12.999 -0.3742  0.0522 -0.5982
 2150SOL    HW117909   1.042   2.828  12.950  0.1938  1.5514  0.0897
 2150SOL    HW217910   0.946   2.931  13.007 -0.1587  0.0901 -0.6632
 2151SOL     OW17911   0.849   0.970   9.213 -0.5979 -0.0278  0.3602
 2151SOL    HW117912   0.884   0.923   9.136  0.9041 -0.4320  1.2885
 2151SOL    HW217913   0.835   0.898   9.275 -0.9208  1.1846  1.6808
 2152SOL     OW17914   4.545   0.480   3.128  0.1256  0.7943 -0.4838
 2152SOL    HW117915   4.553   0.570   3.098  1.5697  0.5946 -0.6953
 2152SOL    HW217916   4.467   0.457   3.078  1.5800 -0.9361 -1.9613
 2153SOL     OW17917   2.855   0.188   6.839 -0.2851 -0.2488  0.3271
 2153SOL    HW117918   2.836   0.170   6.931  0.6315  2.0611  0.9658
 2153SOL    HW217919   2.899   0.107   6.811 -2.7039 -1.6855  0.7206
 2154SOL     OW17920   2.309   3.865   2.366  0.3254 -0.4309  0.4481
 2154SOL    HW117921   2.303   3.778   2.327 -0.5832  0.2087 -0.8341
 2154SOL    HW217922   2.244   3.871   2.437 -0.3127 -1.4211 -0.0507
 2155SOL     OW17923   1.669   3.361   2.736 -0.2512 -0.1000  0.0369
 2155SOL    HW117924   1.658   3.409   2.654  0.2862 -3.4148 -2.0058
 2155SOL    HW217925   1.623   3.421   2.795  0.6513  0.7375 -0.1264
 2156SOL     OW17926   2.089   3.224   5.204 -0.1259 -0.2213 -0.2856
 2156SOL    HW117927   2.052   3.164   5.269  1.8207 -0.0805  0.9503
 2156SOL    HW217928   2.011   3.251   5.157  0.0276  1.1223  0.2144
 2157SOL     OW17929   2.545   4.692   0.594 -0.8015 -0.3533 -0.3532
 2157SOL    HW117930   2.619   0.027   0.597 -0.5840 -0.6748  0.8578
 2157SOL    HW217931   2.532   4.684   0.689 -3.3755  1.8871 -0.5473
 2158SOL     OW17932   4.382   2.599  13.113 -0.4787  0.3873 -0.4102
 2158SOL    HW117933   4.407   2.677  13.164 -0.4510 -1.3528  2.2466
 2158SOL    HW217934   4.455   2.540  13.133 -1.0468  0.5572  2.1660
 2159SOL     OW17935   2.824   1.005   2.634  0.1957 -0.6949 -0.8568
 2159SOL    HW117936   2.848   0.965   2.550 -0.8521 -0.3727 -1.3147
 2159SOL    HW217937   2.897   0.978   2.688  0.1710 -0.0889 -0.5239
 2160SOL     OW17938   3.151   3.409   2.438 -0.1051 -0.4994 -0.1968
 2160SOL    HW117939   3.186   3.372   2.357 -0.7189  1.6886 -1.4506
 2160SOL    HW217940   3.210   3.377   2.506 -1.7244 -0.9731  0.9780
 2161SOL     OW17941   2.010   0.822   8.544  0.1131 -0.0553 -0.5023
 2161SOL    HW117942   2.103   0.801   8.540  0.0585 -0.0912 -1.8975
 2161SOL    HW217943   2.003   0.897   8.602 -0.0241  0.1642 -0.8013
 2162SOL     OW17944   3.555   1.658   9.674 -0.6283 -0.0165  0.6192
 2162SOL    HW117945   3.535   1.597   9.603  0.3536 -1.8042  1.8519
 2162SOL    HW217946   3.648   1.635   9.683 -0.8741 -1.4800 -0.6187
 2163SOL     OW17947   3.829   3.028   0.377  0.2046 -0.0872  0.0679
 2163SOL    HW117948   3.855   3.116   0.404 -2.0311  0.7190 -0.4412
 2163SOL    HW217949   3.742   3.037   0.339  0.9789 -0.0420 -1.7385
 2164SOL     OW17950   2.640   2.932   8.959 -0.0599  0.1681 -0.2448
 2164SOL    HW117951   2.668   2.865   8.897  0.5955  0.1360  0.0782
 2164SOL    HW217952   2.558   2.901   8.997  1.1917 -0.4364  2.0110
 2165SOL     OW17953   4.653   2.221   5.862  0.1263  0.4034  0.3387
 2165SOL    HW117954   4.685   2.309   5.883 -2.0249  1.0187  1.0708
 2165SOL    HW217955   4.680   2.215   5.770 -1.5206 -0.9218 -0.0676
 2166SOL     OW17956   3.649   1.972   2.012 -0.3703 -0.0741  0.2609
 2166SOL    HW117957   3.728   1.961   1.959 -0.2382  2.4489 -0.0547
 2166SOL    HW217958   3.680   2.043   2.068  0.0994 -0.6982  0.7945
 2167SOL     OW17959   4.304   2.575  10.412  0.0246  0.7276  0.5281
 2167SOL    HW117960   4.338   2.487  10.430  0.2477  0.8621  0.7518
 2167SOL    HW217961   4.300   2.581  10.317 -2.0625  0.1232  0.5639
 2168SOL     OW17962   4.075   2.360   5.980  0.2172 -0.4346  0.0507
 2168SOL    HW117963   4.151   2.358   5.922 -0.1404  0.9138 -0.4646
 2168SOL    HW217964   4.128   2.353   6.060 -0.2942 -1.1034  0.3257
 2169SOL     OW17965   3.039   0.291   8.421  0.4076  0.4503  0.2278
 2169SOL    HW117966   3.066   0.374   8.382 -0.2967  0.9158  0.7325
 2169SOL    HW217967   2.946   0.312   8.427  0.3762  0.7679 -1.3127
 2170SOL     OW17968   1.138   3.685   8.447 -0.2954 -0.3871  0.4233
 2170SOL    HW117969   1.137   3.592   8.424 -3.8248 -0.4623  0.9069
 2170SOL    HW217970   1.044   3.697   8.460 -0.6924  0.0166 -2.9874
 2171SOL     OW17971   1.386   4.709   4.021 -0.2218  0.2250 -0.3596
 2171SOL    HW117972   1.355   4.626   3.985  2.6166 -0.9948  0.0338
 2171SOL    HW217973   1.461   0.009   3.967 -0.9108  4.1233  0.5604
 2172SOL     OW17974   4.268   1.086   8.124 -0.6561 -0.0674 -0.4136
 2172SOL    HW117975   4.256   1.181   8.122 -1.5824 -0.2213 -1.9591
 2172SOL    HW217976   4.337   1.079   8.189 -2.6617 -0.1255  1.7191
 2173SOL     OW17977   0.101   1.755  11.879 -0.8159 -0.5732  0.4073
 2173SOL    HW117978   0.191   1.775  11.854 -0.4740 -0.9330  1.3576
 2173SOL    HW217979   0.082   1.676  11.829  1.0957 -0.6468 -0.2224
 2174SOL     OW17980   1.831   1.360  16.788 -0.0521  0.3254 -0.0311
 2174SOL    HW117981   1.856   1.450  16.766 -1.2211  1.1064  1.8607
 2174SOL    HW217982   1.796   1.383  16.874 -2.0645 -1.5344 -0.3572
 2175SOL     OW17983   0.116   4.499   8.839 -0.2755 -0.4298 -0.1265
 2175SOL    HW117984   0.103   4.580   8.889 -0.7021 -0.7311  0.2480
 2175SOL    HW217985   0.037   4.509   8.785  0.0296  0.7307 -0.3717
 2176SOL     OW17986   0.251   2.278   5.584  0.4133 -0.0818 -0.2897
 2176SOL    HW117987   0.251   2.372   5.567  0.5901  0.2754  1.7369
 2176SOL    HW217988   0.288   2.281   5.672  0.2590  0.5819 -0.2517
 2177SOL     OW17989   2.984   3.862   2.355 -0.0815  0.7877  0.1778
 2177SOL    HW117990   2.944   3.824   2.277  0.5505 -0.2281  0.3528
 2177SOL    HW217991   3.061   3.808   2.374  1.4752  2.3048 -1.7877
 2178SOL     OW17992   1.906   1.835   4.282 -0.2599  0.4644  0.6915
 2178SOL    HW117993   1.815   1.864   4.289  0.2002  1.6840  1.5841
 2178SOL    HW217994   1.922   1.841   4.376 -1.5514  1.0251  0.8832
 2179SOL     OW17995   2.463   2.638  14.690 -0.4218  0.0656 -0.5728
 2179SOL    HW117996   2.393   2.591  14.735 -1.3748  0.7150 -1.3996
 2179SOL    HW217997   2.489   2.702  14.756 -2.9299  1.4645 -0.9509
 2180SOL     OW17998   2.352   1.935  12.252  0.1646 -0.1119  0.4261
 2180SOL    HW117999   2.426   1.936  12.191  0.1324 -0.1628  0.3857
 2180SOL    HW218000   2.299   2.008  12.220  1.0242 -0.5601 -2.0608
 2181SOL     OW18001   3.722   0.526   4.280  0.4775  0.3817  0.5753
 2181SOL    HW118002   3.717   0.608   4.329  1.9612  0.7824  0.0501
 2181SOL    HW218003   3.718   0.464   4.354  1.1430 -0.2739  0.0593
 2182SOL     OW18004   0.728   4.554  10.663  0.4728  0.2570 -0.3322
 2182SOL    HW118005   0.793   4.496  10.623 -0.7598 -0.0297 -1.9279
 2182SOL    HW218006   0.784   4.628  10.688  1.1626  0.2831 -1.9819
 2183SOL     OW18007   2.930   3.735   9.880  0.5034 -0.2746 -0.3944
 2183SOL    HW118008   2.980   3.778   9.950  0.3177  1.5064 -1.3514
 2183SOL    HW218009   2.932   3.809   9.819  0.3894  0.2796  0.2751
 2184SOL     OW18010   4.442   2.022   6.278  0.0982  0.1002 -0.1543
 2184SOL    HW118011   4.509   2.090   6.265  2.2281 -2.1489 -0.9887
 2184SOL    HW218012   4.475   1.944   6.234  0.7762 -0.3213  1.1071
 2185SOL     OW18013   3.591   1.728   0.744 -0.4749 -0.3858 -0.1623
 2185SOL    HW118014   3.496   1.718   0.737 -0.2351 -0.8273 -2.5404
 2185SOL    HW218015   3.615   1.677   0.667  1.2609  1.0613 -0.5737
 2186SOL     OW18016   4.033   1.109   1.922  0.0832 -0.2375 -0.3680
 2186SOL    HW118017   3.980   1.180   1.884 -2.5256 -0.9293  1.9908
 2186SOL    HW218018   3.961   1.068   1.970  0.6061 -1.1836 -0.4031
 2187SOL     OW18019   0.291   2.113   9.014 -0.2253  0.0143  0.0318
 2187SOL    HW118020   0.332   2.038   8.971 -0.2374  0.5479 -0.9039
 2187SOL    HW218021   0.366   2.172   9.012  0.5280 -0.9904 -1.7371
 2188SOL     OW18022   2.926   2.969   2.104 -0.3715 -0.2921  0.2265
 2188SOL    HW118023   2.977   3.050   2.111  1.7236 -1.4556 -1.7970
 2188SOL    HW218024   2.869   2.974   2.181  0.8461  3.5812  0.8678
 2189SOL     OW18025   0.931   4.369   4.163 -0.0471 -0.1650 -0.3286
 2189SOL    HW118026   0.914   4.444   4.106 -1.6839 -0.5473 -0.3238
 2189SOL    HW218027   0.864   4.388   4.228  0.6274  1.7866 -0.2021
 2190SOL     OW18028   1.486   4.062   2.899  0.4267 -0.2998 -0.2967
 2190SOL    HW118029   1.538   4.035   2.824 -1.0064 -1.2809 -0.9385
 2190SOL    HW218030   1.493   4.157   2.896  2.6230 -0.4811 -0.6367
 2191SOL     OW18031   3.198   1.164  15.032  0.5038  0.0067 -0.4819
 2191SOL    HW118032   3.151   1.110  14.968  0.6637  1.2487 -1.6518
 2191SOL    HW218033   3.285   1.176  14.993 -0.1347  0.1404 -1.8557
 2192SOL     OW18034   4.681   1.135  15.791 -0.2901 -0.0669  0.3367
 2192SOL    HW118035   0.003   1.113  15.871 -0.4759  1.4999  0.8710
 2192SOL    HW218036   4.593   1.123  15.825 -0.6327 -0.5611 -0.7351
 2193SOL     OW18037   2.189   1.781   3.945  0.0214 -0.1223  0.1809
 2193SOL    HW118038   2.267   1.836   3.949  0.1208 -0.1135 -1.9466
 2193SOL    HW218039   2.129   1.853   3.964 -0.4871 -0.1140 -1.4648
 2194SOL     OW18040   2.477   4.677   5.998 -0.3074  0.5488 -0.2514
 2194SOL    HW118041   2.565   4.681   6.034 -0.6131  0.7968  0.4597
 2194SOL    HW218042   2.474   0.036   5.955 -0.5204 -0.2829 -1.8899
 2195SOL     OW18043   3.052   2.926   6.005 -0.0729 -0.4150  0.3878
 2195SOL    HW118044   3.130   2.891   6.048 -0.5026 -0.7911  0.8620
 2195SOL    HW218045   2.983   2.882   6.054  0.7449 -1.8915  0.2020
 2196SOL     OW18046   4.601   4.414   4.472  0.1816  0.1456 -0.2341
 2196SOL    HW118047   4.675   4.392   4.529  0.6057 -0.0941 -0.8822
 2196SOL    HW218048   4.591   4.508   4.484 -0.1799  0.2600 -1.4301
 2197SOL     OW18049   0.933   0.009   4.528  0.1770 -0.1644 -0.1566
 2197SOL    HW118050   0.898   0.057   4.452  2.3820  1.2019 -0.2834
 2197SOL    HW218051   1.019   0.046   4.547  0.4671 -0.9671  0.0948
 2198SOL     OW18052   1.024   4.091  11.765  0.2982  0.5204 -0.3337
 2198SOL    HW118053   1.110   4.131  11.777  0.8407 -0.2805 -1.5301
 2198SOL    HW218054   0.974   4.162  11.725 -1.6336 -0.2792  0.7007
 2199SOL     OW18055   1.272   4.516   7.200  0.1411 -0.0735  0.2814
 2199SOL    HW118056   1.260   4.455   7.273 -1.4120  1.7145  1.5098
 2199SOL    HW218057   1.221   4.591   7.230  0.6706  0.5852 -0.4880
 2200SOL     OW18058   1.810   0.599   5.952 -0.1176 -0.1497 -0.0375
 2200SOL    HW118059   1.852   0.527   6.000 -1.5802 -0.0355  1.4073
 2200SOL    HW218060   1.850   0.677   5.990 -1.3614  1.6114 -2.3371
 2201SOL     OW18061   1.204   4.641   6.085  0.9957 -0.3727 -0.2183
 2201SOL    HW118062   1.235   4.616   6.172 -2.2392 -1.7638  0.5204
 2201SOL    HW218063   1.255   4.582   6.029  2.0608  1.2437 -0.9562
 2202SOL     OW18064   3.269   4.100  16.134  0.0171 -0.1865  0.1289
 2202SOL    HW118065   3.353   4.064  16.105 -0.6840 -1.3951 -0.4335
 2202SOL    HW218066   3.280   4.191  16.109  3.6769 -0.7676 -0.2977
 2203SOL     OW18067   1.747   2.055   7.730  0.0841  0.0191  0.1171
 2203SOL    HW118068   1.748   1.971   7.684  0.8718  0.6550 -1.0404
 2203SOL    HW218069   1.663   2.090   7.702  0.3148 -0.3499 -1.0306
 2204SOL     OW18070   1.539   1.332   8.545 -0.1419  0.4729  0.4614
 2204SOL    HW118071   1.536   1.287   8.630  0.6684 -0.4655 -0.0024
 2204SOL    HW218072   1.597   1.405   8.563  2.7073 -2.2817  2.4538
 2205SOL     OW18073   2.886   0.152   3.500 -0.0886  0.1719  0.0409
 2205SOL    HW118074   2.864   0.148   3.593 -1.5859 -1.8130 -0.3959
 2205SOL    HW218075   2.979   0.162   3.517  0.0881 -1.0551 -0.2410
 2206SOL     OW18076   3.521   4.109   8.036  0.9259  0.2432 -0.0134
 2206SOL    HW118077   3.447   4.078   8.089 -0.1874  0.4254 -1.4304
 2206SOL    HW218078   3.596   4.059   8.066 -0.2436 -0.1981  2.1638
 2207SOL     OW18079   3.963   1.451  10.232  0.4374 -0.2300 -0.4491
 2207SOL    HW118080   4.029   1.494  10.176  0.4953 -1.2754 -1.1763
 2207SOL    HW218081   3.900   1.522  10.240  2.0005  1.2092 -0.8587
 2208SOL     OW18082   2.187   2.462   5.682  0.1403  0.1187 -0.1868
 2208SOL    HW118083   2.125   2.435   5.614  1.6087 -0.8296 -1.1639
 2208SOL    HW218084   2.216   2.375   5.709  2.8808  1.1847  0.3133
 2209SOL     OW18085   4.706   3.851   1.814 -0.3132 -0.2391 -0.3210
 2209SOL    HW118086   4.651   3.878   1.740 -1.8234  0.0343  0.9082
 2209SOL    HW218087   4.654   3.774   1.835 -0.8884 -0.7804 -3.7106
 2210SOL     OW18088   2.764   0.912  13.464  0.6854  0.6743 -0.1401
 2210SOL    HW118089   2.737   0.946  13.550 -0.7343 -1.0856  0.1138
 2210SOL    HW218090   2.700   0.957  13.408  1.0172 -0.6606 -1.5731
 2211SOL     OW18091   0.852   2.784   5.417  0.2987  0.6268 -0.0044
 2211SOL    HW118092   0.879   2.693   5.425 -2.0506 -0.0372  0.2952
 2211SOL    HW218093   0.763   2.787   5.453 -0.0976  0.2614 -0.9379
 2212SOL     OW18094   3.974   1.954   8.534 -0.0515 -0.5640  0.5648
 2212SOL    HW118095   4.040   1.889   8.510  0.1015  0.1680 -1.0278
 2212SOL    HW218096   3.921   1.944   8.455  0.8174  0.4335 -0.1451
 2213SOL     OW18097   3.437   3.909   3.597  0.2067 -0.0960 -0.1617
 2213SOL    HW118098   3.351   3.902   3.555 -0.8004 -0.9915  2.0714
 2213SOL    HW218099   3.481   3.842   3.544  1.6072  0.8469 -0.1837
 2214SOL     OW18100   2.641   3.562   4.067 -0.8657  0.4749 -0.0759
 2214SOL    HW118101   2.673   3.567   4.157 -0.6621  1.2825 -0.1930
 2214SOL    HW218102   2.708   3.499   4.042 -0.5119  0.8072  0.0351
 2215SOL     OW18103   4.720   4.699   7.998  0.4520  0.2017  1.2039
 2215SOL    HW118104   4.706   0.046   8.058  1.4497 -0.4158  2.1903
 2215SOL    HW218105   4.695   4.628   8.058  1.3700 -2.1637 -1.2030
 2216SOL     OW18106   3.964   2.603   1.575 -0.5545 -0.3160 -0.2726
 2216SOL    HW118107   3.933   2.655   1.650  0.8648 -1.2255  0.9605
 2216SOL    HW218108   3.887   2.617   1.521 -0.8812 -1.3634 -0.0642
 2217SOL     OW18109   2.522   1.021  10.716  0.0190 -0.9011  0.1915
 2217SOL    HW118110   2.504   1.091  10.654 -0.4162  0.4002  1.7985
 2217SOL    HW218111   2.605   1.047  10.756  0.5882  1.5068 -2.6194
 2218SOL     OW18112   0.063   3.580   2.865 -0.6707  0.3448 -0.0038
 2218SOL    HW118113   0.067   3.658   2.809 -0.9184  1.1486  1.1091
 2218SOL    HW218114   4.704   3.544   2.841  0.0666 -1.8085  0.6177
 2219SOL     OW18115   3.418   4.085   9.322 -0.5358 -0.1814 -0.1892
 2219SOL    HW118116   3.435   4.124   9.236 -0.9239  0.6522  0.1132
 2219SOL    HW218117   3.427   4.157   9.384  3.1695 -1.4857  0.8099
 2220SOL     OW18118   1.092   1.790   3.859 -0.0607  0.1169 -0.0038
 2220SOL    HW118119   1.187   1.800   3.855 -0.0907  0.4379  0.0450
 2220SOL    HW218120   1.092   1.701   3.893 -0.4788 -0.0197 -0.3673
 2221SOL     OW18121   2.253   1.285   8.364  0.0750 -0.1875  0.3280
 2221SOL    HW118122   2.334   1.322   8.329 -1.1980  1.0414 -1.3299
 2221SOL    HW218123   2.292   1.203   8.396 -1.2212  0.5012  3.6542
 2222SOL     OW18124   3.448   1.243   5.841 -0.0417  0.4689  0.4652
 2222SOL    HW118125   3.430   1.221   5.932 -1.1164 -1.7963 -0.2996
 2222SOL    HW218126   3.398   1.180   5.790 -2.1101  2.0130  0.6023
 2223SOL     OW18127   0.677   0.803   6.484  0.8595  0.3228  0.0216
 2223SOL    HW118128   0.709   0.720   6.518  1.1983  0.4404 -0.0179
 2223SOL    HW218129   0.738   0.817   6.411 -1.8545  1.2197 -2.0964
 2224SOL     OW18130   4.705   0.468   7.573  0.1525 -0.2563 -0.2601
 2224SOL    HW118131   0.010   0.379   7.556  1.2413 -0.0739  0.8180
 2224SOL    HW218132   4.639   0.449   7.640 -2.0331 -2.0166 -2.9222
 2225SOL     OW18133   0.953   1.999   4.617  0.1614  0.3535 -0.0669
 2225SOL    HW118134   0.858   1.990   4.621  0.0987  0.2732 -1.5048
 2225SOL    HW218135   0.980   1.913   4.649 -4.2607 -1.2417 -0.6365
 2226SOL     OW18136   0.648   4.035   0.932  0.1734  0.2137 -0.2317
 2226SOL    HW118137   0.684   3.988   0.857  4.4445  0.8591  1.4259
 2226SOL    HW218138   0.691   4.120   0.917  2.5011 -1.3486 -2.4260
 2227SOL     OW18139   1.285   1.292   7.372 -0.2131 -0.0837 -0.2388
 2227SOL    HW118140   1.250   1.344   7.300  2.1102  0.3839 -1.0205
 2227SOL    HW218141   1.201   1.256   7.403 -0.7191  1.8261  0.6152
 2228SOL     OW18142   0.292   1.511   1.777 -0.5029 -0.2490  0.0254
 2228SOL    HW118143   0.295   1.439   1.714  0.9502 -0.5221  0.4125
 2228SOL    HW218144   0.206   1.496   1.817 -0.2780  0.1029  0.6569
 2229SOL     OW18145   3.645   2.213  13.010 -0.0034  0.2137 -0.2611
 2229SOL    HW118146   3.606   2.151  13.070 -0.9566  2.6501  1.6362
 2229SOL    HW218147   3.669   2.285  13.068  2.4908 -1.4536  0.7739
 2230SOL     OW18148   4.597   4.333  14.311 -0.0251 -0.2183 -0.0512
 2230SOL    HW118149   4.561   4.281  14.383 -0.7588 -0.5385 -0.6611
 2230SOL    HW218150   4.564   4.282  14.238 -1.2658 -0.5025  0.7246
 2231SOL     OW18151   3.363   3.210   2.532 -0.3729  0.0609 -0.3146
 2231SOL    HW118152   3.407   3.257   2.460 -1.1214 -1.4863 -1.7831
 2231SOL    HW218153   3.316   3.151   2.473  3.4766 -2.4756 -0.8280
 2232SOL     OW18154   0.101   1.307   5.074  0.3300 -0.1672  0.4969
 2232SOL    HW118155   0.077   1.256   5.152  0.4653  0.7711  1.1424
 2232SOL    HW218156   0.013   1.332   5.044 -0.7041 -2.3274  1.6939
 2233SOL     OW18157   2.939   1.038   5.648 -0.4925 -0.3706 -0.0643
 2233SOL    HW118158   2.906   0.979   5.716  1.0325 -0.5640  0.4970
 2233SOL    HW218159   2.859   1.068   5.605 -0.8385  1.2259  1.7152
 2234SOL     OW18160   3.281   3.899  11.869 -0.7264  0.1181  0.3916
 2234SOL    HW118161   3.238   3.814  11.857  0.3042 -0.1169 -1.7105
 2234SOL    HW218162   3.331   3.881  11.949 -2.9307 -1.9942  1.3052
 2235SOL     OW18163   3.916   4.540  12.869  0.4534  0.4666 -0.0043
 2235SOL    HW118164   3.992   4.547  12.811  0.2915  1.3143 -0.1134
 2235SOL    HW218165   3.880   4.469  12.815 -1.6489  1.8442 -0.4290
 2236SOL     OW18166   4.209   1.989   4.746  0.0515 -0.4026 -0.2539
 2236SOL    HW118167   4.179   2.047   4.815  1.2288  1.5928 -1.4015
 2236SOL    HW218168   4.191   2.046   4.671  0.2814  0.6986  0.5466
 2237SOL     OW18169   4.155   1.765   7.191  0.4943 -0.5038 -0.0997
 2237SOL    HW118170   4.086   1.830   7.174  0.6441 -0.4764 -0.5948
 2237SOL    HW218171   4.162   1.777   7.286  0.3842 -1.2217 -0.0005
 2238SOL     OW18172   3.302   3.962   2.542 -1.2058  0.2195 -0.1982
 2238SOL    HW118173   3.240   3.891   2.522 -0.6806 -0.6803  1.3969
 2238SOL    HW218174   3.384   3.918   2.519 -1.0438 -0.0258  0.8673
 2239SOL     OW18175   1.256   3.862   7.909 -0.1544  0.4332 -1.0428
 2239SOL    HW118176   1.269   3.768   7.925  3.9195  0.9307 -1.2741
 2239SOL    HW218177   1.333   3.896   7.956 -0.1921  0.6039 -1.1057
 2240SOL     OW18178   3.197   2.477   8.255  0.2107  0.0872  0.3692
 2240SOL    HW118179   3.122   2.426   8.285 -0.7193  0.7650 -0.8329
 2240SOL    HW218180   3.156   2.563   8.241 -1.7270 -1.1796 -1.6986
 2241SOL     OW18181   4.383   2.151   3.085 -0.2439 -0.1396 -0.3611
 2241SOL    HW118182   4.380   2.071   3.137  1.4660 -0.7020 -1.1353
 2241SOL    HW218183   4.414   2.209   3.154  0.4629 -0.3335 -0.5127
 2242SOL     OW18184   4.184   1.519   3.342 -0.2493  0.0654  0.0650
 2242SOL    HW118185   4.163   1.572   3.419  0.6901  1.2294 -0.4824
 2242SOL    HW218186   4.276   1.502   3.362 -0.5208 -2.5394 -0.9290
 2243SOL     OW18187   1.817   0.388   8.941  0.1616  0.1835  0.1930
 2243SOL    HW118188   1.781   0.474   8.916  2.8403  1.7639  1.7622
 2243SOL    HW218189   1.905   0.386   8.905 -1.0108 -0.6456 -2.5846
 2244SOL     OW18190   2.324   1.667  17.655 -0.2707 -0.2529 -0.4452
 2244SOL    HW118191   2.244   1.706  17.690  1.5548  2.0133  1.2573
 2244SOL    HW218192   2.300   1.637  17.568 -0.5954  1.6133 -0.9817
 2245SOL     OW18193   2.488   3.069  14.077  0.5487  0.4104 -0.3914
 2245SOL    HW118194   2.396   3.076  14.055  0.3189 -1.7204 -0.1924
 2245SOL    HW218195   2.516   3.026  13.996  0.0357 -1.5766  0.4797
 2246SOL     OW18196   1.579   2.157   5.870 -0.4877  0.1971 -0.0571
 2246SOL    HW118197   1.597   2.228   5.808 -0.6002  1.5011  1.3858
 2246SOL    HW218198   1.618   2.183   5.953  0.4633 -0.7377 -0.2156
 2247SOL     OW18199   0.745   4.684   8.951 -0.5978  0.1962  0.1021
 2247SOL    HW118200   0.762   0.027   8.887  0.7297  2.6054  3.0849
 2247SOL    HW218201   0.663   4.641   8.926 -0.7947  1.1370 -0.8584
 2248SOL     OW18202   4.162   3.797   3.076  0.1542 -0.2649 -0.4009
 2248SOL    HW118203   4.154   3.705   3.103 -0.3204 -0.1344 -0.0950
 2248SOL    HW218204   4.168   3.857   3.150  0.5656 -0.6605 -0.1076
 2249SOL     OW18205   3.267   1.534   3.289  0.6239 -0.4579  0.4855
 2249SOL    HW118206   3.271   1.502   3.380  1.2200 -3.1408 -0.4860
 2249SOL    HW218207   3.358   1.563   3.281 -0.2952  1.8986 -1.6196
 2250SOL     OW18208   3.451   1.394   0.585  0.0261 -0.3082 -0.4001
 2250SOL    HW118209   3.435   1.373   0.493  0.7325 -1.7389 -0.2017
 2250SOL    HW218210   3.546   1.392   0.593 -0.0711  0.3224  0.8905
 2251SOL     OW18211   3.671   2.831  11.000  0.5759 -0.2371 -0.1971
 2251SOL    HW118212   3.719   2.768  10.946  0.4598  0.7507 -1.4487
 2251SOL    HW218213   3.728   2.907  10.997 -0.3687  0.5395  1.7965
 2252SOL     OW18214   4.518   3.155  11.149  0.2670 -0.2338 -0.3243
 2252SOL    HW118215   4.605   3.193  11.155  0.2771 -0.0398 -1.8708
 2252SOL    HW218216   4.518   3.110  11.065 -1.6892  1.4041 -1.2032
 2253SOL     OW18217   1.725   2.877   5.430 -0.0374 -0.5396 -0.1188
 2253SOL    HW118218   1.750   2.786   5.413 -0.0435 -0.7477  1.0138
 2253SOL    HW218219   1.646   2.870   5.483  0.5943 -0.3916  0.8321
 2254SOL     OW18220   0.975   1.084  13.503  0.1495  0.0612  0.0127
 2254SOL    HW118221   0.948   1.053  13.416  0.9474 -0.8698  0.0986
 2254SOL    HW218222   1.046   1.143  13.478 -1.1793  1.3630 -0.7020
 2255SOL     OW18223   3.999   1.318   2.755  0.0512  0.3314  0.2808
 2255SOL    HW118224   3.972   1.404   2.787 -1.3846 -0.0991  0.2018
 2255SOL    HW218225   3.918   1.310   2.706  0.9428 -1.0200 -0.9669
 2256SOL     OW18226   4.475   2.904   4.701  0.6902  0.0667 -0.0120
 2256SOL    HW118227   4.478   2.858   4.617  0.4320  3.7437 -2.0122
 2256SOL    HW218228   4.442   2.991   4.680  0.4134  0.0132  0.1912
 2257SOL     OW18229   3.244   0.728  12.192  0.4097  0.1098  0.3432
 2257SOL    HW118230   3.328   0.727  12.239 -0.2962  0.3606  1.5901
 2257SOL    HW218231   3.258   0.789  12.119 -1.9772 -1.5416 -1.4969
 2258SOL     OW18232   2.147   1.078   2.787  0.1906  0.5298 -0.3096
 2258SOL    HW118233   2.213   1.145   2.769  0.0853  0.3888 -1.2236
 2258SOL    HW218234   2.104   1.120   2.862  1.9252 -1.2917  1.7195
 2259SOL     OW18235   1.172   2.548  12.713 -0.3776  0.0830  0.5772
 2259SOL    HW118236   1.096   2.527  12.660  0.5819  2.1231 -1.6154
 2259SOL    HW218237   1.154   2.642  12.718  0.1698  0.2513 -0.6817
 2260SOL     OW18238   4.159   2.840  14.550 -0.0097 -0.7440  0.5576
 2260SOL    HW118239   4.113   2.778  14.494 -0.8464 -0.8541  1.3692
 2260SOL    HW218240   4.082   2.862  14.601  1.2463  0.5965  1.8759
 2261SOL     OW18241   1.182   3.634   5.398  0.1654  0.0391 -0.9065
 2261SOL    HW118242   1.143   3.649   5.484  0.5285 -0.1487 -0.7060
 2261SOL    HW218243   1.268   3.601   5.426  1.8382  3.9267 -1.4442
 2262SOL     OW18244   3.525   3.552   2.729  0.4219 -0.5111 -0.5210
 2262SOL    HW118245   3.485   3.466   2.744  2.1148 -1.5253 -1.7899
 2262SOL    HW218246   3.599   3.532   2.672 -1.1802 -0.5771 -2.5995
 2263SOL     OW18247   1.580   2.277   1.094  0.2198  0.6662 -0.2094
 2263SOL    HW118248   1.568   2.372   1.087  0.7775  0.7819  0.3846
 2263SOL    HW218249   1.637   2.266   1.171 -1.1905  1.3370  0.9175
 2264SOL     OW18250   4.621   2.708   3.824 -0.1662  0.7770 -0.0093
 2264SOL    HW118251   4.633   2.746   3.912  0.0430  0.2735  0.1788
 2264SOL    HW218252   4.708   2.675   3.799 -0.1287  2.2768 -1.7961
 2265SOL     OW18253   0.728   4.262   7.067 -0.2862  0.7540  0.9987
 2265SOL    HW118254   0.768   4.195   7.011 -1.3818  1.4747 -0.6566
 2265SOL    HW218255   0.749   4.243   7.158  3.0006  0.2568  0.1462
 2266SOL     OW18256   2.770   0.515   6.448 -0.7363 -0.2382 -0.2716
 2266SOL    HW118257   2.764   0.552   6.360  1.7098  0.8741  0.0181
 2266SOL    HW218258   2.780   0.422   6.429  0.7786  0.0090 -0.6794
 2267SOL     OW18259   0.837   4.429   0.495  0.2571  0.0522 -0.5428
 2267SOL    HW118260   0.914   4.485   0.487  2.2861 -2.8581 -1.3470
 2267SOL    HW218261   0.813   4.385   0.414 -0.0915  2.4582 -1.7337
 2268SOL     OW18262   1.444   2.640  15.482  0.2791  0.3231  0.1500
 2268SOL    HW118263   1.491   2.650  15.399  0.3112  2.3056  0.3982
 2268SOL    HW218264   1.408   2.728  15.488 -0.0343  0.0584  2.0629
 2269SOL     OW18265   2.966   1.682   7.782 -0.1596  0.5142 -0.3087
 2269SOL    HW118266   2.908   1.674   7.706  0.1657 -2.9934 -0.2000
 2269SOL    HW218267   2.989   1.589   7.788  1.3240  0.9615  0.7913
 2270SOL     OW18268   0.344   3.325  12.972 -0.4394 -0.0357 -0.1651
 2270SOL    HW118269   0.311   3.374  12.897  0.6231 -0.1709 -0.7190
 2270SOL    HW218270   0.438   3.345  12.973 -0.2608 -0.9641  0.8380
 2271SOL     OW18271   0.904   3.116  12.739 -0.4196 -0.5446 -0.1894
 2271SOL    HW118272   0.824   3.165  12.721  0.6716  0.7418 -1.5566
 2271SOL    HW218273   0.969   3.165  12.689  0.7224 -3.9732 -2.0283
 2272SOL     OW18274   1.691   0.995  10.508 -0.7186 -0.2533  0.4783
 2272SOL    HW118275   1.684   1.044  10.426  1.7022 -0.6413  0.0402
 2272SOL    HW218276   1.598   0.993  10.532 -0.7676 -2.2438  0.1470
 2273SOL     OW18277   0.204   1.602   2.478  0.1602  0.4480 -0.5376
 2273SOL    HW118278   0.294   1.584   2.451  0.2855  0.8920 -0.4061
 2273SOL    HW218279   0.159   1.560   2.405  1.9536  0.4214 -1.6192
 2274SOL     OW18280   0.529   3.614   9.158 -0.3256 -0.5264 -0.1184
 2274SOL    HW118281   0.590   3.620   9.232 -1.7618 -0.8883  1.0856
 2274SOL    HW218282   0.499   3.702   9.138  0.0860 -0.9209 -2.5093
 2275SOL     OW18283   1.225   0.393  17.558 -0.5279 -0.4709 -0.2933
 2275SOL    HW118284   1.228   0.300  17.534 -2.0964 -0.6208  0.0639
 2275SOL    HW218285   1.309   0.425  17.526  0.2945 -1.0460  1.3052
 2276SOL     OW18286   2.141   2.884  10.998  0.0469  0.3487  0.0526
 2276SOL    HW118287   2.208   2.861  10.934 -0.2011  0.6847 -0.3275
 2276SOL    HW218288   2.145   2.800  11.043 -0.9848  0.8141  1.0110
 2277SOL     OW18289   3.110   2.435   6.861 -0.1051  0.4042  0.1930
 2277SOL    HW118290   3.205   2.440   6.871 -0.1211 -0.5917  0.8052
 2277SOL    HW218291   3.108   2.423   6.766 -0.2187 -1.7407  0.4563
 2278SOL     OW18292   0.821   4.382   2.509  0.5292  0.0460  0.0192
 2278SOL    HW118293   0.795   4.385   2.601 -0.1159  0.5352 -0.1820
 2278SOL    HW218294   0.819   4.469   2.469 -2.5448  0.2497  0.6260
 2279SOL     OW18295   1.915   4.082   3.456  0.3517 -0.3187  0.3367
 2279SOL    HW118296   1.978   4.070   3.385 -0.3791 -1.3875 -0.1465
 2279SOL    HW218297   1.866   4.152   3.413 -0.3666 -1.3547 -0.5448
 2280SOL     OW18298   0.211   3.036   7.071 -0.1085 -0.0292  0.4096
 2280SOL    HW118299   0.254   3.118   7.094  0.9989 -0.3278 -0.6367
 2280SOL    HW218300   0.141   3.070   7.016 -0.5271 -2.1024 -0.3381
 2281SOL     OW18301   3.007   3.522   2.052  0.2707  0.2146  0.2700
 2281SOL    HW118302   2.995   3.482   1.966  1.7166  0.1227  0.1150
 2281SOL    HW218303   3.091   3.492   2.088  0.5716 -0.3508 -0.9091
 2282SOL     OW18304   0.924   4.629   2.710  0.0160  0.1571 -0.2667
 2282SOL    HW118305   1.015   4.602   2.695 -0.4566 -0.9007 -1.2479
 2282SOL    HW218306   0.892   4.634   2.620 -1.3120 -1.3417  0.1069
 2283SOL     OW18307   3.454   3.501   7.380  0.0801 -0.1130  0.2654
 2283SOL    HW118308   3.522   3.566   7.400  0.2926 -1.0325  2.4842
 2283SOL    HW218309   3.507   3.448   7.322  0.6184 -0.5423  1.1547
 2284SOL     OW18310   4.312   2.323   5.344 -0.3048  0.2632 -0.1135
 2284SOL    HW118311   4.322   2.262   5.271  1.3060 -2.5589  2.4710
 2284SOL    HW218312   4.343   2.399   5.295  0.5219  0.4651  0.7312
 2285SOL     OW18313   3.869   2.477  10.242  0.1251 -0.1615 -0.5269
 2285SOL    HW118314   3.942   2.506  10.297 -1.3855  0.1939  1.2572
 2285SOL    HW218315   3.811   2.553  10.238  0.4202  0.0736 -0.3789
 2286SOL     OW18316   3.597   2.865   8.221 -0.1409 -0.4010 -1.0905
 2286SOL    HW118317   3.632   2.778   8.200  2.3296  0.4194 -0.3794
 2286SOL    HW218318   3.527   2.835   8.280  0.9389  0.9963  0.8776
 2287SOL     OW18319   4.541   0.042   7.237 -0.0592  0.3873 -0.2278
 2287SOL    HW118320   4.530   0.137   7.236  1.3426  0.5369 -1.2106
 2287SOL    HW218321   4.613   0.031   7.300 -1.6468  0.5688  1.6257
 2288SOL     OW18322   1.345   2.808  14.998  0.3961  0.0072 -0.0733
 2288SOL    HW118323   1.366   2.828  14.907  1.1192 -2.4584 -0.4468
 2288SOL    HW218324   1.432   2.807  15.038  1.0821  0.1743 -1.5648
 2289SOL     OW18325   2.165   1.406   4.039 -0.3857 -0.0097 -0.7269
 2289SOL    HW118326   2.100   1.476   4.047 -0.0730 -0.0252  2.0488
 2289SOL    HW218327   2.132   1.353   3.967 -1.2134 -1.4895  0.7381
 2290SOL     OW18328   4.060   0.597   7.466  0.3105 -0.0992 -0.3274
 2290SOL    HW118329   4.147   0.570   7.437  0.4337 -0.1140  0.0537
 2290SOL    HW218330   4.013   0.573   7.386  1.0481  0.8074 -1.0408
 2291SOL     OW18331   4.328   1.982  13.029 -0.8014  0.3146 -0.3044
 2291SOL    HW118332   4.266   2.019  12.965  0.1760  2.5321  0.0292
 2291SOL    HW218333   4.321   2.053  13.093  2.8683  3.2623 -3.1570
 2292SOL     OW18334   2.371   4.494  16.095  0.1039  0.2533  0.0446
 2292SOL    HW118335   2.320   4.572  16.075 -0.0360 -0.1637 -1.2493
 2292SOL    HW218336   2.429   4.524  16.165  0.3624 -0.1641  0.0094
 2293SOL     OW18337   3.318   2.807   8.979 -0.1004  0.5406  0.0095
 2293SOL    HW118338   3.386   2.742   8.998  0.0164  0.6368 -0.0817
 2293SOL    HW218339   3.265   2.799   9.059 -0.3939  0.3631 -0.2002
 2294SOL     OW18340   1.079   4.387  11.972  0.0070 -0.4805 -0.3264
 2294SOL    HW118341   1.084   4.357  11.881  2.1247  0.5748 -0.5568
 2294SOL    HW218342   1.151   4.449  11.983 -0.9118  0.3075  1.1474
 2295SOL     OW18343   3.951   0.418   5.208 -0.2413 -0.1011  0.2576
 2295SOL    HW118344   4.009   0.363   5.261  0.2461  1.8009  1.6756
 2295SOL    HW218345   4.009   0.492   5.191 -2.0439  1.3394  0.4116
 2296SOL     OW18346   1.534   1.374   9.431 -0.2373 -0.1352  0.3914
 2296SOL    HW118347   1.621   1.369   9.391  0.0618 -1.6978  1.2262
 2296SOL    HW218348   1.521   1.292   9.478 -0.2400  1.2218  2.8028
 2297SOL     OW18349   4.162   2.467   8.913  0.1491 -0.0211 -0.2207
 2297SOL    HW118350   4.208   2.551   8.914  0.8737 -0.5116  4.1987
 2297SOL    HW218351   4.077   2.508   8.897  1.0927  2.3417  0.6812
 2298SOL     OW18352   0.177   1.118   6.431  0.1076 -0.0985  0.1505
 2298SOL    HW118353   0.181   1.188   6.366 -1.0611 -0.2967 -0.1365
 2298SOL    HW218354   0.208   1.172   6.504 -0.5633  0.6560 -0.1269
 2299SOL     OW18355   3.351   1.675   9.199  0.2630  0.3805  0.1600
 2299SOL    HW118356   3.321   1.755   9.242  0.5282  0.3401  0.4239
 2299SOL    HW218357   3.367   1.705   9.110 -2.4635  0.7856 -0.1750
 2300SOL     OW18358   1.222   2.979  13.044  0.3398  0.7267  0.1308
 2300SOL    HW118359   1.161   3.040  13.002  0.9992  1.6512  0.5351
 2300SOL    HW218360   1.224   3.003  13.137 -1.1917  0.0340  0.3527
 2301SOL     OW18361   0.794   2.401   2.012 -0.3541 -0.0012  0.3246
 2301SOL    HW118362   0.869   2.347   1.985  0.7935  1.1638  1.1989
 2301SOL    HW218363   0.832   2.489   2.016  1.2754 -0.7154  0.8466
 2302SOL     OW18364   2.431   1.103   8.513 -0.5526  1.0542 -0.2012
 2302SOL    HW118365   2.516   1.148   8.516 -0.3850  0.5547  2.8102
 2302SOL    HW218366   2.442   1.043   8.587 -3.2766  2.2538  1.1911
 2303SOL     OW18367   4.276   1.454   3.025  0.1877 -0.1028  0.5727
 2303SOL    HW118368   4.243   1.367   3.003  2.3103 -0.4301 -1.3885
 2303SOL    HW218369   4.211   1.492   3.084  0.5978  0.7666  0.4566
 2304SOL     OW18370   0.505   2.918   8.879 -0.9694  0.2857  0.1323
 2304SOL    HW118371   0.563   2.914   8.803 -0.1917 -2.4560  0.8543
 2304SOL    HW218372   0.422   2.958   8.855 -1.1569 -0.6924 -0.8208
 2305SOL     OW18373   0.023   4.273   5.404 -0.3532  0.1933  0.0945
 2305SOL    HW118374   0.112   4.305   5.394  0.0096 -1.0793 -0.7658
 2305SOL    HW218375   4.719   4.299   5.317  0.6236  0.4781 -0.1601
 2306SOL     OW18376   2.691   1.284   1.746  0.0571  0.4317  0.7622
 2306SOL    HW118377   2.744   1.306   1.823  1.2739  0.2630 -0.0325
 2306SOL    HW218378   2.623   1.352   1.742 -0.0627  0.3133  0.7732
 2307SOL     OW18379   3.318   0.991  13.406 -0.4035  0.5153 -0.0179
 2307SOL    HW118380   3.235   0.943  13.412  0.0725 -0.1070  1.7471
 2307SOL    HW218381   3.366   0.949  13.335  1.9284  1.1645  1.1977
 2308SOL     OW18382   0.030   2.931   1.163  0.2115  0.2048 -0.2013
 2308SOL    HW118383   0.085   2.856   1.187 -1.9583 -0.2395  3.3689
 2308SOL    HW218384   0.081   3.002   1.203 -1.3387  0.4385  1.3434
 2309SOL     OW18385   0.706   4.563  15.989 -0.8539  0.1564 -0.2310
 2309SOL    HW118386   0.686   4.616  15.912 -0.2387  1.5711  0.5823
 2309SOL    HW218387   0.626   4.510  15.994 -0.9560  0.1513 -2.0477
 2310SOL     OW18388   0.666   2.475   3.336  0.4388  0.1691 -0.3062
 2310SOL    HW118389   0.721   2.496   3.260  2.0204 -0.7979  0.5660
 2310SOL    HW218390   0.726   2.511   3.401 -1.6026  0.7055  1.2867
 2311SOL     OW18391   0.062   4.721   3.973 -0.3959 -0.0711 -0.2280
 2311SOL    HW118392   0.046   0.081   4.010 -1.1857  0.2102 -1.2220
 2311SOL    HW218393   4.698   4.696   3.950  0.4112 -4.2141  1.0363
 2312SOL     OW18394   0.601   4.311   3.809  0.0334  0.3448 -0.1566
 2312SOL    HW118395   0.536   4.290   3.742  0.4399  3.0481 -1.3946
 2312SOL    HW218396   0.550   4.287   3.886 -0.2607  0.5166 -0.2999
 2313SOL     OW18397   4.481   4.383   1.008 -0.3414  0.1483 -0.4205
 2313SOL    HW118398   4.507   4.403   0.918 -2.0747 -2.3259 -1.4700
 2313SOL    HW218399   4.566   4.362   1.045 -0.9216  0.7598  1.2939
 2314SOL     OW18400   3.829   1.617  10.873 -0.4891  0.4522 -0.0233
 2314SOL    HW118401   3.900   1.660  10.826  0.1809 -0.4093  0.1928
 2314SOL    HW218402   3.755   1.653  10.825 -2.2825 -1.5308  1.2451
 2315SOL     OW18403   3.640   0.261  10.715  0.1372 -0.2919  0.1478
 2315SOL    HW118404   3.580   0.189  10.697 -0.6332  0.3857  0.0154
 2315SOL    HW218405   3.711   0.210  10.754  0.8357 -0.7267 -1.7143
 2316SOL     OW18406   4.143   3.945   5.923 -0.0563 -0.7798  0.4231
 2316SOL    HW118407   4.098   4.002   5.861 -0.9754 -1.7514  0.2075
 2316SOL    HW218408   4.214   3.904   5.874  0.4275 -0.5204  0.8966
 2317SOL     OW18409   0.318   0.677  11.515  0.1809 -0.2465  0.2640
 2317SOL    HW118410   0.392   0.730  11.484 -1.3741  2.7746  1.6769
 2317SOL    HW218411   0.267   0.734  11.572  1.3542  2.6194 -1.5314
 2318SOL     OW18412   0.226   3.937   1.744 -0.3131 -0.2677 -0.1941
 2318SOL    HW118413   0.139   3.900   1.760 -0.9360  1.1446 -0.3005
 2318SOL    HW218414   0.210   3.982   1.661  0.3683  0.2118 -0.0585
 2319SOL     OW18415   2.109   2.491   5.097  0.3151 -0.1676 -0.9059
 2319SOL    HW118416   2.159   2.531   5.169  0.9556  0.1895 -1.5400
 2319SOL    HW218417   2.121   2.399   5.120  2.9501  0.4128  0.1210
 2320SOL     OW18418   1.557   0.091  13.813 -0.2347  0.0919 -0.1140
 2320SOL    HW118419   1.499   0.150  13.764 -0.3459  1.1504  1.2774
 2320SOL    HW218420   1.493   0.042  13.864 -0.6896  1.8907  1.0662
 2321SOL     OW18421   3.023   1.206   1.811  0.0323 -0.0819  0.1452
 2321SOL    HW118422   2.989   1.203   1.722  0.8555  0.6890 -0.1983
 2321SOL    HW218423   3.038   1.112   1.823 -0.2222 -0.1995 -0.4754
 2322SOL     OW18424   2.031   2.070   7.520 -0.0607  0.0472  0.0938
 2322SOL    HW118425   2.032   1.987   7.473  3.0208  1.2009 -1.9364
 2322SOL    HW218426   2.023   2.028   7.606  3.0348 -1.4254 -0.3331
 2323SOL     OW18427   0.799   1.849   4.927 -0.4882 -0.0967  0.3029
 2323SOL    HW118428   0.856   1.772   4.922  0.5518  0.7729 -1.0552
 2323SOL    HW218429   0.710   1.814   4.927 -1.6551  2.8447 -3.3602
 2324SOL     OW18430   0.521   2.888  14.200 -0.5361 -0.1336  0.5715
 2324SOL    HW118431   0.583   2.839  14.254  1.0758 -0.7955 -1.8512
 2324SOL    HW218432   0.586   2.936  14.149 -3.0311  1.8602 -0.7520
 2325SOL     OW18433   1.108   1.220  16.764 -0.2027  0.0920  0.5933
 2325SOL    HW118434   1.188   1.191  16.720  1.0281  0.3513  2.6718
 2325SOL    HW218435   1.142   1.302  16.801 -0.5349  0.1285  0.8126
 2326SOL     OW18436   3.887   3.655  14.853 -0.2371 -0.2430 -0.2211
 2326SOL    HW118437   3.899   3.737  14.902  0.2312 -1.5292  1.8351
 2326SOL    HW218438   3.921   3.586  14.910 -2.1154  0.7697  2.1747
 2327SOL     OW18439   1.655   1.464   3.823 -0.4697  0.0730  0.8325
 2327SOL    HW118440   1.728   1.471   3.885  2.7368  0.3663 -2.9607
 2327SOL    HW218441   1.704   1.489   3.744 -0.5102  2.4745  1.5779
 2328SOL     OW18442   1.503   1.501   7.134  0.3540 -0.0009  0.2368
 2328SOL    HW118443   1.427   1.478   7.080 -0.3142 -0.0480  1.2021
 2328SOL    HW218444   1.524   1.585   7.094 -0.8561 -0.0137 -0.4106
 2329SOL     OW18445   0.756   3.739   2.475 -0.2399 -0.0688  0.4911
 2329SOL    HW118446   0.799   3.818   2.507 -1.7849  0.3142  1.5605
 2329SOL    HW218447   0.832   3.728   2.417  0.1732 -1.4386  1.2922
 2330SOL     OW18448   1.261   3.857  10.330 -0.0707 -0.4686  0.3830
 2330SOL    HW118449   1.350   3.823  10.323  0.1296  0.0915  0.2873
 2330SOL    HW218450   1.253   3.917  10.256 -3.0705  0.8582  1.7899
 2331SOL     OW18451   1.775   0.434  13.755 -0.0394  0.1486  0.5377
 2331SOL    HW118452   1.761   0.353  13.707  0.8450  0.6283 -0.5454
 2331SOL    HW218453   1.688   0.474  13.752 -0.1315 -0.4520 -4.0681
 2332SOL     OW18454   4.315   2.147   8.410 -0.1882 -0.6787  0.0070
 2332SOL    HW118455   4.366   2.228   8.400 -1.1914  0.1309  1.5231
 2332SOL    HW218456   4.375   2.086   8.452  1.4098  0.6715 -0.3236
 2333SOL     OW18457   1.085   3.164  13.280 -0.0878  0.8421 -0.1067
 2333SOL    HW118458   1.118   3.252  13.297  0.5028  0.6435 -0.2074
 2333SOL    HW218459   1.025   3.173  13.206  2.2967  0.9306 -2.0645
 2334SOL     OW18460   1.687   0.656   1.920 -0.3425  0.0534 -0.3377
 2334SOL    HW118461   1.643   0.724   1.869  0.1515  0.5688 -0.0722
 2334SOL    HW218462   1.734   0.716   1.978 -1.0735 -1.7737  2.1687
 2335SOL     OW18463   4.702   4.340   5.664  0.1997 -0.0426 -0.1328
 2335SOL    HW118464   0.009   4.427   5.642 -2.3248  0.4332 -2.1522
 2335SOL    HW218465   4.676   4.321   5.574 -0.5664  2.3234 -0.4141
 2336SOL     OW18466   4.419   3.589   3.134 -0.4133  0.4118 -0.0418
 2336SOL    HW118467   4.490   3.533   3.166 -1.3375 -0.8501 -0.2281
 2336SOL    HW218468   4.344   3.534   3.157 -1.6685  1.6490 -1.1876
 2337SOL     OW18469   2.968   3.405   4.208  0.2988  0.1339  0.0035
 2337SOL    HW118470   2.894   3.440   4.257 -1.0146 -0.5595 -1.4570
 2337SOL    HW218471   2.918   3.374   4.132 -1.7868 -0.1253  1.4887
 2338SOL     OW18472   0.825   0.959  13.904  0.8982 -0.0800 -0.3361
 2338SOL    HW118473   0.739   0.926  13.931  0.1520  0.6196 -1.9037
 2338SOL    HW218474   0.874   0.946  13.985  0.5866  0.8281 -0.0023
 2339SOL     OW18475   1.267   2.262   7.899 -0.1840  0.3277  0.0835
 2339SOL    HW118476   1.204   2.318   7.944  0.0270 -0.1601  0.9781
 2339SOL    HW218477   1.351   2.303   7.919 -0.9277  2.4046 -1.0297
 2340SOL     OW18478   0.845   1.194   7.268 -0.4426 -0.0925  0.2401
 2340SOL    HW118479   0.758   1.163   7.295 -0.2477 -0.6701  0.2062
 2340SOL    HW218480   0.826   1.212   7.176 -1.3125  1.3182  0.7081
 2341SOL     OW18481   2.001   4.391   3.757  0.4262 -0.0847 -0.1209
 2341SOL    HW118482   1.936   4.405   3.825  2.1086 -2.4050  1.9632
 2341SOL    HW218483   2.062   4.463   3.769  1.1055 -0.7668  0.5192
 2342SOL     OW18484   2.545   2.939   3.718 -0.3039 -0.1909 -0.2279
 2342SOL    HW118485   2.632   2.975   3.732  0.1217 -1.9769  1.6961
 2342SOL    HW218486   2.491   3.011   3.752  0.3113 -0.0284  0.4003
 2343SOL     OW18487   3.954   2.127   6.772  0.1642 -0.5810 -0.0313
 2343SOL    HW118488   3.900   2.050   6.790  0.1110 -0.5425 -0.0266
 2343SOL    HW218489   3.898   2.156   6.700  1.1692 -1.7667 -1.3102
 2344SOL     OW18490   1.715   0.457   2.102  0.1984  0.8525 -0.2390
 2344SOL    HW118491   1.682   0.416   2.022  1.4573 -0.9043  0.1344
 2344SOL    HW218492   1.710   0.546   2.067  1.1492  1.1954  0.5124
 2345SOL     OW18493   4.513   3.119  11.456 -0.4445  0.0580 -0.5047
 2345SOL    HW118494   4.481   3.131  11.366 -1.0341  2.4261  0.0198
 2345SOL    HW218495   4.608   3.130  11.448 -0.4151  2.2309  2.7151
 2346SOL     OW18496   2.315   2.226   8.743  0.5855  0.1149  0.0673
 2346SOL    HW118497   2.320   2.157   8.676 -1.3140 -0.5663  0.6255
 2346SOL    HW218498   2.331   2.308   8.696 -1.4361  0.2747 -0.3451
 2347SOL     OW18499   1.286   0.886   9.241  0.2588 -0.2577 -0.0878
 2347SOL    HW118500   1.282   0.889   9.146  0.3756 -0.3295 -0.0949
 2347SOL    HW218501   1.359   0.824   9.250 -0.2354 -0.8454 -0.1521
 2348SOL     OW18502   1.416   2.770   0.905 -0.0972 -0.2540  0.7893
 2348SOL    HW118503   1.371   2.743   0.825  0.8209  0.9159 -0.1283
 2348SOL    HW218504   1.476   2.836   0.870 -0.5662  0.6885  1.7476
 2349SOL     OW18505   2.132   3.286  10.493  0.1311 -0.1446 -0.0926
 2349SOL    HW118506   2.043   3.295  10.457  0.0111 -2.6327 -0.4726
 2349SOL    HW218507   2.123   3.310  10.585  0.9188  2.3724 -0.6654
 2350SOL     OW18508   0.071   2.285   9.865 -0.3520  0.9771 -0.6656
 2350SOL    HW118509   0.012   2.264   9.937 -1.0934 -0.9803 -1.8471
 2350SOL    HW218510   0.133   2.212   9.871  0.7365  1.7971 -1.9533
 2351SOL     OW18511   0.683   1.947   4.610 -0.1571 -0.2389  0.0798
 2351SOL    HW118512   0.687   1.851   4.610  2.1249 -0.1469  0.0376
 2351SOL    HW218513   0.646   1.967   4.696  2.0998 -2.9508  1.6758
 2352SOL     OW18514   3.390   1.858   9.758 -0.4767 -0.6921 -0.1570
 2352SOL    HW118515   3.329   1.908   9.704  2.0102  2.7282  0.1686
 2352SOL    HW218516   3.443   1.806   9.698 -0.1128 -2.1216  1.3929
 2353SOL     OW18517   2.535   0.380   7.796 -1.0342  0.2167  0.5494
 2353SOL    HW118518   2.496   0.435   7.728 -0.3452  0.4416  0.3376
 2353SOL    HW218519   2.616   0.431   7.797 -1.5875  1.1356 -0.9934
 2354SOL     OW18520   2.308   0.393   7.371 -0.0270 -0.0651 -0.3138
 2354SOL    HW118521   2.232   0.338   7.356 -0.3481  0.3533 -0.2220
 2354SOL    HW218522   2.320   0.417   7.279  1.6477  1.8232  0.3844
 2355SOL     OW18523   3.779   0.961   7.298  0.3761 -0.0494  0.0567
 2355SOL    HW118524   3.844   0.922   7.238  2.1496 -0.0505  1.9641
 2355SOL    HW218525   3.825   1.034   7.340 -0.5169 -0.2468  1.3445
 2356SOL     OW18526   2.953   0.352  15.613  0.3828  0.3562 -0.2276
 2356SOL    HW118527   2.930   0.432  15.565 -1.7136  0.9716  1.8044
 2356SOL    HW218528   2.894   0.368  15.687  0.5939  1.8269 -0.3713
 2357SOL     OW18529   1.531   1.202   5.010  0.3071 -0.1803 -0.1398
 2357SOL    HW118530   1.566   1.207   4.920  2.4877  1.6743  0.7963
 2357SOL    HW218531   1.581   1.276   5.046 -0.0300 -0.2538  0.4687
 2358SOL     OW18532   1.528   4.067   2.587  0.2611  0.0920  0.8356
 2358SOL    HW118533   1.515   4.044   2.495 -1.3613  1.8966  0.6252
 2358SOL    HW218534   1.461   4.134   2.598 -0.1382  0.3455 -3.3503
 2359SOL     OW18535   3.256   2.659   8.782  0.0419 -0.1158  0.6561
 2359SOL    HW118536   3.261   2.714   8.860  0.2064  1.4224 -0.4454
 2359SOL    HW218537   3.206   2.587   8.821 -2.5206  0.5921 -1.2466
 2360SOL     OW18538   3.976   0.881  15.495 -0.1722  0.2093 -0.4611
 2360SOL    HW118539   3.936   0.799  15.465  0.2959  0.4462 -1.7289
 2360SOL    HW218540   3.899   0.919  15.538 -0.7127  0.2939 -1.5085
 2361SOL     OW18541   4.491   2.783   2.516 -0.1669  0.1787  0.5310
 2361SOL    HW118542   4.529   2.832   2.444 -1.8247  1.3822  0.4621
 2361SOL    HW218543   4.444   2.723   2.458 -0.7402  1.2752 -0.1309
 2362SOL     OW18544   0.369   1.426   7.075 -0.4113 -0.2034  0.6049
 2362SOL    HW118545   0.444   1.438   7.017  0.5805  0.0711  1.9461
 2362SOL    HW218546   0.298   1.474   7.032  1.9781  1.4637 -1.5003
 2363SOL     OW18547   2.726   3.700   8.338  0.6183 -0.3059  0.0143
 2363SOL    HW118548   2.780   3.621   8.333  0.2485 -0.4511 -1.7033
 2363SOL    HW218549   2.722   3.721   8.431 -0.5355  0.1468 -0.1293
 2364SOL     OW18550   1.864   1.630   7.429  0.2590  0.3385  0.0058
 2364SOL    HW118551   1.780   1.593   7.454  0.4422  0.6145  1.0455
 2364SOL    HW218552   1.913   1.548   7.425 -0.2322  0.1074 -1.1998
 2365SOL     OW18553   2.561   0.704   5.674 -0.4492  0.0080 -0.0677
 2365SOL    HW118554   2.511   0.782   5.652  1.1582  1.1878  0.5143
 2365SOL    HW218555   2.607   0.691   5.591 -0.8352  1.1003 -0.4417
 2366SOL     OW18556   2.837   1.193  15.502  0.3218  0.6949  0.4139
 2366SOL    HW118557   2.822   1.286  15.519 -0.0456  0.5567  0.8526
 2366SOL    HW218558   2.918   1.202  15.452  0.0898  1.0922  0.1130
 2367SOL     OW18559   0.962   2.732   5.048 -0.0910 -0.0787  0.5884
 2367SOL    HW118560   0.957   2.826   5.067 -0.4551  0.3811 -1.8502
 2367SOL    HW218561   0.900   2.742   4.976  0.9407 -0.6249 -0.3813
 2368SOL     OW18562   4.345   0.547   6.643  0.2490 -0.2666  0.4179
 2368SOL    HW118563   4.406   0.490   6.691 -1.7163 -2.9628 -0.3168
 2368SOL    HW218564   4.267   0.492   6.635  0.1248  0.1786 -1.3506
 2369SOL     OW18565   1.747   4.125   2.817 -0.2442  0.1149 -0.0283
 2369SOL    HW118566   1.738   4.215   2.784  0.7199 -0.3296 -1.4948
 2369SOL    HW218567   1.763   4.140   2.910 -0.0488 -0.0462 -0.0357
 2370SOL     OW18568   1.117   3.050  11.770 -0.1274  0.4106 -0.3618
 2370SOL    HW118569   1.030   3.073  11.802  0.1957 -0.9036  1.4720
 2370SOL    HW218570   1.147   3.134  11.733 -1.8959  0.0322 -2.6420
 2371SOL     OW18571   3.390   1.867   6.451 -0.4391  0.1585  0.0170
 2371SOL    HW118572   3.419   1.826   6.370  1.4442  2.3382 -0.4190
 2371SOL    HW218573   3.395   1.796   6.514  2.1141  1.1672  0.9164
 2372SOL     OW18574   2.889   2.761  10.814  0.1628 -0.4390  0.1056
 2372SOL    HW118575   2.870   2.784  10.905  1.3410 -1.3184  0.5828
 2372SOL    HW218576   2.927   2.844  10.785  0.0556 -0.4345 -0.0202
 2373SOL     OW18577   3.132   2.537  11.488 -0.2865 -0.2819 -0.0562
 2373SOL    HW118578   3.213   2.569  11.529 -0.9298 -0.3257  1.2245
 2373SOL    HW218579   3.149   2.565  11.397  0.0783  0.3645  0.2040
 2374SOL     OW18580   3.216   1.946  12.350 -0.1853  0.1613  0.5442
 2374SOL    HW118581   3.255   2.014  12.406  0.8249 -0.1962  0.2847
 2374SOL    HW218582   3.174   1.889  12.414 -0.9408 -0.8610 -0.8645
 2375SOL     OW18583   4.412   0.010   2.995  0.1322  0.0378  0.1735
 2375SOL    HW118584   4.350   0.070   3.037  0.3605 -0.3567  1.0721
 2375SOL    HW218585   4.493   0.036   3.039  1.4064 -1.3236 -1.3403
 2376SOL     OW18586   2.131   3.904   8.001  0.4274 -0.0828 -0.8514
 2376SOL    HW118587   2.070   3.975   7.983 -0.4460 -0.6729 -0.2456
 2376SOL    HW218588   2.202   3.935   8.057  0.0320 -1.7715  0.5983
 2377SOL     OW18589   0.950   4.566   9.096  0.1238 -0.5874  0.5260
 2377SOL    HW118590   0.903   4.514   9.161 -2.0478 -0.7014 -1.1237
 2377SOL    HW218591   0.882   4.626   9.066  0.7150  0.0781  0.5029
 2378SOL     OW18592   0.229   1.566   2.111  0.3151  0.0398 -0.7223
 2378SOL    HW118593   0.157   1.547   2.172 -0.0151 -1.1067 -1.4575
 2378SOL    HW218594   0.177   1.551   2.032 -0.1704  3.2125 -1.0138
 2379SOL     OW18595   2.768   1.104   5.460 -0.6532 -0.6406 -0.2758
 2379SOL    HW118596   2.758   1.199   5.458  1.5743 -0.4352 -1.5003
 2379SOL    HW218597   2.793   1.073   5.373 -1.2136  0.1066 -0.7027
 2380SOL     OW18598   2.220   0.642   1.498  0.4320  0.3369 -0.0825
 2380SOL    HW118599   2.200   0.625   1.590 -0.4706 -2.0038 -0.7048
 2380SOL    HW218600   2.150   0.705   1.480  1.2019  1.3513  0.5211
 2381SOL     OW18601   1.710   0.466  13.374 -0.3096  0.0547 -0.0035
 2381SOL    HW118602   1.760   0.480  13.455 -1.5757 -0.2612  0.8330
 2381SOL    HW218603   1.641   0.404  13.398 -1.5409  1.4193  0.0169
 2382SOL     OW18604   1.123   3.144   5.422 -0.0333  0.1069 -1.2386
 2382SOL    HW118605   1.117   3.166   5.329 -1.0881  5.8946  0.2244
 2382SOL    HW218606   1.102   3.221   5.474  2.8720 -0.6431  1.0322
 2383SOL     OW18607   3.428   3.834   3.069 -0.7776 -0.5630  0.0438
 2383SOL    HW118608   3.481   3.765   3.028  0.4181  0.1735  0.3365
 2383SOL    HW218609   3.491   3.906   3.062 -1.1898 -0.4060 -2.1883
 2384SOL     OW18610   1.363   0.576   4.863  0.7723 -0.1723  0.2430
 2384SOL    HW118611   1.399   0.511   4.803 -2.0324  1.1937 -2.9231
 2384SOL    HW218612   1.391   0.647   4.806 -0.7830 -1.6879 -2.4067
 2385SOL     OW18613   4.183   2.015   5.390  0.1770  0.4987 -0.5286
 2385SOL    HW118614   4.225   2.100   5.373  0.0381  0.7901  0.6187
 2385SOL    HW218615   4.237   1.990   5.464  2.3621 -1.4108 -2.7687
 2386SOL     OW18616   0.751   0.714   9.305 -0.8203  0.4849 -0.0376
 2386SOL    HW118617   0.770   0.620   9.304 -2.1689  0.2075  1.4902
 2386SOL    HW218618   0.658   0.703   9.324 -1.0496 -0.0767 -1.4461
 2387SOL     OW18619   1.446   0.473   6.845 -0.1543  0.2738  0.9279
 2387SOL    HW118620   1.470   0.552   6.893 -1.0366 -0.0678  1.9227
 2387SOL    HW218621   1.380   0.508   6.786  1.0703  2.3422  0.7905
 2388SOL     OW18622   0.210   4.389   3.272 -0.0740  0.1364 -0.2182
 2388SOL    HW118623   0.282   4.360   3.216  0.0653 -0.7956  0.4621
 2388SOL    HW218624   0.164   4.308   3.293 -0.1013  0.2331  0.0976
 2389SOL     OW18625   1.102   3.707   7.647  0.5977 -0.1155 -0.5653
 2389SOL    HW118626   1.084   3.800   7.660  1.5814  0.1880 -1.3480
 2389SOL    HW218627   1.160   3.691   7.722 -0.6062 -0.6863  0.2538
 2390SOL     OW18628   0.403   3.220   6.355 -0.0968 -0.8712  0.0736
 2390SOL    HW118629   0.378   3.286   6.290  0.4823 -0.2934  0.4359
 2390SOL    HW218630   0.384   3.269   6.435  1.9884  0.7075 -0.3808
 2391SOL     OW18631   3.138   0.648   5.611 -0.1306 -0.3071  0.5762
 2391SOL    HW118632   3.179   0.696   5.684 -0.3452 -1.0916  1.2079
 2391SOL    HW218633   3.048   0.636   5.641 -0.9773  1.4787 -1.2410
 2392SOL     OW18634   3.154   3.841   5.425  0.1832 -0.2656 -0.0355
 2392SOL    HW118635   3.170   3.934   5.436 -1.2295 -0.1635  1.1495
 2392SOL    HW218636   3.139   3.826   5.332 -0.3271 -0.1579  0.0293
 2393SOL     OW18637   1.418   4.403   0.490 -0.1096 -0.0910 -0.0196
 2393SOL    HW118638   1.499   4.416   0.540 -0.8488  0.1223  1.1170
 2393SOL    HW218639   1.368   4.395   0.571  1.0430 -0.5111  0.6531
 2394SOL     OW18640   3.911   1.122  17.641 -0.7207  0.9850  0.1150
 2394SOL    HW118641   4.000   1.089  17.650 -2.2742 -3.8640 -2.5879
 2394SOL    HW218642   3.890   1.082  17.557 -0.7492 -0.2956  0.7233
 2395SOL     OW18643   1.360   2.522   7.315  0.6465  0.1844  0.2753
 2395SOL    HW118644   1.278   2.558   7.283  0.1117 -2.4934 -1.3659
 2395SOL    HW218645   1.422   2.554   7.249 -0.9338  2.0918 -0.2773
 2396SOL     OW18646   2.867   0.007   6.093 -0.0016 -0.1899 -0.9999
 2396SOL    HW118647   2.804   0.043   6.156  0.8670 -0.0118 -0.2358
 2396SOL    HW218648   2.949   0.009   6.143 -0.0986 -0.3586 -0.8348
 2397SOL     OW18649   0.632   1.778  14.569  0.1626 -0.0079 -0.1371
 2397SOL    HW118650   0.605   1.716  14.501  1.3767  0.5863 -1.1625
 2397SOL    HW218651   0.548   1.801  14.609  0.2969  0.6103 -0.2043
 2398SOL     OW18652   3.317   0.559  16.402  0.0605 -0.8241 -0.3482
 2398SOL    HW118653   3.267   0.532  16.479  1.7607 -1.1342  0.6485
 2398SOL    HW218654   3.267   0.635  16.371 -1.2809 -1.0216  1.3227
 2399SOL     OW18655   2.237   1.272   0.291 -0.0606 -0.2644  0.2921
 2399SOL    HW118656   2.211   1.199   0.348  0.1719 -1.2218 -0.8232
 2399SOL    HW218657   2.168   1.337   0.302  1.0491  0.9591  0.0036
 2400SOL     OW18658   1.494   2.882   8.834 -0.0841 -0.1223  0.1447
 2400SOL    HW118659   1.494   2.910   8.926 -1.3211 -1.2641  0.5034
 2400SOL    HW218660   1.536   2.959   8.796 -1.4375  0.3711 -0.3672
 2401SOL     OW18661   1.917   4.434  12.762  0.2242 -0.3839  0.0229
 2401SOL    HW118662   2.004   4.467  12.786  0.7588 -2.8276  1.4238
 2401SOL    HW218663   1.859   4.502  12.799 -0.2252 -0.0904 -1.2071
 2402SOL     OW18664   3.405   2.734   4.795  0.4819 -0.0566  0.0951
 2402SOL    HW118665   3.406   2.717   4.889  0.0559 -2.9734 -0.4235
 2402SOL    HW218666   3.487   2.694   4.765  0.0007 -0.8901 -0.1019
 2403SOL     OW18667   0.846   3.565   0.175  0.1292  0.3181  0.7955
 2403SOL    HW118668   0.807   3.611   0.250 -2.9590 -0.9840  0.0236
 2403SOL    HW218669   0.927   3.545   0.222  0.0380 -0.4788  0.6126
 2404SOL     OW18670   1.705   0.746  13.968 -0.1481 -0.9181 -0.1250
 2404SOL    HW118671   1.689   0.765  13.876  2.1764  0.5732 -0.2011
 2404SOL    HW218672   1.678   0.655  13.984 -3.0052  0.1011  0.8647
 2405SOL     OW18673   1.783   0.534   5.435 -0.4601 -0.2357  0.0202
 2405SOL    HW118674   1.691   0.512   5.449 -0.3696  0.3742  1.6415
 2405SOL    HW218675   1.768   0.574   5.350  1.6937  0.8681  0.1779
 2406SOL     OW18676   3.109   2.634   1.315 -0.1441  0.1665  0.4692
 2406SOL    HW118677   3.064   2.568   1.263  1.2621  0.0643 -0.6117
 2406SOL    HW218678   3.171   2.653   1.245 -1.3399  1.5799 -0.2107
 2407SOL     OW18679   2.683   2.007   1.825 -0.4545 -0.4727 -0.2832
 2407SOL    HW118680   2.738   2.033   1.899 -1.4266 -1.1343  0.6706
 2407SOL    HW218681   2.612   1.963   1.872 -0.9331  1.2224  0.5941
 2408SOL     OW18682   1.719   1.807   7.644  0.1118 -0.2878  0.3468
 2408SOL    HW118683   1.754   1.725   7.609 -1.2674  0.0915 -1.8941
 2408SOL    HW218684   1.644   1.813   7.586 -0.6933  1.9435  1.6391
 2409SOL     OW18685   2.415   1.504  13.628  0.6690  0.1401  0.2379
 2409SOL    HW118686   2.482   1.539  13.569  0.0629  0.3900 -0.3072
 2409SOL    HW218687   2.339   1.548  13.591 -0.5322 -1.0537  1.2996
 2410SOL     OW18688   3.868   0.704  11.701  0.3606  0.0487 -0.1638
 2410SOL    HW118689   3.908   0.627  11.660  1.6162  0.5261  0.1760
 2410SOL    HW218690   3.950   0.730  11.743  1.2971 -0.1118 -1.8666
 2411SOL     OW18691   1.460   1.739   1.834 -0.0062  0.4119 -0.1128
 2411SOL    HW118692   1.395   1.801   1.800  0.0644 -0.3785 -1.6719
 2411SOL    HW218693   1.511   1.714   1.758  0.1009 -0.8256  0.3712
 2412SOL     OW18694   1.179   1.546   9.890  0.1081  0.1001  0.1311
 2412SOL    HW118695   1.158   1.470   9.835  4.1660  0.4463 -1.8991
 2412SOL    HW218696   1.162   1.617   9.827 -0.8343 -0.5829 -0.3916
 2413SOL     OW18697   3.031   0.133   7.794  0.2689  0.9755  0.4964
 2413SOL    HW118698   3.067   0.138   7.882 -0.4382  2.3333  0.7026
 2413SOL    HW218699   2.972   0.057   7.798 -0.4446  1.3616 -2.9015
 2414SOL     OW18700   2.334   4.024   9.420 -0.5466  0.0109  0.4702
 2414SOL    HW118701   2.301   4.060   9.338  0.3958 -0.6654 -0.2224
 2414SOL    HW218702   2.265   4.050   9.480 -0.6667 -1.3456  0.9096
 2415SOL     OW18703   2.698   1.474   4.339  0.3388  0.0848  0.1529
 2415SOL    HW118704   2.683   1.470   4.245 -0.8566 -1.5007  0.4045
 2415SOL    HW218705   2.621   1.516   4.376 -1.5085 -0.6456 -2.8312
 2416SOL     OW18706   1.669   4.387  16.946  0.7200  0.2575  0.4816
 2416SOL    HW118707   1.724   4.397  17.023  1.8303 -3.0032  0.1254
 2416SOL    HW218708   1.619   4.468  16.946 -0.3528 -0.4045  0.5564
 2417SOL     OW18709   2.991   2.001  11.458  0.5410 -0.6360 -0.5761
 2417SOL    HW118710   2.987   1.912  11.422  1.6308  0.1528 -2.6630
 2417SOL    HW218711   2.902   2.035  11.464  1.3967  1.6404 -0.6051
 2418SOL     OW18712   1.708   3.968   4.595 -0.4353 -1.1303  0.1891
 2418SOL    HW118713   1.782   3.909   4.610  0.9797  0.0067 -2.3529
 2418SOL    HW218714   1.654   3.914   4.538  2.0299 -2.6694 -0.6828
 2419SOL     OW18715   0.108   3.545   6.090  0.0513  0.1962  0.3109
 2419SOL    HW118716   0.104   3.451   6.072 -0.6120 -0.9057  6.4056
 2419SOL    HW218717   0.076   3.582   6.008 -0.6130 -3.4290 -1.1000
 2420SOL     OW18718   1.153   3.360  15.476 -0.6792 -0.3567 -0.2971
 2420SOL    HW118719   1.137   3.454  15.465 -1.9053 -0.3151  1.8656
 2420SOL    HW218720   1.234   3.357  15.425 -1.0875 -0.8196 -0.9156
 2421SOL     OW18721   1.820   4.291  10.041  1.0257  0.4659  0.0408
 2421SOL    HW118722   1.882   4.341   9.988  1.6747  0.5069  0.8396
 2421SOL    HW218723   1.768   4.366  10.072  0.5858  0.2085 -0.0770
 2422SOL     OW18724   3.883   2.718   0.613 -0.0241  0.9181 -0.4889
 2422SOL    HW118725   3.866   2.724   0.707  2.4089  1.4848 -0.0892
 2422SOL    HW218726   3.971   2.683   0.624  0.2799  2.1253  1.0500
 2423SOL     OW18727   2.733   0.342   8.051 -0.0224 -0.2762 -0.2740
 2423SOL    HW118728   2.737   0.336   8.146 -1.7724 -1.1498 -0.2588
 2423SOL    HW218729   2.797   0.410   8.027 -1.3815  1.2268  0.3358
 2424SOL     OW18730   4.602   4.002   5.149 -0.5191  0.6241  0.3481
 2424SOL    HW118731   4.523   4.016   5.097  0.3787  3.2893 -0.3070
 2424SOL    HW218732   4.615   3.907   5.143  2.6714  1.0043  0.8925
 2425SOL     OW18733   1.348   1.108   5.197 -0.1872 -0.1783  0.0620
 2425SOL    HW118734   1.295   1.041   5.154  0.2929 -1.1242  0.9539
 2425SOL    HW218735   1.427   1.109   5.143  0.4368 -0.3324  0.9727
 2426SOL     OW18736   1.897   2.922   7.781  0.6139 -0.0309  0.4472
 2426SOL    HW118737   1.818   2.876   7.755  0.2341 -0.6633  2.7800
 2426SOL    HW218738   1.945   2.854   7.828  1.2702 -0.4189 -0.7876
 2427SOL     OW18739   0.321   2.566   4.533 -0.3497 -0.0941  0.4733
 2427SOL    HW118740   0.300   2.658   4.514  1.8021  0.1191 -0.8263
 2427SOL    HW218741   0.287   2.516   4.459  1.7410  0.0946 -0.6062
 2428SOL     OW18742   2.911   0.670   9.612 -0.5793  0.6313  0.5402
 2428SOL    HW118743   2.854   0.742   9.586  0.3743  0.8595 -0.9659
 2428SOL    HW218744   2.935   0.626   9.530  1.1481  3.4465 -0.4722
 2429SOL     OW18745   3.209   3.160  14.959  0.0731 -0.2197  1.2035
 2429SOL    HW118746   3.196   3.148  14.865  1.2059 -1.5996  1.2339
 2429SOL    HW218747   3.287   3.105  14.958 -0.3834 -0.8428 -1.0836
 2430SOL     OW18748   0.874   2.413   9.301 -0.1462  0.0051 -0.1873
 2430SOL    HW118749   0.822   2.468   9.360 -0.1536  0.4985 -0.6576
 2430SOL    HW218750   0.898   2.339   9.358  2.2444  0.1643 -0.9885
 2431SOL     OW18751   2.804   3.237   2.634  0.1492  0.0941 -0.0483
 2431SOL    HW118752   2.876   3.175   2.617 -0.4792 -1.0528  1.4304
 2431SOL    HW218753   2.859   3.273   2.704  0.1301 -1.5457  0.8278
 2432SOL     OW18754   3.567   0.543   8.041  0.0274 -0.2597 -0.3681
 2432SOL    HW118755   3.518   0.491   7.977 -1.1582 -0.9311  1.0701
 2432SOL    HW218756   3.651   0.533   7.996 -0.1942  1.2577 -1.1243
 2433SOL     OW18757   2.466   4.139  12.437 -0.5230 -0.2014 -0.2363
 2433SOL    HW118758   2.468   4.113  12.529  1.6427  0.6311 -0.0471
 2433SOL    HW218759   2.460   4.233  12.448 -1.8275 -0.3530  0.3101
 2434SOL     OW18760   2.903   2.522   0.642 -0.0639 -0.0807 -0.0671
 2434SOL    HW118761   2.885   2.488   0.555  1.1369  1.7896 -1.0555
 2434SOL    HW218762   2.815   2.551   0.664 -0.0828 -1.8069  2.1420
 2435SOL     OW18763   4.283   3.260   4.995  0.1676  0.1414  0.0840
 2435SOL    HW118764   4.194   3.261   5.029 -0.2364 -3.5261 -0.8546
 2435SOL    HW218765   4.262   3.264   4.901 -0.7546  1.1686  0.3351
 2436SOL     OW18766   3.975   2.517   6.828  0.2705  0.1057  0.3841
 2436SOL    HW118767   3.995   2.427   6.855  0.6762  0.1135  0.1069
 2436SOL    HW218768   3.887   2.496   6.795 -0.4050  2.4455  0.6850
 2437SOL     OW18769   2.123   2.859   6.247 -0.5690 -0.3404  0.2798
 2437SOL    HW118770   2.136   2.839   6.154 -2.8957 -1.6983  0.2493
 2437SOL    HW218771   2.169   2.942   6.260 -1.9246  0.6598 -1.3217
 2438SOL     OW18772   1.580   0.230   4.128  0.0507  1.2372  0.3497
 2438SOL    HW118773   1.657   0.223   4.185  0.4475 -1.2297 -0.4789
 2438SOL    HW218774   1.624   0.227   4.044 -0.6495 -2.0650  0.0971
 2439SOL     OW18775   0.512   0.865  16.742 -0.2642  0.4004  0.4942
 2439SOL    HW118776   0.492   0.801  16.811  0.7619 -0.1911  0.2513
 2439SOL    HW218777   0.557   0.931  16.795 -0.6878  1.3627 -0.3507
 2440SOL     OW18778   3.734   4.257   3.909  0.0108 -0.4325 -0.1674
 2440SOL    HW118779   3.782   4.302   3.840 -0.0684 -0.7051 -0.3974
 2440SOL    HW218780   3.808   4.214   3.952  2.4972  3.2507 -0.7790
 2441SOL     OW18781   3.647   3.446   6.892 -0.0266  0.2038  0.3746
 2441SOL    HW118782   3.555   3.423   6.899  0.2004 -0.5851  0.7391
 2441SOL    HW218783   3.653   3.541   6.905  1.0095  0.4958 -2.2828
 2442SOL     OW18784   1.692   3.399  12.289  0.2584 -0.5545  0.5468
 2442SOL    HW118785   1.687   3.359  12.376  0.5208  1.1942  1.3669
 2442SOL    HW218786   1.639   3.479  12.301 -1.8595 -2.2693  2.6530
 2443SOL     OW18787   0.598   1.116   9.190  0.6323  0.5684 -0.9098
 2443SOL    HW118788   0.598   1.212   9.197 -0.4766  0.5251 -0.2862
 2443SOL    HW218789   0.686   1.088   9.212 -0.1338 -0.4539  0.8114
 2444SOL     OW18790   1.860   0.875   4.154 -0.0010 -0.1468  0.0985
 2444SOL    HW118791   1.936   0.871   4.213  0.6007  1.0798 -0.5864
 2444SOL    HW218792   1.822   0.789   4.172  0.1801 -0.1017  0.7097
 2445SOL     OW18793   0.384   0.853  15.021  0.1751  0.1597 -0.1599
 2445SOL    HW118794   0.471   0.813  15.017  0.2154  0.1080  1.1372
 2445SOL    HW218795   0.353   0.824  14.936  0.8743 -0.1268 -0.3149
 2446SOL     OW18796   0.286   1.829   7.470  0.3279  0.2244  0.0093
 2446SOL    HW118797   0.376   1.797   7.468 -0.6912 -2.6185 -0.5585
 2446SOL    HW218798   0.282   1.869   7.383 -0.3300 -0.2664 -0.1843
 2447SOL     OW18799   0.745   3.526   9.486 -0.3216  0.2790  0.5089
 2447SOL    HW118800   0.797   3.530   9.566  1.7255  0.3452 -0.8446
 2447SOL    HW218801   0.790   3.584   9.425 -0.2286 -0.4413 -0.1040
 2448SOL     OW18802   0.970   3.129   3.489 -0.0507  0.8045 -0.3475
 2448SOL    HW118803   1.041   3.066   3.483  0.6240  1.6734 -1.3828
 2448SOL    HW218804   0.909   3.095   3.424 -0.7883  0.4637  0.5185
 2449SOL     OW18805   2.007   1.822   8.915 -0.0473  0.1633 -0.0971
 2449SOL    HW118806   1.976   1.841   8.827 -2.4938  1.6389  1.0829
 2449SOL    HW218807   2.032   1.910   8.944 -1.2409 -0.3665  2.5054
 2450SOL     OW18808   0.960   0.981   2.619 -0.0453  0.5772 -0.0049
 2450SOL    HW118809   0.950   0.904   2.675 -0.4845  2.0125  1.8860
 2450SOL    HW218810   0.957   1.046   2.689 -1.0247  2.4863 -1.8193
 2451SOL     OW18811   0.323   1.223  15.490  0.0325  0.3036  0.2416
 2451SOL    HW118812   0.245   1.174  15.519 -1.1970  0.7524 -2.2610
 2451SOL    HW218813   0.277   1.280  15.427  1.6871 -0.1745 -1.3942
 2452SOL     OW18814   0.067   4.389   4.678 -0.1919 -0.2573 -0.0275
 2452SOL    HW118815   0.109   4.456   4.733  2.0180  0.5532 -2.6905
 2452SOL    HW218816   0.108   4.307   4.706 -1.4891 -0.3175  1.7091
 2453SOL     OW18817   4.083   4.655   5.685 -0.1570  0.1923  0.2366
 2453SOL    HW118818   4.034   4.671   5.604  1.8034  0.5486 -0.8746
 2453SOL    HW218819   4.125   4.571   5.669  1.0320  1.1915 -1.8307
 2454SOL     OW18820   1.942   3.977   8.504  0.1500 -0.2783 -0.3099
 2454SOL    HW118821   1.880   4.035   8.548  0.6476 -1.1830  1.5891
 2454SOL    HW218822   2.030   4.004   8.531 -0.1931  0.6578 -0.1107
 2455SOL     OW18823   2.580   3.451  16.752 -0.0426 -0.4476  0.1153
 2455SOL    HW118824   2.523   3.474  16.825  1.2867  1.3091  0.6188
 2455SOL    HW218825   2.528   3.378  16.718 -1.0792  0.3632 -0.0342
 2456SOL     OW18826   1.102   0.617   4.467  0.1405  0.6379  0.4984
 2456SOL    HW118827   1.035   0.553   4.440  1.3355  0.2838 -1.6063
 2456SOL    HW218828   1.180   0.592   4.418  0.2662  0.5026  0.7666
 2457SOL     OW18829   0.056   3.803   2.700 -0.1876 -0.1080  0.0890
 2457SOL    HW118830   0.093   3.891   2.689  0.1347 -0.1821  0.6057
 2457SOL    HW218831   4.690   3.820   2.715  0.3503  3.5626 -0.7673
 2458SOL     OW18832   2.091   1.299   3.791  0.2074 -0.2117  0.6512
 2458SOL    HW118833   2.185   1.297   3.769  0.6977 -0.8704  2.7971
 2458SOL    HW218834   2.056   1.253   3.715 -1.6269 -0.7061  1.8041
 2459SOL     OW18835   2.746   0.786   6.590  0.6271 -0.1046  0.1194
 2459SOL    HW118836   2.805   0.721   6.553  0.2214  0.0089 -0.7484
 2459SOL    HW218837   2.690   0.789   6.512  1.3656 -1.8792 -0.4622
 2460SOL     OW18838   1.064   4.533   8.845  0.0266  0.3630  0.4007
 2460SOL    HW118839   1.008   4.558   8.919  0.3396  1.5503  0.2408
 2460SOL    HW218840   1.062   4.439   8.863  0.8359 -0.2235 -2.5641
 2461SOL     OW18841   3.274   3.635  16.659  0.2537  0.1487 -0.1257
 2461SOL    HW118842   3.232   3.589  16.731  2.7379 -0.3391  0.9983
 2461SOL    HW218843   3.200   3.664  16.605 -0.5585  0.3676  1.1040
 2462SOL     OW18844   0.598   1.224   8.701 -0.0149 -0.4919  1.0212
 2462SOL    HW118845   0.543   1.178   8.765 -1.1341  2.0582  1.8954
 2462SOL    HW218846   0.674   1.244   8.755 -1.0235  0.5340  2.0712
 2463SOL     OW18847   1.135   2.992   2.030 -0.6224 -0.2327 -0.1468
 2463SOL    HW118848   1.210   2.938   2.003  0.0284 -0.2987  1.7937
 2463SOL    HW218849   1.140   2.985   2.125 -3.0064 -0.1071 -0.0171
 2464SOL     OW18850   1.099   1.405  17.628  0.0102 -0.0847 -0.4284
 2464SOL    HW118851   1.094   1.497  17.600  1.7112  0.3408  0.6705
 2464SOL    HW218852   1.111   1.421   0.016  0.3876 -0.2377 -0.4531
 2465SOL     OW18853   1.370   4.185  15.794 -0.5928 -0.4689  0.7017
 2465SOL    HW118854   1.285   4.203  15.754  0.3782  1.1337 -0.6400
 2465SOL    HW218855   1.419   4.143  15.723  0.5967 -2.2423  2.5597
 2466SOL     OW18856   0.545   0.264   8.372  0.1018 -0.3716  0.1166
 2466SOL    HW118857   0.607   0.196   8.399 -1.0497 -1.1620  0.7549
 2466SOL    HW218858   0.541   0.250   8.277 -0.0749 -2.7782  0.4698
 2467SOL     OW18859   2.387   0.533   4.286 -0.5302  0.2287  0.8343
 2467SOL    HW118860   2.475   0.562   4.263 -1.6097  3.0724  0.2621
 2467SOL    HW218861   2.398   0.474   4.360  0.4040 -0.4189  0.1762
 2468SOL     OW18862   0.466   3.262   5.987  0.0425  0.3441 -0.2316
 2468SOL    HW118863   0.394   3.310   6.028  2.2426  1.3363  2.5334
 2468SOL    HW218864   0.460   3.276   5.893  1.0832 -0.1029 -0.3669
 2469SOL     OW18865   3.461   1.298  14.445 -0.0633  0.1157  0.0513
 2469SOL    HW118866   3.400   1.334  14.510 -1.4574 -2.8367  0.3933
 2469SOL    HW218867   3.535   1.268  14.498  0.7071  0.0344 -1.0779
 2470SOL     OW18868   3.632   0.594  15.562 -0.4777  0.3671 -0.3496
 2470SOL    HW118869   3.599   0.659  15.624  0.3504 -0.5755  1.0684
 2470SOL    HW218870   3.651   0.514  15.611  2.6392  2.3014  1.6133
 2471SOL     OW18871   3.143   1.407   2.391  0.3344  0.6655 -0.4757
 2471SOL    HW118872   3.080   1.450   2.332 -1.2066 -0.1967  0.5401
 2471SOL    HW218873   3.186   1.485   2.425 -0.8256  1.5530 -1.0057
 2472SOL     OW18874   3.144   1.995   6.519 -0.0188  0.5895  0.2828
 2472SOL    HW118875   3.173   2.053   6.448  1.8103 -0.8879 -0.1856
 2472SOL    HW218876   3.220   1.939   6.534  1.2269  2.0129 -0.7201
 2473SOL     OW18877   2.326   1.617   2.511  0.3416 -0.2361 -0.1772
 2473SOL    HW118878   2.367   1.533   2.533 -1.8337 -1.2112  0.1994
 2473SOL    HW218879   2.404   1.669   2.490  1.2420 -0.7881  1.7782
 2474SOL     OW18880   4.651   0.882  14.079  0.0906 -0.5426  0.1024
 2474SOL    HW118881   4.687   0.795  14.066  0.3443 -0.4522  0.2034
 2474SOL    HW218882   4.699   0.909  14.157 -0.7268 -1.0194  0.7731
 2475SOL     OW18883   1.912   3.703  17.030 -0.7900 -0.1958  0.3055
 2475SOL    HW118884   1.992   3.713  16.978 -0.9020 -0.4320  0.0844
 2475SOL    HW218885   1.866   3.786  17.017  0.3943  0.0292 -2.5013
 2476SOL     OW18886   3.926   3.814   2.582  0.7971  0.1624 -0.0539
 2476SOL    HW118887   3.941   3.909   2.582 -0.8782  0.4200  1.4791
 2476SOL    HW218888   4.005   3.785   2.628  0.0720 -2.0160 -0.1977
 2477SOL     OW18889   3.028   3.097   9.476  0.1528  0.7850 -0.4611
 2477SOL    HW118890   3.111   3.104   9.428  0.0316  3.4412 -0.2852
 2477SOL    HW218891   2.986   3.181   9.458 -1.5222 -0.1293 -0.8238
 2478SOL     OW18892   2.823   3.443  10.685 -0.2186 -0.2634 -0.6349
 2478SOL    HW118893   2.833   3.350  10.665 -0.6990 -0.1069 -1.5971
 2478SOL    HW218894   2.871   3.487  10.615  0.2997 -2.2400 -1.5238
 2479SOL     OW18895   3.066   4.027  16.310  0.6785  0.1714  0.1171
 2479SOL    HW118896   3.129   4.072  16.254 -0.4836  0.6396 -0.7965
 2479SOL    HW218897   2.996   4.008  16.248 -0.6978  0.4732  1.5517
 2480SOL     OW18898   3.893   3.430  10.058 -0.3491  0.0575 -0.1641
 2480SOL    HW118899   3.817   3.440  10.115  0.3911 -0.0332  0.8172
 2480SOL    HW218900   3.903   3.521  10.028  2.7115 -0.4400 -0.6673
 2481SOL     OW18901   0.940   1.944   7.125  0.3873 -0.1118 -0.4599
 2481SOL    HW118902   1.031   1.928   7.098  0.0388 -2.7037 -0.1366
 2481SOL    HW218903   0.949   2.039   7.131 -0.6568 -0.0621  0.2599
 2482SOL     OW18904   1.188   1.940   0.477  0.0034 -0.2434 -0.2892
 2482SOL    HW118905   1.096   1.950   0.501  0.4470 -0.2923  1.4126
 2482SOL    HW218906   1.210   2.032   0.465  1.7523 -0.7093 -0.8172
 2483SOL     OW18907   4.691   1.894   6.956 -0.0791 -0.0041  0.3284
 2483SOL    HW118908   0.035   1.946   6.917  2.1032  0.0234  4.2677
 2483SOL    HW218909   4.639   1.973   6.976  0.8797 -0.0606  3.0589
 2484SOL     OW18910   2.724   2.965  13.546  0.4229  0.2963  0.6847
 2484SOL    HW118911   2.699   2.893  13.603  1.3513 -0.9952 -0.5158
 2484SOL    HW218912   2.816   2.940  13.538  0.1018 -1.2929  2.0958
 2485SOL     OW18913   1.561   0.041   7.726 -0.2260  0.1370  0.0575
 2485SOL    HW118914   1.497   4.705   7.760  2.0659 -2.0694  0.2572
 2485SOL    HW218915   1.502   0.080   7.661 -2.5802  1.5098  3.0460
 2486SOL     OW18916   4.070   2.257   7.522  0.0379 -0.0358 -0.6936
 2486SOL    HW118917   4.166   2.255   7.516  0.0850 -0.6339  0.2129
 2486SOL    HW218918   4.071   2.352   7.531  2.0514 -0.0169 -1.0211
 2487SOL     OW18919   3.000   0.948   3.214 -0.0929 -0.6894  0.2478
 2487SOL    HW118920   3.009   1.035   3.175 -1.0959  0.8334  3.4050
 2487SOL    HW218921   3.038   0.954   3.301  0.5308  0.8721 -0.1333
 2488SOL     OW18922   0.715   3.510  16.231 -1.0252  0.3713 -0.0440
 2488SOL    HW118923   0.755   3.588  16.193  0.1666  0.3449  1.1591
 2488SOL    HW218924   0.793   3.454  16.237 -0.3282  1.2081 -1.4988
 2489SOL     OW18925   0.276   3.417  11.998 -0.6456 -0.0058  0.2331
 2489SOL    HW118926   0.245   3.326  12.003  0.9035 -0.5336  0.3921
 2489SOL    HW218927   0.242   3.436  11.911 -1.5593 -1.2877  0.3063
 2490SOL     OW18928   4.516   1.248   9.972 -0.4767 -0.3683  0.1682
 2490SOL    HW118929   4.450   1.188   9.937 -1.8612  0.6731  0.9923
 2490SOL    HW218930   4.604   1.229   9.939  0.1211 -0.8921  2.0467
 2491SOL     OW18931   2.533   1.335   3.133 -0.0862  0.3369  0.0880
 2491SOL    HW118932   2.470   1.392   3.090 -1.8695 -1.7683 -0.0574
 2491SOL    HW218933   2.554   1.386   3.212 -1.3312 -0.5443  0.9871
 2492SOL     OW18934   4.702   2.097   7.846 -0.3798 -0.1153  0.0408
 2492SOL    HW118935   0.036   2.032   7.812 -0.4435 -0.8195  1.2839
 2492SOL    HW218936   4.672   2.042   7.919 -0.7640  2.0495  1.5195
 2493SOL     OW18937   4.156   4.000   3.291  0.2927  0.4001 -0.1616
 2493SOL    HW118938   4.091   4.011   3.360 -0.0167  0.2458 -0.4329
 2493SOL    HW218939   4.233   4.030   3.340  1.2529  0.0671 -1.4775
 2494SOL     OW18940   0.310   1.962   2.430 -0.0006  0.1020  0.1601
 2494SOL    HW118941   0.245   1.904   2.470  0.1881 -0.0215  0.2863
 2494SOL    HW218942   0.255   2.001   2.362 -0.9267  1.0633  1.4529
 2495SOL     OW18943   1.935   4.132   6.320  0.1778 -0.3529  0.8041
 2495SOL    HW118944   1.991   4.131   6.242 -0.7666 -1.2600  0.1256
 2495SOL    HW218945   1.898   4.220   6.316  3.1582  0.8940  0.6183
 2496SOL     OW18946   0.931   1.110  10.800  0.3380  0.2996  0.9093
 2496SOL    HW118947   0.916   1.177  10.734 -2.0093 -0.7980  0.3417
 2496SOL    HW218948   1.018   1.080  10.772 -0.5344 -0.8476 -0.5413
 2497SOL     OW18949   3.550   1.813   3.822 -0.2972 -0.5555 -0.3269
 2497SOL    HW118950   3.462   1.834   3.789 -0.2195 -0.9688 -0.7955
 2497SOL    HW218951   3.588   1.900   3.827 -0.3026 -0.5162 -0.9212
 2498SOL     OW18952   1.379   0.611   1.003 -0.2283 -0.3096  0.2210
 2498SOL    HW118953   1.307   0.650   0.954  0.5966  2.4615  1.2221
 2498SOL    HW218954   1.345   0.612   1.092  0.7691 -1.0008  0.6058
 2499SOL     OW18955   3.214   1.229   9.297  0.0307  0.1084 -0.4905
 2499SOL    HW118956   3.219   1.325   9.303  1.0671 -0.1447  2.9248
 2499SOL    HW218957   3.289   1.212   9.241  0.1769 -2.3701  0.4640
 2500SOL     OW18958   0.527   1.953   2.277 -0.0609  0.3748 -0.4469
 2500SOL    HW118959   0.462   1.961   2.347  1.1777  0.6776  0.6802
 2500SOL    HW218960   0.481   1.899   2.212  1.3265 -0.6133 -0.6162
 2501SOL     OW18961   3.587   2.140   2.866  0.0287 -0.1365  0.3701
 2501SOL    HW118962   3.619   2.073   2.805 -0.2802 -0.3850  0.4881
 2501SOL    HW218963   3.672   2.182   2.882 -0.4495  0.6807  0.7486
 2502SOL     OW18964   2.199   1.102   7.737 -0.2064 -0.3643 -0.5135
 2502SOL    HW118965   2.155   1.048   7.803  1.9499 -1.2087  0.2531
 2502SOL    HW218966   2.248   1.165   7.789 -0.1126 -1.0974  0.2933
 2503SOL     OW18967   1.981   1.266   4.985 -0.0023 -0.2838 -0.0652
 2503SOL    HW118968   1.978   1.260   4.890 -0.4334 -0.1803 -0.0548
 2503SOL    HW218969   1.932   1.345   5.007  1.8457 -0.0241  3.2081
 2504SOL     OW18970   4.344   1.060   5.984 -0.1531 -0.6349  0.0113
 2504SOL    HW118971   4.395   1.024   6.057  0.7439 -1.0046 -0.8088
 2504SOL    HW218972   4.406   1.032   5.916 -0.0709 -2.2093  0.7318
 2505SOL     OW18973   2.099   2.398   2.783  0.2476  0.0584 -0.2530
 2505SOL    HW118974   2.004   2.412   2.776  0.4249  0.4340 -1.9007
 2505SOL    HW218975   2.123   2.417   2.692  2.9438  0.7631  0.5986
 2506SOL     OW18976   3.389   1.044   4.720 -0.4134  0.3963 -0.1243
 2506SOL    HW118977   3.355   1.090   4.643 -0.3820 -1.6752 -1.3587
 2506SOL    HW218978   3.468   1.007   4.681  0.5470  0.6492  1.6178
 2507SOL     OW18979   3.744   3.486  17.629  0.0201  0.0445 -0.1073
 2507SOL    HW118980   3.682   3.467  17.560  0.1872  1.1481 -0.5684
 2507SOL    HW218981   3.781   3.402  17.657  0.1836 -0.2906 -1.3281
 2508SOL     OW18982   4.627   2.389   2.764  0.1391 -0.5664  0.4198
 2508SOL    HW118983   4.570   2.395   2.687 -0.6822  1.4864  1.1767
 2508SOL    HW218984   4.591   2.308   2.801 -0.0505 -1.9912 -2.9067
 2509SOL     OW18985   2.655   4.017   9.158  0.2639 -0.1381 -0.6909
 2509SOL    HW118986   2.743   4.014   9.120  0.7018 -0.4265  0.3398
 2509SOL    HW218987   2.623   3.936   9.118 -0.1655 -0.3028 -0.0108
 2510SOL     OW18988   4.228   2.758   5.423  0.1008 -0.1038 -0.1301
 2510SOL    HW118989   4.300   2.766   5.486  0.0797  2.5211 -0.4310
 2510SOL    HW218990   4.175   2.688   5.460  1.3665 -0.1796  1.5276
 2511SOL     OW18991   3.303   1.624  17.226 -0.0889  0.2935 -0.5027
 2511SOL    HW118992   3.237   1.694  17.223  2.2598  2.5575  0.1508
 2511SOL    HW218993   3.364   1.653  17.158  0.4881 -0.7743 -0.4279
 2512SOL     OW18994   1.087   3.953  11.545  0.7368  0.0546  0.3015
 2512SOL    HW118995   1.055   3.998  11.623  1.1437  3.7194 -1.6570
 2512SOL    HW218996   1.182   3.964  11.541  0.6765  0.8447  1.1219
 2513SOL     OW18997   0.492   2.841   0.482 -0.0886 -0.4159  0.6933
 2513SOL    HW118998   0.558   2.870   0.418  1.4413 -4.0065  0.6661
 2513SOL    HW218999   0.415   2.834   0.425 -0.3918  3.9166  0.5633
 2514SOL     OW19000   1.012   4.218   7.079  0.4896 -0.0329 -0.1681
 2514SOL    HW119001   1.075   4.151   7.102  1.0180 -0.0200 -1.5736
 2514SOL    HW219002   0.936   4.173   7.043  0.1236  1.6177 -1.4957
 2515SOL     OW19003   3.397   4.475  15.777  0.2220 -0.2743 -0.2538
 2515SOL    HW119004   3.367   4.430  15.856  1.1488 -0.5576 -0.0623
 2515SOL    HW219005   3.320   4.490  15.723 -0.0734 -1.7631 -0.2600
 2516SOL     OW19006   3.309   0.308   6.149 -0.1903  0.1542  0.0147
 2516SOL    HW119007   3.370   0.244   6.186  0.5636  0.6551 -0.3687
 2516SOL    HW219008   3.367   0.354   6.089  0.5300  1.3426  1.6041
 2517SOL     OW19009   1.025   2.856  13.504  0.2864  0.0012  0.4180
 2517SOL    HW119010   1.034   2.951  13.506  0.3508  0.0324 -1.4642
 2517SOL    HW219011   1.081   2.829  13.576  1.4627 -0.4255 -0.6597
 2518SOL     OW19012   1.415   4.718   4.535 -0.2203  0.0068  0.4584
 2518SOL    HW119013   1.429   0.009   4.441 -1.9849 -2.3349 -0.2504
 2518SOL    HW219014   1.495   0.022   4.578  0.4380  0.4790 -1.0613
 2519SOL     OW19015   3.162   3.870   1.078 -0.6472 -0.1714 -0.0626
 2519SOL    HW119016   3.168   3.809   1.151 -1.4944 -0.0345  0.1264
 2519SOL    HW219017   3.080   3.850   1.033  0.4866 -0.0200 -2.2012
 2520SOL     OW19018   3.371   0.838   7.431 -0.2441  0.3784  0.1671
 2520SOL    HW119019   3.382   0.918   7.379  1.0981  0.6174  0.8368
 2520SOL    HW219020   3.290   0.846   7.482  0.6395 -2.5160  2.0153
 2521SOL     OW19021   0.878   2.874  11.678 -0.6508 -0.4921  0.1188
 2521SOL    HW119022   0.970   2.865  11.702 -0.0547 -0.0840 -2.0477
 2521SOL    HW219023   0.845   2.939  11.740 -0.3019 -0.1062 -0.1042
 2522SOL     OW19024   4.430   1.381  14.223  0.0287 -0.5598  0.0003
 2522SOL    HW119025   4.377   1.460  14.239 -0.0018 -0.7168  0.6635
 2522SOL    HW219026   4.367   1.334  14.168 -1.5059  0.4543  0.9022
 2523SOL     OW19027   4.605   0.716   0.402 -0.2662  0.4877 -0.5347
 2523SOL    HW119028   4.552   0.781   0.450  0.5504  0.6211  0.1890
 2523SOL    HW219029   4.623   0.656   0.474 -1.9135  1.0013  0.3051
 2524SOL     OW19030   1.872   0.404   3.701  0.0205  0.5335 -0.2502
 2524SOL    HW119031   1.928   0.479   3.683  1.6624 -0.8507 -0.9148
 2524SOL    HW219032   1.930   0.333   3.674  0.7550  1.1938 -0.3987
 2525SOL     OW19033   1.033   0.162   1.675 -0.4028 -0.3508 -0.5047
 2525SOL    HW119034   0.978   0.219   1.620 -0.2302 -0.2744 -0.5991
 2525SOL    HW219035   0.961   0.125   1.726  0.1056 -0.2016  0.3139
 2526SOL     OW19036   1.505   0.303  13.433 -0.0860 -0.6583 -0.1686
 2526SOL    HW119037   1.413   0.327  13.423  0.6022  1.7314 -0.8866
 2526SOL    HW219038   1.505   0.208  13.423 -0.6282 -0.7291  0.5421
 2527SOL     OW19039   3.137   4.093   3.771 -0.0904 -0.2720  0.0486
 2527SOL    HW119040   3.091   4.129   3.695 -0.8940  1.4544  1.3406
 2527SOL    HW219041   3.097   4.130   3.849 -0.8859 -0.1859 -0.4046
 2528SOL     OW19042   3.866   1.125  13.012  0.0176 -0.2693 -0.5140
 2528SOL    HW119043   3.920   1.171  13.076 -1.0961 -0.1075  0.3037
 2528SOL    HW219044   3.793   1.186  13.009 -0.4704 -0.9110 -1.5589
 2529SOL     OW19045   2.606   4.074   6.514 -0.2017  0.4497 -0.5170
 2529SOL    HW119046   2.645   3.993   6.480  0.2325  0.5992 -0.3815
 2529SOL    HW219047   2.621   4.072   6.608 -1.2669  0.1040 -0.3554
 2530SOL     OW19048   4.027   3.709  14.305  0.6006  0.3136 -0.0191
 2530SOL    HW119049   3.957   3.649  14.279 -0.4696  0.6038  2.2558
 2530SOL    HW219050   4.086   3.671  14.240 -0.0830 -0.4451 -0.2083
 2531SOL     OW19051   4.247   4.614   8.401  0.1880 -0.2595 -0.2755
 2531SOL    HW119052   4.294   4.638   8.321 -1.0931 -0.0806 -0.9657
 2531SOL    HW219053   4.246   4.692   8.457 -0.5497 -1.5033  1.4265
 2532SOL     OW19054   3.349   3.258   3.951  0.8968  0.0443 -0.2833
 2532SOL    HW119055   3.259   3.253   3.984  0.9151 -0.7748 -0.3581
 2532SOL    HW219056   3.343   3.242   3.857 -2.3983 -2.8503  0.3765
 2533SOL     OW19057   3.236   2.157   8.488 -0.7848  0.7771  0.4001
 2533SOL    HW119058   3.188   2.192   8.563 -2.8179 -0.4341 -0.3368
 2533SOL    HW219059   3.187   2.079   8.465 -0.0520  0.3503  0.2655
 2534SOL     OW19060   0.259   4.672   2.399 -0.0713  0.2671  0.6670
 2534SOL    HW119061   0.262   0.009   2.471  2.0936 -3.3957  3.7810
 2534SOL    HW219062   0.249   0.011   2.329 -0.3535  0.0848  0.5352
 2535SOL     OW19063   3.837   0.112   8.979 -0.1238  0.1080 -0.5684
 2535SOL    HW119064   3.877   0.186   8.933  0.4307 -0.5420 -1.1212
 2535SOL    HW219065   3.905   0.046   8.970 -0.5936 -0.5193  0.4579
 2536SOL     OW19066   3.013   4.242   5.713 -0.3979  0.1613 -0.6103
 2536SOL    HW119067   3.028   4.174   5.779  0.4215  1.7059  0.8033
 2536SOL    HW219068   3.099   4.241   5.671  0.4241  0.4482  1.0734
 2537SOL     OW19069   1.602   2.488   4.626  0.4317 -0.1814  0.0530
 2537SOL    HW119070   1.691   2.520   4.640  0.5188  0.2616 -1.6208
 2537SOL    HW219071   1.602   2.462   4.534  0.8965  0.0950 -0.0222
 2538SOL     OW19072   1.235   3.644   9.900  0.4617 -0.1775 -0.1787
 2538SOL    HW119073   1.300   3.613   9.836  2.7840  1.1899  1.4865
 2538SOL    HW219074   1.258   3.601   9.982 -0.1366  2.1025  1.1821
 2539SOL     OW19075   0.035   3.307   5.704 -0.0314 -0.1446 -0.2495
 2539SOL    HW119076   0.058   3.231   5.651 -1.5578  0.4514 -1.7693
 2539SOL    HW219077   4.713   3.351   5.634 -1.5073 -0.2730  0.6619
 2540SOL     OW19078   1.288   3.740   6.544  0.2335 -0.0052  0.4110
 2540SOL    HW119079   1.202   3.730   6.504 -0.3173  0.9337  1.3612
 2540SOL    HW219080   1.329   3.814   6.499  0.3959  0.7192  1.7460
 2541SOL     OW19081   2.387   1.065  11.588  1.2831 -0.1929 -0.2810
 2541SOL    HW119082   2.343   1.134  11.538 -0.4968 -2.6078 -2.0640
 2541SOL    HW219083   2.369   1.100  11.675  3.9650  0.1198  0.1479
 2542SOL     OW19084   0.280   1.906   5.750 -0.3899 -0.2668  0.5506
 2542SOL    HW119085   0.239   1.974   5.696  2.5440  0.9781 -0.0986
 2542SOL    HW219086   0.369   1.942   5.750 -0.8184  0.7692 -2.8245
 2543SOL     OW19087   0.732   1.517   8.721 -0.1086 -0.4227  0.0039
 2543SOL    HW119088   0.762   1.455   8.788 -0.9322 -1.3276 -0.4664
 2543SOL    HW219089   0.763   1.475   8.641 -3.4241  0.8539 -1.9279
 2544SOL     OW19090   3.531   3.011   6.361 -0.1718  0.1593 -0.4635
 2544SOL    HW119091   3.612   2.961   6.354 -0.4935 -0.4869  0.5448
 2544SOL    HW219092   3.553   3.073   6.431  0.7756 -1.6523  0.8471
 2545SOL     OW19093   0.285   0.887   5.465 -0.1992 -0.4646  0.2410
 2545SOL    HW119094   0.291   0.947   5.391  0.5046 -1.8687 -0.8212
 2545SOL    HW219095   0.370   0.844   5.468  0.8062  1.4515 -0.8717
 2546SOL     OW19096   3.993   3.778   1.471  1.0482 -0.5452 -0.6850
 2546SOL    HW119097   3.947   3.835   1.534 -0.3264 -0.0161 -2.1915
 2546SOL    HW219098   3.964   3.808   1.385 -0.7462  1.7814  0.7184
 2547SOL     OW19099   0.926   1.656   6.669 -0.2573  0.3897 -0.0183
 2547SOL    HW119100   0.835   1.674   6.645 -0.3288 -1.3161 -0.9960
 2547SOL    HW219101   0.969   1.722   6.615 -0.5054  0.6147  0.0621
 2548SOL     OW19102   0.777   1.259   3.403 -0.4336  0.2991  0.1673
 2548SOL    HW119103   0.717   1.186   3.414 -0.0971 -0.3554 -2.3341
 2548SOL    HW219104   0.726   1.307   3.338 -1.3605  1.0499  1.4413
 2549SOL     OW19105   1.160   1.169   6.514 -0.0465  0.4973  0.3454
 2549SOL    HW119106   1.170   1.095   6.455 -3.6822 -0.2561  0.6169
 2549SOL    HW219107   1.253   1.179   6.532 -0.1558  1.7821  0.1680
 2550SOL     OW19108   3.928   2.139   5.372 -0.1034  0.3349  0.6613
 2550SOL    HW119109   3.958   2.129   5.462  0.8955  0.8718  0.3824
 2550SOL    HW219110   4.005   2.098   5.334 -0.8366  0.2822 -0.7796
 2551SOL     OW19111   2.926   1.203   6.087 -0.0804  0.1216 -0.4684
 2551SOL    HW119112   3.015   1.237   6.087 -0.0801  0.1367  0.6671
 2551SOL    HW219113   2.872   1.264   6.036  2.7272  1.8310 -1.3876
 2552SOL     OW19114   1.964   2.119   9.898  0.1560 -0.5559 -0.2431
 2552SOL    HW119115   2.052   2.144   9.924  0.1635  1.2079 -1.9093
 2552SOL    HW219116   1.951   2.030   9.931 -0.1887  0.2717  1.8411
 2553SOL     OW19117   2.558   0.241   3.791 -0.3017  0.4887  0.4717
 2553SOL    HW119118   2.507   0.281   3.721 -0.5807  0.5664  0.7178
 2553SOL    HW219119   2.537   0.297   3.866 -0.3419 -0.9779  1.5624
 2554SOL     OW19120   0.935   0.575   7.861  0.2237 -0.3468 -0.1900
 2554SOL    HW119121   1.017   0.543   7.898 -0.0990  0.3128  1.1098
 2554SOL    HW219122   0.932   0.669   7.879 -1.9230 -0.6570  1.1743
 2555SOL     OW19123   0.561   3.040   0.868 -0.0960  0.5060 -0.5242
 2555SOL    HW119124   0.642   3.083   0.840  1.0980 -0.9161  0.7192
 2555SOL    HW219125   0.523   3.038   0.781 -1.1371  1.2457 -0.0906
 2556SOL     OW19126   1.997   4.038   8.830  0.2734  0.3388 -0.5118
 2556SOL    HW119127   2.050   4.039   8.750  0.8677 -1.0628 -0.1307
 2556SOL    HW219128   1.935   4.109   8.812 -0.6517 -0.3903 -0.1837
 2557SOL     OW19129   1.398   4.169   6.008 -0.0874  0.0861 -0.1885
 2557SOL    HW119130   1.341   4.238   6.040 -0.6570 -0.6002  0.2571
 2557SOL    HW219131   1.417   4.116   6.085 -1.2502  0.4731  0.3648
 2558SOL     OW19132   3.901   3.061   1.964  0.3877 -0.4909 -0.2574
 2558SOL    HW119133   3.812   3.070   1.997 -0.2624 -0.0592 -2.1033
 2558SOL    HW219134   3.916   2.974   2.000 -0.5210 -0.9741 -1.0535
 2559SOL     OW19135   0.920   0.586  10.526  0.3750 -0.4911 -0.4558
 2559SOL    HW119136   0.944   0.676  10.501 -2.2111  0.6963  1.4055
 2559SOL    HW219137   0.962   0.568  10.610 -0.7001  2.4069  0.7287
 2560SOL     OW19138   4.399   2.510  12.522 -0.1023  0.0344 -0.3069
 2560SOL    HW119139   4.421   2.431  12.472  1.2638  0.1266  0.1357
 2560SOL    HW219140   4.304   2.503  12.531  0.0113 -1.6052 -0.3254
 2561SOL     OW19141   4.704   2.595   4.702 -0.2139  0.1353 -0.0743
 2561SOL    HW119142   4.695   2.635   4.789  0.0704  1.6938 -0.7800
 2561SOL    HW219143   4.616   2.586   4.667 -0.3439 -3.4399  1.1259
 2562SOL     OW19144   0.697   2.809  10.627 -0.5113 -0.0389  0.6238
 2562SOL    HW119145   0.690   2.904  10.637  1.9421  0.2956 -0.8233
 2562SOL    HW219146   0.607   2.787  10.604 -0.1357 -0.4228 -0.4734
 2563SOL     OW19147   3.233   2.398   4.315 -0.3260  0.3160  0.3585
 2563SOL    HW119148   3.170   2.414   4.244  0.5984  1.1725 -0.2684
 2563SOL    HW219149   3.190   2.417   4.398 -0.8465  0.6962  0.0028
 2564SOL     OW19150   4.584   2.701  14.759 -0.3031 -0.0426 -0.3956
 2564SOL    HW119151   4.525   2.714  14.833 -1.0178 -0.5325 -0.8895
 2564SOL    HW219152   4.564   2.777  14.704 -0.6465  1.0561  1.2436
 2565SOL     OW19153   4.174   0.450   2.275  0.0666  0.0758 -0.6483
 2565SOL    HW119154   4.089   0.482   2.305  0.1269  0.2681 -0.6825
 2565SOL    HW219155   4.164   0.361   2.308  0.3786  0.7941  1.3383
 2566SOL     OW19156   3.981   1.941   6.553 -0.3977  0.2255 -0.0364
 2566SOL    HW119157   4.035   1.862   6.548  2.0413  1.8125  0.7100
 2566SOL    HW219158   3.914   1.910   6.614 -0.1603 -3.2707 -1.5459
 2567SOL     OW19159   1.222   0.808  17.062  0.3484 -0.3483 -0.2599
 2567SOL    HW119160   1.155   0.839  17.122  0.3440  1.0769 -0.9947
 2567SOL    HW219161   1.237   0.724  17.105 -2.6479 -1.4882 -1.4749
 2568SOL     OW19162   0.239   0.559   4.544  0.2145  0.1255 -0.5825
 2568SOL    HW119163   0.287   0.624   4.595 -0.0385  0.8316 -1.2339
 2568SOL    HW219164   0.164   0.549   4.602  1.1151 -0.8639  0.4008
 2569SOL     OW19165   2.684   0.429   7.431  0.1256 -0.1952 -0.1802
 2569SOL    HW119166   2.721   0.388   7.353  0.3349  0.1420 -0.2558
 2569SOL    HW219167   2.594   0.400   7.419  0.1478 -0.1008 -0.5464
 2570SOL     OW19168   4.222   1.773   9.315 -0.0369 -0.0315 -0.3171
 2570SOL    HW119169   4.169   1.771   9.395  0.7900 -1.3634  0.1906
 2570SOL    HW219170   4.166   1.826   9.258  0.2618  0.5148 -0.0990
 2571SOL     OW19171   2.478   3.131  11.746 -0.9006  0.5818  0.1876
 2571SOL    HW119172   2.558   3.114  11.796  0.0515 -0.6618 -1.8122
 2571SOL    HW219173   2.509   3.198  11.684  0.2648  1.2883  1.5182
 2572SOL     OW19174   0.634   2.233  12.570  0.3921 -0.4922  0.0516
 2572SOL    HW119175   0.708   2.257  12.625 -0.2740  0.6389  0.4442
 2572SOL    HW219176   0.602   2.317  12.538 -0.5545 -0.2258  1.6969
 2573SOL     OW19177   2.177   1.740   0.574 -0.1367  0.0748  0.7121
 2573SOL    HW119178   2.212   1.800   0.640 -0.2089 -1.1428  1.8499
 2573SOL    HW219179   2.211   1.662   0.618  1.5845  0.5904  0.2714
 2574SOL     OW19180   3.548   4.366   8.161  0.0111  0.1091  0.5627
 2574SOL    HW119181   3.640   4.369   8.185 -0.1342  1.9305  0.8882
 2574SOL    HW219182   3.547   4.303   8.088  0.1797 -0.7867  1.3384
 2575SOL     OW19183   2.369   0.034   7.690  0.0238 -0.3769 -0.6460
 2575SOL    HW119184   2.386   4.721   7.604  0.8001 -2.5851  0.5150
 2575SOL    HW219185   2.428   0.106   7.668 -1.6986  0.8500 -1.3462
 2576SOL     OW19186   2.384   0.405  12.790 -0.0353  0.2146 -0.2316
 2576SOL    HW119187   2.363   0.419  12.698  3.3401  2.1193 -0.7065
 2576SOL    HW219188   2.466   0.452  12.806  0.1976 -0.0601 -0.6160
 2577SOL     OW19189   0.641   2.389   4.256  0.0143  0.0704 -0.1236
 2577SOL    HW119190   0.636   2.343   4.340 -1.9970 -1.6949 -1.1900
 2577SOL    HW219191   0.702   2.334   4.208 -0.2000 -1.0359  0.8607
 2578SOL     OW19192   0.219   2.247   6.254  0.1262  0.4034 -0.9225
 2578SOL    HW119193   0.146   2.277   6.308 -0.4079 -0.9058 -0.9047
 2578SOL    HW219194   0.247   2.174   6.309  0.0322  0.5421 -0.6884
 2579SOL     OW19195   2.916   4.195   6.550  0.7078  0.2314  0.6267
 2579SOL    HW119196   2.849   4.258   6.577  0.8285  0.2965  0.7792
 2579SOL    HW219197   2.896   4.115   6.599 -2.2838 -0.7498 -2.2200
 2580SOL     OW19198   4.449   1.117  10.940  0.4026  0.1908  0.4774
 2580SOL    HW119199   4.426   1.196  10.891 -0.9211 -0.2846  0.3368
 2580SOL    HW219200   4.362   1.077  10.943  1.4713 -1.9974  2.0828
 2581SOL     OW19201   1.993   2.040   2.945 -0.2435 -0.2205 -0.5518
 2581SOL    HW119202   1.941   2.119   2.928 -2.4130 -1.1482  1.7344
 2581SOL    HW219203   2.011   2.003   2.858  0.8283  1.2355 -0.9541
 2582SOL     OW19204   2.443   2.031  14.626  0.0487 -0.2699 -0.4418
 2582SOL    HW119205   2.427   2.119  14.593  0.4910 -0.0422 -0.0697
 2582SOL    HW219206   2.393   1.975  14.567 -2.5327  0.1740  1.3297
 2583SOL     OW19207   0.925   0.927   6.242 -0.5400  0.0434  0.3153
 2583SOL    HW119208   1.019   0.921   6.261 -0.8181 -1.1126  1.2903
 2583SOL    HW219209   0.913   0.835   6.219  1.0285  0.0570 -0.5742
 2584SOL     OW19210   2.117   1.861   3.536  0.3322 -0.1559  0.2653
 2584SOL    HW119211   2.123   1.768   3.555 -0.6016 -0.1818  0.3881
 2584SOL    HW219212   2.076   1.899   3.614  1.0247 -2.7157  1.8841
 2585SOL     OW19213   2.069   0.402   8.868  0.4101  0.6316 -0.2029
 2585SOL    HW119214   2.094   0.433   8.955  1.1465 -0.1131 -0.1429
 2585SOL    HW219215   2.154   0.380   8.830  1.2899 -1.4521  2.9078
 2586SOL     OW19216   0.306   0.741  14.789 -0.6535 -0.4366  0.3255
 2586SOL    HW119217   0.236   0.681  14.813 -3.1352  2.6075  0.7322
 2586SOL    HW219218   0.341   0.692  14.715  0.2731  0.0426  0.4531
 2587SOL     OW19219   2.198   4.132   2.504  0.6508 -0.3902  0.0960
 2587SOL    HW119220   2.148   4.054   2.481  0.4093  0.1658 -1.2676
 2587SOL    HW219221   2.130   4.198   2.486  1.8145  0.4548 -1.2524
 2588SOL     OW19222   0.697   1.721   4.388  0.4445 -0.3695 -0.4237
 2588SOL    HW119223   0.763   1.770   4.340  1.2630  0.1513  1.2632
 2588SOL    HW219224   0.755   1.678   4.451  0.0845  0.0601  0.1941
 2589SOL     OW19225   2.613   0.463   1.429  0.7339  0.0389  0.0945
 2589SOL    HW119226   2.562   0.436   1.352 -1.4427  0.7622  1.2738
 2589SOL    HW219227   2.691   0.408   1.426  0.8796  0.1867  1.1991
 2590SOL     OW19228   0.116   0.538   8.845 -0.5293  0.5623 -0.7640
 2590SOL    HW119229   0.042   0.486   8.878 -1.5359  3.6457  1.8203
 2590SOL    HW219230   0.136   0.502   8.758  2.8313  0.5882  0.0108
 2591SOL     OW19231   4.372   3.276   7.059  0.1987 -0.9287  0.3817
 2591SOL    HW119232   4.316   3.319   6.994  1.6388 -0.3583 -0.4779
 2591SOL    HW219233   4.385   3.189   7.020 -2.7800 -2.5324  2.9839
 2592SOL     OW19234   4.266   1.648  14.348 -0.6337 -0.0928  0.4414
 2592SOL    HW119235   4.219   1.566  14.364 -0.6471 -0.5016 -1.7563
 2592SOL    HW219236   4.207   1.719  14.374  1.1904  1.1590  1.2434
 2593SOL     OW19237   0.414   0.286   5.815 -0.0643 -0.0388 -0.2864
 2593SOL    HW119238   0.483   0.233   5.854  2.2191  0.8716 -3.0823
 2593SOL    HW219239   0.409   0.359   5.877 -1.7190 -0.3760 -0.0295
 2594SOL     OW19240   3.146   2.312   3.308  0.6492 -0.5252  0.0717
 2594SOL    HW119241   3.198   2.369   3.251  0.1162  0.4127  0.5074
 2594SOL    HW219242   3.150   2.226   3.268  0.7498 -0.6185  0.2815
 2595SOL     OW19243   1.598   3.121  17.654 -0.1646 -0.3333 -0.0877
 2595SOL    HW119244   1.652   3.053  17.695  1.1648 -0.2531 -1.6968
 2595SOL    HW219245   1.665   3.175  17.611  0.4175 -2.2913 -1.6164
 2596SOL     OW19246   3.536   2.101   7.101  0.0361  0.0214 -0.1750
 2596SOL    HW119247   3.547   2.049   7.180  0.5688  1.7990  0.9150
 2596SOL    HW219248   3.486   2.171   7.144 -1.0762 -1.0972  0.3502
 2597SOL     OW19249   1.529   1.703  16.408 -0.1060 -0.4443 -0.1236
 2597SOL    HW119250   1.469   1.673  16.476  2.3183 -0.7559  1.9063
 2597SOL    HW219251   1.607   1.652  16.429 -0.2966 -1.3969 -1.7980
 2598SOL     OW19252   1.859   0.211   5.852 -0.6801 -0.1828 -0.5429
 2598SOL    HW119253   1.954   0.203   5.845 -0.7072 -0.7554 -0.1850
 2598SOL    HW219254   1.848   0.267   5.775 -0.0956  2.1240  1.0308
 2599SOL     OW19255   4.507   2.906   7.783  0.6447  0.0606  0.4184
 2599SOL    HW119256   4.437   2.972   7.781 -0.6403 -1.3218  0.0596
 2599SOL    HW219257   4.469   2.833   7.734 -0.9494  1.4392 -0.4169
 2600SOL     OW19258   2.756   2.056   6.135  0.5291  0.2740 -0.1520
 2600SOL    HW119259   2.843   2.017   6.124  0.3544  0.0918 -0.8739
 2600SOL    HW219260   2.779   2.143   6.103  1.7468  0.5331  1.4029
 2601SOL     OW19261   0.916   3.773  13.566 -0.1744  0.0253  0.1454
 2601SOL    HW119262   0.937   3.865  13.548  0.0918  0.2535  1.5875
 2601SOL    HW219263   0.895   3.782  13.659  0.4991 -3.5629  0.6422
 2602SOL     OW19264   0.095   2.616   2.265 -0.1720 -0.2749  0.2853
 2602SOL    HW119265   0.038   2.617   2.342  0.9804 -0.7022  1.1472
 2602SOL    HW219266   0.163   2.556   2.295 -1.4588 -1.6490  0.4075
 2603SOL     OW19267   0.093   0.475   6.028  0.0340 -0.0267  0.6037
 2603SOL    HW119268   0.081   0.539   5.958  0.3537 -2.1998 -1.4390
 2603SOL    HW219269   0.038   0.402   5.999 -0.2637  0.4182  0.0515
 2604SOL     OW19270   0.784   2.534   3.059 -0.4251  0.4979 -0.4153
 2604SOL    HW119271   0.778   2.444   3.026 -1.6568  1.2170 -2.1676
 2604SOL    HW219272   0.846   2.576   2.999  1.1409 -1.1559  0.0377
 2605SOL     OW19273   2.882   3.933  13.066  0.5817  0.1264 -0.4019
 2605SOL    HW119274   2.875   3.852  13.017 -0.0464  1.0015 -1.7585
 2605SOL    HW219275   2.918   3.891  13.144 -1.0074  1.1377  0.8836
 2606SOL     OW19276   3.173   3.055  10.336 -0.5102  0.0407 -0.4283
 2606SOL    HW119277   3.163   2.965  10.366  1.1493 -0.2505 -0.7925
 2606SOL    HW219278   3.080   3.079  10.328 -0.8741 -1.2413  0.0371
 2607SOL     OW19279   4.086   2.168   6.427 -0.1560  0.1159  0.0159
 2607SOL    HW119280   4.172   2.189   6.465  0.0837 -0.3434 -0.2788
 2607SOL    HW219281   4.058   2.103   6.492  2.4864  0.5750  1.6432
 2608SOL     OW19282   0.473   3.648  14.207 -0.4438 -0.3086 -0.2822
 2608SOL    HW119283   0.460   3.623  14.299  0.5968  2.8640  0.7494
 2608SOL    HW219284   0.445   3.739  14.217  1.3806 -0.0160  2.2008
 2609SOL     OW19285   0.250   4.197   8.246  0.2610 -0.7430 -0.2916
 2609SOL    HW119286   0.334   4.230   8.278  0.0738  1.5004 -2.0946
 2609SOL    HW219287   0.268   4.113   8.204 -2.6417 -1.1399 -0.7291
 2610SOL     OW19288   3.687   3.391  11.055 -0.2078  0.1507  0.0294
 2610SOL    HW119289   3.663   3.376  11.147 -0.8508  1.5175  0.0828
 2610SOL    HW219290   3.624   3.461  11.040  1.7178  1.7881 -0.3422
 2611SOL     OW19291   4.302   4.118  12.453 -0.2363  0.1625  0.5611
 2611SOL    HW119292   4.326   4.124  12.545 -0.9125 -0.8533  0.8009
 2611SOL    HW219293   4.278   4.025  12.450  0.8185  0.0073 -3.4732
 2612SOL     OW19294   0.019   3.828   6.028  0.1571  0.0452  0.3013
 2612SOL    HW119295   0.089   3.774   6.065 -0.2155 -1.7857 -1.7016
 2612SOL    HW219296   0.053   3.852   5.941  1.0189 -0.9532  0.3621
 2613SOL     OW19297   3.788   4.047  14.691 -0.5137  0.0563 -0.0892
 2613SOL    HW119298   3.835   4.008  14.618 -1.0917 -1.2365  0.2385
 2613SOL    HW219299   3.839   4.015  14.765  0.8087  1.6878 -0.2910
 2614SOL     OW19300   3.454   1.683   1.120  0.1477  0.5176  0.2021
 2614SOL    HW119301   3.460   1.591   1.147 -0.8865  0.2875 -0.3662
 2614SOL    HW219302   3.362   1.703   1.138 -0.3116 -1.1102 -0.3203
 2615SOL     OW19303   1.869   3.833  13.090 -0.1448 -0.1388 -0.4130
 2615SOL    HW119304   1.906   3.789  13.167  0.8226 -0.0132 -0.8116
 2615SOL    HW219305   1.937   3.899  13.077 -0.3286 -0.3542 -2.4076
 2616SOL     OW19306   0.773   0.021  17.179  0.5092  0.5025  0.3905
 2616SOL    HW119307   0.786   0.088  17.112  1.5023 -1.9030 -1.7783
 2616SOL    HW219308   0.686   0.040  17.214 -0.3453  3.1950 -3.2872
 2617SOL     OW19309   1.686   3.486   4.389  0.2612 -0.5845  0.2810
 2617SOL    HW119310   1.647   3.407   4.352  0.2212  0.8988 -2.8463
 2617SOL    HW219311   1.778   3.464   4.373  0.6264 -0.3116  2.0774
 2618SOL     OW19312   0.934   2.858   6.545 -0.4254  0.0782  0.2643
 2618SOL    HW119313   0.947   2.795   6.474  0.9981 -1.8676  2.2404
 2618SOL    HW219314   1.010   2.913   6.526 -1.6805  1.8117  0.3155
 2619SOL     OW19315   0.312   0.962   4.778  0.1077 -0.0654 -0.3326
 2619SOL    HW119316   0.290   1.040   4.726 -0.6127 -0.7118 -0.9926
 2619SOL    HW219317   0.249   0.978   4.848  0.1877 -0.8417 -0.0884
 2620SOL     OW19318   4.275   3.855  10.435  0.9090  0.4998  0.6018
 2620SOL    HW119319   4.356   3.904  10.423  2.1965 -1.2728  2.1315
 2620SOL    HW219320   4.271   3.797  10.359  0.2579 -0.4118  1.3303
 2621SOL     OW19321   3.086   1.954   4.749  0.2698  0.3586 -0.4084
 2621SOL    HW119322   3.123   1.980   4.834 -4.0106  1.5747  1.1263
 2621SOL    HW219323   3.049   1.871   4.778 -0.6354  0.4045 -1.4503
 2622SOL     OW19324   1.699   0.546   8.036  0.6551 -0.0394 -0.1880
 2622SOL    HW119325   1.696   0.466   8.088  1.3461 -1.8242 -2.8612
 2622SOL    HW219326   1.792   0.566   8.021  1.2201 -3.3404 -1.0698
 2623SOL     OW19327   4.638   2.275   4.101 -0.2141  0.0844 -0.1162
 2623SOL    HW119328   4.649   2.181   4.089  0.8397  0.1358  0.4775
 2623SOL    HW219329   4.717   2.318   4.070 -0.6811  1.4818  0.6198
 2624SOL     OW19330   3.549   0.773   3.098 -0.0600 -0.4549  0.1163
 2624SOL    HW119331   3.527   0.742   3.010  1.6218 -1.3535  0.0113
 2624SOL    HW219332   3.469   0.819   3.123 -0.3997 -0.3406 -1.1983
 2625SOL     OW19333   1.026   3.669  15.167 -0.3129  0.7429 -0.3412
 2625SOL    HW119334   1.067   3.692  15.084  2.0194  1.1288  0.8951
 2625SOL    HW219335   0.943   3.638  15.132  0.1199  0.1184 -0.7954
 2626SOL     OW19336   3.505   3.815   5.045  0.1378 -0.3937  0.5032
 2626SOL    HW119337   3.550   3.814   5.129  0.2532  1.8968  0.4741
 2626SOL    HW219338   3.435   3.750   5.048  0.5497 -0.8203  0.7046
 2627SOL     OW19339   3.622   2.578   7.896 -0.1831 -0.2697  0.4253
 2627SOL    HW119340   3.670   2.525   7.959  2.3628  1.8260  0.2243
 2627SOL    HW219341   3.540   2.593   7.943  0.3536  0.8394  1.0122
 2628SOL     OW19342   0.695   3.332   6.927 -0.2716 -0.4687  0.5673
 2628SOL    HW119343   0.702   3.392   6.853  2.6330 -1.1195  0.3366
 2628SOL    HW219344   0.690   3.387   7.006  0.2014  1.0777 -0.4831
 2629SOL     OW19345   1.084   2.671   0.894 -0.0191  0.4681  0.1438
 2629SOL    HW119346   1.163   2.676   0.841  1.0041 -1.1083  1.5077
 2629SOL    HW219347   1.053   2.583   0.871  2.2619 -0.2041 -0.3583
 2630SOL     OW19348   4.700   3.862   7.499  0.1797  0.1331  0.5180
 2630SOL    HW119349   0.064   3.893   7.491  0.3997 -0.6604 -0.1120
 2630SOL    HW219350   4.687   3.879   7.592 -2.4439  0.2763  0.1156
 2631SOL     OW19351   3.042   3.649   5.597  0.2327  0.3779  0.1368
 2631SOL    HW119352   3.080   3.725   5.554  2.1042  0.0474  1.2046
 2631SOL    HW219353   3.116   3.591   5.615 -0.2627 -0.3661 -0.2009
 2632SOL     OW19354   1.822   2.555   2.590 -0.4115 -0.0221 -0.7662
 2632SOL    HW119355   1.795   2.579   2.501 -0.3292 -2.4203 -1.4536
 2632SOL    HW219356   1.881   2.628   2.610  0.9968 -1.3479 -0.0814
 2633SOL     OW19357   2.537   2.872   9.799 -0.4176 -0.5730 -0.1250
 2633SOL    HW119358   2.536   2.944   9.862 -1.5368 -1.0419  0.4048
 2633SOL    HW219359   2.448   2.836   9.808 -0.6766  0.6649  2.2055
 2634SOL     OW19360   0.934   2.361   0.077  0.4490 -0.5158 -0.3690
 2634SOL    HW119361   0.985   2.293   0.121 -0.1414 -1.0550 -0.5122
 2634SOL    HW219362   0.994   2.396   0.011  0.9327 -0.3234  0.1796
 2635SOL     OW19363   0.541   2.075   5.752 -0.2017  0.1452  0.5197
 2635SOL    HW119364   0.601   2.041   5.818 -1.6508  2.8201  3.2471
 2635SOL    HW219365   0.546   2.006   5.686  0.8451 -0.2739  1.0425
 2636SOL     OW19366   2.640   2.487  15.249 -0.0035 -0.2027 -0.7279
 2636SOL    HW119367   2.612   2.515  15.336 -3.5928 -0.7935 -1.7177
 2636SOL    HW219368   2.597   2.551  15.193 -0.5173  0.1348  0.0394
 2637SOL     OW19369   0.856   2.909   2.966  0.4053  0.0048 -0.3628
 2637SOL    HW119370   0.922   2.978   2.971  0.8024 -0.4694  1.0546
 2637SOL    HW219371   0.781   2.945   2.920  0.7313  2.6961  1.2355
 2638SOL     OW19372   2.628   1.396  12.668  0.0180  0.1680  0.4530
 2638SOL    HW119373   2.717   1.431  12.668  0.3409 -0.6641 -0.4473
 2638SOL    HW219374   2.590   1.448  12.597 -1.8277  0.4915  1.6840
 2639SOL     OW19375   1.400   4.680  13.985 -1.0424 -0.5527 -0.5844
 2639SOL    HW119376   1.433   4.607  14.038 -0.0947 -0.0700 -0.5115
 2639SOL    HW219377   1.317   4.699  14.029 -0.2427  0.8865  0.3233
 2640SOL     OW19378   1.294   4.431   5.363 -0.0017 -0.2662  0.1807
 2640SOL    HW119379   1.258   4.375   5.294 -0.4985  0.4382 -0.1350
 2640SOL    HW219380   1.365   4.483   5.326 -1.0418  1.7121  0.9464
 2641SOL     OW19381   1.910   4.239   4.287  0.3397  0.2117  0.5167
 2641SOL    HW119382   1.815   4.237   4.301  0.5351 -1.3967  1.6023
 2641SOL    HW219383   1.936   4.153   4.318 -1.6992 -0.4153  0.4817
 2642SOL     OW19384   3.628   3.845   5.281 -0.0821  0.0161  0.4447
 2642SOL    HW119385   3.655   3.779   5.345 -0.8899 -2.1533 -1.4581
 2642SOL    HW219386   3.573   3.898   5.338  0.6886 -1.5851  2.7049
 2643SOL     OW19387   1.541   3.582   2.176 -0.3658 -0.3549  0.3787
 2643SOL    HW119388   1.582   3.669   2.176 -1.5552  0.2116 -0.5546
 2643SOL    HW219389   1.503   3.584   2.088 -1.9516 -0.2230  1.0703
 2644SOL     OW19390   0.640   0.320  10.706 -0.3161 -0.4197  0.3372
 2644SOL    HW119391   0.600   0.398  10.745 -1.0610  0.8277 -2.9554
 2644SOL    HW219392   0.642   0.339  10.612  0.7346  2.0495  0.8550
 2645SOL     OW19393   2.587   4.105   7.193 -0.2155  0.4572 -0.3175
 2645SOL    HW119394   2.562   4.018   7.224 -0.9247  0.0310 -2.0874
 2645SOL    HW219395   2.546   4.156   7.263  0.1950 -2.4920  2.0561
 2646SOL     OW19396   1.680   2.465   2.218  0.3636  0.9597  0.1888
 2646SOL    HW119397   1.691   2.518   2.139  2.5143 -0.5929 -0.5537
 2646SOL    HW219398   1.769   2.444   2.246  0.7227  1.1534 -0.8227
 2647SOL     OW19399   2.580   3.922  17.249  0.7779  0.0550 -0.1052
 2647SOL    HW119400   2.501   3.975  17.259  1.0667  0.2201  1.2532
 2647SOL    HW219401   2.575   3.871  17.168  2.4863 -2.0411  1.0973
 2648SOL     OW19402   0.344   2.103   2.088  0.2434  0.3617 -0.3008
 2648SOL    HW119403   0.399   2.181   2.101 -2.0969  2.0511 -0.5165
 2648SOL    HW219404   0.391   2.051   2.023  1.0989 -0.9805  1.3919
 2649SOL     OW19405   0.903   1.735   8.806  0.3548 -0.1910 -0.0899
 2649SOL    HW119406   0.838   1.670   8.780  0.2686  0.2013 -0.8536
 2649SOL    HW219407   0.870   1.755   8.894 -0.0809 -0.9064 -0.0872
 2650SOL     OW19408   0.249   3.945   8.976 -0.5918  0.3550 -0.6083
 2650SOL    HW119409   0.160   3.919   8.996  0.0802 -1.3567  0.1383
 2650SOL    HW219410   0.249   4.038   8.950 -1.3579  0.7900  0.9997
 2651SOL     OW19411   2.003   2.339  11.987 -0.0364 -0.0820 -0.0403
 2651SOL    HW119412   1.936   2.389  12.034 -1.2982 -2.0923  0.3124
 2651SOL    HW219413   1.960   2.346  11.902 -0.0452 -1.0820 -0.1106
 2652SOL     OW19414   1.811   4.391   3.961  0.0396 -0.0196 -0.2423
 2652SOL    HW119415   1.859   4.395   4.043  0.4450 -0.9610 -0.4252
 2652SOL    HW219416   1.751   4.321   3.985  0.7834 -0.6234 -0.1332
 2653SOL     OW19417   1.508   0.959   2.459  0.0228  0.0178  0.3842
 2653SOL    HW119418   1.496   0.864   2.452  1.4307 -0.1719  0.5091
 2653SOL    HW219419   1.425   0.996   2.490  0.1329 -1.4320  2.3998
 2654SOL     OW19420   0.343   3.232   7.175 -0.4418 -0.2723  0.1853
 2654SOL    HW119421   0.255   3.268   7.190 -0.4828 -0.0195 -0.6752
 2654SOL    HW219422   0.401   3.307   7.164 -0.4795 -0.3174 -0.3216
 2655SOL     OW19423   2.611   2.023   4.545 -0.1532 -0.1289 -0.0512
 2655SOL    HW119424   2.654   2.094   4.498  0.0889  0.9745  1.8385
 2655SOL    HW219425   2.553   1.979   4.483  0.0912  0.3080 -0.5881
 2656SOL     OW19426   0.433   4.361   9.326  0.4557 -0.4521 -0.5671
 2656SOL    HW119427   0.456   4.383   9.416  1.2628 -0.8744 -0.6678
 2656SOL    HW219428   0.519   4.329   9.297  0.3101  0.0428 -1.5300
 2657SOL     OW19429   0.819   0.888  10.921  0.3173  0.4585 -0.2829
 2657SOL    HW119430   0.892   0.882  10.983 -1.4014  2.0123  1.8969
 2657SOL    HW219431   0.854   0.955  10.862  0.1764  0.1049 -0.7732
 2658SOL     OW19432   1.428   0.316   4.767 -0.0980 -0.4437  0.9299
 2658SOL    HW119433   1.483   0.266   4.707  0.0047  1.0936 -0.2696
 2658SOL    HW219434   1.485   0.317   4.844  0.5175 -0.3264  0.4729
 2659SOL     OW19435   2.303   0.209   7.125  0.0090 -0.0178 -0.5107
 2659SOL    HW119436   2.246   0.132   7.123 -1.2465  0.8801  0.6817
 2659SOL    HW219437   2.254   0.249   7.053  1.0940  1.1750 -0.5800
 2660SOL     OW19438   3.244   4.483   9.160  0.0830 -0.0542  0.6005
 2660SOL    HW119439   3.178   4.492   9.228 -1.1523 -0.6739 -0.5023
 2660SOL    HW219440   3.276   4.394   9.172 -1.1123 -0.7944 -1.7284
 2661SOL     OW19441   3.037   2.727   4.196  0.5381  0.6142 -0.0217
 2661SOL    HW119442   2.956   2.697   4.237  0.6901 -0.0627 -0.2188
 2661SOL    HW219443   3.018   2.735   4.102 -0.5306  2.8905  0.3783
 2662SOL     OW19444   1.369   1.701   0.039 -0.1721  0.5462  0.3450
 2662SOL    HW119445   1.342   1.714   0.130  0.5186  0.5240  0.5591
 2662SOL    HW219446   1.460   1.731   0.035  0.1689 -0.8809 -2.5096
 2663SOL     OW19447   0.633   3.751  17.244  0.4132  0.4436 -0.0557
 2663SOL    HW119448   0.678   3.682  17.291  0.3009  0.1714 -0.3493
 2663SOL    HW219449   0.667   3.835  17.276 -0.4809  0.7622  0.0372
 2664SOL     OW19450   3.862   3.611   3.541 -0.2786  0.3222 -0.4265
 2664SOL    HW119451   3.937   3.600   3.599 -1.2718 -0.8677  0.6390
 2664SOL    HW219452   3.831   3.521   3.532  0.0107  0.2949 -1.1628
 2665SOL     OW19453   3.895   3.797   3.067  0.1087  0.3561  0.0973
 2665SOL    HW119454   3.981   3.782   3.028 -0.0931 -0.7851  0.0890
 2665SOL    HW219455   3.923   3.807   3.158  0.0589 -1.7347  0.3477
 2666SOL     OW19456   2.263   4.153   3.515 -0.1885  0.2371  0.1628
 2666SOL    HW119457   2.266   4.249   3.516  0.1605  0.2206  0.7362
 2666SOL    HW219458   2.218   4.142   3.432  1.0502 -1.8081 -0.2347
 2667SOL     OW19459   2.955   0.900   6.935  0.2534  0.2014 -0.8501
 2667SOL    HW119460   2.940   0.913   7.029 -0.9942  0.9719 -1.1547
 2667SOL    HW219461   2.907   0.818   6.926  0.9544 -0.1726 -1.1426
 2668SOL     OW19462   0.052   1.474   1.921 -0.1505  0.1078 -0.7015
 2668SOL    HW119463   0.001   1.538   1.970  1.9913  1.7180 -0.5711
 2668SOL    HW219464   0.013   1.393   1.955 -0.0593  0.1908 -0.3985
 2669SOL     OW19465   0.231   4.604   7.910  0.1179  0.2489  0.4257
 2669SOL    HW119466   0.184   4.521   7.908  1.6527 -0.5926 -0.8671
 2669SOL    HW219467   0.157   4.650   7.948 -1.0712 -1.2686 -0.0442
 2670SOL     OW19468   4.238   2.260   2.839 -0.1446 -0.3407 -0.1111
 2670SOL    HW119469   4.303   2.321   2.804  1.1108 -1.3465  0.4702
 2670SOL    HW219470   4.281   2.249   2.924  2.2490  3.6548 -0.8109
 2671SOL     OW19471   2.328   1.656   1.961  0.1312  0.1828 -0.2046
 2671SOL    HW119472   2.363   1.584   2.012  0.6183  1.6422  1.4995
 2671SOL    HW219473   2.235   1.654   1.986  0.2349  2.1585  0.3588
 2672SOL     OW19474   1.343   0.813   4.154 -0.3104 -0.0837 -0.2953
 2672SOL    HW119475   1.365   0.823   4.061 -0.6691 -2.4718 -0.6536
 2672SOL    HW219476   1.256   0.849   4.134 -0.8953 -1.0115  0.5763
 2673SOL     OW19477   0.005   1.959   2.934 -0.2134 -0.4230  0.0294
 2673SOL    HW119478   4.701   1.951   3.024 -2.4461 -0.0784 -0.6782
 2673SOL    HW219479   0.041   1.871   2.934 -0.3787 -0.4879 -0.4770
 2674SOL     OW19480   1.791   3.121  16.959 -0.0885 -0.2075 -0.2338
 2674SOL    HW119481   1.823   3.190  17.017 -4.3488  0.0924  1.7563
 2674SOL    HW219482   1.704   3.106  16.996  0.3478  0.3492  1.0107
 2675SOL     OW19483   1.666   1.203   6.687  0.2984 -0.5631  0.4959
 2675SOL    HW119484   1.713   1.206   6.604 -1.3277 -1.4491 -0.4567
 2675SOL    HW219485   1.677   1.294   6.717 -2.2879 -0.6657  1.7260
 2676SOL     OW19486   3.293   4.516   5.232  0.4367 -0.5787 -0.3910
 2676SOL    HW119487   3.284   4.582   5.164 -1.5645 -1.0658 -0.6141
 2676SOL    HW219488   3.201   4.492   5.245  0.3731 -1.0463 -1.6874
 2677SOL     OW19489   2.198   1.793   4.319  0.1829  0.1147  0.4455
 2677SOL    HW119490   2.112   1.828   4.298  0.5914  0.4355 -0.7153
 2677SOL    HW219491   2.174   1.700   4.318  3.0489 -0.6434  1.3433
 2678SOL     OW19492   2.542   2.462  11.679  0.2491 -0.0621 -1.2346
 2678SOL    HW119493   2.594   2.501  11.608 -0.8824  1.1072 -1.4248
 2678SOL    HW219494   2.591   2.480  11.758 -3.4271  0.4952  0.9289
 2679SOL     OW19495   1.311   0.119   0.996  0.0231 -0.2071 -0.7392
 2679SOL    HW119496   1.334   0.173   0.921  0.0493 -2.2680 -2.2202
 2679SOL    HW219497   1.319   0.027   0.969  3.4596 -0.1135 -0.0208
 2680SOL     OW19498   0.498   0.076   7.528 -0.0339 -0.4710  0.0612
 2680SOL    HW119499   0.542   0.047   7.608 -0.6915  0.6719  0.8365
 2680SOL    HW219500   0.408   0.050   7.546  0.4843 -0.8529  2.1110
 2681SOL     OW19501   1.003   0.707   5.351  0.3647  0.4459 -0.9890
 2681SOL    HW119502   0.920   0.732   5.310 -0.3593 -0.5280 -0.1063
 2681SOL    HW219503   0.987   0.612   5.350 -0.4202  0.5519  1.4460
 2682SOL     OW19504   3.941   2.244   1.264  0.4821 -0.4208 -0.2151
 2682SOL    HW119505   3.862   2.297   1.250  0.4617 -0.7610 -1.3919
 2682SOL    HW219506   3.912   2.182   1.331 -1.2683 -1.0830 -1.5934
 2683SOL     OW19507   1.442   1.073   2.000 -0.1919  0.1960  0.6937
 2683SOL    HW119508   1.370   1.073   1.937 -1.0741 -1.8109  1.7080
 2683SOL    HW219509   1.475   1.160   1.977 -0.4390  0.4341  1.2221
 2684SOL     OW19510   1.579   4.195   0.892 -0.3617 -0.0168 -0.3878
 2684SOL    HW119511   1.533   4.115   0.865 -1.3893  0.3638  0.2064
 2684SOL    HW219512   1.666   4.171   0.862  0.0023  0.1023  0.5972
 2685SOL     OW19513   0.916   1.740   0.658  0.1309 -0.3842 -0.5034
 2685SOL    HW119514   0.888   1.826   0.626  0.5096 -0.3069 -0.6387
 2685SOL    HW219515   1.011   1.738   0.647  0.3427  3.7112  0.4432
 2686SOL     OW19516   4.681   4.351  10.606  0.3619  0.0266 -0.2624
 2686SOL    HW119517   4.591   4.381  10.598  0.1696 -0.6598 -0.6021
 2686SOL    HW219518   4.714   4.430  10.651 -2.4278 -0.6170  2.8791
 2687SOL     OW19519   2.520   0.841   9.344  0.2203  0.4353  0.0119
 2687SOL    HW119520   2.446   0.892   9.375  0.6271 -0.4051  2.3367
 2687SOL    HW219521   2.463   0.769   9.318  1.1082  0.2477 -1.4537
 2688SOL     OW19522   3.757   3.724   4.138  0.0891 -0.3874  0.4841
 2688SOL    HW119523   3.669   3.717   4.173  0.8710 -0.4820  2.4478
 2688SOL    HW219524   3.800   3.641   4.158 -0.2221 -0.7865 -0.4807
 2689SOL     OW19525   1.994   1.978   5.296 -0.2670 -0.0142  0.5556
 2689SOL    HW119526   2.060   1.914   5.271  0.6284  1.3340 -0.5204
 2689SOL    HW219527   1.919   1.922   5.276 -0.9081 -0.4052  3.9495
 2690SOL     OW19528   4.522   3.941  15.592 -0.2711  0.3854  0.5014
 2690SOL    HW119529   4.518   3.864  15.535 -0.0047 -0.1728  1.2368
 2690SOL    HW219530   4.615   3.943  15.614  0.0636  1.1827 -0.9873
 2691SOL     OW19531   1.784   0.887  11.967  0.0079  0.2464 -0.1183
 2691SOL    HW119532   1.860   0.845  12.007 -0.3951 -1.7407 -1.4350
 2691SOL    HW219533   1.744   0.924  12.045 -0.4518 -1.5240  0.4621
 2692SOL     OW19534   4.227   0.845   4.836  0.0426  0.4779  0.2044
 2692SOL    HW119535   4.220   0.791   4.758 -2.9743 -0.8805  1.3982
 2692SOL    HW219536   4.144   0.833   4.883  0.5185  1.3179  1.2688
 2693SOL     OW19537   2.805   1.148  14.940 -0.2753 -0.1390  1.0611
 2693SOL    HW119538   2.871   1.184  14.882 -2.7996  0.3175 -1.4952
 2693SOL    HW219539   2.789   1.221  15.000 -0.8554  1.5878 -1.2471
 2694SOL     OW19540   3.731   4.473  11.605 -0.3294 -0.1682 -0.3750
 2694SOL    HW119541   3.754   4.424  11.684  1.9195 -0.3099 -1.1117
 2694SOL    HW219542   3.815   4.469  11.559  0.5508 -2.6487  1.3970
 2695SOL     OW19543   1.650   2.595  16.960  0.1566 -0.4142  0.3748
 2695SOL    HW119544   1.684   2.526  17.017 -0.8309  0.2720  1.7771
 2695SOL    HW219545   1.656   2.676  17.010 -1.9881  0.7001 -1.1769
 2696SOL     OW19546   1.306   2.610   0.720  0.6365 -0.0789  0.3675
 2696SOL    HW119547   1.283   2.517   0.711  1.8008 -0.3465  0.1969
 2696SOL    HW219548   1.400   2.607   0.706  0.7102 -0.1750  0.8952
 2697SOL     OW19549   0.733   0.005  11.000 -0.1051 -0.0789  0.8682
 2697SOL    HW119550   0.806   4.725  10.938 -1.2717  0.1827 -0.5423
 2697SOL    HW219551   0.665   0.033  10.938 -0.4850  1.1609  1.8559
 2698SOL     OW19552   3.864   1.959  16.420  0.4216  0.0275  0.3530
 2698SOL    HW119553   3.779   1.938  16.381  0.7773 -0.2755 -0.2515
 2698SOL    HW219554   3.867   1.882  16.477  0.8539  1.1759  1.8868
 2699SOL     OW19555   4.614   4.082   7.963  0.6468  0.6935  0.0038
 2699SOL    HW119556   4.689   4.053   7.911  0.8459  0.6034  0.3421
 2699SOL    HW219557   4.568   3.999   7.976 -1.5543  1.5197 -2.3143
 2700SOL     OW19558   3.489   2.659   2.600  0.4497  0.4021 -0.3631
 2700SOL    HW119559   3.417   2.658   2.537  0.0922  1.2611  0.0306
 2700SOL    HW219560   3.476   2.575   2.644  0.2614  1.0614  0.8410
 2701SOL     OW19561   3.024   4.072   5.156  0.0659  0.1004 -0.2611
 2701SOL    HW119562   2.941   4.035   5.188 -0.7220  0.0960 -2.2896
 2701SOL    HW219563   3.081   3.996   5.167  0.9190  0.6653 -0.8358
 2702SOL     OW19564   4.690   2.913   2.919  0.0667  0.2499 -0.0234
 2702SOL    HW119565   0.032   2.880   2.861 -0.6500 -1.6689  0.2330
 2702SOL    HW219566   4.698   2.849   2.989  0.4729  1.0427  0.6636
 2703SOL     OW19567   3.198   2.133   1.203  0.1657  0.5952  0.6068
 2703SOL    HW119568   3.151   2.083   1.137  0.4237 -0.9242  1.5781
 2703SOL    HW219569   3.258   2.191   1.155 -0.9828  0.2079 -1.2927
 2704SOL     OW19570   3.529   4.022   3.830  0.1594 -0.1632 -0.1597
 2704SOL    HW119571   3.476   3.992   3.755 -1.5159  0.5375  0.7509
 2704SOL    HW219572   3.562   3.932   3.834  2.7248  0.8157  0.6310
 2705SOL     OW19573   1.609   4.263  10.587  0.3437  0.0310 -0.5143
 2705SOL    HW119574   1.528   4.212  10.596 -0.7461  1.8537 -0.0788
 2705SOL    HW219575   1.656   4.221  10.515  1.2666  1.3971 -0.7090
 2706SOL     OW19576   1.018   1.589   5.472 -0.3403 -0.2521 -0.2926
 2706SOL    HW119577   1.027   1.514   5.530 -1.4558  1.6257  2.3333
 2706SOL    HW219578   1.055   1.555   5.391  0.7979 -0.4144  0.3004
 2707SOL     OW19579   1.678   1.994   8.232  0.3814  0.0184  0.6137
 2707SOL    HW119580   1.665   1.954   8.146  0.9707  2.4319 -0.5894
 2707SOL    HW219581   1.636   1.929   8.288  0.1800  0.6095  1.1507
 2708SOL     OW19582   3.988   3.976   4.945  0.1506 -0.0637  0.4303
 2708SOL    HW119583   4.031   4.058   4.971  1.7590 -1.5253  2.3740
 2708SOL    HW219584   4.005   3.907   5.008  1.7062  0.1751  0.2836
 2709SOL     OW19585   1.947   0.150   0.321  0.2595 -0.3223 -0.0078
 2709SOL    HW119586   1.867   0.098   0.325 -1.3932  2.0033 -2.2630
 2709SOL    HW219587   1.947   0.175   0.228 -0.8968  0.6310  0.2472
 2710SOL     OW19588   1.222   1.586   7.812 -0.1852  0.2851  0.4226
 2710SOL    HW119589   1.257   1.615   7.896 -0.0539  3.6271 -0.8006
 2710SOL    HW219590   1.153   1.527   7.843 -1.3746 -0.1653 -3.0503
 2711SOL     OW19591   2.115   3.459   3.374  0.0928  0.1462  0.5199
 2711SOL    HW119592   2.050   3.392   3.353  0.4258  0.3254 -1.0676
 2711SOL    HW219593   2.200   3.417   3.378  0.3999  0.8104  1.0644
 2712SOL     OW19594   4.326   3.976   3.600  0.0251  0.3217  0.2654
 2712SOL    HW119595   4.401   4.003   3.654  0.2338  1.7121 -0.7227
 2712SOL    HW219596   4.258   4.038   3.627 -0.5035 -0.0842 -0.1295
 2713SOL     OW19597   3.956   0.058   7.092 -0.1078 -0.1402  0.1724
 2713SOL    HW119598   3.869   0.062   7.051  0.0282 -2.7251 -0.3394
 2713SOL    HW219599   4.018   0.027   7.027 -0.5351 -0.6583  0.0113
 2714SOL     OW19600   4.183   2.192   4.557 -0.2218 -0.3544 -0.4143
 2714SOL    HW119601   4.208   2.214   4.467  2.7787 -2.5877 -0.1005
 2714SOL    HW219602   4.241   2.249   4.608 -1.8053  0.0443  0.9609
 2715SOL     OW19603   1.463   4.563   2.651 -0.3577  0.1728  0.6194
 2715SOL    HW119604   1.550   4.573   2.690  1.4365 -2.1122 -2.7874
 2715SOL    HW219605   1.468   4.635   2.589  1.2305  1.1916  1.9461
 2716SOL     OW19606   2.107   3.707   2.991  0.1554  0.4061 -0.5764
 2716SOL    HW119607   2.142   3.783   2.944  1.2143  0.7916  0.8325
 2716SOL    HW219608   2.049   3.673   2.923  0.4516 -2.0258  0.3837
 2717SOL     OW19609   1.838   3.569   4.931  0.3774  0.1292  0.5313
 2717SOL    HW119610   1.751   3.554   4.896  0.3752  0.4217  0.4181
 2717SOL    HW219611   1.886   3.582   4.850 -1.9145  1.1040 -0.6566
 2718SOL     OW19612   1.179   0.354   9.652 -0.2552  0.1710  0.0945
 2718SOL    HW119613   1.272   0.370   9.634  0.2296 -2.1068  0.4858
 2718SOL    HW219614   1.144   0.338   9.564 -2.1478 -1.3733  1.1326
 2719SOL     OW19615   0.531   2.316   5.360 -0.2766  0.7057  0.3417
 2719SOL    HW119616   0.507   2.224   5.375  1.1227  0.2547 -0.1889
 2719SOL    HW219617   0.599   2.318   5.427  0.7567  0.4242 -0.6983
 2720SOL     OW19618   3.262   0.195  10.828 -0.3439  0.5607  0.6278
 2720SOL    HW119619   3.311   0.271  10.861  0.9399  0.0915 -0.2016
 2720SOL    HW219620   3.329   0.130  10.808 -0.1305  1.7480 -2.5156
 2721SOL     OW19621   1.088   3.607  11.352 -0.0102 -0.5705 -0.2372
 2721SOL    HW119622   1.155   3.676  11.359  0.9536 -1.4354 -0.9385
 2721SOL    HW219623   1.121   3.558  11.277  1.1953  0.8972 -0.6774
 2722SOL     OW19624   2.475   3.716   4.655 -0.2367  0.2433 -0.4683
 2722SOL    HW119625   2.414   3.771   4.605  0.3986  2.4752  1.1749
 2722SOL    HW219626   2.550   3.773   4.636 -0.3019 -0.2249 -2.1438
 2723SOL     OW19627   4.146   0.933   4.271 -0.6398  0.1283 -0.3145
 2723SOL    HW119628   4.063   0.894   4.299 -0.9134  1.3154  0.5555
 2723SOL    HW219629   4.144   1.022   4.306  1.5037  0.5643 -1.3228
 2724SOL     OW19630   4.115   2.529   9.259  0.1862  0.5277 -0.3623
 2724SOL    HW119631   4.037   2.488   9.222 -0.5965  1.4089  0.2946
 2724SOL    HW219632   4.184   2.471   9.227  1.0190  0.4147  1.6135
 2725SOL     OW19633   1.522   4.463   7.117 -0.5566 -0.1490  0.0507
 2725SOL    HW119634   1.435   4.504   7.115  0.7177  2.5186 -1.1016
 2725SOL    HW219635   1.490   4.373   7.125 -1.4373  0.3676  2.3385
 2726SOL     OW19636   2.068   0.293  15.115  0.3546 -0.0592 -0.2047
 2726SOL    HW119637   2.089   0.372  15.164  0.8823  0.0898 -0.6734
 2726SOL    HW219638   2.116   0.312  15.035 -0.6833  0.5592 -0.6816
 2727SOL     OW19639   0.447   4.549   7.061 -0.0519  0.2331  0.6626
 2727SOL    HW119640   0.540   4.543   7.040 -0.0881 -0.5555  0.7046
 2727SOL    HW219641   0.452   4.601   7.141 -0.1252  1.8785 -0.4237
 2728SOL     OW19642   3.565   2.956   3.327  0.1628 -0.0651  0.0859
 2728SOL    HW119643   3.603   2.977   3.412 -1.2219 -0.9972  0.9346
 2728SOL    HW219644   3.489   2.906   3.359  0.2119 -0.4758 -0.4390
 2729SOL     OW19645   4.526   3.232   5.123 -0.0099 -0.4547  0.1203
 2729SOL    HW119646   4.495   3.300   5.182 -0.5490 -1.0814  0.5667
 2729SOL    HW219647   4.459   3.240   5.055  0.1909  2.0949  0.2170
 2730SOL     OW19648   2.375   1.094   3.419 -0.2830  0.1555 -0.5646
 2730SOL    HW119649   2.440   1.105   3.489 -0.3243 -4.7859  0.2155
 2730SOL    HW219650   2.316   1.029   3.458  0.7848 -0.3897  0.1379
 2731SOL     OW19651   1.638   3.566   7.600  0.1885 -0.6181 -0.1054
 2731SOL    HW119652   1.621   3.587   7.692 -0.7565  1.3094 -0.7182
 2731SOL    HW219653   1.582   3.489   7.586  0.5189 -0.8495 -0.1619
 2732SOL     OW19654   4.148   4.653   9.724 -0.4160 -0.0121 -0.1781
 2732SOL    HW119655   4.173   4.585   9.787  3.8687 -0.7494 -2.6968
 2732SOL    HW219656   4.127   0.008   9.769  0.4732  0.7391 -1.1244
 2733SOL     OW19657   3.793   1.733   4.474  0.4900  0.3898  0.3758
 2733SOL    HW119658   3.794   1.829   4.467 -3.8409  0.5627  1.6658
 2733SOL    HW219659   3.746   1.715   4.392  2.5527 -1.3683 -0.4169
 2734SOL     OW19660   2.845   2.270   6.883  0.2696 -0.3493  0.1224
 2734SOL    HW119661   2.893   2.345   6.919 -3.4176  1.3684  1.4297
 2734SOL    HW219662   2.875   2.267   6.792  0.2133 -3.0757  0.1774
 2735SOL     OW19663   0.384   4.471   2.573  0.2578 -0.6496 -0.0522
 2735SOL    HW119664   0.339   4.527   2.509  0.5582 -1.5863 -1.0747
 2735SOL    HW219665   0.446   4.431   2.513  2.7258  0.7349  1.5658
 2736SOL     OW19666   2.113   0.036   7.842  0.2924  0.3737 -0.6799
 2736SOL    HW119667   2.150   0.096   7.906 -1.0179 -0.9759  1.3515
 2736SOL    HW219668   2.179   0.031   7.773  3.2580 -1.5893  2.2852
 2737SOL     OW19669   4.642   1.953   4.467  0.9378 -0.4761 -0.4747
 2737SOL    HW119670   4.684   1.867   4.468 -0.0515 -0.9438  0.3092
 2737SOL    HW219671   4.589   1.954   4.546  1.8641  1.0098  0.1401
 2738SOL     OW19672   2.451   4.682  11.894  0.0041  0.1876  0.3826
 2738SOL    HW119673   2.474   0.012  11.820 -2.9742  2.7763  1.4014
 2738SOL    HW219674   2.358   4.669  11.877 -0.4767  3.0986  0.6840
 2739SOL     OW19675   1.854   0.121  15.140  0.5688 -0.1967  0.5334
 2739SOL    HW119676   1.918   0.191  15.127 -0.8135  0.4347 -3.0849
 2739SOL    HW219677   1.914   0.048  15.145 -0.1404 -0.7274  1.3634
 2740SOL     OW19678   2.583   3.218   9.069  0.7155 -0.2695 -0.7290
 2740SOL    HW119679   2.621   3.133   9.048  0.9846 -0.5357  0.8171
 2740SOL    HW219680   2.519   3.189   9.134 -0.0636 -0.2514 -1.4897
 2741SOL     OW19681   4.170   2.675   4.979 -0.4896  0.0857  0.5386
 2741SOL    HW119682   4.258   2.705   4.999 -1.3459  2.7360  0.2860
 2741SOL    HW219683   4.148   2.624   5.057  2.3506 -0.3737  1.0204
 2742SOL     OW19684   3.575   3.109   2.885  0.1755  0.0858 -0.6892
 2742SOL    HW119685   3.520   3.045   2.841  0.4928 -2.0776  2.0394
 2742SOL    HW219686   3.643   3.053   2.923 -2.2071 -1.8365  0.7430
 2743SOL     OW19687   4.346   2.312   5.928  0.1231 -0.6291  0.9302
 2743SOL    HW119688   4.439   2.321   5.949  0.9469 -0.6666 -2.7230
 2743SOL    HW219689   4.324   2.267   6.009 -0.8542 -0.7102  0.6245
 2744SOL     OW19690   3.281   0.538   2.408  0.2748 -0.2820  0.0652
 2744SOL    HW119691   3.206   0.544   2.467  1.0425  1.6633  0.8409
 2744SOL    HW219692   3.314   0.450   2.427  2.2866  0.4517 -0.0025
 2745SOL     OW19693   2.118   0.289  16.826 -0.4479  0.3616  0.4386
 2745SOL    HW119694   2.085   0.378  16.838 -0.3394  0.2789  1.3548
 2745SOL    HW219695   2.142   0.264  16.915 -1.1041 -0.3012  0.4222
 2746SOL     OW19696   3.996   3.481  15.023 -0.1159 -0.0935  0.3628
 2746SOL    HW119697   4.079   3.527  15.036 -0.5208  0.6194  0.3673
 2746SOL    HW219698   4.015   3.400  14.974  0.1129  0.7911 -1.0021
 2747SOL     OW19699   1.078   2.871   5.548 -0.0946 -0.1790  0.4181
 2747SOL    HW119700   1.001   2.842   5.499  0.0401  4.0484 -2.2389
 2747SOL    HW219701   1.087   2.962   5.520 -1.2816  0.1056  0.9446
 2748SOL     OW19702   2.450   4.420   3.007 -0.4027 -0.0801 -0.4958
 2748SOL    HW119703   2.422   4.440   2.918 -1.5072 -1.7662 -0.5425
 2748SOL    HW219704   2.533   4.466   3.018  0.3659 -1.5040 -0.3815
 2749SOL     OW19705   0.992   0.678  13.841 -1.0018  0.1086 -0.6558
 2749SOL    HW119706   0.924   0.736  13.808  0.3410  1.9544 -0.1906
 2749SOL    HW219707   0.942   0.635  13.910  0.7096 -3.0426 -1.3846
 2750SOL     OW19708   0.651   3.366   4.565  0.0087 -0.1745  0.4297
 2750SOL    HW119709   0.618   3.453   4.588 -1.2350 -0.7369  0.7699
 2750SOL    HW219710   0.742   3.390   4.545 -0.1892 -0.8165 -1.1899
 2751SOL     OW19711   2.195   2.207   5.182  0.7566 -0.7263  0.9135
 2751SOL    HW119712   2.110   2.172   5.210  0.3279  0.9714  1.7693
 2751SOL    HW219713   2.235   2.225   5.267  0.9995 -2.0050  1.0631
 2752SOL     OW19714   3.341   2.274   7.168 -0.2167 -0.2087  0.3120
 2752SOL    HW119715   3.277   2.315   7.110  0.3805  2.5572  1.6115
 2752SOL    HW219716   3.293   2.260   7.249 -0.3572  0.6670  0.3884
 2753SOL     OW19717   3.183   2.022   3.496 -0.0665  0.0413 -0.3862
 2753SOL    HW119718   3.170   2.035   3.402  1.9562 -1.3437 -0.8731
 2753SOL    HW219719   3.114   2.075   3.535  0.7053  2.1030 -1.8626
 2754SOL     OW19720   0.690   1.448   2.438  0.7350  0.2024  0.4533
 2754SOL    HW119721   0.749   1.388   2.484 -0.1104 -1.3864 -0.5076
 2754SOL    HW219722   0.758   1.500   2.395  0.5157  1.3480  1.5122
 2755SOL     OW19723   2.480   0.878  15.738 -0.2308  0.5965  0.1054
 2755SOL    HW119724   2.498   0.921  15.654 -1.6703  0.7776 -0.1079
 2755SOL    HW219725   2.384   0.883  15.735 -0.2324  1.3959  1.6694
 2756SOL     OW19726   2.259   4.209   2.127 -0.6838  0.1938  0.2521
 2756SOL    HW119727   2.339   4.260   2.142  1.1586 -2.0797 -1.9113
 2756SOL    HW219728   2.286   4.118   2.138  0.7559  0.3709 -1.7875
 2757SOL     OW19729   4.169   1.346  16.880 -0.0298  0.2258 -0.2255
 2757SOL    HW119730   4.114   1.393  16.942  1.6506  1.1908  0.5327
 2757SOL    HW219731   4.111   1.273  16.861 -1.4577  1.5475 -1.0205
 2758SOL     OW19732   2.323   2.474  16.448  0.5706 -0.3528 -0.7438
 2758SOL    HW119733   2.336   2.464  16.354  2.5361  2.4242 -0.7797
 2758SOL    HW219734   2.232   2.445  16.451  0.4990 -0.1842 -1.3046
 2759SOL     OW19735   4.321   2.920  10.426  0.2477  0.0175 -0.1115
 2759SOL    HW119736   4.324   2.897  10.519 -1.5351 -0.6662 -0.2233
 2759SOL    HW219737   4.402   2.969  10.413  0.3943 -0.1373  0.2226
 2760SOL     OW19738   1.192   3.245   2.415  0.2144 -0.2494  0.0995
 2760SOL    HW119739   1.248   3.269   2.341 -1.1191 -1.2145 -1.2055
 2760SOL    HW219740   1.203   3.310   2.485 -0.3582  2.2482 -2.1628
 2761SOL     OW19741   0.100   0.414  15.586  0.1967 -0.3552 -0.2786
 2761SOL    HW119742   0.082   0.504  15.613 -1.5656 -1.0538  0.8900
 2761SOL    HW219743   0.137   0.423  15.499 -0.2758  0.4309 -0.3934
 2762SOL     OW19744   1.202   2.092   9.712  0.0655 -0.4298 -0.4545
 2762SOL    HW119745   1.277   2.148   9.731 -1.9501  1.7915  1.1069
 2762SOL    HW219746   1.152   2.140   9.646 -0.9646 -2.4238 -1.1204
 2763SOL     OW19747   4.705   4.295   0.502  0.1342 -0.0327  0.1055
 2763SOL    HW119748   4.656   4.213   0.490  0.5739 -0.3658  0.6204
 2763SOL    HW219749   0.019   4.305   0.416 -1.0878 -3.4300 -0.8874
 2764SOL     OW19750   1.252   4.152  16.383  0.1123  0.0519 -0.4040
 2764SOL    HW119751   1.333   4.202  16.396 -0.2185  0.3727  0.3794
 2764SOL    HW219752   1.213   4.206  16.314  0.1732  2.1659  1.2097
 2765SOL     OW19753   1.961   4.239  16.790  0.9259 -0.2898 -0.9399
 2765SOL    HW119754   1.960   4.335  16.790  0.1159 -0.2959 -0.2461
 2765SOL    HW219755   1.931   4.231  16.700 -2.2944  2.6900 -0.1209
 2766SOL     OW19756   2.655   1.298  14.406  0.4308  0.7769 -0.1721
 2766SOL    HW119757   2.662   1.314  14.500  0.6082  1.9110 -0.3828
 2766SOL    HW219758   2.717   1.365  14.378 -1.4860  2.1935 -0.9536
 2767SOL     OW19759   1.668   3.842   6.103  0.5173  0.4434  0.7510
 2767SOL    HW119760   1.656   3.923   6.151  0.5289  0.8185  0.1140
 2767SOL    HW219761   1.760   3.828   6.128 -0.1163  0.0366  2.7638
 2768SOL     OW19762   0.799   1.333  16.957  0.3128 -0.6582  0.2031
 2768SOL    HW119763   0.788   1.425  16.982  1.3770 -0.1502 -1.2010
 2768SOL    HW219764   0.820   1.339  16.864  0.8879  2.5681  0.5373
 2769SOL     OW19765   1.167   3.004   1.229 -0.4852 -0.1363  0.0004
 2769SOL    HW119766   1.255   2.969   1.220 -0.9973 -1.5949  0.6558
 2769SOL    HW219767   1.122   2.947   1.166  0.6986 -0.2663 -0.7275
 2770SOL     OW19768   1.316   2.983   2.717 -0.5437  0.4247  0.3340
 2770SOL    HW119769   1.393   3.031   2.686 -0.3556 -0.0602  0.0592
 2770SOL    HW219770   1.264   3.063   2.734  1.2977  1.5702  0.5363
 2771SOL     OW19771   2.725   0.813  14.687  0.0603 -0.2522 -0.1480
 2771SOL    HW119772   2.653   0.753  14.702 -0.2531  0.1972  0.1410
 2771SOL    HW219773   2.736   0.808  14.592 -1.6639 -1.2406 -0.2797
 2772SOL     OW19774   2.899   3.088   9.186 -0.0184 -0.0185 -0.1579
 2772SOL    HW119775   2.820   3.136   9.212  0.9047  0.4935  1.7678
 2772SOL    HW219776   2.903   3.019   9.252 -1.4083 -0.5257 -0.6161
 2773SOL     OW19777   0.802   1.656   0.894 -0.4196 -0.2323 -0.1772
 2773SOL    HW119778   0.843   1.573   0.916  0.4164  0.0571 -0.6518
 2773SOL    HW219779   0.859   1.693   0.826  2.5058 -3.6060  0.4806
 2774SOL     OW19780   4.126   2.957   8.026 -0.1437  0.3461  0.1589
 2774SOL    HW119781   4.098   2.938   7.937 -3.2852  1.2911  0.9386
 2774SOL    HW219782   4.206   2.905   8.028  0.7772  1.7397 -1.4657
 2775SOL     OW19783   4.091   2.430   3.481 -0.3304  0.4869  0.0577
 2775SOL    HW119784   4.118   2.408   3.392  0.7062  1.0988  0.2298
 2775SOL    HW219785   4.054   2.517   3.466  0.3325  0.5011 -1.5006
 2776SOL     OW19786   0.800   3.943   0.222  0.3284 -0.4127 -0.1078
 2776SOL    HW119787   0.852   3.864   0.209  0.3164 -0.9299  3.0443
 2776SOL    HW219788   0.864   4.010   0.244 -3.9790  2.8895  2.5220
 2777SOL     OW19789   1.944   2.187   9.315 -0.4469  0.2003 -0.2670
 2777SOL    HW119790   1.963   2.279   9.300  1.0509 -0.1105 -0.2099
 2777SOL    HW219791   1.974   2.168   9.404 -0.6338  3.0056  0.4090
 2778SOL     OW19792   3.576   3.969  13.707  0.0392  0.0813  0.1717
 2778SOL    HW119793   3.506   3.932  13.653 -1.9423 -0.8961  3.4365
 2778SOL    HW219794   3.650   3.952  13.649 -1.3812 -0.8515 -1.3946
 2779SOL     OW19795   1.396   2.872   2.983 -0.8208  0.3427 -0.5347
 2779SOL    HW119796   1.319   2.816   2.994  0.2768 -1.2583 -0.9774
 2779SOL    HW219797   1.373   2.920   2.903 -0.6339 -0.5035 -1.0978
 2780SOL     OW19798   0.222   3.471   8.981  0.5325  0.4171  0.0642
 2780SOL    HW119799   0.306   3.505   9.012  0.3080  0.9880  0.0419
 2780SOL    HW219800   0.190   3.422   9.057 -3.5718  3.8576  0.4929
 2781SOL     OW19801   3.263   4.492  11.912 -0.0216  0.2656 -0.2596
 2781SOL    HW119802   3.202   4.441  11.964  0.8018  0.9402  1.3857
 2781SOL    HW219803   3.239   4.459  11.826 -0.5322 -0.7800  0.2887
 2782SOL     OW19804   0.279   2.461   3.651  0.2145  0.7156 -0.1465
 2782SOL    HW119805   0.373   2.473   3.669  0.5727  1.1311 -2.3434
 2782SOL    HW219806   0.276   2.452   3.556 -0.6677  0.3460 -0.0851
 2783SOL     OW19807   2.242   2.369   3.936 -0.8389  0.1091  0.1153
 2783SOL    HW119808   2.332   2.367   3.903 -0.0166 -0.5498  2.4101
 2783SOL    HW219809   2.185   2.334   3.867  1.5551 -1.2736 -1.1863
 2784SOL     OW19810   1.641   3.238  14.896 -0.5762  0.1727  0.0527
 2784SOL    HW119811   1.549   3.224  14.874 -0.5039  2.2353 -1.5488
 2784SOL    HW219812   1.637   3.273  14.985 -0.3065 -0.6460  0.3886
 2785SOL     OW19813   2.845   2.257   1.274 -0.2288  0.0121  0.0516
 2785SOL    HW119814   2.755   2.290   1.272 -1.1132 -2.5592 -2.1497
 2785SOL    HW219815   2.897   2.332   1.244 -1.4383  1.4110  1.4302
 2786SOL     OW19816   3.130   0.192  11.602  0.7310  0.0314 -0.1278
 2786SOL    HW119817   3.131   0.128  11.532  1.0037  2.9330 -2.7850
 2786SOL    HW219818   3.216   0.173  11.640  0.1149  0.4083  1.4584
 2787SOL     OW19819   0.313   4.178  17.023  0.2725 -0.0394  0.2829
 2787SOL    HW119820   0.370   4.173  17.100 -0.6493 -0.8402  0.9127
 2787SOL    HW219821   0.232   4.206  17.065 -1.3293 -2.0256 -1.4688
 2788SOL     OW19822   2.289   2.982   8.264  0.3196  0.0109  0.5743
 2788SOL    HW119823   2.336   3.061   8.239 -1.4620  1.6294  2.4242
 2788SOL    HW219824   2.218   3.019   8.316  1.6146  2.6502  0.4706
 2789SOL     OW19825   2.468   2.486   9.063 -0.2043  0.2442 -0.3318
 2789SOL    HW119826   2.484   2.415   9.125 -1.9302  0.2695  0.1507
 2789SOL    HW219827   2.536   2.467   8.998 -1.1718 -0.8649 -1.0373
 2790SOL     OW19828   1.207   4.595   3.028 -0.7424  0.0131  0.2230
 2790SOL    HW119829   1.187   4.631   3.115  0.8884  0.8903  0.2366
 2790SOL    HW219830   1.209   4.502   3.046  1.5656 -0.2304 -1.3349
 2791SOL     OW19831   3.727   4.101   8.725  0.4536 -0.7341  0.2913
 2791SOL    HW119832   3.760   4.070   8.641  0.9581  0.3513  0.0857
 2791SOL    HW219833   3.719   4.014   8.765 -2.5311  0.2427  1.8659
 2792SOL     OW19834   2.608   4.314   7.664  0.1550 -0.1815  0.7062
 2792SOL    HW119835   2.551   4.373   7.713 -0.6123 -2.3374  2.4171
 2792SOL    HW219836   2.659   4.271   7.732  2.0926  2.0232  0.6730
 2793SOL     OW19837   2.557   0.035   6.862 -0.5481  0.7210 -0.4255
 2793SOL    HW119838   2.483   0.000   6.912 -1.8946  0.4192 -2.6272
 2793SOL    HW219839   2.629   0.029   6.925 -1.4014  0.8908  0.5629
 2794SOL     OW19840   3.889   2.813   0.872 -0.1872  0.1037 -0.2240
 2794SOL    HW119841   3.831   2.841   0.942  1.9373  0.2971  1.4564
 2794SOL    HW219842   3.901   2.894   0.823  0.5139 -0.8379 -1.6308
 2795SOL     OW19843   0.086   1.170   7.781  0.0215 -0.3106 -0.8355
 2795SOL    HW119844   0.121   1.249   7.822  0.3647  1.0432 -3.7957
 2795SOL    HW219845   0.148   1.102   7.811  0.0995  0.3903  0.6222
 2796SOL     OW19846   0.500   1.597   6.647  0.6387  0.5154 -0.5182
 2796SOL    HW119847   0.550   1.675   6.623 -1.0416  1.3315 -1.2994
 2796SOL    HW219848   0.530   1.545   6.573  4.0049  0.6572  0.7367
 2797SOL     OW19849   2.944   0.448   4.841 -0.1444  0.0475 -0.1512
 2797SOL    HW119850   3.004   0.373   4.845  0.3320  0.4566  0.2599
 2797SOL    HW219851   2.892   0.440   4.920 -1.8497 -1.7477 -1.4410
 2798SOL     OW19852   1.575   2.534   0.954  0.1878 -0.0530 -0.3870
 2798SOL    HW119853   1.524   2.612   0.937 -0.6114 -0.5298 -0.1908
 2798SOL    HW219854   1.592   2.514   0.862  2.0247 -2.9244  0.5743
 2799SOL     OW19855   0.980   3.569   7.893  0.3696 -0.6078 -0.3438
 2799SOL    HW119856   0.961   3.499   7.830 -1.4070 -1.4638  1.1324
 2799SOL    HW219857   0.926   3.547   7.969 -0.5611 -0.0288 -0.8348
 2800SOL     OW19858   2.059   3.072   1.571 -0.3015  0.3357  0.1982
 2800SOL    HW119859   1.985   3.123   1.605 -0.6744  0.6793 -1.1364
 2800SOL    HW219860   2.081   3.126   1.495  3.3332 -2.4345 -0.7316
 2801SOL     OW19861   0.749   2.811   4.883 -0.9285 -0.2280 -0.1012
 2801SOL    HW119862   0.806   2.872   4.835 -1.2899  0.4266  0.3048
 2801SOL    HW219863   0.694   2.875   4.929  0.5158  1.4256 -0.6724
 2802SOL     OW19864   2.300   0.822  11.066  0.1223  0.5202 -0.4314
 2802SOL    HW119865   2.269   0.912  11.063 -0.0013  0.5986  2.7265
 2802SOL    HW219866   2.342   0.819  10.980  1.0658  2.4054 -0.0404
 2803SOL     OW19867   4.341   0.349   4.130 -0.2355 -0.8073  0.7833
 2803SOL    HW119868   4.366   0.356   4.038 -0.2301 -0.9053  0.7765
 2803SOL    HW219869   4.247   0.332   4.125 -1.1666  3.7606  3.0177
 2804SOL     OW19870   2.840   4.607   5.833  0.6892  0.1110  0.0452
 2804SOL    HW119871   2.806   4.653   5.909 -2.9430 -0.9105 -0.9568
 2804SOL    HW219872   2.883   4.537   5.883  0.1483 -0.5060 -0.3436
 2805SOL     OW19873   3.843   2.801  10.535  0.0917  0.2899  0.3339
 2805SOL    HW119874   3.921   2.746  10.524  0.6914  1.0986  0.5171
 2805SOL    HW219875   3.791   2.792  10.455 -0.6934  1.8888  0.6760
 2806SOL     OW19876   1.106   4.268   3.927 -0.0942  0.1232  0.1782
 2806SOL    HW119877   1.082   4.220   4.006 -0.8409 -1.9782 -1.3251
 2806SOL    HW219878   1.023   4.292   3.885  1.4545  1.3874 -2.1500
 2807SOL     OW19879   3.418   3.465   4.811 -0.1157 -0.3535  0.3215
 2807SOL    HW119880   3.454   3.414   4.738  1.9117 -1.8513  2.3661
 2807SOL    HW219881   3.483   3.535   4.823 -0.4227 -0.2313  1.3041
 2808SOL     OW19882   1.880   2.732   2.952  0.4192  0.0270 -0.1472
 2808SOL    HW119883   1.845   2.643   2.942  0.4040  0.0391 -0.1987
 2808SOL    HW219884   1.802   2.787   2.952  0.8311  0.6008 -1.1313
 2809SOL     OW19885   3.154   1.312   6.006 -0.4435  0.2793  0.2985
 2809SOL    HW119886   3.138   1.293   5.914  0.4818 -0.8128  0.3608
 2809SOL    HW219887   3.191   1.401   6.009 -1.1325  0.4895  2.7927
 2810SOL     OW19888   1.161   1.141   7.795  0.4451  0.6128  0.3275
 2810SOL    HW119889   1.182   1.050   7.818  0.6981  1.2536  2.5863
 2810SOL    HW219890   1.242   1.165   7.749  0.2232 -0.4095 -0.6131
 2811SOL     OW19891   2.046   4.193  11.438 -0.5006 -0.2659 -0.6985
 2811SOL    HW119892   2.047   4.288  11.452  1.5516 -0.4323  0.2435
 2811SOL    HW219893   2.003   4.166  11.519 -1.4865  0.0448 -1.1161
 2812SOL     OW19894   1.706   2.882  13.242 -0.3046 -0.1342  0.7404
 2812SOL    HW119895   1.721   2.965  13.197  2.8229 -0.8908  0.3487
 2812SOL    HW219896   1.655   2.843  13.171  0.9134 -1.9305  0.8485
 2813SOL     OW19897   2.408   2.279  14.547  0.0610  0.3325 -0.4566
 2813SOL    HW119898   2.458   2.345  14.499 -0.0364  1.6548  1.2625
 2813SOL    HW219899   2.320   2.311  14.527 -0.7093 -1.5726 -0.0643
 2814SOL     OW19900   1.580   3.897   6.727 -0.5500  0.8224  0.5693
 2814SOL    HW119901   1.669   3.932   6.727  0.4027 -1.6158  1.5906
 2814SOL    HW219902   1.535   3.953   6.790 -0.1827 -0.8813  2.3348
 2815SOL     OW19903   0.149   3.751   3.730 -0.3022 -0.3779 -0.2115
 2815SOL    HW119904   0.085   3.681   3.739 -0.9519  0.1420 -0.7803
 2815SOL    HW219905   0.221   3.713   3.780 -1.0905  0.4565  1.5352
 2816SOL     OW19906   3.202   3.808   2.820  0.1707  0.0865 -0.0574
 2816SOL    HW119907   3.157   3.795   2.903 -0.0456  3.2082  0.3052
 2816SOL    HW219908   3.138   3.853   2.764 -1.0578 -2.2125 -0.4990
 2817SOL     OW19909   3.720   1.935   8.358 -0.2147  0.7632  0.1147
 2817SOL    HW119910   3.642   1.989   8.350 -2.7264 -2.6113  1.8484
 2817SOL    HW219911   3.731   1.911   8.266  2.4478  0.1909  0.5820
 2818SOL     OW19912   4.030   1.042   5.902  0.5349  0.1611 -0.4980
 2818SOL    HW119913   4.028   1.137   5.896  0.5956  0.2434  0.9111
 2818SOL    HW219914   4.121   1.015   5.910  1.1684  1.4864 -3.4939
 2819SOL     OW19915   4.188   1.344   1.828 -0.2771  0.1967 -0.0689
 2819SOL    HW119916   4.186   1.250   1.848 -1.9775 -0.2040 -2.1263
 2819SOL    HW219917   4.123   1.378   1.889 -0.0042 -0.0927  0.3828
 2820SOL     OW19918   2.064   1.435   2.929 -0.4953  0.1298  0.2138
 2820SOL    HW119919   2.071   1.530   2.935  2.7204 -0.1929  1.1631
 2820SOL    HW219920   2.140   1.415   2.875 -1.2040  0.3917 -0.8952
 2821SOL     OW19921   3.195   3.396  14.240  0.0089  0.6752 -0.1569
 2821SOL    HW119922   3.177   3.429  14.152  0.6719  1.0031 -0.1674
 2821SOL    HW219923   3.137   3.454  14.289  0.6453  1.7804 -0.7117
 2822SOL     OW19924   3.393   0.048   5.996  0.2912  0.1255  0.3085
 2822SOL    HW119925   3.395   0.036   6.090 -2.0085  2.3515  0.6369
 2822SOL    HW219926   3.407   4.681   5.982 -1.4463 -0.0238 -0.4784
 2823SOL     OW19927   3.647   2.072   1.282  0.1501 -0.1708  0.4012
 2823SOL    HW119928   3.716   2.092   1.345 -1.2144 -0.7965  2.1060
 2823SOL    HW219929   3.654   1.977   1.291 -2.0404 -0.3520  0.2179
 2824SOL     OW19930   2.547   3.885   0.918  0.1941 -0.1832  0.0627
 2824SOL    HW119931   2.465   3.908   0.963  1.9383  0.0113  3.1609
 2824SOL    HW219932   2.519   3.812   0.863 -0.2161 -1.7796  2.3984
 2825SOL     OW19933   3.130   2.902  12.017 -0.0180 -1.3479 -0.8043
 2825SOL    HW119934   3.153   2.880  11.926 -2.9154 -1.8745 -1.3945
 2825SOL    HW219935   3.206   2.956  12.037 -0.3681 -1.1632  0.0186
 2826SOL     OW19936   1.774   1.324   1.130  0.0603 -0.6688 -0.5213
 2826SOL    HW119937   1.685   1.305   1.100 -0.9097  1.1839  1.1956
 2826SOL    HW219938   1.783   1.242   1.179 -1.1592  0.3715  1.4166
 2827SOL     OW19939   0.128   4.259  10.425  0.3641 -0.0054  0.4003
 2827SOL    HW119940   0.109   4.277  10.333  3.4030 -1.7240 -0.5448
 2827SOL    HW219941   0.050   4.294  10.467 -0.3871 -0.1623 -0.8673
 2828SOL     OW19942   4.696   2.521   1.464  0.2034 -0.4312  0.2437
 2828SOL    HW119943   4.655   2.606   1.448  0.2366 -0.3649  0.5044
 2828SOL    HW219944   0.062   2.545   1.464 -0.2798  1.4316 -0.6536
 2829SOL     OW19945   4.656   2.944   2.380  0.1241  0.0120  0.0288
 2829SOL    HW119946   4.692   2.966   2.465  1.0540  0.9997 -0.6276
 2829SOL    HW219947   4.665   3.031   2.342  1.4501 -0.3980 -0.6054
 2830SOL     OW19948   1.433   0.415   6.023  0.2271  0.3017 -0.3650
 2830SOL    HW119949   1.375   0.378   5.957 -1.9639  2.8515  0.1580
 2830SOL    HW219950   1.470   0.334   6.058  0.1496  0.3416 -0.1893
 2831SOL     OW19951   4.566   4.521   0.342 -0.2055 -0.0406 -0.3317
 2831SOL    HW119952   4.589   4.503   0.433  1.6898 -0.3337 -0.8547
 2831SOL    HW219953   4.656   4.531   0.310 -0.4736  2.4363 -0.2592
 2832SOL     OW19954   1.773   3.341   2.282  0.7681  0.0554  0.2223
 2832SOL    HW119955   1.816   3.396   2.216  1.5610 -0.6628  0.1383
 2832SOL    HW219956   1.771   3.405   2.353  2.1660  0.5243 -0.1583
 2833SOL     OW19957   2.822   2.016   7.195 -0.4837 -0.0123  0.4081
 2833SOL    HW119958   2.729   2.000   7.180 -1.0130  2.3361  1.1344
 2833SOL    HW219959   2.849   1.964   7.271 -0.2866 -0.6020 -0.0650
 2834SOL     OW19960   0.718   3.594   8.630  0.2421 -0.3048  0.5147
 2834SOL    HW119961   0.652   3.555   8.573 -0.3048  1.4318 -0.0626
 2834SOL    HW219962   0.669   3.617   8.709 -0.2708  0.6728 -0.0824
 2835SOL     OW19963   1.331   0.322   5.197  0.0568  0.0620  0.4253
 2835SOL    HW119964   1.260   0.352   5.142  1.3764 -0.2890 -1.4613
 2835SOL    HW219965   1.375   0.402   5.228 -0.0155  0.2187  0.1242
 2836SOL     OW19966   2.799   0.083   2.732 -0.1214  0.1532 -0.5295
 2836SOL    HW119967   2.747   0.118   2.804 -0.5229  0.8329 -1.1448
 2836SOL    HW219968   2.741   0.014   2.699 -0.1623 -0.6997  1.3403
 2837SOL     OW19969   2.484   1.915   5.385 -0.2468  0.0553 -0.0102
 2837SOL    HW119970   2.467   1.844   5.324 -0.7649 -1.3500  1.7536
 2837SOL    HW219971   2.548   1.872   5.442  1.4017 -2.1381 -3.5585
 2838SOL     OW19972   2.865   0.730  15.179 -0.3202 -0.5642  0.1029
 2838SOL    HW119973   2.823   0.742  15.094  0.1103  0.0240 -0.0281
 2838SOL    HW219974   2.842   0.815  15.217 -4.5736 -0.6016 -2.3773
 2839SOL     OW19975   1.203   2.959   2.280 -0.2028 -0.0335 -0.1701
 2839SOL    HW119976   1.294   2.930   2.289 -0.3752 -0.2720  0.8158
 2839SOL    HW219977   1.189   3.013   2.358 -1.2235  0.4712 -0.7115
 2840SOL     OW19978   1.400   4.482   8.263  0.1976 -0.7248  0.3707
 2840SOL    HW119979   1.436   4.566   8.233 -2.3502 -0.0705 -0.8183
 2840SOL    HW219980   1.367   4.442   8.183 -1.6541 -1.9348  1.7300
 2841SOL     OW19981   4.508   2.516   4.012  0.0692  0.2719 -0.1377
 2841SOL    HW119982   4.552   2.569   3.946 -0.6159 -1.5550 -2.0791
 2841SOL    HW219983   4.565   2.442   4.032 -1.1031 -0.0721  1.9549
 2842SOL     OW19984   3.861   2.048   4.377 -0.5343 -0.4486  0.2655
 2842SOL    HW119985   3.833   2.134   4.346  1.0419  0.2399  0.7498
 2842SOL    HW219986   3.792   2.033   4.442  1.4939 -3.1203  1.8007
 2843SOL     OW19987   1.974   3.917   6.455  0.1123 -0.4089  0.1424
 2843SOL    HW119988   1.952   3.997   6.407 -0.8732 -0.6284  0.2330
 2843SOL    HW219989   1.951   3.857   6.384 -0.5748 -1.3306  1.1416
 2844SOL     OW19990   0.155   0.768   3.804  0.2813 -0.1357  0.3083
 2844SOL    HW119991   0.199   0.729   3.729  0.5313 -0.6967  0.7432
 2844SOL    HW219992   0.158   0.704   3.876 -1.1040 -0.4819  0.0727
 2845SOL     OW19993   1.279   3.335  15.188  0.1890 -0.3284 -0.3187
 2845SOL    HW119994   1.315   3.249  15.166  1.7557  0.2220  0.0630
 2845SOL    HW219995   1.331   3.394  15.134 -1.2252  0.0344 -1.2654
 2846SOL     OW19996   3.995   2.341   8.603  1.0554 -0.1107 -0.0612
 2846SOL    HW119997   3.998   2.255   8.643  3.2202  0.4944  1.0674
 2846SOL    HW219998   3.923   2.339   8.540  2.4112  2.7932 -1.7670
 2847SOL     OW19999   0.053   2.105  10.483 -0.1400  0.1688 -0.0216
 2847SOL    HW120000   0.064   2.192  10.522  1.5818 -0.6294  1.2589
 2847SOL    HW220001   0.126   2.091  10.422  0.8288  0.3254  1.0946
 2848SOL     OW20002   1.829   2.611   5.465  0.0050  0.2148 -0.5817
 2848SOL    HW120003   1.886   2.535   5.448  1.8366  1.5805 -0.5686
 2848SOL    HW220004   1.870   2.656   5.539  1.5777  3.6549 -3.5226
 2849SOL     OW20005   3.316   0.455   6.430  0.1113 -0.2671  0.0177
 2849SOL    HW120006   3.355   0.524   6.376  0.6210  0.5571  1.4347
 2849SOL    HW220007   3.254   0.407   6.374  0.2144  2.5282 -2.5336
 2850SOL     OW20008   1.295   1.766   2.063  0.0375 -0.1286 -1.0250
 2850SOL    HW120009   1.249   1.849   2.047  0.9656  0.6551  0.3081
 2850SOL    HW220010   1.357   1.752   1.992 -0.3230  0.6643 -1.4949
 2851SOL     OW20011   1.408   0.435   7.270  0.0041 -0.7188 -0.2905
 2851SOL    HW120012   1.463   0.371   7.225 -0.4086 -0.0632 -1.7207
 2851SOL    HW220013   1.485   0.486   7.298  1.2487 -1.7962 -1.7671
 2852SOL     OW20014   0.514   0.397   4.388 -0.2513  0.0312 -0.3064
 2852SOL    HW120015   0.497   0.368   4.477  0.4856  0.1963 -0.1113
 2852SOL    HW220016   0.541   0.489   4.396 -2.5154  0.6967 -0.4255
 2853SOL     OW20017   0.480   0.501   8.709  0.4399  0.4766  0.1738
 2853SOL    HW120018   0.402   0.537   8.749 -0.5141 -1.4232  0.0165
 2853SOL    HW220019   0.538   0.512   8.784  0.5706 -0.4065  0.1979
 2854SOL     OW20020   1.670   1.459   6.778  0.2613 -0.0783  0.3670
 2854SOL    HW120021   1.629   1.529   6.829 -1.7206 -0.9039 -0.0540
 2854SOL    HW220022   1.745   1.507   6.745 -2.2393  4.0247  0.6171
 2855SOL     OW20023   2.593   1.912  16.470  0.1360  0.0780 -0.0011
 2855SOL    HW120024   2.645   1.957  16.536 -0.7997 -2.8281  2.6871
 2855SOL    HW220025   2.644   1.950  16.399  0.3412  0.4024  0.3215
 2856SOL     OW20026   2.981   3.490   8.758 -0.2817 -0.4038 -0.5065
 2856SOL    HW120027   3.035   3.438   8.698 -0.4244  0.2226 -1.1799
 2856SOL    HW220028   2.917   3.422   8.778 -0.9730  0.1619 -0.7974
 2857SOL     OW20029   3.151   4.305   2.682  0.0833 -0.0813  0.5871
 2857SOL    HW120030   3.190   4.391   2.692 -3.2177  1.6465 -1.2784
 2857SOL    HW220031   3.108   4.289   2.766 -0.0230 -3.0684 -0.0333
 2858SOL     OW20032   0.380   1.340   3.615 -0.0767  0.1767  0.0855
 2858SOL    HW120033   0.303   1.335   3.671  1.4059 -1.7675  1.9671
 2858SOL    HW220034   0.338   1.357   3.531 -0.5094 -1.7562 -0.0700
 2859SOL     OW20035   3.890   3.629   8.604 -0.2004 -0.5029 -0.6854
 2859SOL    HW120036   3.919   3.573   8.676  2.3564  0.7819 -0.7207
 2859SOL    HW220037   3.956   3.696   8.618 -2.8558  1.4924  2.1787
 2860SOL     OW20038   0.987   3.160  12.997 -0.0241 -0.0271 -0.4360
 2860SOL    HW120039   0.957   3.148  12.908 -0.8751 -0.0008 -0.1537
 2860SOL    HW220040   0.929   3.233  13.021 -0.1881  0.2255 -1.5899
 2861SOL     OW20041   4.055   4.341   0.887  0.0021 -0.0448 -0.0600
 2861SOL    HW120042   4.085   4.421   0.931  1.2987 -0.1813 -0.7010
 2861SOL    HW220043   4.112   4.278   0.930  0.9413  0.4154 -0.6456
 2862SOL     OW20044   4.056   4.246   4.864 -0.0606 -0.4022  0.4029
 2862SOL    HW120045   4.057   4.223   4.771  0.5640  0.0570  0.2933
 2862SOL    HW220046   4.039   4.340   4.857 -1.5545 -0.5606  1.8189
 2863SOL     OW20047   3.321   0.923  11.941  0.6853 -0.5383  0.3084
 2863SOL    HW120048   3.384   0.991  11.915 -1.1062  1.6213  1.5850
 2863SOL    HW220049   3.275   0.898  11.861  1.9104 -0.5261 -0.4000
 2864SOL     OW20050   2.191   3.399   6.697 -0.1503  0.1908  0.1387
 2864SOL    HW120051   2.114   3.440   6.659 -1.0812 -2.3857 -0.6956
 2864SOL    HW220052   2.246   3.474   6.722  2.6372 -1.2945 -1.5643
 2865SOL     OW20053   0.738   0.266   4.800  0.5637  0.1213 -0.8474
 2865SOL    HW120054   0.793   0.271   4.879  0.4378  1.6350 -0.8579
 2865SOL    HW220055   0.783   0.330   4.744 -0.1243  1.5711  0.2577
 2866SOL     OW20056   3.819   3.300  15.972  0.2365  0.9604  0.2421
 2866SOL    HW120057   3.873   3.222  15.965 -0.6767  0.5274 -2.0023
 2866SOL    HW220058   3.740   3.262  16.012  0.7782 -2.6009 -2.0804
 2867SOL     OW20059   0.862   1.971   8.675  0.0645 -0.0877  0.1121
 2867SOL    HW120060   0.876   1.877   8.680  2.8422  0.2817 -0.6897
 2867SOL    HW220061   0.884   1.982   8.768 -0.4729  3.0487 -0.1197
 2868SOL     OW20062   2.517   3.933   5.545  0.7719  0.0042  0.0958
 2868SOL    HW120063   2.461   3.919   5.621 -0.7327  2.6898 -0.5319
 2868SOL    HW220064   2.506   4.027   5.529  0.3125 -0.1439 -0.4632
 2869SOL     OW20065   2.259   2.810   8.542 -0.5242 -0.0247 -0.1409
 2869SOL    HW120066   2.280   2.830   8.451  0.3117  1.4332  0.3645
 2869SOL    HW220067   2.191   2.877   8.551  0.2666  1.0272 -1.9801
 2870SOL     OW20068   4.392   4.621   3.879  0.9315 -0.2374 -0.5795
 2870SOL    HW120069   4.475   4.592   3.843  0.8357  1.5831 -2.3080
 2870SOL    HW220070   4.394   4.585   3.968 -2.4622 -0.6059 -0.6322
 2871SOL     OW20071   2.874   0.563   8.923 -0.0889  0.4116  0.1711
 2871SOL    HW120072   2.849   0.592   9.011  0.4258  2.1224 -0.2500
 2871SOL    HW220073   2.870   0.470   8.944 -1.1487  0.4169 -0.0085
 2872SOL     OW20074   3.136   2.324  10.730 -0.0726  0.1926 -0.5285
 2872SOL    HW120075   3.059   2.381  10.730  1.7953  2.7093 -2.6103
 2872SOL    HW220076   3.102   2.251  10.677  0.8619 -0.3264 -0.4238
 2873SOL     OW20077   1.253   3.158   8.202  0.3182  0.2089  0.0033
 2873SOL    HW120078   1.217   3.142   8.289 -1.0863  0.8005 -0.4762
 2873SOL    HW220079   1.282   3.070   8.179 -0.1937  0.1382 -0.3616
 2874SOL     OW20080   0.516   0.237   8.641 -0.3070  0.3217  0.2097
 2874SOL    HW120081   0.510   0.331   8.656 -1.6189  0.5174 -1.6128
 2874SOL    HW220082   0.514   0.238   8.545  1.6413  2.4433  0.1666
 2875SOL     OW20083   3.297   0.864  10.436 -0.0210  0.0273  0.1873
 2875SOL    HW120084   3.318   0.865  10.343 -0.5469  0.5598  0.0714
 2875SOL    HW220085   3.268   0.774  10.444 -0.1787  0.3451  3.0948
 2876SOL     OW20086   4.155   3.257   4.138  0.4522 -0.2637  0.2747
 2876SOL    HW120087   4.092   3.208   4.190  0.9304  1.4786  2.4732
 2876SOL    HW220088   4.225   3.192   4.131  0.6430 -0.0179 -0.1255
 2877SOL     OW20089   2.692   2.186  15.346  0.1710  0.0208  0.3674
 2877SOL    HW120090   2.681   2.280  15.333 -1.4201 -0.1650  0.3820
 2877SOL    HW220091   2.604   2.161  15.317 -0.5629  3.6646 -0.5830
 2878SOL     OW20092   2.422   1.070   5.348 -0.4843 -0.4716  0.1238
 2878SOL    HW120093   2.480   1.029   5.284 -1.5284  0.5879 -1.5214
 2878SOL    HW220094   2.490   1.118   5.395 -2.2815  1.6657  0.5474
 2879SOL     OW20095   3.859   4.618   1.912  0.7723  0.1562  0.6058
 2879SOL    HW120096   3.942   4.665   1.910 -0.6278  2.4994 -1.9396
 2879SOL    HW220097   3.870   4.565   1.833 -0.0108  1.5985 -0.4740
 2880SOL     OW20098   3.386   1.727   8.147 -0.1879 -0.0247 -0.5797
 2880SOL    HW120099   3.452   1.745   8.080  0.1383  0.1133 -0.2212
 2880SOL    HW220100   3.338   1.808   8.165  0.2449  0.5549 -2.0749
 2881SOL     OW20101   3.300   3.449   1.776 -0.8564 -0.1083  0.0371
 2881SOL    HW120102   3.302   3.534   1.732  3.0424 -0.8255 -1.1192
 2881SOL    HW220103   3.384   3.407   1.756  0.1216  0.9755  1.8994
 2882SOL     OW20104   4.192   0.639   4.405 -0.5185  0.7961  0.0305
 2882SOL    HW120105   4.143   0.570   4.360 -1.0022  0.7243  0.6677
 2882SOL    HW220106   4.132   0.708   4.431 -3.1451 -1.1969 -0.8057
 2883SOL     OW20107   3.285   0.862   6.958 -0.2344  0.7040  0.3816
 2883SOL    HW120108   3.305   0.864   6.865 -0.3252 -0.0202  0.3485
 2883SOL    HW220109   3.192   0.883   6.950 -1.0196 -3.1732 -0.6527
 2884SOL     OW20110   1.760   4.642   8.429  1.0716 -0.4522 -0.2126
 2884SOL    HW120111   1.839   4.692   8.447  0.1125  1.5187 -1.4909
 2884SOL    HW220112   1.769   4.568   8.489  2.1251 -0.2516 -0.1256
 2885SOL     OW20113   2.443   3.519   7.000 -0.1795  0.1027 -0.2098
 2885SOL    HW120114   2.484   3.601   7.028 -0.6017  0.4254 -0.5476
 2885SOL    HW220115   2.417   3.537   6.910  0.7591 -1.5965 -0.8176
 2886SOL     OW20116   2.051   1.569   4.406  0.0670 -0.2173  0.3069
 2886SOL    HW120117   2.058   1.492   4.462  1.3524 -2.6276 -3.1790
 2886SOL    HW220118   2.012   1.533   4.326 -0.6390 -2.4341  1.6456
 2887SOL     OW20119   3.544   3.651  16.619  0.4002  0.0869  0.0088
 2887SOL    HW120120   3.449   3.657  16.629  0.6352 -0.4788  2.6987
 2887SOL    HW220121   3.575   3.702  16.694  0.1492  0.3780 -0.0841
 2888SOL     OW20122   0.533   2.732  16.717 -0.6114 -0.0888  0.2980
 2888SOL    HW120123   0.590   2.777  16.780  0.2472 -0.6290 -0.1036
 2888SOL    HW220124   0.445   2.760  16.743 -0.5204  0.3761  0.0966
 2889SOL     OW20125   0.517   1.061   3.131  0.2737  0.1373 -0.1946
 2889SOL    HW120126   0.521   1.057   3.036  2.7609 -2.2069  0.0011
 2889SOL    HW220127   0.527   0.967   3.150  1.2007  0.0601 -1.0493
 2890SOL     OW20128   2.174   1.640   3.691 -0.0538  0.4168 -0.4483
 2890SOL    HW120129   2.183   1.691   3.772  2.6287 -0.4690 -0.1816
 2890SOL    HW220130   2.265   1.632   3.662 -0.1553 -0.5309 -0.5187
 2891SOL     OW20131   4.619   2.444   8.431  0.1951  0.1546 -0.4497
 2891SOL    HW120132   4.641   2.481   8.345 -1.6370 -0.5330 -1.2164
 2891SOL    HW220133   4.694   2.385   8.436  0.2061  0.1776 -0.3350
 2892SOL     OW20134   4.575   4.043   4.195 -0.3045  0.4240 -0.2668
 2892SOL    HW120135   4.518   4.008   4.127 -1.0030 -0.6845  0.8788
 2892SOL    HW220136   4.606   4.121   4.150 -2.3685  1.5190  0.2027
 2893SOL     OW20137   1.119   2.300   1.895 -0.2153 -0.0168 -0.1836
 2893SOL    HW120138   1.104   2.255   1.812  4.6286  0.2552 -1.2536
 2893SOL    HW220139   1.081   2.242   1.960 -0.8728  0.5249 -0.0871
 2894SOL     OW20140   4.224   2.069  17.526  0.1067  0.0747  0.4179
 2894SOL    HW120141   4.247   2.161  17.525  0.2847  0.0349  0.8776
 2894SOL    HW220142   4.267   2.042  17.607 -0.2398  0.8452  0.8574
 2895SOL     OW20143   1.649   3.385  11.099  0.1458  0.2530 -0.4066
 2895SOL    HW120144   1.578   3.448  11.107 -0.6978 -0.7621  0.1846
 2895SOL    HW220145   1.620   3.321  11.164  0.7194 -1.2571 -1.6248
 2896SOL     OW20146   1.268   3.840   6.816 -0.4297  0.5732  0.3566
 2896SOL    HW120147   1.326   3.906   6.855 -1.1026  2.0894 -1.2036
 2896SOL    HW220148   1.286   3.841   6.722  1.0048  0.2155  0.6237
 2897SOL     OW20149   0.949   0.798  13.050 -0.4702  0.5142  0.1925
 2897SOL    HW120150   0.900   0.769  12.973 -2.4060 -0.7693  1.9023
 2897SOL    HW220151   0.902   0.759  13.124 -2.1327  0.8197 -0.6993
 2898SOL     OW20152   1.745   4.717   9.819  0.7297 -0.1645  0.3028
 2898SOL    HW120153   1.745   4.725   9.915  0.7544  0.7597  0.2261
 2898SOL    HW220154   1.694   0.066   9.789  2.9396  1.0455 -0.4053
 2899SOL     OW20155   1.551   2.793  15.204 -0.1628 -0.1036 -0.0522
 2899SOL    HW120156   1.525   2.848  15.279 -1.3329 -1.4652  0.5417
 2899SOL    HW220157   1.632   2.760  15.244 -1.1335 -2.7419 -0.2801
 2900SOL     OW20158   2.239   2.085   9.931  0.1624 -0.3253  0.3738
 2900SOL    HW120159   2.252   2.065   9.838 -1.0739 -1.4449  0.4370
 2900SOL    HW220160   2.319   2.049   9.970  0.6969 -0.4650 -0.8416
 2901SOL     OW20161   3.072   1.055   9.011 -0.4979 -0.4812  0.3821
 2901SOL    HW120162   2.984   1.045   8.976 -0.7188 -1.0472  1.1109
 2901SOL    HW220163   3.048   1.103   9.090 -0.1529 -0.3522  0.4103
 2902SOL     OW20164   3.612   2.967   5.349  0.2924 -0.5999 -0.3772
 2902SOL    HW120165   3.567   2.897   5.395  1.1699 -0.2440  1.0185
 2902SOL    HW220166   3.570   2.964   5.263  0.9278 -4.3366 -0.5183
 2903SOL     OW20167   4.305   3.071   7.803 -0.7947  0.2780  0.6577
 2903SOL    HW120168   4.233   3.080   7.865 -0.6351 -0.2494  0.9186
 2903SOL    HW220169   4.272   3.112   7.723 -1.4983 -1.3020  0.1551
 2904SOL     OW20170   1.178   1.493   6.389  0.2125 -0.7391  0.0107
 2904SOL    HW120171   1.234   1.526   6.459  2.1207  0.0023 -1.8790
 2904SOL    HW220172   1.161   1.577   6.346  0.7296  0.2650  1.7766
 2905SOL     OW20173   4.075   1.873   1.498  0.0621  0.4061  0.4130
 2905SOL    HW120174   4.164   1.880   1.465 -0.9711  1.7146 -2.1517
 2905SOL    HW220175   4.034   1.805   1.445  0.9927  2.4554 -2.9658
 2906SOL     OW20176   2.073   2.484   8.857  0.3990  0.0238 -0.0607
 2906SOL    HW120177   2.105   2.405   8.901  0.1243 -0.3498 -0.5307
 2906SOL    HW220178   2.124   2.550   8.905  0.4497  0.2681 -0.4523
 2907SOL     OW20179   4.318   3.192   5.405 -0.2288 -0.1002  0.4469
 2907SOL    HW120180   4.305   3.145   5.488  0.4692  0.6544  0.9823
 2907SOL    HW220181   4.350   3.118   5.354  0.3539 -0.2105  0.9784
 2908SOL     OW20182   2.392   0.489   0.160 -0.3199 -0.4449 -0.2401
 2908SOL    HW120183   2.462   0.493   0.225  1.3836 -1.0784 -2.0136
 2908SOL    HW220184   2.435   0.444   0.086 -2.0985 -0.1962 -1.4204
 2909SOL     OW20185   2.846   0.977   8.650 -0.1125  0.2106  0.1194
 2909SOL    HW120186   2.780   0.957   8.584  1.7666  0.3540 -1.7938
 2909SOL    HW220187   2.808   0.944   8.732 -1.8233 -0.8082 -1.1014
 2910SOL     OW20188   0.929   3.340  16.242  0.1861  0.5058 -0.6676
 2910SOL    HW120189   0.951   3.247  16.238  2.1085  0.8537  1.9284
 2910SOL    HW220190   1.002   3.357  16.301  0.2856 -0.4223 -0.5262
 2911SOL     OW20191   2.253   0.350   1.070  0.0189  0.6589  0.0365
 2911SOL    HW120192   2.310   0.346   0.994  0.9998  1.4800  0.7242
 2911SOL    HW220193   2.286   0.431   1.110 -2.3567  1.9111 -0.5277
 2912SOL     OW20194   3.016   2.153   7.819  0.2130 -0.6865  0.5006
 2912SOL    HW120195   2.948   2.166   7.753 -0.9439  0.0270  1.8351
 2912SOL    HW220196   3.090   2.195   7.775 -0.5883 -1.8637 -1.9493
 2913SOL     OW20197   1.573   1.763   7.407 -0.0770  0.6274 -0.2385
 2913SOL    HW120198   1.510   1.691   7.401  2.1308 -1.5021  1.8870
 2913SOL    HW220199   1.518   1.833   7.371 -0.3111  1.6943  2.1938
 2914SOL     OW20200   1.583   0.673   6.969  0.2437  0.1424  0.0463
 2914SOL    HW120201   1.571   0.712   7.055  0.6784 -1.6253  0.8869
 2914SOL    HW220202   1.657   0.615   6.984  0.5186  0.0770 -1.5640
 2915SOL     OW20203   0.496   0.328  14.501 -0.2589  0.4535 -0.3874
 2915SOL    HW120204   0.530   0.252  14.549 -0.8819 -0.6353 -1.6934
 2915SOL    HW220205   0.538   0.310  14.417 -0.7978 -2.6900 -0.0003
 2916SOL     OW20206   3.738   4.225   7.704  0.0651 -0.1617 -0.2086
 2916SOL    HW120207   3.791   4.181   7.637 -3.0385 -0.3342 -2.5928
 2916SOL    HW220208   3.729   4.316   7.675 -0.8473  0.1929  1.1926
 2917SOL     OW20209   2.834   2.227  10.755 -0.3884 -0.6513  0.0199
 2917SOL    HW120210   2.863   2.318  10.744 -1.5872 -0.0881  1.3206
 2917SOL    HW220211   2.897   2.184  10.698 -0.6218  1.5422 -1.8665
 2918SOL     OW20212   4.125   2.175  12.938  0.6524 -0.0210  0.3069
 2918SOL    HW120213   4.052   2.229  12.969  0.1013 -1.3652  1.3473
 2918SOL    HW220214   4.196   2.210  12.991 -0.2567  0.7526  1.0239
 2919SOL     OW20215   2.418   3.838   8.908 -0.0323 -0.0789 -0.1132
 2919SOL    HW120216   2.458   3.805   8.988  0.3798 -2.1556 -1.1571
 2919SOL    HW220217   2.377   3.921   8.930  0.7289  0.1041  0.5986
 2920SOL     OW20218   4.475   1.594  10.393 -0.0306 -0.0675  0.2602
 2920SOL    HW120219   4.471   1.507  10.352  2.2022  0.4945 -1.1637
 2920SOL    HW220220   4.450   1.663  10.332  0.5275 -1.4823 -1.5911
 2921SOL     OW20221   2.128   0.971  12.094 -0.0018 -0.0243 -0.0073
 2921SOL    HW120222   2.129   0.963  12.190 -1.1636 -2.2445 -0.1617
 2921SOL    HW220223   2.082   0.888  12.077 -0.1527 -0.2750  1.5921
 2922SOL     OW20224   0.440   3.860   9.183 -0.2111 -0.2471 -0.1002
 2922SOL    HW120225   0.414   3.884   9.094  0.8913 -0.0144 -0.3558
 2922SOL    HW220226   0.485   3.940   9.209  0.1928 -0.3486 -0.4846
 2923SOL     OW20227   0.635   2.622   3.752  0.4844  0.5651  0.0563
 2923SOL    HW120228   0.615   2.529   3.747  0.4839  0.7043 -2.3610
 2923SOL    HW220229   0.706   2.621   3.688  0.8565 -3.0018  0.5794
 2924SOL     OW20230   4.124   4.430   3.257 -0.1950  0.0097 -0.0570
 2924SOL    HW120231   4.114   4.358   3.194  0.0277 -0.1392  0.0801
 2924SOL    HW220232   4.067   4.502   3.229  1.9382  2.4364  1.7984
 2925SOL     OW20233   2.306   2.274   2.321  0.0862 -0.1058 -0.2403
 2925SOL    HW120234   2.367   2.275   2.247 -1.0203 -1.0507 -1.1591
 2925SOL    HW220235   2.291   2.368   2.306  2.7013  0.2290 -0.7376
 2926SOL     OW20236   2.027   2.734   7.926  1.3196 -0.0087  0.1383
 2926SOL    HW120237   2.029   2.656   7.982 -0.8741  1.2982  2.0275
 2926SOL    HW220238   2.079   2.700   7.853  1.2309 -0.4808  0.2913
 2927SOL     OW20239   0.665   4.483   8.723  0.1867  0.1704 -0.5244
 2927SOL    HW120240   0.724   4.547   8.684 -0.8916  1.8029  0.5345
 2927SOL    HW220241   0.581   4.524   8.701 -0.1421 -0.6231 -0.7548
 2928SOL     OW20242   1.700   3.713  13.399  0.4657  0.1308 -0.5879
 2928SOL    HW120243   1.671   3.767  13.472 -0.6612 -1.3817  0.0926
 2928SOL    HW220244   1.709   3.630  13.446 -0.6480  0.0515 -0.5042
 2929SOL     OW20245   2.091   0.823   7.890 -0.5548  0.2352 -0.2331
 2929SOL    HW120246   2.140   0.748   7.857  1.5784  1.9212 -0.9200
 2929SOL    HW220247   2.150   0.878   7.942  0.9768 -2.1365  0.5393
 2930SOL     OW20248   0.942   3.818  14.180 -0.1535 -0.5829 -0.5993
 2930SOL    HW120249   0.854   3.813  14.144 -0.3503  1.0031 -0.3539
 2930SOL    HW220250   0.942   3.897  14.234 -0.9420  0.2457 -1.8053
 2931SOL     OW20251   3.803   3.493  12.529 -0.0551  0.2408 -0.4702
 2931SOL    HW120252   3.805   3.560  12.461  1.8969  1.3149  0.6535
 2931SOL    HW220253   3.717   3.522  12.559 -0.0442 -0.2429  0.0270
 2932SOL     OW20254   2.271   1.716  17.248  0.0116 -0.5668 -0.3054
 2932SOL    HW120255   2.233   1.670  17.323  0.6294  0.4117  0.6139
 2932SOL    HW220256   2.269   1.804  17.286  0.2102 -0.6302 -0.1520
 2933SOL     OW20257   0.295   3.094   0.966 -0.1514  0.8723  0.3033
 2933SOL    HW120258   0.317   3.121   1.056 -3.0665 -1.8934  1.8105
 2933SOL    HW220259   0.382   3.067   0.934 -0.1874 -0.7150  1.5471
 2934SOL     OW20260   0.413   4.265   7.083  0.2931  0.3496 -0.6764
 2934SOL    HW120261   0.417   4.361   7.081  0.8903  0.2981 -1.6282
 2934SOL    HW220262   0.505   4.243   7.092 -0.1450 -0.7736  1.0083
 2935SOL     OW20263   1.194   3.076   6.237 -0.2883 -0.1522  0.8601
 2935SOL    HW120264   1.129   3.141   6.261 -1.3763 -1.5095  1.5906
 2935SOL    HW220265   1.246   3.131   6.179 -3.0123  0.3173 -1.1532
 2936SOL     OW20266   2.717   2.920   7.531 -0.2525  0.4240  0.1314
 2936SOL    HW120267   2.628   2.940   7.504 -1.2911 -3.0329  0.9006
 2936SOL    HW220268   2.701   2.895   7.622  0.4623  0.0080  0.1500
 2937SOL     OW20269   2.174   3.460  16.019  0.8352 -0.2461  0.4964
 2937SOL    HW120270   2.169   3.463  15.924 -2.3217 -0.5704  0.6617
 2937SOL    HW220271   2.200   3.372  16.047 -0.6849 -0.8913 -0.1269
 2938SOL     OW20272   4.142   3.706   4.504  0.6890  0.1983 -0.4304
 2938SOL    HW120273   4.053   3.693   4.471  0.7076  0.0961 -0.4393
 2938SOL    HW220274   4.124   3.742   4.590  2.0124 -1.0395  0.3745
 2939SOL     OW20275   2.221   0.854   6.491  0.2827  0.4982  0.4446
 2939SOL    HW120276   2.245   0.764   6.468 -1.7021  0.6115 -2.1036
 2939SOL    HW220277   2.267   0.897   6.419  0.4821 -0.4770 -0.0104
 2940SOL     OW20278   3.912   1.327   9.165 -0.0465 -0.0589 -0.3597
 2940SOL    HW120279   3.949   1.247   9.200  1.5248  0.3987 -0.9549
 2940SOL    HW220280   3.928   1.327   9.070 -3.1945 -0.9980 -0.8642
 2941SOL     OW20281   1.121   4.581   8.316 -0.1584  0.2413 -0.0878
 2941SOL    HW120282   1.211   4.549   8.304 -0.2378 -0.1236  0.2988
 2941SOL    HW220283   1.073   4.513   8.269  0.1735 -1.1613  1.6019
 2942SOL     OW20284   1.843   3.254   8.523  0.3419 -0.0158 -0.1287
 2942SOL    HW120285   1.906   3.306   8.574  2.2463 -1.4349 -1.0004
 2942SOL    HW220286   1.861   3.279   8.433  2.3178 -3.6384 -0.7563
 2943SOL     OW20287   0.136   3.631   6.358  0.5046 -0.6190 -0.1691
 2943SOL    HW120288   0.123   3.602   6.268  3.4786 -0.0984 -0.7605
 2943SOL    HW220289   0.214   3.686   6.345  2.3877 -3.1671  0.4744
 2944SOL     OW20290   3.898   1.588  11.383  0.4012  0.0666 -0.4399
 2944SOL    HW120291   3.885   1.496  11.408 -0.4529  0.5814  0.9656
 2944SOL    HW220292   3.862   1.603  11.295 -1.3517  0.5943  0.3660
 2945SOL     OW20293   4.592   2.633   3.026 -0.0025 -0.4704  0.3831
 2945SOL    HW120294   4.639   2.644   3.109 -0.7207  0.6300  0.6446
 2945SOL    HW220295   4.557   2.545   3.041  0.8326 -1.4038 -3.2473
 2946SOL     OW20296   4.470   1.099   4.239 -0.1018  0.2806  0.3073
 2946SOL    HW120297   4.434   1.105   4.328 -0.5694  1.0373  0.0656
 2946SOL    HW220298   4.389   1.087   4.189  1.6265 -2.3284 -1.8621
 2947SOL     OW20299   3.397   4.695   3.455  0.1298 -0.2574  0.2054
 2947SOL    HW120300   3.327   4.662   3.398  1.0441 -1.1835 -0.3919
 2947SOL    HW220301   3.464   4.714   3.389  2.2597 -1.2012  2.0854
 2948SOL     OW20302   1.106   2.123   5.043  0.5949  0.2568 -0.0031
 2948SOL    HW120303   1.049   2.055   5.009 -1.2947  1.1590  1.3332
 2948SOL    HW220304   1.046   2.198   5.040 -0.8697 -0.9824 -1.5884
 2949SOL     OW20305   2.398   1.959   1.357 -0.1562 -0.6332  0.6256
 2949SOL    HW120306   2.478   1.942   1.308 -0.7483  1.7077 -1.1679
 2949SOL    HW220307   2.438   1.956   1.444 -0.0198  0.4357  0.5962
 2950SOL     OW20308   0.157   2.671   3.774  0.0291  0.3667  0.1571
 2950SOL    HW120309   0.167   2.611   3.700  1.5809  0.0660  0.6072
 2950SOL    HW220310   0.229   2.645   3.832 -1.0320 -2.4802  0.1976
 2951SOL     OW20311   2.763   0.130   0.537 -0.6509  0.0187 -0.0979
 2951SOL    HW120312   2.851   0.118   0.500 -0.4516  1.6781 -0.1685
 2951SOL    HW220313   2.736   0.196   0.473  0.8645 -0.2229 -1.0086
 2952SOL     OW20314   4.319   1.148   3.333 -0.0143  0.2468  0.2595
 2952SOL    HW120315   4.364   1.221   3.374  2.9482 -1.6354  0.3644
 2952SOL    HW220316   4.275   1.107   3.408  0.4589 -2.1073 -0.7449
 2953SOL     OW20317   2.609   4.478   4.627  0.1675 -0.2016  0.1401
 2953SOL    HW120318   2.515   4.465   4.619  0.1154 -0.6243  1.2998
 2953SOL    HW220319   2.637   4.541   4.561  0.1306  1.2857  1.5560
 2954SOL     OW20320   1.430   0.757   4.648 -0.6013  0.1122 -0.4278
 2954SOL    HW120321   1.438   0.726   4.558 -2.4978  0.9000 -0.8853
 2954SOL    HW220322   1.397   0.847   4.635  2.0458  1.0393 -0.6478
 2955SOL     OW20323   3.144   3.614   4.111 -0.2259  0.6116 -0.0341
 2955SOL    HW120324   3.141   3.563   4.031  0.3122  2.0023 -0.9342
 2955SOL    HW220325   3.097   3.556   4.171 -0.5963  0.0149 -0.9070
 2956SOL     OW20326   4.352   3.402   5.635  0.0420 -0.1038  0.1372
 2956SOL    HW120327   4.341   3.319   5.588  1.6471  0.6516 -1.5462
 2956SOL    HW220328   4.300   3.382   5.713 -0.9560 -1.3503 -0.8419
 2957SOL     OW20329   3.519   1.476   4.360  0.5630  0.5205  0.0730
 2957SOL    HW120330   3.452   1.523   4.408  0.2666  2.0591 -1.8483
 2957SOL    HW220331   3.541   1.544   4.297 -0.5074 -0.3993 -1.2973
 2958SOL     OW20332   0.760   2.580   2.272  0.5277 -0.5021 -0.1280
 2958SOL    HW120333   0.696   2.640   2.310  2.7039  2.8206 -1.7973
 2958SOL    HW220334   0.832   2.638   2.250 -1.9084  2.0926 -1.3431
 2959SOL     OW20335   4.291   0.622  11.229  0.1673 -0.7025 -0.3654
 2959SOL    HW120336   4.258   0.679  11.160  2.0336  1.4427  0.5190
 2959SOL    HW220337   4.375   0.589  11.198  1.5591  1.6210  0.9138
 2960SOL     OW20338   1.547   2.579   5.386 -0.4986  0.3855 -0.4465
 2960SOL    HW120339   1.489   2.504   5.373  0.7575 -0.8509  1.1376
 2960SOL    HW220340   1.635   2.542   5.381 -0.1425  1.2051 -0.1810
 2961SOL     OW20341   0.567   1.489   6.888  0.3096  0.0111  0.0973
 2961SOL    HW120342   0.548   1.402   6.853 -0.5509  0.1410  0.2327
 2961SOL    HW220343   0.569   1.533   6.803 -3.5056  0.4584  0.2222
 2962SOL     OW20344   1.860   0.651  16.522 -0.0808 -0.5090  0.2745
 2962SOL    HW120345   1.801   0.576  16.513 -1.7313  0.8808 -0.4205
 2962SOL    HW220346   1.942   0.601  16.527  0.5110  0.2712 -1.7418
 2963SOL     OW20347   0.492   2.475  14.867 -0.1936 -0.1330 -0.5347
 2963SOL    HW120348   0.553   2.454  14.797 -0.8480 -1.4947 -0.6966
 2963SOL    HW220349   0.527   2.562  14.887 -0.5801 -0.3655  1.2151
 2964SOL     OW20350   1.224   1.519   5.771 -0.1297 -0.0096 -0.2330
 2964SOL    HW120351   1.178   1.454   5.825  0.5915 -1.8079 -1.8021
 2964SOL    HW220352   1.197   1.475   5.691 -0.3047 -0.3482  0.0101
 2965SOL     OW20353   0.578   4.344  11.946  0.3259 -0.4060  0.1816
 2965SOL    HW120354   0.637   4.401  11.897 -1.7887 -0.1826 -2.1186
 2965SOL    HW220355   0.515   4.411  11.973  2.1590  1.1017  0.7295
 2966SOL     OW20356   0.667   0.975   6.037 -0.4195  0.3741 -0.1973
 2966SOL    HW120357   0.734   0.983   6.105 -0.3553 -0.7911 -0.1285
 2966SOL    HW220358   0.681   1.048   5.976 -1.9382 -1.4372 -2.7149
 2967SOL     OW20359   3.091   3.867   4.262 -0.4939  0.3269  0.0394
 2967SOL    HW120360   3.177   3.899   4.288 -0.4230 -0.4621  0.7858
 2967SOL    HW220361   3.126   3.810   4.194 -0.2744 -0.5626  0.8966
 2968SOL     OW20362   2.245   2.717   1.405  0.6284 -0.3803  0.4990
 2968SOL    HW120363   2.292   2.800   1.399 -2.3844  1.4165  1.5520
 2968SOL    HW220364   2.257   2.692   1.314 -0.2171  0.3877  0.1814
 2969SOL     OW20365   3.333   0.958   5.887  0.1543  0.6790  0.3723
 2969SOL    HW120366   3.290   0.873   5.878  2.5502 -0.4780 -0.2299
 2969SOL    HW220367   3.343   0.968   5.982 -1.4806 -0.6171  0.6721
 2970SOL     OW20368   2.627   3.365   3.667 -0.0831  0.6948  0.0193
 2970SOL    HW120369   2.649   3.429   3.734  1.1710  1.7652 -1.4364
 2970SOL    HW220370   2.571   3.411   3.605  0.0773  2.3471  1.1145
 2971SOL     OW20371   4.251   3.450   8.733  0.4674  0.3701 -0.2715
 2971SOL    HW120372   4.157   3.457   8.753  0.2917  0.2093 -1.0340
 2971SOL    HW220373   4.259   3.356   8.747  0.6907  0.2067 -1.4743
 2972SOL     OW20374   4.687   3.586  10.172  0.0349  0.2018  0.4842
 2972SOL    HW120375   4.712   3.595  10.264  2.1424 -0.7756  0.0089
 2972SOL    HW220376   4.715   3.665  10.126  1.0112  0.1957  1.0765
 2973SOL     OW20377   2.618   3.013   2.798 -0.0617 -0.1773 -0.4757
 2973SOL    HW120378   2.571   2.948   2.746  0.1527 -0.4556 -0.3212
 2973SOL    HW220379   2.549   3.078   2.816 -0.9275 -1.5782  1.2215
 2974SOL     OW20380   4.653   2.022   7.441  0.1409 -0.2929 -0.2191
 2974SOL    HW120381   4.690   2.054   7.359  4.1116 -0.3807  1.5294
 2974SOL    HW220382   4.683   1.931   7.440 -2.3072 -1.1306  1.7089
 2975SOL     OW20383   1.107   4.621   3.302 -0.5646  0.3923  0.8835
 2975SOL    HW120384   1.019   4.585   3.292 -1.3005  1.9124  1.9264
 2975SOL    HW220385   1.145   4.549   3.353 -2.1989 -1.7199 -0.8926
 2976SOL     OW20386   1.985   1.031   2.559  0.4897  0.5176  0.3133
 2976SOL    HW120387   2.025   1.011   2.474 -0.0253  3.3794 -0.6047
 2976SOL    HW220388   2.059   1.007   2.614  0.0107  1.5738  1.3935
 2977SOL     OW20389   2.467   2.709   5.273 -0.6405  0.4459  0.0806
 2977SOL    HW120390   2.408   2.745   5.207 -1.8498  2.2866  2.1745
 2977SOL    HW220391   2.539   2.770   5.258  0.3677 -0.9028 -0.4732
 2978SOL     OW20392   2.935   4.278   9.332 -0.8149  0.3842  0.2971
 2978SOL    HW120393   2.853   4.324   9.312  0.5503  2.1831 -1.2541
 2978SOL    HW220394   2.984   4.284   9.249  0.8002 -2.0181  1.0772
 2979SOL     OW20395   0.508   1.200  16.147 -0.1734  0.3371 -0.5271
 2979SOL    HW120396   0.564   1.274  16.172  0.1495 -0.0348 -0.1562
 2979SOL    HW220397   0.558   1.164  16.074 -0.7689 -0.2607 -0.6328
 2980SOL     OW20398   2.788   0.314   6.117  0.1543 -0.3262  0.3358
 2980SOL    HW120399   2.772   0.408   6.116 -0.3798 -0.4170  0.0806
 2980SOL    HW220400   2.793   0.288   6.209 -0.7702  1.9317  1.0222
 2981SOL     OW20401   1.806   4.049   6.722 -0.0719 -0.0791 -0.2637
 2981SOL    HW120402   1.775   4.131   6.761  1.3267  0.6706 -0.7251
 2981SOL    HW220403   1.891   4.076   6.687 -0.9195  1.5828 -1.0334
 2982SOL     OW20404   4.552   2.581   2.183 -0.2459 -0.3276 -0.4013
 2982SOL    HW120405   4.647   2.578   2.174 -0.2650  0.9894 -1.0711
 2982SOL    HW220406   4.518   2.548   2.100  1.0072 -1.0483 -0.6302
 2983SOL     OW20407   3.303   1.980  11.272 -0.0801  0.5620 -0.1659
 2983SOL    HW120408   3.291   2.008  11.363 -1.1529  0.0710 -0.1558
 2983SOL    HW220409   3.210   1.971  11.251  0.0125  0.8513 -0.6842
 2984SOL     OW20410   3.303   1.763  13.330 -0.4309  0.1534 -0.0799
 2984SOL    HW120411   3.263   1.676  13.318  0.1724 -0.0652 -0.5597
 2984SOL    HW220412   3.277   1.796  13.244  2.1741  0.0635 -0.8999
 2985SOL     OW20413   4.439   1.342   3.978 -0.0694  0.1916 -0.5358
 2985SOL    HW120414   4.446   1.431   4.013  1.4856  1.5022 -4.1701
 2985SOL    HW220415   4.504   1.299   4.033  1.2252 -1.0128 -3.0282
 2986SOL     OW20416   2.646   0.841  17.030 -0.2443  0.1894  0.1517
 2986SOL    HW120417   2.725   0.817  17.078 -0.4472 -1.5515 -0.3503
 2986SOL    HW220418   2.587   0.766  17.045 -2.3872  1.7321 -0.5760
 2987SOL     OW20419   1.004   0.930  16.008  0.4657  0.4296 -0.2071
 2987SOL    HW120420   0.983   0.848  15.964  0.1885  2.2008 -3.4193
 2987SOL    HW220421   1.088   0.907  16.046 -1.7775 -2.6173  2.8429
 2988SOL     OW20422   2.458   0.516   2.423  0.2966  0.6890 -0.1245
 2988SOL    HW120423   2.447   0.561   2.339  1.1318 -0.5254 -0.8800
 2988SOL    HW220424   2.467   0.428   2.386 -1.9631  0.5323 -0.3193
 2989SOL     OW20425   4.106   2.964   9.345 -0.1379 -0.0193 -0.4021
 2989SOL    HW120426   4.146   3.009   9.419  0.0665 -0.1461 -0.4342
 2989SOL    HW220427   4.032   3.019   9.318  1.0497  0.8329 -1.9043
 2990SOL     OW20428   3.798   1.357   3.514 -0.1660  0.1351  0.6492
 2990SOL    HW120429   3.763   1.444   3.530  0.6188  0.2479  1.8108
 2990SOL    HW220430   3.827   1.367   3.424 -1.3473 -1.0727  0.1409
 2991SOL     OW20431   3.491   4.201  12.474 -0.0149  0.0877  0.3684
 2991SOL    HW120432   3.467   4.207  12.381  0.4137  0.1480  0.2601
 2991SOL    HW220433   3.403   4.188  12.509  0.6069 -1.7040  1.3122
 2992SOL     OW20434   2.944   3.091   7.317 -0.2330 -0.3555  0.7873
 2992SOL    HW120435   2.910   3.006   7.347 -0.8023 -0.8173 -1.1575
 2992SOL    HW220436   2.891   3.148   7.372 -1.7051 -1.6793  0.7605
 2993SOL     OW20437   2.556   1.543   5.429  0.4961  0.5024 -0.3049
 2993SOL    HW120438   2.582   1.490   5.354 -1.4602  1.4729 -1.6814
 2993SOL    HW220439   2.566   1.473   5.493  0.9679  0.0061 -0.9254
 2994SOL     OW20440   1.698   0.711   4.767 -0.2364  0.5148  0.0355
 2994SOL    HW120441   1.670   0.736   4.855 -0.4753 -0.8857  0.3456
 2994SOL    HW220442   1.618   0.722   4.716  0.2756  1.4549 -0.5622
 2995SOL     OW20443   1.449   2.678   0.372 -0.0121 -0.6182  0.2892
 2995SOL    HW120444   1.441   2.606   0.309 -1.8729 -0.2024  0.0422
 2995SOL    HW220445   1.532   2.653   0.413 -0.7427  0.4971  2.4546
 2996SOL     OW20446   2.752   0.672   6.953 -0.0437 -0.3619 -0.2045
 2996SOL    HW120447   2.695   0.595   6.949 -3.3018  2.1142 -0.9048
 2996SOL    HW220448   2.693   0.731   6.907  2.5707  0.6032 -2.3521
 2997SOL     OW20449   0.222   2.497  17.674 -0.6321 -0.2166  0.3025
 2997SOL    HW120450   0.170   2.417  17.667 -0.8927  0.0381 -0.6959
 2997SOL    HW220451   0.274   2.485  17.594  0.7400 -0.6507  1.2710
 2998SOL     OW20452   3.606   1.792   0.016 -0.6382 -0.4363 -0.0137
 2998SOL    HW120453   3.689   1.745   0.020  0.7453  1.9015 -1.5828
 2998SOL    HW220454   3.633   1.870   0.064 -1.7321 -0.6121  0.8833
 2999SOL     OW20455   1.278   2.255  14.881 -0.0608 -0.2642 -0.2504
 2999SOL    HW120456   1.260   2.319  14.950  1.6197 -0.8724  0.7537
 2999SOL    HW220457   1.214   2.187  14.900 -1.5844  0.7272 -1.7710
 3000SOL     OW20458   2.942   2.167  12.515 -0.1124 -0.3628  0.0545
 3000SOL    HW120459   2.868   2.109  12.532 -2.1138  2.3118  0.5290
 3000SOL    HW220460   2.895   2.244  12.484 -1.7568 -0.7071  1.6636
 3001SOL     OW20461   0.706   3.598   1.345  0.0859  0.4082 -0.0302
 3001SOL    HW120462   0.737   3.689   1.348 -0.2391  0.4390  2.1311
 3001SOL    HW220463   0.767   3.555   1.285  0.9653 -0.2844  1.3737
 3002SOL     OW20464   1.298   2.426   4.976 -0.2187  0.4670  0.1895
 3002SOL    HW120465   1.389   2.401   4.995 -0.7395 -2.8111 -1.6659
 3002SOL    HW220466   1.318   2.519   4.972  1.9264  0.0718  1.5427
 3003SOL     OW20467   2.756   1.250   2.928 -0.3331  0.0927 -0.0491
 3003SOL    HW120468   2.795   1.315   2.870  0.1659 -1.3596 -1.3380
 3003SOL    HW220469   2.767   1.285   3.017  2.9665  0.2129 -0.5158
 3004SOL     OW20470   1.473   0.645   8.730  0.6254  0.5334 -1.0395
 3004SOL    HW120471   1.512   0.617   8.648  2.5147 -1.9366  0.6774
 3004SOL    HW220472   1.401   0.582   8.737  0.9844  0.4640  2.0515
 3005SOL     OW20473   3.154   2.984   6.694 -0.0866  0.2024 -0.0543
 3005SOL    HW120474   3.093   3.035   6.747  0.2776 -0.5189  1.0577
 3005SOL    HW220475   3.227   3.007   6.752  0.0370 -0.3338  0.0017
 3006SOL     OW20476   0.317   3.625   2.145  0.1590 -0.0464  0.1404
 3006SOL    HW120477   0.314   3.568   2.221  1.3313  0.9006  0.8919
 3006SOL    HW220478   0.369   3.700   2.172  0.3819 -0.0305 -0.3279
 3007SOL     OW20479   3.915   2.169   4.665  0.2734  0.0369  0.4049
 3007SOL    HW120480   4.000   2.164   4.622  0.5020  0.9215  0.7647
 3007SOL    HW220481   3.896   2.077   4.686  1.1345 -0.3796 -0.6268
 3008SOL     OW20482   2.583   3.419   5.359 -0.3035  0.0741  0.2675
 3008SOL    HW120483   2.495   3.383   5.359 -0.8886  1.4870  2.6602
 3008SOL    HW220484   2.550   3.508   5.376  0.0510  0.1282  0.6786
 3009SOL     OW20485   0.541   2.273   8.962 -0.3586 -0.1268  0.0264
 3009SOL    HW120486   0.562   2.261   8.869  1.5358 -1.3020  0.6095
 3009SOL    HW220487   0.626   2.264   9.004  0.0672  2.3838 -0.2886
 3010SOL     OW20488   1.625   4.359   7.601 -0.5134 -0.0041 -0.5145
 3010SOL    HW120489   1.621   4.382   7.509 -1.2389 -0.1665 -0.5245
 3010SOL    HW220490   1.719   4.355   7.622 -1.0051 -1.0783  1.5205
 3011SOL     OW20491   1.899   0.371   6.077 -0.2751 -0.9296 -0.2415
 3011SOL    HW120492   1.906   0.311   6.151  0.1875 -1.7813 -0.9791
 3011SOL    HW220493   1.872   0.306   6.012  0.2712 -1.2914 -0.1034
 3012SOL     OW20494   4.025   2.597  10.419  0.7242 -0.5930  0.2847
 3012SOL    HW120495   4.112   2.560  10.407  0.7236 -0.1620 -0.9780
 3012SOL    HW220496   3.997   2.563  10.505  2.7427 -3.1319 -0.0642
 3013SOL     OW20497   2.669   4.067   6.775 -0.0735 -1.1970  0.1334
 3013SOL    HW120498   2.637   4.133   6.836 -0.6657 -2.0429  0.7256
 3013SOL    HW220499   2.721   4.006   6.827 -1.1104 -2.2609 -0.0770
 3014SOL     OW20500   3.116   2.675  17.452 -0.1146  0.7035 -0.4665
 3014SOL    HW120501   3.116   2.642  17.362 -0.5101  0.5034 -0.3956
 3014SOL    HW220502   3.162   2.601  17.492  0.0822 -0.3134 -2.5478
 3015SOL     OW20503   1.139   2.789   3.018  0.3161  0.3084 -0.0371
 3015SOL    HW120504   1.138   2.741   3.101 -0.2695  0.7725  0.2178
 3015SOL    HW220505   1.045   2.798   3.005  0.5356  2.0329 -0.3945
 3016SOL     OW20506   3.203   1.921   0.390  0.0937  0.2764  0.6981
 3016SOL    HW120507   3.186   1.838   0.434  1.6588  0.4929  1.7218
 3016SOL    HW220508   3.120   1.967   0.401 -0.6623 -1.4580  2.1973
 3017SOL     OW20509   3.090   3.389   5.874  0.0973 -0.6033  0.0184
 3017SOL    HW120510   3.055   3.362   5.959 -0.7956 -0.0293 -0.1753
 3017SOL    HW220511   3.138   3.308   5.855  1.4025 -0.2566  1.8604
 3018SOL     OW20512   1.431   4.664   0.387  0.2642  0.1912  0.3542
 3018SOL    HW120513   1.443   4.577   0.424  1.8331  0.2285 -0.0756
 3018SOL    HW220514   1.496   4.665   0.317 -1.0914 -1.5540 -0.9366
 3019SOL     OW20515   0.799   0.969   4.712 -0.4849 -0.4307 -0.6624
 3019SOL    HW120516   0.849   1.039   4.755  1.9863 -3.7195  1.9044
 3019SOL    HW220517   0.760   1.011   4.636 -0.5548 -1.8580 -1.4294
 3020SOL     OW20518   1.093   1.505  11.141  0.2600 -0.4914 -0.5106
 3020SOL    HW120519   1.020   1.502  11.078 -1.3382 -2.2416  1.4387
 3020SOL    HW220520   1.105   1.411  11.152 -0.7847 -0.8135 -2.0175
 3021SOL     OW20521   3.020   2.955  10.627 -0.4472 -0.3692 -0.2248
 3021SOL    HW120522   2.944   2.901  10.607 -0.0005 -0.4216 -1.7540
 3021SOL    HW220523   3.091   2.902  10.590 -2.4951 -1.3199 -2.7624
 3022SOL     OW20524   4.242   0.896   7.215 -0.3017 -0.1229 -0.0068
 3022SOL    HW120525   4.238   0.888   7.310  1.7958 -1.9954 -0.0816
 3022SOL    HW220526   4.246   0.807   7.180  1.2635 -1.1357  2.7727
 3023SOL     OW20527   0.008   2.711  10.733  0.0621  0.3859  0.4277
 3023SOL    HW120528   0.020   2.797  10.692  2.2024 -0.7617 -1.3375
 3023SOL    HW220529   4.662   2.676  10.681  2.4928 -0.3944 -2.4370
 3024SOL     OW20530   3.491   2.955   0.935  0.2456 -0.3455  0.3646
 3024SOL    HW120531   3.533   2.916   1.012 -0.4655  1.6424  1.7428
 3024SOL    HW220532   3.473   2.883   0.874 -2.0121  0.3126  0.2404
 3025SOL     OW20533   4.310   1.587  16.076  0.4089 -0.3996  0.1563
 3025SOL    HW120534   4.373   1.659  16.078 -0.4278  0.3746 -1.5243
 3025SOL    HW220535   4.358   1.507  16.098  1.7134  0.5517  0.7833
 3026SOL     OW20536   2.690   0.646   8.082  0.0896  0.1924 -0.3134
 3026SOL    HW120537   2.607   0.681   8.050  0.0695  0.2934 -0.1482
 3026SOL    HW220538   2.747   0.718   8.057 -0.4428  0.1939 -1.5128
 3027SOL     OW20539   1.258   1.792   5.696  0.1648  0.6779 -0.1331
 3027SOL    HW120540   1.189   1.725   5.696 -0.0634  0.9106 -0.2554
 3027SOL    HW220541   1.284   1.792   5.788  1.2347 -1.5880 -0.4361
 3028SOL     OW20542   0.320   3.879   2.493 -0.4484 -0.0833  0.2704
 3028SOL    HW120543   0.315   3.915   2.581 -0.1108  0.5681  0.0260
 3028SOL    HW220544   0.406   3.907   2.462 -1.7492  1.3283 -2.0901
 3029SOL     OW20545   2.476   3.325   8.841 -0.4997  0.1728  0.1319
 3029SOL    HW120546   2.415   3.390   8.875 -0.3892 -0.4525  1.5177
 3029SOL    HW220547   2.502   3.274   8.918  0.6566 -0.6916 -0.8285
 3030SOL     OW20548   0.803   1.312  13.359  0.0709  0.8999 -0.1488
 3030SOL    HW120549   0.854   1.321  13.439 -0.6956 -0.1652  0.4536
 3030SOL    HW220550   0.873   1.275  13.304  0.8209  3.2185 -0.7594
 3031SOL     OW20551   0.150   3.376   7.296 -0.0120  0.5149  0.0152
 3031SOL    HW120552   0.061   3.412   7.291  1.7739  4.5459 -2.9665
 3031SOL    HW220553   0.199   3.443   7.343  0.6011 -0.3778  0.6462
 3032SOL     OW20554   2.811   0.845  14.946  0.2087 -0.3933 -0.3469
 3032SOL    HW120555   2.798   0.939  14.934  0.3269 -0.0752  2.0250
 3032SOL    HW220556   2.792   0.805  14.861  2.4508  0.5967 -1.3154
 3033SOL     OW20557   0.604   3.992   8.181 -0.5461  0.8032 -0.3090
 3033SOL    HW120558   0.538   3.962   8.243 -1.2092 -0.8787 -1.8418
 3033SOL    HW220559   0.612   3.919   8.121  0.4812  1.4580 -0.9726
 3034SOL     OW20560   0.344   1.996   9.275  0.2147 -0.1528  0.1203
 3034SOL    HW120561   0.361   2.068   9.336  3.0428 -0.7439  0.0315
 3034SOL    HW220562   0.328   2.048   9.197  2.2682  3.1829  1.9100
 3035SOL     OW20563   0.060   1.086   3.504  0.4542 -0.5839  0.3095
 3035SOL    HW120564   0.068   1.176   3.538 -0.2705  0.0865 -1.2911
 3035SOL    HW220565   0.151   1.065   3.481  0.1967 -1.0640 -0.2690
 3036SOL     OW20566   1.619   2.750   6.784 -0.2719 -0.1996  0.0997
 3036SOL    HW120567   1.697   2.792   6.822 -1.7489  1.1812  1.5992
 3036SOL    HW220568   1.557   2.813   6.820 -0.5495  1.0602 -2.5210
 3037SOL     OW20569   1.088   3.431   8.387 -0.0025  0.2734  0.4717
 3037SOL    HW120570   1.082   3.375   8.464  0.6998  0.6291  0.7754
 3037SOL    HW220571   1.181   3.450   8.377 -0.2561  1.6253  0.6969
 3038SOL     OW20572   4.391   0.985   8.783  0.0546 -0.1133 -0.3014
 3038SOL    HW120573   4.357   1.074   8.792 -3.1896 -1.4346  0.3216
 3038SOL    HW220574   4.342   0.950   8.709  2.4197 -2.6696 -0.6532
 3039SOL     OW20575   4.131   3.868   8.187  0.2160  0.5311 -0.8306
 3039SOL    HW120576   4.192   3.797   8.206  0.4004  0.7528 -0.6032
 3039SOL    HW220577   4.103   3.837   8.100 -2.4204 -1.5363  0.7494
 3040SOL     OW20578   2.960   0.716   2.973 -0.6289 -0.2601  0.4610
 3040SOL    HW120579   2.908   0.768   3.033 -1.8282 -1.0408  0.1051
 3040SOL    HW220580   2.900   0.642   2.965 -1.3072  0.2287  1.1237
 3041SOL     OW20581   0.191   2.994   3.565 -0.2863  0.0184 -0.1603
 3041SOL    HW120582   0.177   3.087   3.548 -0.6245  0.0100  0.0738
 3041SOL    HW220583   0.158   2.974   3.652 -1.2894  1.0036 -0.3198
 3042SOL     OW20584   0.581   2.254   4.509 -0.2391 -0.2122  0.6360
 3042SOL    HW120585   0.597   2.167   4.473 -0.8480 -0.0256 -0.1082
 3042SOL    HW220586   0.503   2.233   4.560 -1.0847  3.1377  0.7165
 3043SOL     OW20587   4.381   1.183   2.675  0.3852  0.0907 -0.2109
 3043SOL    HW120588   4.337   1.206   2.593  0.9826 -0.5674 -0.7144
 3043SOL    HW220589   4.459   1.141   2.638  0.9137  0.3183  0.6617
 3044SOL     OW20590   2.232   2.409  12.812  0.4555  0.1166 -0.2108
 3044SOL    HW120591   2.261   2.339  12.753 -2.1644 -1.3969  0.2660
 3044SOL    HW220592   2.264   2.484  12.761  1.6640  0.3370  0.8919
 3045SOL     OW20593   3.701   1.071   8.978 -0.5325  0.5742  0.1051
 3045SOL    HW120594   3.619   1.034   8.944 -1.2260  0.5784  1.7594
 3045SOL    HW220595   3.751   0.991   8.997  1.2777  1.3596 -1.3959
 3046SOL     OW20596   0.192   2.024   3.268 -0.2068 -0.3686  0.7149
 3046SOL    HW120597   0.126   1.956   3.281 -0.8596  0.1336 -0.0077
 3046SOL    HW220598   0.270   1.971   3.250  0.1049  0.7632 -1.1992
 3047SOL     OW20599   0.968   0.706   2.870 -0.6866 -0.4017 -0.3925
 3047SOL    HW120600   0.984   0.675   2.781  0.4232  1.5561 -0.8814
 3047SOL    HW220601   1.044   0.671   2.916 -0.5145  0.2483 -0.1871
 3048SOL     OW20602   3.181   2.365   6.578 -0.0999 -0.8366  0.7682
 3048SOL    HW120603   3.215   2.277   6.563 -1.5956 -1.0330 -1.5260
 3048SOL    HW220604   3.111   2.375   6.513  1.0924  0.3234 -0.3634
 3049SOL     OW20605   0.376   4.710   1.130 -0.1179 -0.3261 -0.2692
 3049SOL    HW120606   0.379   0.037   1.210 -0.3623 -1.0079  0.1990
 3049SOL    HW220607   0.281   4.703   1.120 -0.0371 -1.3182 -0.3729
 3050SOL     OW20608   2.322   1.472   4.280  0.0280  0.0850 -0.2899
 3050SOL    HW120609   2.290   1.443   4.194  0.7052 -1.3556 -0.0524
 3050SOL    HW220610   2.257   1.427   4.334 -0.0618  0.9317  0.3026
 3051SOL     OW20611   0.871   4.110   6.577  0.1326 -0.4599 -0.1770
 3051SOL    HW120612   0.910   4.116   6.490  0.7807 -2.8717 -0.0432
 3051SOL    HW220613   0.778   4.103   6.555 -0.2481  1.8515  0.7652
 3052SOL     OW20614   4.381   1.350   2.161  0.2600 -0.4443 -0.3017
 3052SOL    HW120615   4.411   1.274   2.210 -1.8995  0.4873  2.4472
 3052SOL    HW220616   4.354   1.306   2.080 -2.7837  1.2596 -0.2255
 3053SOL     OW20617   0.490   4.510   7.989  0.0760 -0.3379 -0.1397
 3053SOL    HW120618   0.410   4.552   7.957 -1.4866 -0.4392  3.6220
 3053SOL    HW220619   0.503   4.431   7.936 -0.8573  0.2993 -1.3083
 3054SOL     OW20620   2.132   2.123   6.165 -0.2639 -0.0590  0.1321
 3054SOL    HW120621   2.221   2.101   6.139 -0.4907 -0.0416 -0.6760
 3054SOL    HW220622   2.086   2.126   6.081 -2.7121  3.1184  1.5829
 3055SOL     OW20623   2.257   3.021  16.991  0.4179  0.0612 -0.0520
 3055SOL    HW120624   2.194   2.988  16.927  1.9979 -1.8522 -0.6060
 3055SOL    HW220625   2.338   3.027  16.940 -1.3803  1.4189 -2.7613
 3056SOL     OW20626   4.090   1.752   3.174  0.7005 -0.1405  0.5064
 3056SOL    HW120627   4.104   1.693   3.248  0.3904 -0.6546  0.1580
 3056SOL    HW220628   4.038   1.825   3.207 -1.8057 -1.4347 -0.5470
 3057SOL     OW20629   3.182   2.534   0.773  0.0990 -0.4048  0.7874
 3057SOL    HW120630   3.235   2.522   0.695 -2.2766  2.0987 -1.2214
 3057SOL    HW220631   3.106   2.582   0.741  0.4731 -3.1285 -4.2431
 3058SOL     OW20632   3.954   0.529   0.440 -0.0952 -0.1750 -0.8236
 3058SOL    HW120633   3.930   0.573   0.359 -1.0196  0.1378 -0.3822
 3058SOL    HW220634   3.975   0.443   0.404  1.7093 -0.7767  1.6063
 3059SOL     OW20635   2.354   4.393   4.582 -0.4606 -0.1590  0.2078
 3059SOL    HW120636   2.272   4.428   4.618 -0.1180  0.8319  0.0283
 3059SOL    HW220637   2.341   4.403   4.488  0.4419  2.0197  0.3178
 3060SOL     OW20638   2.975   4.677   1.188  0.3728  0.2533  0.2577
 3060SOL    HW120639   3.033   4.713   1.120  0.1410 -0.1572 -0.1592
 3060SOL    HW220640   2.899   0.006   1.173  1.8602  2.0121 -0.7504
 3061SOL     OW20641   1.103   1.714  17.668  0.4749 -0.2013  0.0449
 3061SOL    HW120642   1.080   1.759  17.587  2.8693  0.6715 -0.1532
 3061SOL    HW220643   1.196   1.697  17.676  0.8301  1.2918 -0.8543
 3062SOL     OW20644   0.177   2.836   2.768  0.4297 -0.3203  0.0750
 3062SOL    HW120645   0.233   2.768   2.805  0.4301 -0.7331 -0.6856
 3062SOL    HW220646   0.137   2.788   2.695 -0.1252  1.0900 -0.5367
 3063SOL     OW20647   3.235   3.916   3.411  0.8106 -1.0932 -0.0372
 3063SOL    HW120648   3.224   4.010   3.401  0.4383 -1.1661 -0.2978
 3063SOL    HW220649   3.145   3.890   3.429 -0.2830  0.8796 -2.7024
 3064SOL     OW20650   3.945   0.368   2.576 -0.3139 -0.5757  0.3507
 3064SOL    HW120651   3.973   0.278   2.558 -2.1338 -1.3827  1.5039
 3064SOL    HW220652   4.010   0.409   2.633 -0.9586 -1.7622  1.9308
 3065SOL     OW20653   2.566   0.191   7.265  0.0062  0.1731  0.3217
 3065SOL    HW120654   2.648   0.197   7.215 -0.2683 -1.7475 -0.3629
 3065SOL    HW220655   2.501   0.193   7.196  1.2938  0.3114 -0.8957
 3066SOL     OW20656   0.734   2.385   8.608  0.3686  0.0159  0.3416
 3066SOL    HW120657   0.709   2.296   8.635  1.3660 -1.0134 -2.0927
 3066SOL    HW220658   0.679   2.396   8.530 -0.2460  1.4090  0.9774
 3067SOL     OW20659   3.217   2.458  11.037 -0.0830 -0.0146 -0.2828
 3067SOL    HW120660   3.207   2.424  10.948 -1.3058  0.4247 -0.3161
 3067SOL    HW220661   3.312   2.456  11.044 -0.1313  1.4544  0.8269
 3068SOL     OW20662   0.293   3.874  11.454  0.1914 -0.2155 -0.5915
 3068SOL    HW120663   0.324   3.802  11.509  2.0537  0.0606 -1.2832
 3068SOL    HW220664   0.286   3.949  11.514  1.0390  0.3715 -1.2200
 3069SOL     OW20665   3.740   4.609   7.911 -0.0667  0.0851  0.1987
 3069SOL    HW120666   3.663   4.653   7.947 -0.4388  0.7625 -1.3900
 3069SOL    HW220667   3.772   4.580   7.996 -1.2401 -2.4961 -0.2382
 3070SOL     OW20668   3.242   2.553  14.715 -0.0728  0.0314 -0.1522
 3070SOL    HW120669   3.158   2.537  14.758  0.2430 -0.8272  0.1340
 3070SOL    HW220670   3.224   2.607  14.638 -1.2416 -1.1143 -0.6672
 3071SOL     OW20671   3.967   4.053   3.486 -0.3166  0.2739 -0.0076
 3071SOL    HW120672   3.932   3.975   3.528 -0.7542  0.9111  0.8086
 3071SOL    HW220673   4.025   4.082   3.556  0.8049 -0.6633 -0.5468
 3072SOL     OW20674   0.206   0.133  15.566  0.2016 -0.5340  0.5331
 3072SOL    HW120675   0.259   0.177  15.500  1.4815 -1.2124  1.0895
 3072SOL    HW220676   0.256   0.051  15.571 -0.2620 -0.8844 -0.7563
 3073SOL     OW20677   4.284   2.711   3.141  0.1035  0.2255 -0.1192
 3073SOL    HW120678   4.216   2.682   3.081 -0.4376  1.6656 -0.2011
 3073SOL    HW220679   4.353   2.754   3.091  0.0976  0.5067  0.1123
 3074SOL     OW20680   2.430   4.442   7.831 -0.6514  0.2569  0.3608
 3074SOL    HW120681   2.454   4.527   7.868  0.6673 -0.0453  0.2152
 3074SOL    HW220682   2.339   4.469   7.828 -0.7523 -0.3960 -2.1960
 3075SOL     OW20683   3.348   0.845   3.458  0.3324 -0.0349 -0.0680
 3075SOL    HW120684   3.399   0.924   3.438 -2.3216  2.1323  1.6915
 3075SOL    HW220685   3.331   0.854   3.552 -1.2214 -1.3625 -0.2330
 3076SOL     OW20686   1.431   4.031   6.903 -0.2016  0.4500  0.6190
 3076SOL    HW120687   1.460   4.025   6.994 -2.4356  0.4224  1.3294
 3076SOL    HW220688   1.417   4.126   6.903 -1.8200  0.2063  1.9605
 3077SOL     OW20689   0.907   3.294   3.182  0.3172  0.2282  0.4777
 3077SOL    HW120690   0.970   3.225   3.160 -2.7211 -2.4467  0.1765
 3077SOL    HW220691   0.861   3.249   3.253  1.5906 -1.3932  0.2751
 3078SOL     OW20692   1.815   1.490   4.649  0.4041  0.3170 -0.2062
 3078SOL    HW120693   1.852   1.566   4.693 -1.5637  0.4434  1.2514
 3078SOL    HW220694   1.766   1.524   4.575  0.4652  0.1897 -0.3048
 3079SOL     OW20695   4.040   2.920   6.998  0.1328 -0.3750 -0.3899
 3079SOL    HW120696   3.991   2.852   6.951 -1.0044  1.7080 -2.2645
 3079SOL    HW220697   4.019   2.985   6.931 -0.8341 -1.5398 -1.2354
 3080SOL     OW20698   4.071   0.120   4.452 -0.2878  1.0174  0.0394
 3080SOL    HW120699   4.066   0.174   4.531 -1.9271  1.4009 -0.3283
 3080SOL    HW220700   4.163   0.135   4.428  0.1296 -0.9083  0.4136
 3081SOL     OW20701   2.158   0.629   6.072 -0.0458  0.7302  0.0444
 3081SOL    HW120702   2.069   0.662   6.077 -1.3398 -2.3205 -2.2572
 3081SOL    HW220703   2.167   0.616   5.977  1.0582  1.3771  0.0650
 3082SOL     OW20704   0.150   2.728   1.280 -0.0977 -0.2330  0.1550
 3082SOL    HW120705   0.170   2.640   1.250  1.1067 -0.8495  2.7485
 3082SOL    HW220706   0.221   2.739   1.343  1.6395 -0.0876 -1.8233
 3083SOL     OW20707   3.935   3.917   8.933 -0.1706 -0.4490  0.2258
 3083SOL    HW120708   3.859   3.922   8.875  0.0300  0.6294  0.0468
 3083SOL    HW220709   3.917   3.993   8.989 -0.5486  0.8218 -1.6198
 3084SOL     OW20710   3.760   3.607  14.283 -0.1918  0.0859  0.6812
 3084SOL    HW120711   3.723   3.519  14.277  1.9706 -0.6845 -1.4986
 3084SOL    HW220712   3.728   3.636  14.198  1.8028  1.5143  0.4093
 3085SOL     OW20713   0.121   3.428   6.838  0.4241 -0.0594  0.0372
 3085SOL    HW120714   0.087   3.514   6.865 -3.1496 -1.2755 -0.5980
 3085SOL    HW220715   0.162   3.460   6.757  0.5611  0.7819  0.4337
 3086SOL     OW20716   1.418   3.437   3.916 -0.2406  0.4689 -0.4777
 3086SOL    HW120717   1.374   3.416   3.998 -1.3107  1.6331 -0.7549
 3086SOL    HW220718   1.420   3.531   3.933  2.1433  0.2480  0.5666
 3087SOL     OW20719   0.376   2.359   7.125 -0.2254 -0.0716 -0.4843
 3087SOL    HW120720   0.286   2.365   7.092 -0.1347  2.6675 -0.2448
 3087SOL    HW220721   0.357   2.363   7.218  0.7942  1.3674 -0.3432
 3088SOL     OW20722   0.960   4.541   6.689 -0.2931 -0.6006  0.2735
 3088SOL    HW120723   1.029   4.565   6.751 -0.6362  0.0619  0.3884
 3088SOL    HW220724   0.904   4.618   6.695 -1.1119 -1.1724 -0.0242
 3089SOL     OW20725   0.884   0.788   3.575  0.2082  0.1432 -0.3189
 3089SOL    HW120726   0.898   0.693   3.576 -1.0710 -0.0522 -0.2804
 3089SOL    HW220727   0.871   0.807   3.482  1.2676 -0.9108 -0.6820
 3090SOL     OW20728   3.005   1.098   4.454 -0.1041 -0.2513 -0.0063
 3090SOL    HW120729   2.975   1.037   4.522  2.1127 -2.2206 -0.7898
 3090SOL    HW220730   2.917   1.134   4.446 -1.2335 -2.5881  1.7486
 3091SOL     OW20731   4.328   2.503   8.145  0.2578  0.2792  0.4927
 3091SOL    HW120732   4.316   2.526   8.237 -1.9577 -1.3275  0.6077
 3091SOL    HW220733   4.264   2.557   8.098 -1.4727 -0.9147  1.4819
 3092SOL     OW20734   4.568   1.864  12.958 -0.5149 -0.6607 -0.2142
 3092SOL    HW120735   4.594   1.928  12.892 -0.2024 -2.0696 -1.4620
 3092SOL    HW220736   4.478   1.891  12.980  0.1639  2.5204 -1.3196
 3093SOL     OW20737   3.047   0.227   0.247 -0.7203 -0.1260 -0.1862
 3093SOL    HW120738   2.960   0.266   0.241  0.1262  1.7188 -0.5818
 3093SOL    HW220739   3.043   0.200   0.339  1.0503 -0.0128 -0.0685
 3094SOL     OW20740   0.774   0.107   7.388 -0.1398 -0.1485 -0.4935
 3094SOL    HW120741   0.803   0.160   7.463  1.1568 -0.4716 -0.7593
 3094SOL    HW220742   0.714   0.048   7.434 -2.0953  2.5914  0.4619
 3095SOL     OW20743   0.610   1.715   8.022 -0.0298 -0.3550 -0.2993
 3095SOL    HW120744   0.543   1.689   8.086 -4.4274  3.7485 -3.2660
 3095SOL    HW220745   0.655   1.632   8.007  1.0098  0.0722  0.4227
 3096SOL     OW20746   0.463   0.942   6.460  0.3859  0.5633 -0.0186
 3096SOL    HW120747   0.404   0.873   6.432  0.6022  0.2620  0.2757
 3096SOL    HW220748   0.545   0.893   6.468 -0.0543  0.1344  1.7512
 3097SOL     OW20749   0.081   0.990  11.496  0.4730 -0.8695  0.4972
 3097SOL    HW120750   0.168   1.031  11.500 -1.5259  3.7765 -3.1089
 3097SOL    HW220751   0.095   0.940  11.576  1.9971  0.8530  1.3109
 3098SOL     OW20752   0.349   4.457   6.042  0.2234  0.2937 -0.5114
 3098SOL    HW120753   0.265   4.421   6.070 -0.7238  1.2518 -2.1707
 3098SOL    HW220754   0.353   4.531   6.103 -1.2412 -1.8806  2.2520
 3099SOL     OW20755   1.830   1.276   3.973  0.2392 -0.0408  0.6081
 3099SOL    HW120756   1.768   1.207   3.954  0.3416  0.5620 -1.8634
 3099SOL    HW220757   1.917   1.236   3.971  0.6263  0.8573 -0.5795
 3100SOL     OW20758   3.242   2.769  15.170 -0.1030 -0.1047 -0.2474
 3100SOL    HW120759   3.252   2.802  15.080 -2.0201 -1.7880 -1.0739
 3100SOL    HW220760   3.273   2.845  15.219  0.9176  1.5182 -3.4022
 3101SOL     OW20761   1.372   4.613  17.152 -0.4499  0.5947  0.3806
 3101SOL    HW120762   1.326   4.645  17.075 -0.2940  3.4230  1.4742
 3101SOL    HW220763   1.315   4.537  17.165 -2.5358  1.9799 -0.7677
 3102SOL     OW20764   4.033   2.784   6.269  0.0307  0.1022  0.4964
 3102SOL    HW120765   4.047   2.810   6.360 -0.7066  0.3826  0.5271
 3102SOL    HW220766   4.087   2.705   6.257 -1.6484 -0.4922 -3.1231
 3103SOL     OW20767   1.115   3.383   5.619 -0.4897  0.0025  0.2694
 3103SOL    HW120768   1.096   3.477   5.611 -0.0534  0.1411  0.8530
 3103SOL    HW220769   1.092   3.370   5.711  0.4483  1.4631  0.7108
 3104SOL     OW20770   3.000   3.811   3.556 -0.7340  0.2752 -0.1848
 3104SOL    HW120771   2.970   3.740   3.499 -0.4186 -0.7426  0.9103
 3104SOL    HW220772   2.981   3.769   3.640 -0.0785  2.2446  0.9449
 3105SOL     OW20773   1.516   2.807   0.023  0.3227 -0.0440 -0.2359
 3105SOL    HW120774   1.600   2.850   0.007  0.4472  0.4653  1.6879
 3105SOL    HW220775   1.540   2.762   0.105  0.5866  1.2148  0.3787
 3106SOL     OW20776   0.725   2.799   3.940  0.1226 -0.7413 -0.2746
 3106SOL    HW120777   0.700   2.770   3.852 -2.2951 -0.3268  0.2832
 3106SOL    HW220778   0.681   2.733   3.993 -0.9558 -1.7936 -2.4394
 3107SOL     OW20779   1.690   1.434   1.705  0.0263 -0.6058  0.2650
 3107SOL    HW120780   1.773   1.416   1.660 -1.0747  0.3088 -2.1491
 3107SOL    HW220781   1.664   1.513   1.657 -0.0414 -0.2801  0.8359
 3108SOL     OW20782   0.440   3.957   1.911 -0.1837  0.6383 -0.3620
 3108SOL    HW120783   0.461   4.018   1.840  1.6940  1.5581  0.9914
 3108SOL    HW220784   0.362   3.925   1.864 -0.5523  1.5341 -0.3560
 3109SOL     OW20785   2.960   0.220   5.931  0.3988 -0.1705  0.1491
 3109SOL    HW120786   2.968   0.131   5.964 -0.3306  0.4285  1.9124
 3109SOL    HW220787   2.914   0.259   6.005 -0.9284  1.6619 -1.6277
 3110SOL     OW20788   4.145   4.184   3.664  0.0724 -0.0117  0.3880
 3110SOL    HW120789   4.116   4.224   3.746 -0.4418 -0.2097  0.3073
 3110SOL    HW220790   4.156   4.265   3.615 -3.3747  1.1292  1.4600
 3111SOL     OW20791   3.273   3.370   7.848  0.2285  0.4917  0.1908
 3111SOL    HW120792   3.281   3.415   7.764  2.3534 -0.3621 -0.0525
 3111SOL    HW220793   3.307   3.433   7.910  2.4563 -0.0443 -0.4912
 3112SOL     OW20794   2.940   1.908   7.405  0.1650 -0.1022 -0.1449
 3112SOL    HW120795   2.981   1.995   7.413 -0.3216  0.0870  0.3133
 3112SOL    HW220796   3.011   1.854   7.441  0.1605 -0.3243 -0.4792
 3113SOL     OW20797   0.089   0.843   0.204  0.4363  0.3650 -0.4439
 3113SOL    HW120798   4.723   0.830   0.225 -0.0563  2.1133 -1.6026
 3113SOL    HW220799   0.112   0.935   0.201 -0.1557  0.5431  0.4261
 3114SOL     OW20800   2.689   2.907   5.289 -0.3279  0.6572  0.2596
 3114SOL    HW120801   2.716   2.859   5.367  0.5419  0.7786  0.0359
 3114SOL    HW220802   2.721   2.993   5.317 -0.1229  0.9261 -0.7798
 3115SOL     OW20803   4.108   2.733   8.290 -0.1085  0.2659  0.5558
 3115SOL    HW120804   4.172   2.802   8.308  0.9360  0.3058 -3.2073
 3115SOL    HW220805   4.039   2.758   8.351 -0.1381 -1.7602  1.3423
 3116SOL     OW20806   2.960   0.531  16.138  0.1516 -0.6063  0.1401
 3116SOL    HW120807   2.970   0.539  16.233 -2.6986  0.8611  0.3238
 3116SOL    HW220808   2.866   0.551  16.135  0.3386 -0.1710 -2.8282
 3117SOL     OW20809   1.495   2.775   5.586 -0.3142 -0.5804 -0.5319
 3117SOL    HW120810   1.423   2.792   5.525 -1.4253  1.3187  1.3021
 3117SOL    HW220811   1.486   2.681   5.575 -0.7899 -0.7145  1.0681
 3118SOL     OW20812   1.656   1.042   1.267 -0.1495 -0.2976 -0.1094
 3118SOL    HW120813   1.666   1.112   1.332 -0.7958  0.1574 -0.4951
 3118SOL    HW220814   1.614   1.085   1.192  2.1293  2.5037  0.2307
 3119SOL     OW20815   4.224   3.814   7.260 -0.5766  0.6667  0.3694
 3119SOL    HW120816   4.317   3.808   7.284 -0.7975  1.7648  1.4901
 3119SOL    HW220817   4.222   3.749   7.190  1.4028  1.3411 -0.3247
 3120SOL     OW20818   0.872   2.303  11.240 -0.3323 -0.0658 -0.1221
 3120SOL    HW120819   0.852   2.325  11.331 -1.7251 -1.5945 -0.0486
 3120SOL    HW220820   0.966   2.318  11.233 -0.2788 -0.7993 -0.9416
 3121SOL     OW20821   3.946   1.646   2.052  0.0833 -0.7072 -0.2404
 3121SOL    HW120822   3.893   1.572   2.021 -1.3208  0.2092 -0.0550
 3121SOL    HW220823   3.983   1.683   1.972  1.1889  0.0107  0.6104
 3122SOL     OW20824   2.975   1.405   0.872  0.3566 -0.1426 -0.0409
 3122SOL    HW120825   3.006   1.400   0.781 -1.1301  3.1268 -0.6924
 3122SOL    HW220826   2.974   1.310   0.887 -3.2046 -0.1571 -0.4352
 3123SOL     OW20827   2.932   2.520   9.769 -0.2673 -0.1621 -0.5608
 3123SOL    HW120828   2.953   2.535   9.861  2.2790  2.1630 -1.5174
 3123SOL    HW220829   2.863   2.585   9.758 -1.4851 -1.7424 -2.2889
 3124SOL     OW20830   2.816   0.277   5.015  0.0249  0.3971 -0.1991
 3124SOL    HW120831   2.823   0.192   4.971  2.6055  0.8078 -0.5751
 3124SOL    HW220832   2.833   0.254   5.106  2.3029  0.7163 -0.5457
 3125SOL     OW20833   0.974   1.179   2.798  0.9642 -0.2355  0.1793
 3125SOL    HW120834   0.935   1.193   2.885  0.8790  2.4896 -0.3103
 3125SOL    HW220835   1.069   1.180   2.811  1.1307  2.5592 -1.3229
 3126SOL     OW20836   0.073   0.034   3.551  0.4738  0.1403 -0.4364
 3126SOL    HW120837   0.128   0.074   3.618  0.4697 -1.8580  0.7666
 3126SOL    HW220838   0.076   0.095   3.478 -1.8042  1.6321  0.7137
 3127SOL     OW20839   1.895   0.361   1.766  0.0223 -0.3636  0.2036
 3127SOL    HW120840   1.814   0.332   1.808 -0.5399  0.9461  0.0127
 3127SOL    HW220841   1.854   0.391   1.685  4.0205  1.8048 -1.0486
 3128SOL     OW20842   3.364   0.627   6.175  1.2166  0.6987  0.3938
 3128SOL    HW120843   3.395   0.708   6.216  1.2778  2.2389 -2.6390
 3128SOL    HW220844   3.408   0.645   6.092 -0.0375  0.1683 -0.3847
 3129SOL     OW20845   2.795   3.310   8.843  0.0270 -0.6210  0.0071
 3129SOL    HW120846   2.718   3.310   8.900 -0.9520  1.6494 -1.3351
 3129SOL    HW220847   2.800   3.218   8.816  0.6763 -0.0217 -1.9038
 3130SOL     OW20848   3.307   1.648  15.265  0.1862  0.2342 -0.4202
 3130SOL    HW120849   3.331   1.706  15.193  0.1604  1.1807  0.3246
 3130SOL    HW220850   3.282   1.563  15.227 -1.0939 -0.1434  1.2543
 3131SOL     OW20851   1.035   0.753   6.574 -0.5082  0.3461  0.0994
 3131SOL    HW120852   1.078   0.758   6.489 -1.8715  0.1447 -0.6100
 3131SOL    HW220853   1.104   0.709   6.623  0.3747  1.7891  0.1275
 3132SOL     OW20854   3.691   4.625   8.330  0.1015  0.5890  0.7826
 3132SOL    HW120855   3.704   4.637   8.424  1.7394  0.6228  0.5442
 3132SOL    HW220856   3.596   4.614   8.332  0.2855 -1.3917 -1.3124
 3133SOL     OW20857   0.429   0.842   8.999  0.1216  0.2065  0.1816
 3133SOL    HW120858   0.499   0.855   8.935  0.8296 -0.0395  0.9043
 3133SOL    HW220859   0.438   0.925   9.045  2.0779  0.5471 -0.7789
 3134SOL     OW20860   0.802   0.466   6.012  0.0175 -0.4690  0.2134
 3134SOL    HW120861   0.810   0.518   6.093  1.4736  0.1343 -0.3323
 3134SOL    HW220862   0.839   0.529   5.950  0.9626 -1.1789  0.0592
 3135SOL     OW20863   4.143   2.602  17.151  0.2661  0.8431 -0.1958
 3135SOL    HW120864   4.060   2.566  17.121  0.6751 -2.3717  2.4899
 3135SOL    HW220865   4.119   2.694  17.163 -1.5566  0.3102  0.3126
 3136SOL     OW20866   3.946   3.045   3.395 -0.3044  0.6882 -0.2222
 3136SOL    HW120867   3.909   2.970   3.349 -0.4122  0.7619 -0.2568
 3136SOL    HW220868   3.865   3.086   3.428 -0.6843 -1.3637  1.3964
 3137SOL     OW20869   1.008   2.012  10.803  0.2289 -0.6118 -0.3076
 3137SOL    HW120870   1.029   1.964  10.883 -0.0001 -0.4693 -0.1615
 3137SOL    HW220871   1.090   2.025  10.755  0.6807  0.5904  0.7931
 3138SOL     OW20872   0.731   1.542   6.103 -0.1796  0.0083  0.0010
 3138SOL    HW120873   0.803   1.605   6.097 -0.9337  0.7446 -1.4072
 3138SOL    HW220874   0.655   1.590   6.135 -0.6985  0.2852 -1.6683
 3139SOL     OW20875   0.266   2.553   6.433  0.0373  0.7524 -0.0356
 3139SOL    HW120876   0.341   2.494   6.440 -1.2638 -0.8344  0.7038
 3139SOL    HW220877   0.230   2.533   6.520 -0.4856  3.9969  0.5145
 3140SOL     OW20878   1.009   2.221   4.452 -0.9222  0.5242 -0.4479
 3140SOL    HW120879   0.975   2.233   4.364  1.3478  0.0066 -1.4040
 3140SOL    HW220880   0.967   2.139   4.476  0.0438  0.5190  1.2541
 3141SOL     OW20881   2.442   2.310   4.852 -0.5343  0.8672  0.0407
 3141SOL    HW120882   2.435   2.394   4.806 -0.0914  0.8547 -0.0447
 3141SOL    HW220883   2.356   2.270   4.837 -0.1133  0.4783 -1.3646
 3142SOL     OW20884   4.508   2.869   1.086  0.0881 -0.2148 -0.1517
 3142SOL    HW120885   4.496   2.775   1.102 -1.0995 -0.0202  0.0480
 3142SOL    HW220886   4.585   2.890   1.139 -1.0097  1.2263  0.8638
 3143SOL     OW20887   0.293   1.946   3.676  0.2403  0.6134  0.0682
 3143SOL    HW120888   0.310   1.852   3.688  0.0311  0.2689 -2.4243
 3143SOL    HW220889   0.307   1.958   3.582 -0.8937  0.1161 -0.1594
 3144SOL     OW20890   3.229   1.423  16.096  0.2752  0.0146 -0.4587
 3144SOL    HW120891   3.323   1.404  16.101  0.4630  1.0167 -0.0856
 3144SOL    HW220892   3.204   1.402  16.185 -1.2610  0.7061 -0.7271
 3145SOL     OW20893   3.132   4.348  12.090 -0.4996  0.0560  0.0542
 3145SOL    HW120894   3.090   4.266  12.116  0.3149 -0.4569 -0.2462
 3145SOL    HW220895   3.184   4.364  12.169 -0.5482 -0.9125  0.2864
 3146SOL     OW20896   2.034   3.549  16.261 -0.9763  0.0747 -0.6452
 3146SOL    HW120897   2.074   3.510  16.184  0.4892 -0.2009  0.2390
 3146SOL    HW220898   1.959   3.591  16.221 -1.2063  2.2856  2.0832
 3147SOL     OW20899   0.510   0.518   1.926 -0.6113 -0.2915  0.0131
 3147SOL    HW120900   0.533   0.590   1.867  2.0689 -0.9295  0.2646
 3147SOL    HW220901   0.527   0.551   2.014 -4.2969 -0.0196  0.6250
 3148SOL     OW20902   0.397   4.212   3.144 -0.1589  0.1468 -0.0845
 3148SOL    HW120903   0.484   4.175   3.150 -0.6956 -1.1655 -0.4504
 3148SOL    HW220904   0.375   4.202   3.052  1.1955 -1.2530 -0.2412
 3149SOL     OW20905   0.220   2.921   1.684 -0.1498 -0.6794  0.3057
 3149SOL    HW120906   0.258   2.976   1.753 -2.4197  1.0569  0.1649
 3149SOL    HW220907   0.159   2.977   1.636  1.1985 -0.1823 -0.8354
 3150SOL     OW20908   4.697   0.792   5.160 -0.3610 -0.6549 -0.8071
 3150SOL    HW120909   4.722   0.700   5.156 -1.1239 -0.9947  2.2894
 3150SOL    HW220910   0.035   0.826   5.098  0.7293  0.3622  0.8731
 3151SOL     OW20911   3.896   4.218   2.977 -0.2261 -0.4489 -0.6967
 3151SOL    HW120912   3.888   4.204   2.882 -0.2759  1.9889 -1.0476
 3151SOL    HW220913   3.826   4.281   2.995 -2.0246 -2.4955 -0.5405
 3152SOL     OW20914   3.704   1.791   9.982 -0.0491  0.2628 -0.3880
 3152SOL    HW120915   3.659   1.767   9.902 -1.5273  0.7470  0.3003
 3152SOL    HW220916   3.686   1.884   9.997 -0.4887 -0.2681  2.5123
 3153SOL     OW20917   0.024   0.549   8.012 -0.5871 -0.2612 -0.3994
 3153SOL    HW120918   0.078   0.604   7.955  0.8376 -0.2518  0.9620
 3153SOL    HW220919   4.681   0.614   8.026 -0.1825 -0.2469  1.5797
 3154SOL     OW20920   4.466   2.922   3.763  0.3295 -0.3549 -0.1378
 3154SOL    HW120921   4.445   2.896   3.673 -0.2581  1.0367 -0.4060
 3154SOL    HW220922   4.509   2.839   3.784 -1.9060 -1.1581  1.3749
 3155SOL     OW20923   0.540   0.776   1.782 -0.3914 -0.2273  0.1837
 3155SOL    HW120924   0.541   0.803   1.690 -0.9388  2.1993  0.9125
 3155SOL    HW220925   0.486   0.846   1.816  0.8444  0.8269 -0.0301
 3156SOL     OW20926   4.455   0.264   7.907 -0.5747 -0.1999 -0.0323
 3156SOL    HW120927   4.417   0.263   7.994 -0.6131 -2.6387 -0.0892
 3156SOL    HW220928   4.414   0.344   7.873  1.0208  0.8672  0.5363
 3157SOL     OW20929   0.229   2.172   6.010 -0.0431 -0.3152  0.2356
 3157SOL    HW120930   0.241   2.213   6.095 -0.3920 -2.3787  1.2830
 3157SOL    HW220931   0.141   2.202   5.987  1.2506  1.4577 -2.3989
 3158SOL     OW20932   2.121   2.528   9.926  0.0564 -0.0598  0.1776
 3158SOL    HW120933   2.149   2.528  10.017  0.4046  1.4915  0.0736
 3158SOL    HW220934   2.026   2.529   9.936  0.0504  1.3292 -0.0403
 3159SOL     OW20935   4.538   1.545   7.724  0.0647 -1.0420 -0.3978
 3159SOL    HW120936   4.573   1.499   7.647  1.6245  0.3914 -0.5557
 3159SOL    HW220937   4.485   1.612   7.683  0.3984 -1.5626 -1.7045
 3160SOL     OW20938   0.567   1.666  13.520  0.2062 -0.1583 -0.4848
 3160SOL    HW120939   0.562   1.625  13.434 -1.4683  1.1211 -1.0227
 3160SOL    HW220940   0.604   1.754  13.507 -1.2568  0.1950 -2.2716
 3161SOL     OW20941   1.697   2.969   4.479  0.3171 -0.1061 -0.2004
 3161SOL    HW120942   1.611   2.935   4.503  0.9859 -0.1406  2.1621
 3161SOL    HW220943   1.723   2.888   4.435  1.3519  1.2653 -2.0890
 3162SOL     OW20944   0.712   3.695  14.047 -0.2824 -0.5240 -0.4862
 3162SOL    HW120945   0.634   3.692  14.102  0.2961 -0.6728  0.3143
 3162SOL    HW220946   0.754   3.612  14.071 -0.9408 -1.3020 -2.0075
 3163SOL     OW20947   3.310   4.081   1.106 -0.1428  0.4982 -0.2169
 3163SOL    HW120948   3.242   4.147   1.124  0.5240  0.6943  1.6315
 3163SOL    HW220949   3.248   4.008   1.096  0.6168 -0.1617 -0.0613
 3164SOL     OW20950   4.636   2.293   1.657  0.2042 -0.1933  0.4025
 3164SOL    HW120951   4.683   2.365   1.616  1.6165 -1.5623 -0.3707
 3164SOL    HW220952   4.544   2.318   1.646  0.7662  1.9590  0.6045
 3165SOL     OW20953   2.665   2.255   7.402  0.1251 -0.3728  0.0311
 3165SOL    HW120954   2.692   2.330   7.350 -1.2077  1.3296  1.8372
 3165SOL    HW220955   2.638   2.299   7.482  1.2744  0.1261  0.1462
 3166SOL     OW20956   1.731   4.212   2.051 -0.5620  0.3850 -0.2809
 3166SOL    HW120957   1.780   4.189   1.973 -0.7220 -1.5803  0.1816
 3166SOL    HW220958   1.669   4.277   2.018 -1.4002  0.4103  1.3049
 3167SOL     OW20959   1.809   4.543   5.028 -0.4680  0.0183 -0.2230
 3167SOL    HW120960   1.898   4.544   5.065 -0.1084 -0.5831 -1.0652
 3167SOL    HW220961   1.826   4.483   4.956 -1.0045 -1.3352  0.7691
 3168SOL     OW20962   0.766   0.475   2.621 -0.8055 -0.0253  0.1118
 3168SOL    HW120963   0.691   0.458   2.565 -1.1394 -1.7744  1.0969
 3168SOL    HW220964   0.753   0.417   2.696 -1.5150 -0.3492 -0.2663
 3169SOL     OW20965   4.151   1.221   0.940 -0.3279 -0.7938  0.5678
 3169SOL    HW120966   4.241   1.196   0.964 -0.0506 -0.2288  0.1029
 3169SOL    HW220967   4.146   1.309   0.978  1.8261 -1.0377  1.4700
 3170SOL     OW20968   2.231   4.024   9.004 -0.1415  0.3528  0.1366
 3170SOL    HW120969   2.212   4.040   9.096 -1.0061  0.2751 -0.0302
 3170SOL    HW220970   2.143   4.035   8.969 -0.0133  0.6785 -0.0919
 3171SOL     OW20971   2.772   2.400  12.493 -0.1409  0.4466 -0.1159
 3171SOL    HW120972   2.690   2.419  12.448  0.0098 -0.8978 -0.9428
 3171SOL    HW220973   2.812   2.486  12.482  0.8716 -0.0258 -0.1276
 3172SOL     OW20974   2.189   0.076   0.974 -0.3796 -0.7389 -0.0650
 3172SOL    HW120975   2.266   0.126   0.946 -1.3571  0.8945  0.1261
 3172SOL    HW220976   2.227   4.716   0.991  1.6922 -0.0543 -1.1647
 3173SOL     OW20977   2.298   0.567   7.146 -0.1410  0.1116 -0.2917
 3173SOL    HW120978   2.232   0.505   7.114 -1.2272  0.7788  0.6704
 3173SOL    HW220979   2.336   0.591   7.062  1.1623 -0.9748 -0.0117
 3174SOL     OW20980   0.607   1.595   2.102 -0.5347  0.0074  0.2651
 3174SOL    HW120981   0.697   1.626   2.106 -0.3536 -0.6201  1.1190
 3174SOL    HW220982   0.586   1.588   2.196 -0.1039  1.9498  0.5150
 3175SOL     OW20983   4.710   3.442   5.410  0.3674 -0.3018  0.0253
 3175SOL    HW120984   4.695   3.521   5.359 -1.2746 -0.5608  0.1273
 3175SOL    HW220985   0.071   3.410   5.386 -0.3248  0.3993 -3.3417
 3176SOL     OW20986   0.584   3.619  12.914 -0.1850  0.5004  0.1816
 3176SOL    HW120987   0.630   3.541  12.945 -2.2419 -0.7614  0.0352
 3176SOL    HW220988   0.574   3.597  12.821  1.4834 -0.3494  0.1984
 3177SOL     OW20989   4.538   4.661   0.003 -0.1761  0.0735 -0.2389
 3177SOL    HW120990   4.507   0.009  17.657 -0.1091  0.0983 -0.2431
 3177SOL    HW220991   4.632   4.660  17.692 -0.3219 -2.4404 -0.8850
 3178SOL     OW20992   0.427   1.610   8.203  0.0217 -0.8341  0.1724
 3178SOL    HW120993   0.345   1.607   8.154  0.2735 -1.2453 -0.2264
 3178SOL    HW220994   0.394   1.555   8.275  2.0636 -1.6036  0.5245
 3179SOL     OW20995   4.431   4.546  15.668 -0.0020 -0.3869 -0.5441
 3179SOL    HW120996   4.391   4.616  15.617 -0.8331  0.2526  0.9823
 3179SOL    HW220997   4.446   4.587  15.753  3.8045 -0.7434 -1.0726
 3180SOL     OW20998   1.393   3.382  12.506  0.5091  0.0747 -0.0193
 3180SOL    HW120999   1.460   3.421  12.451  1.2226  1.4685  1.8535
 3180SOL    HW221000   1.394   3.445  12.579 -0.1483 -1.1049  1.0176
 3181SOL     OW21001   1.117   1.252   8.062  0.0728  0.2725 -0.0639
 3181SOL    HW121002   1.070   1.181   8.105  0.3582 -0.3122 -0.7005
 3181SOL    HW221003   1.117   1.216   7.973  3.3230 -1.2515  0.5127
 3182SOL     OW21004   0.203   4.080  15.715  0.0529  0.5190  0.1776
 3182SOL    HW121005   0.289   4.054  15.683 -0.4414 -0.5683 -0.2641
 3182SOL    HW221006   0.163   3.998  15.744 -1.0484  0.6609 -0.9141
 3183SOL     OW21007   0.014   3.484   3.762 -0.0456 -0.0343  0.4315
 3183SOL    HW121008   4.665   3.467   3.819  0.0051 -1.8526 -0.0723
 3183SOL    HW221009   0.073   3.412   3.785  0.8872  0.7255  0.4198
 3184SOL     OW21010   1.791   2.980   8.928 -0.0426 -0.1122 -0.5897
 3184SOL    HW121011   1.777   2.983   8.834 -1.5904 -0.4006 -0.3815
 3184SOL    HW221012   1.822   3.069   8.942 -0.7227 -0.1361  1.1651
 3185SOL     OW21013   1.463   0.265   2.116 -0.5419  0.0828 -0.3910
 3185SOL    HW121014   1.523   0.252   2.043 -0.0409  0.0669  0.0200
 3185SOL    HW221015   1.504   0.205   2.179  0.2899  0.8990 -0.1483
 3186SOL     OW21016   3.157   0.084  13.381 -0.5856  0.3092  0.0298
 3186SOL    HW121017   3.141   0.120  13.468  0.3708  0.3887  0.1766
 3186SOL    HW221018   3.075   0.040  13.360 -1.4321  0.5790  2.7656
 3187SOL     OW21019   3.097   1.829  11.993  0.3582 -0.1914 -0.0546
 3187SOL    HW121020   3.188   1.825  12.022 -0.2277 -1.3812  1.6315
 3187SOL    HW221021   3.118   1.863  11.906  1.3876 -0.1140  0.2180
 3188SOL     OW21022   1.513   0.665   1.647 -0.9956  0.3511  0.2248
 3188SOL    HW121023   1.505   0.606   1.722 -0.2420  0.3225  0.2819
 3188SOL    HW221024   1.428   0.704   1.631 -2.1995 -3.2991 -2.2882
 3189SOL     OW21025   2.031   3.152  16.704  0.7460 -0.0089  0.3328
 3189SOL    HW121026   2.037   3.059  16.727 -1.9791  0.0345  1.1399
 3189SOL    HW221027   1.944   3.140  16.665  1.0449  1.3710 -0.7705
 3190SOL     OW21028   3.757   4.005   6.894 -0.3896  0.3890  0.1893
 3190SOL    HW121029   3.768   4.010   6.989  0.1773  3.0058 -0.0075
 3190SOL    HW221030   3.740   4.096   6.869 -0.5455  0.2098 -0.3681
 3191SOL     OW21031   0.944   3.032   0.756  0.2289  0.5008 -0.0674
 3191SOL    HW121032   0.864   3.018   0.705  0.7004 -0.3357 -0.5715
 3191SOL    HW221033   1.011   3.006   0.693 -1.3308  0.1714 -1.5871
 3192SOL     OW21034   4.035   3.329  17.082 -0.1643  0.2221 -0.2483
 3192SOL    HW121035   4.093   3.328  17.005  0.7056  1.7522  0.3722
 3192SOL    HW221036   4.054   3.421  17.104 -1.6188 -0.2877  3.0842
 3193SOL     OW21037   4.481   3.385   3.928  0.6959 -0.5696  0.1466
 3193SOL    HW121038   4.388   3.361   3.924 -0.0323  2.3157 -0.1657
 3193SOL    HW221039   4.521   3.324   3.866 -0.3680 -2.0599  0.9287
 3194SOL     OW21040   2.858   0.202   1.077 -0.2772  1.0902 -0.0970
 3194SOL    HW121041   2.830   0.201   0.985  0.8628  1.5911 -0.4548
 3194SOL    HW221042   2.911   0.282   1.074  2.2320 -0.5192  1.1324
 3195SOL     OW21043   3.477   1.725  17.508  0.1547  0.2176 -0.0133
 3195SOL    HW121044   3.477   1.630  17.517  1.5770  0.3633  1.4662
 3195SOL    HW221045   3.518   1.741  17.593 -1.3690  1.1743  0.5209
 3196SOL     OW21046   0.816   1.746   2.994  0.0168  0.3447  0.1363
 3196SOL    HW121047   0.829   1.686   2.921  1.0639  1.8988 -0.9694
 3196SOL    HW221048   0.869   1.814   2.953 -0.1446  0.2857 -0.1656
 3197SOL     OW21049   3.452   2.189   5.832  0.0142 -0.0306 -0.5822
 3197SOL    HW121050   3.432   2.130   5.905  0.3091  0.8667  0.2289
 3197SOL    HW221051   3.444   2.269   5.884 -1.9729 -0.7472  0.2290
 3198SOL     OW21052   3.056   0.706   3.838 -0.2831  0.3254 -0.3448
 3198SOL    HW121053   3.098   0.787   3.808  0.6002  0.1738  0.5001
 3198SOL    HW221054   2.986   0.690   3.775 -0.2041  0.3496 -0.4396
 3199SOL     OW21055   1.774   1.656   8.341 -0.4375 -0.0927  0.3899
 3199SOL    HW121056   1.780   1.609   8.425 -1.1629 -0.4215  0.2562
 3199SOL    HW221057   1.685   1.689   8.349 -1.4618 -2.8217  0.1778
 3200SOL     OW21058   2.440   2.759   9.090  0.5848 -0.0664 -0.3680
 3200SOL    HW121059   2.457   2.667   9.069  2.9757 -0.2214  2.2419
 3200SOL    HW221060   2.493   2.764   9.169 -0.7773  1.2737  0.4571
 3201SOL     OW21061   0.944   3.691   3.219 -0.0261  0.4230  0.4835
 3201SOL    HW121062   0.983   3.675   3.304  1.6684  2.1061  0.0270
 3201SOL    HW221063   0.868   3.748   3.230  0.8054  1.7647 -0.6791
 3202SOL     OW21064   4.672   0.740  15.101 -0.2342  0.0125  0.4361
 3202SOL    HW121065   0.005   0.696  15.039  0.4436  1.0614  0.3454
 3202SOL    HW221066   0.005   0.813  15.117  0.8951 -0.4623 -1.5063
 3203SOL     OW21067   3.319   1.076   5.662  0.8123 -0.2347  0.6541
 3203SOL    HW121068   3.388   1.058   5.599  0.2272 -0.2094  0.0094
 3203SOL    HW221069   3.313   1.000   5.720 -3.7325 -0.6649 -0.3450
 3204SOL     OW21070   0.070   0.650   5.807 -0.0294 -0.4530  0.4106
 3204SOL    HW121071   0.099   0.693   5.726  1.9482 -2.7237 -0.0655
 3204SOL    HW221072   0.058   0.721   5.871  1.8915  0.4966 -0.2718
 3205SOL     OW21073   0.851   3.312   2.665  0.7524  0.0981 -0.4367
 3205SOL    HW121074   0.816   3.302   2.753  0.7864  0.3811 -0.3935
 3205SOL    HW221075   0.913   3.384   2.677  0.8499  0.0223 -0.4849
 3206SOL     OW21076   0.367   0.417   7.490  0.1605  0.1574  0.4414
 3206SOL    HW121077   0.442   0.420   7.550  0.1300  0.1412  0.4806
 3206SOL    HW221078   0.306   0.379   7.553 -0.2576  0.3531  0.1481
 3207SOL     OW21079   1.374   1.587   7.375  0.3121  0.1041  0.1501
 3207SOL    HW121080   1.290   1.593   7.330  0.6120 -0.2834 -0.4575
 3207SOL    HW221081   1.409   1.507   7.335  0.8613  0.4613 -0.0989
 3208SOL     OW21082   2.527   2.251   6.651 -0.5888 -0.4278 -0.3402
 3208SOL    HW121083   2.553   2.303   6.727 -2.2979  1.3554 -1.0011
 3208SOL    HW221084   2.517   2.164   6.689 -4.9951 -0.0917 -0.8085
 3209SOL     OW21085   2.339   2.846  16.151  0.0521  0.4373 -0.0085
 3209SOL    HW121086   2.260   2.898  16.137 -1.8544 -2.6845 -1.0627
 3209SOL    HW221087   2.328   2.827  16.244 -1.0209  2.7868  0.3457
 3210SOL     OW21088   0.256   3.291   8.529 -0.2536  0.1599  0.2592
 3210SOL    HW121089   0.170   3.303   8.569 -0.5843  0.8485 -0.6557
 3210SOL    HW221090   0.249   3.196   8.521  0.5710  0.1834 -0.6598
 3211SOL     OW21091   3.749   0.792   8.176 -0.3544 -0.1778  0.2278
 3211SOL    HW121092   3.733   0.854   8.105  0.2840  2.1319  2.1270
 3211SOL    HW221093   3.809   0.742   8.120 -0.2044 -0.2828  0.4814
 3212SOL     OW21094   4.505   2.130   7.649  0.3247 -0.2636 -0.2783
 3212SOL    HW121095   4.554   2.098   7.573  0.9789  0.7881 -0.2936
 3212SOL    HW221096   4.581   2.121   7.708  0.8396  1.7546 -0.6382
 3213SOL     OW21097   2.184   0.935  16.211  0.7591 -0.5454 -0.4296
 3213SOL    HW121098   2.218   0.965  16.295  0.6824 -0.6740 -0.3533
 3213SOL    HW221099   2.110   0.882  16.242  0.5537  0.5494  0.9315
 3214SOL     OW21100   3.429   2.187   8.074 -0.6352  0.4835 -0.3564
 3214SOL    HW121101   3.348   2.237   8.067 -0.5386  0.6187 -0.5073
 3214SOL    HW221102   3.415   2.120   8.008  2.0151  0.0687 -0.5170
 3215SOL     OW21103   2.514   0.058  11.644  1.2524  0.4619  0.0973
 3215SOL    HW121104   2.490   0.150  11.659  1.0547  0.3353  0.5828
 3215SOL    HW221105   2.541   0.060  11.553  1.6392  2.0754  0.2418
 3216SOL     OW21106   3.064   0.955   6.085 -0.6503 -0.0085  0.3996
 3216SOL    HW121107   3.010   0.900   6.029  0.4511 -0.1013 -0.5718
 3216SOL    HW221108   3.003   1.028   6.086 -1.3300 -0.5562 -1.3489
 3217SOL     OW21109   0.137   2.208  15.077  0.2550 -0.7589  0.5770
 3217SOL    HW121110   0.211   2.204  15.017  0.3215 -2.8277  0.8225
 3217SOL    HW221111   0.095   2.294  15.067  0.7139 -0.4471  1.3737
 3218SOL     OW21112   3.174   0.027  14.911 -0.3323  0.0031 -0.0422
 3218SOL    HW121113   3.164   4.679  14.971  1.9872  0.7295  1.2525
 3218SOL    HW221114   3.195   0.091  14.980 -1.0140  0.6315 -0.4182
 3219SOL     OW21115   0.099   0.800   8.764  0.4152  0.0206 -0.5964
 3219SOL    HW121116   0.120   0.718   8.809 -0.9057  0.9298  1.7119
 3219SOL    HW221117   0.184   0.831   8.735  0.6355  0.0631  0.1121
 3220SOL     OW21118   0.580   4.497   9.972  0.3220 -0.1279  0.3206
 3220SOL    HW121119   0.652   4.549  10.010  1.5263 -0.1809 -1.8863
 3220SOL    HW221120   0.614   4.473   9.886 -0.0885 -3.3089  1.0618
 3221SOL     OW21121   3.696   1.313   3.101  0.1846 -0.3859 -0.6341
 3221SOL    HW121122   3.698   1.226   3.060 -3.2591 -0.5406 -0.4368
 3221SOL    HW221123   3.787   1.310   3.132  0.3382  0.0291 -1.0575
 3222SOL     OW21124   3.886   2.034   9.392 -0.2376 -0.9705 -0.2272
 3222SOL    HW121125   3.858   2.116   9.432  3.0037 -0.6663  1.4092
 3222SOL    HW221126   3.819   1.977   9.431  0.5940 -1.3248  0.6762
 3223SOL     OW21127   0.739   3.966   6.030  0.6869 -0.3271  0.2630
 3223SOL    HW121128   0.709   4.057   6.022 -0.4395 -0.5437  1.8176
 3223SOL    HW221129   0.802   3.950   5.961  0.1343 -1.9645  0.1505
 3224SOL     OW21130   4.258   3.221   2.073 -1.0045  0.1960  0.0145
 3224SOL    HW121131   4.265   3.208   1.978 -1.7886  0.5287 -0.0864
 3224SOL    HW221132   4.337   3.171   2.096 -0.4412  0.0684 -2.1867
 3225SOL     OW21133   3.683   0.288  15.615  0.3291 -0.3104 -0.0996
 3225SOL    HW121134   3.600   0.272  15.659 -0.8824  1.5964 -1.6524
 3225SOL    HW221135   3.656   0.247  15.532  1.8700  0.2336 -0.8662
 3226SOL     OW21136   3.619   4.555   1.989  0.1056  0.0084  0.2853
 3226SOL    HW121137   3.579   4.617   1.928  1.7295  2.5559  1.8264
 3226SOL    HW221138   3.712   4.560   1.966  0.4006  3.7501  2.3616
 3227SOL     OW21139   3.426   2.095   2.170 -0.1660 -0.0896  0.2246
 3227SOL    HW121140   3.424   2.178   2.123 -1.0239  0.7457  1.7147
 3227SOL    HW221141   3.495   2.052   2.120 -2.1069 -1.1272 -1.5385
 3228SOL     OW21142   3.858   4.043   5.951  0.0405 -0.7684  0.1271
 3228SOL    HW121143   3.778   4.084   5.916  0.0829  2.1644  3.5353
 3228SOL    HW221144   3.853   3.955   5.913 -1.4882 -1.0738  1.0175
 3229SOL     OW21145   0.267   2.086   9.858 -0.3744 -0.4410  0.0291
 3229SOL    HW121146   0.233   2.023   9.794  2.2706 -1.4749 -0.3365
 3229SOL    HW221147   0.227   2.048   9.936  0.1232  1.6647  1.3171
 3230SOL     OW21148   2.706   2.005  10.877  0.6346 -0.2628 -0.2230
 3230SOL    HW121149   2.745   2.093  10.874 -1.2795  0.6070  0.6219
 3230SOL    HW221150   2.679   2.010  10.968  1.8156 -1.3622  0.1908
 3231SOL     OW21151   1.461   1.391   5.640  0.2909  0.3252  0.5956
 3231SOL    HW121152   1.414   1.333   5.580  0.4354 -1.6708  2.4253
 3231SOL    HW221153   1.394   1.398   5.708  0.1204 -1.0029  0.5678
 3232SOL     OW21154   2.712   1.334  13.424 -0.5117 -0.8818  0.2511
 3232SOL    HW121155   2.638   1.300  13.475 -1.1107  1.4227  0.9336
 3232SOL    HW221156   2.793   1.308  13.468 -0.2605 -0.2082  0.1846
 3233SOL     OW21157   3.647   3.945   3.352 -0.1521 -0.3383  0.6458
 3233SOL    HW121158   3.699   3.893   3.291 -1.8314 -0.7034 -0.4766
 3233SOL    HW221159   3.665   3.911   3.440 -1.7236  0.2764  1.2212
 3234SOL     OW21160   1.939   2.079   8.502 -0.7180  0.3731  0.7687
 3234SOL    HW121161   1.987   2.162   8.504 -2.2171  1.2442  0.3632
 3234SOL    HW221162   1.871   2.114   8.559 -0.5758  0.5674  0.8178
 3235SOL     OW21163   4.335   0.392   8.969 -0.0516  0.3097  0.2772
 3235SOL    HW121164   4.425   0.417   8.986 -0.4858  0.4560  2.3028
 3235SOL    HW221165   4.328   0.308   9.014 -0.6773 -1.0525 -2.3385
 3236SOL     OW21166   4.243   1.297   4.713 -0.0081  0.1057  0.2739
 3236SOL    HW121167   4.184   1.229   4.745 -0.1929 -1.7240 -3.9748
 3236SOL    HW221168   4.188   1.369   4.743  2.2492  1.9690 -0.0558
 3237SOL     OW21169   2.574   0.107   8.619  0.2370 -0.1996 -0.3210
 3237SOL    HW121170   2.480   0.119   8.600 -0.7941 -2.4087  3.4688
 3237SOL    HW221171   2.602   0.065   8.538 -3.2202  0.6571 -1.9694
 3238SOL     OW21172   3.476   1.483   2.230  0.1559  0.2306 -0.1040
 3238SOL    HW121173   3.568   1.475   2.255  0.3690  4.1847  0.4120
 3238SOL    HW221174   3.476   1.556   2.168 -2.0693 -0.9982 -1.5763
 3239SOL     OW21175   1.465   2.501   0.089  0.0034  0.3329  0.1402
 3239SOL    HW121176   1.541   2.550   0.120 -0.5932  0.9057  0.7064
 3239SOL    HW221177   1.442   2.555   0.014 -2.4459 -1.2250 -0.2184
 3240SOL     OW21178   3.900   4.359  13.708 -0.4042 -0.0100 -0.3819
 3240SOL    HW121179   3.822   4.322  13.666  0.4261 -1.3971 -0.6989
 3240SOL    HW221180   3.884   4.353  13.802 -0.1033 -2.0401 -0.4653
 3241SOL     OW21181   2.431   2.853   3.222 -0.0616 -0.1593  0.5561
 3241SOL    HW121182   2.517   2.829   3.256 -0.3604 -0.3065  1.1984
 3241SOL    HW221183   2.436   2.824   3.131 -2.5665 -1.3217  0.7792
 3242SOL     OW21184   2.478   4.377   2.217 -1.0685  0.2649 -0.2874
 3242SOL    HW121185   2.564   4.347   2.187 -1.0175  0.6303 -0.4939
 3242SOL    HW221186   2.504   4.427   2.294 -1.4304  2.3130 -1.4996
 3243SOL     OW21187   3.513   1.981   1.040 -0.4406  0.0284  0.1481
 3243SOL    HW121188   3.549   2.044   1.102  1.7799  0.0897 -1.1867
 3243SOL    HW221189   3.543   1.902   1.084 -1.2252  0.0765  0.7583
 3244SOL     OW21190   3.479   2.692   2.215  0.5755  0.5811 -0.2397
 3244SOL    HW121191   3.558   2.638   2.226  0.3308  0.5238  1.1984
 3244SOL    HW221192   3.495   2.757   2.146  3.9558 -0.9084 -0.8624
 3245SOL     OW21193   0.156   0.391   6.582  0.2956 -0.0462  0.6218
 3245SOL    HW121194   0.126   0.472   6.623  1.8509  0.8237  0.0083
 3245SOL    HW221195   0.103   0.402   6.503  0.7498  1.6031  0.5537
 3246SOL     OW21196   1.191   0.704   9.428 -0.7018 -0.2517 -0.3496
 3246SOL    HW121197   1.146   0.742   9.503 -0.1463 -1.6945  0.6969
 3246SOL    HW221198   1.189   0.778   9.366 -0.9150  0.3477  0.3762
 3247SOL     OW21199   4.636   3.585  15.551  0.6112  0.6669  0.2871
 3247SOL    HW121200   0.002   3.575  15.574  0.1165 -2.2193  0.9939
 3247SOL    HW221201   4.612   3.611  15.640 -0.5803  0.0347  0.1460
 3248SOL     OW21202   0.027   3.225   2.025  0.2952 -0.4230  0.8935
 3248SOL    HW121203   0.094   3.275   2.071  0.2660  0.5944 -0.1954
 3248SOL    HW221204   0.081   3.203   1.950  1.0381  2.4654  0.5873
 3249SOL     OW21205   0.171   4.706   8.309 -0.1937  0.0032 -0.3872
 3249SOL    HW121206   0.122   4.645   8.253 -1.5623  2.8432 -2.2829
 3249SOL    HW221207   0.188   4.668   8.395 -2.2471  2.3415  1.0753
 3250SOL     OW21208   1.839   3.688   9.084  0.1045 -0.0229  0.6577
 3250SOL    HW121209   1.826   3.782   9.069  0.0014  0.2181  2.3338
 3250SOL    HW221210   1.753   3.653   9.063  0.5028 -0.0575 -0.9362
 3251SOL     OW21211   2.590   4.481   7.201  0.3162 -0.2387  0.4483
 3251SOL    HW121212   2.644   4.441   7.133  2.4357  1.5533  1.0787
 3251SOL    HW221213   2.542   4.552   7.158  0.2060 -1.1663 -0.9595
 3252SOL     OW21214   2.867   2.003   1.257  0.4635 -0.3220 -0.4364
 3252SOL    HW121215   2.865   2.099   1.262 -0.7497 -0.3767  0.0737
 3252SOL    HW221216   2.905   1.991   1.344  0.0807  0.5201 -0.1561
 3253SOL     OW21217   4.408   4.026   4.527 -0.0052 -0.2974  0.1786
 3253SOL    HW121218   4.384   4.108   4.570 -0.9190  0.0387 -0.9417
 3253SOL    HW221219   4.359   4.028   4.444  0.2477  1.3419  0.0762
 3254SOL     OW21220   3.722   4.179  11.420  0.0789  0.5348  0.0856
 3254SOL    HW121221   3.801   4.233  11.428  1.5278 -1.6643  0.5899
 3254SOL    HW221222   3.703   4.165  11.512  0.9368  2.1600  0.5061
 3255SOL     OW21223   1.609   2.420   7.657 -0.5355 -0.3260  0.0513
 3255SOL    HW121224   1.519   2.452   7.657 -0.0864  0.9646 -0.4099
 3255SOL    HW221225   1.633   2.417   7.564  0.4829  1.3358  0.2524
 3256SOL     OW21226   3.220   1.946   4.984 -0.1979 -0.3611  0.1542
 3256SOL    HW121227   3.270   2.011   5.033  0.6137 -0.6829 -0.2460
 3256SOL    HW221228   3.159   1.905   5.046  0.7609  0.5468  1.7166
 3257SOL     OW21229   2.215   0.640  11.760  0.5393 -0.3096  0.5201
 3257SOL    HW121230   2.247   0.614  11.674  0.9508 -0.0180  0.5858
 3257SOL    HW221231   2.263   0.721  11.777 -0.4129 -0.1416  2.5151
 3258SOL     OW21232   2.101   0.154   5.060 -0.3892  0.3896 -0.0082
 3258SOL    HW121233   2.135   0.210   4.990  0.0334 -0.8045 -0.7546
 3258SOL    HW221234   2.010   0.170   5.034 -1.7518 -0.5029  4.1712
 3259SOL     OW21235   0.730   4.063   5.176 -0.0586  0.6747  0.0428
 3259SOL    HW121236   0.803   4.048   5.117  0.1964 -3.6201  1.4671
 3259SOL    HW221237   0.659   4.052   5.113  0.6975 -1.5293 -0.4367
 3260SOL     OW21238   1.450   0.032   4.290 -0.2826 -0.3787 -0.1428
 3260SOL    HW121239   1.500   4.678   4.277 -0.0641 -0.1346 -0.8071
 3260SOL    HW221240   1.433   0.068   4.203  0.4407 -0.9284 -0.5132
 3261SOL     OW21241   0.921   3.466  13.774 -0.4140 -0.1394 -0.7755
 3261SOL    HW121242   0.989   3.494  13.712 -0.4732  0.3489 -0.6170
 3261SOL    HW221243   0.971   3.434  13.850 -0.0593  2.0431 -0.1026
 3262SOL     OW21244   3.348   2.422   3.995  0.1764  0.2892 -0.5562
 3262SOL    HW121245   3.362   2.329   4.014  3.9444  0.7396 -0.9651
 3262SOL    HW221246   3.255   2.430   4.013  0.5122 -1.2654  1.9630
 3263SOL     OW21247   0.219   2.103  17.362 -0.1590  0.3764 -0.1564
 3263SOL    HW121248   0.248   2.193  17.370  0.3633  0.0017  2.1479
 3263SOL    HW221249   0.225   2.075  17.453  0.8809  0.6581 -0.1406
 3264SOL     OW21250   1.846   2.798   6.232 -0.4605  0.2685 -0.5359
 3264SOL    HW121251   1.936   2.827   6.217 -1.0953  1.5315 -1.8546
 3264SOL    HW221252   1.843   2.730   6.299 -0.7652  0.2749 -0.5432
 3265SOL     OW21253   3.843   2.959   1.623 -0.1722 -0.3998 -0.7786
 3265SOL    HW121254   3.908   2.999   1.681 -0.4032 -0.4307 -0.5037
 3265SOL    HW221255   3.822   2.879   1.671  0.2999 -0.2045 -0.2413
 3266SOL     OW21256   0.094   2.699   7.665  0.2379 -0.3116 -0.3810
 3266SOL    HW121257   0.051   2.745   7.593 -1.7547 -0.7157  0.5615
 3266SOL    HW221258   0.187   2.700   7.643  0.0494  0.7180 -1.1241
 3267SOL     OW21259   2.815   4.275   8.288 -0.1667 -0.0852  0.3082
 3267SOL    HW121260   2.899   4.315   8.263 -0.1247  0.6151  1.5848
 3267SOL    HW221261   2.769   4.251   8.207 -0.3370 -2.9143  1.2537
 3268SOL     OW21262   1.439   3.853   3.493 -0.2100 -0.0178 -0.3000
 3268SOL    HW121263   1.460   3.942   3.523  0.6930 -0.7244  1.1460
 3268SOL    HW221264   1.429   3.809   3.577 -0.6867 -1.4354 -1.0955
 3269SOL     OW21265   1.106   2.348   8.580 -0.5362 -0.2294  0.4060
 3269SOL    HW121266   1.041   2.330   8.512  1.6244 -1.4217 -1.3662
 3269SOL    HW221267   1.170   2.394   8.527 -0.7893 -0.2248  0.1014
 3270SOL     OW21268   0.822   4.175  17.362  0.2154 -0.4686 -0.1070
 3270SOL    HW121269   0.762   4.101  17.373 -1.1271  0.9427  1.9932
 3270SOL    HW221270   0.862   4.145  17.280 -1.7632 -1.8270 -0.5870
 3271SOL     OW21271   1.330   2.533  15.025 -0.7986  0.7017 -0.2892
 3271SOL    HW121272   1.243   2.496  15.042  0.0802 -1.1628  0.1870
 3271SOL    HW221273   1.312   2.627  15.032 -0.1876  0.9975 -2.5938
 3272SOL     OW21274   0.951   3.777   2.276 -0.6638  0.2896 -0.0424
 3272SOL    HW121275   1.027   3.744   2.228  0.5170  2.3943  0.4086
 3272SOL    HW221276   0.985   3.835   2.345 -3.2897 -1.2709  2.5782
 3273SOL     OW21277   0.528   1.007   5.314  0.1511  0.1044 -0.3601
 3273SOL    HW121278   0.556   0.916   5.304  0.3905  0.1752 -0.3186
 3273SOL    HW221279   0.608   1.053   5.339  1.3987 -1.9208 -0.6156
 3274SOL     OW21280   3.244   0.706   4.691 -0.2320  0.4583  0.0930
 3274SOL    HW121281   3.244   0.661   4.776  0.5164 -0.7708 -0.5674
 3274SOL    HW221282   3.171   0.666   4.644  0.6168 -0.2784 -0.6009
 3275SOL     OW21283   1.218   2.368  10.641 -0.1994 -0.1110  0.3841
 3275SOL    HW121284   1.247   2.371  10.549  0.0461 -2.2378  0.3802
 3275SOL    HW221285   1.278   2.426  10.687  1.5982 -2.5269  1.1310
 3276SOL     OW21286   1.041   3.648   6.434  0.5157 -0.1776 -0.3996
 3276SOL    HW121287   0.953   3.686   6.435 -0.9646 -3.7667  2.1545
 3276SOL    HW221288   1.024   3.563   6.473  0.2932  0.7305  1.4822
 3277SOL     OW21289   0.001   0.852   4.812 -0.4873  0.1468  0.3880
 3277SOL    HW121290   4.650   0.817   4.857 -0.0122  0.5243  1.4909
 3277SOL    HW221291   0.050   0.905   4.874 -0.3722  2.3352 -1.5687
 3278SOL     OW21292   2.489   3.374   3.301 -0.0554  0.1449 -0.1269
 3278SOL    HW121293   2.407   3.365   3.252 -0.2371 -2.6615  0.6745
 3278SOL    HW221294   2.460   3.343   3.387  1.5232 -0.5316  0.1614
 3279SOL     OW21295   3.740   0.229   8.548  0.6385  0.8214  0.1918
 3279SOL    HW121296   3.775   0.290   8.483  0.6890  0.8989  0.2921
 3279SOL    HW221297   3.809   0.228   8.614 -1.1351  0.4654  2.0457
 3280SOL     OW21298   2.708   3.521  17.650 -0.0244  0.5037  0.1195
 3280SOL    HW121299   2.751   3.593  17.603 -0.9373  1.9594  1.5125
 3280SOL    HW221300   2.731   3.454  17.585 -0.1618 -0.9630  1.5770
 3281SOL     OW21301   0.447   4.634   8.232 -0.2738  0.1566 -0.3925
 3281SOL    HW121302   0.433   4.562   8.172  3.4906 -0.6747 -0.2798
 3281SOL    HW221303   0.370   4.643   8.289  0.2170 -2.0080  0.6124
 3282SOL     OW21304   2.927   0.432  13.568 -0.0859 -0.2157 -0.2035
 3282SOL    HW121305   2.873   0.394  13.637  0.6325  0.2946  0.6302
 3282SOL    HW221306   2.860   0.486  13.528 -1.2634  0.5637  2.8872
 3283SOL     OW21307   0.323   0.635   6.151 -0.1056 -0.0069  0.1463
 3283SOL    HW121308   0.234   0.603   6.136  0.3263 -1.0964 -0.1322
 3283SOL    HW221309   0.318   0.644   6.246 -0.7263 -2.8154  0.3961
 3284SOL     OW21310   1.570   3.479   6.786 -1.1042 -0.8748 -0.1748
 3284SOL    HW121311   1.612   3.554   6.745  0.6909 -0.8133  1.7732
 3284SOL    HW221312   1.488   3.479   6.736 -0.2136  0.2899 -1.6286
 3285SOL     OW21313   3.525   1.504   4.707  0.2740 -0.2110  0.1243
 3285SOL    HW121314   3.437   1.470   4.695  0.2288 -0.5753  1.4165
 3285SOL    HW221315   3.578   1.450   4.650  1.6319  0.0271  1.1626
 3286SOL     OW21316   2.042   1.295   6.355 -0.5506 -0.0742  0.2273
 3286SOL    HW121317   2.016   1.215   6.402 -1.1631  0.4322  0.7550
 3286SOL    HW221318   1.960   1.344   6.365  0.3326  1.4977 -0.3053
 3287SOL     OW21319   3.065   4.399   5.336  0.4361 -0.2586  0.0562
 3287SOL    HW121320   3.002   4.372   5.268 -0.5178 -0.8328  1.1539
 3287SOL    HW221321   2.999   4.433   5.397 -0.9728 -0.1555 -1.5047
 3288SOL     OW21322   0.979   4.396   8.535  0.0115  0.0747  0.3772
 3288SOL    HW121323   1.006   4.312   8.572  0.3399  0.3049  0.6590
 3288SOL    HW221324   1.060   4.429   8.497 -0.3531  0.6145  0.0727
 3289SOL     OW21325   1.227   2.404   4.145 -0.4863  0.7260 -0.4990
 3289SOL    HW121326   1.225   2.485   4.196 -2.3484 -1.1653  2.4225
 3289SOL    HW221327   1.147   2.430   4.099 -1.6601  1.5244  1.9738
 3290SOL     OW21328   2.893   0.512  10.054  0.2144 -0.3458 -0.4292
 3290SOL    HW121329   2.948   0.527   9.977  1.3033  0.5320  0.5129
 3290SOL    HW221330   2.957   0.543  10.119  2.3960  1.2491 -3.3065
 3291SOL     OW21331   1.092   0.551   6.892  0.3046  0.3933  0.3492
 3291SOL    HW121332   1.047   0.631   6.921  0.1223  1.2035 -2.1372
 3291SOL    HW221333   1.117   0.520   6.979 -2.4966 -0.2912  0.9065
 3292SOL     OW21334   1.568   0.093   3.843  0.3069  0.7461 -0.1052
 3292SOL    HW121335   1.591   0.015   3.793 -0.9515  0.1442  0.2843
 3292SOL    HW221336   1.521   0.142   3.775 -1.7908  0.7542  1.3509
 3293SOL     OW21337   1.225   2.657   2.371 -0.4022 -0.4523  0.0183
 3293SOL    HW121338   1.292   2.621   2.314  0.8422  0.1220  1.1324
 3293SOL    HW221339   1.279   2.690   2.443 -0.3619 -1.1071  0.2814
 3294SOL     OW21340   2.977   0.517   1.980  0.0178  0.1121  0.2731
 3294SOL    HW121341   2.983   0.481   1.891  1.0718 -1.4057  0.9692
 3294SOL    HW221342   2.910   0.460   2.017  0.2809  0.3575  1.1178
 3295SOL     OW21343   1.092   0.822   1.826 -0.1994  0.1222  0.1977
 3295SOL    HW121344   1.040   0.893   1.862 -1.5150 -0.5597 -0.3588
 3295SOL    HW221345   1.172   0.826   1.879  1.7900 -1.5881 -2.6398
 3296SOL     OW21346   2.012   1.975   7.767 -0.8738  0.1509  0.3618
 3296SOL    HW121347   1.931   2.004   7.808 -0.5114 -0.6754  1.7062
 3296SOL    HW221348   2.048   1.909   7.827  0.5067  2.1027  1.6879
 3297SOL     OW21349   2.449   0.865   7.021  0.1708 -0.4671  0.2315
 3297SOL    HW121350   2.498   0.898   6.946  0.8488 -0.9253  0.4707
 3297SOL    HW221351   2.459   0.773   6.999 -0.6822 -1.1281  2.6028
 3298SOL     OW21352   3.796   2.159   7.491  0.0412 -0.4954 -0.2464
 3298SOL    HW121353   3.883   2.193   7.510 -0.1296  0.0890 -0.4942
 3298SOL    HW221354   3.758   2.242   7.462 -0.8254 -0.6576  0.4229
 3299SOL     OW21355   4.222   1.886   2.839  0.3932  0.4524 -0.2950
 3299SOL    HW121356   4.263   1.897   2.753 -2.6428  0.1895 -1.7529
 3299SOL    HW221357   4.152   1.951   2.827 -0.4069 -0.4436 -0.4472
 3300SOL     OW21358   4.084   2.234   9.104  0.7754 -0.1195  0.3984
 3300SOL    HW121359   4.092   2.217   9.010  2.4715  0.9623  0.3475
 3300SOL    HW221360   4.152   2.302   9.107 -0.1219  0.8929 -2.8170
 3301SOL     OW21361   4.660   2.587   8.212 -0.1389 -0.1685 -0.4712
 3301SOL    HW121362   4.650   2.608   8.119  1.5697  1.3280 -0.3211
 3301SOL    HW221363   4.613   2.662   8.247 -2.1557 -1.5703 -0.2162
 3302SOL     OW21364   3.762   4.056   5.131  0.9507 -0.4519  0.2139
 3302SOL    HW121365   3.720   3.975   5.161  1.1898 -0.1829  1.3018
 3302SOL    HW221366   3.766   4.041   5.037 -0.9985 -0.4411  0.1176
 3303SOL     OW21367   0.940   1.262   5.882 -0.6248  0.3079 -0.4361
 3303SOL    HW121368   1.029   1.244   5.912 -0.7510  0.7036  0.1818
 3303SOL    HW221369   0.908   1.294   5.966 -1.9502  0.5755 -1.0456
 3304SOL     OW21370   4.418   3.661   9.691 -0.0361  0.3713  0.9793
 3304SOL    HW121371   4.418   3.740   9.745  2.7853  1.2334 -0.2958
 3304SOL    HW221372   4.330   3.624   9.702  0.4668 -0.5188  2.0662
 3305SOL     OW21373   0.490   1.696   4.042  0.0696  0.0825 -0.4355
 3305SOL    HW121374   0.505   1.617   4.093 -0.9566  0.8615  1.0567
 3305SOL    HW221375   0.413   1.675   3.989  0.3375  0.8553 -1.1425
 3306SOL     OW21376   1.797   1.950   3.966  0.1581 -0.2763 -0.4933
 3306SOL    HW121377   1.715   1.976   4.008  0.1416  0.5413 -1.0193
 3306SOL    HW221378   1.843   1.905   4.036 -0.2805 -0.5071 -0.3552
 3307SOL     OW21379   1.904   2.242   3.594  0.1522  0.5210 -0.3401
 3307SOL    HW121380   1.928   2.208   3.507 -1.1278 -1.0415 -0.0694
 3307SOL    HW221381   1.811   2.221   3.586  0.3441 -1.0855  1.7250
 3308SOL     OW21382   1.824   0.881  15.622 -0.5623 -0.0406 -0.4016
 3308SOL    HW121383   1.809   0.804  15.567  2.5784  0.0835 -1.4527
 3308SOL    HW221384   1.910   0.901  15.584  1.0570 -1.7338  2.3919
 3309SOL     OW21385   0.874   4.473   9.400 -0.1847  0.6722 -0.2533
 3309SOL    HW121386   0.795   4.493   9.450  0.2797  1.8898 -0.0225
 3309SOL    HW221387   0.940   4.538   9.422  0.3033 -0.6252  2.1450
 3310SOL     OW21388   4.626   0.038  11.492  0.0017  0.2648  0.1365
 3310SOL    HW121389   4.686   0.108  11.467  0.3791 -0.4275 -0.8599
 3310SOL    HW221390   4.556   0.046  11.427  0.1276 -1.5987 -0.2090
 3311SOL     OW21391   0.165   0.179  12.856 -0.4748  0.1579  0.3266
 3311SOL    HW121392   0.202   0.263  12.881  1.3017 -1.2725  2.5676
 3311SOL    HW221393   0.072   0.199  12.863 -0.9697 -1.1783 -2.1774
 3312SOL     OW21394   3.733   0.573   6.855 -0.2728  0.2655  0.8091
 3312SOL    HW121395   3.652   0.611   6.889 -1.1523 -1.3383  0.5247
 3312SOL    HW221396   3.734   0.612   6.768  1.1707 -2.4663 -0.3770
 3313SOL     OW21397   2.022   2.340   7.133  0.5219  0.4367 -0.0082
 3313SOL    HW121398   1.962   2.394   7.083  1.0880  2.3148  1.3464
 3313SOL    HW221399   2.068   2.286   7.069 -0.2216  0.4114 -0.5280
 3314SOL     OW21400   2.012   3.592   6.598  0.5399 -0.1982  0.1848
 3314SOL    HW121401   1.935   3.586   6.541  1.1724 -1.7502 -0.5066
 3314SOL    HW221402   1.977   3.611   6.685  1.8554  1.1985  0.3961
 3315SOL     OW21403   2.081   2.546  16.983  0.3516 -0.2651 -0.2405
 3315SOL    HW121404   2.060   2.543  16.890  1.8096  2.3895 -0.6576
 3315SOL    HW221405   2.013   2.487  17.015 -0.2199  0.4831 -0.0993
 3316SOL     OW21406   3.349   1.002   1.236  0.5666  1.2805  0.2272
 3316SOL    HW121407   3.381   0.948   1.163  0.0263  1.9418 -0.4888
 3316SOL    HW221408   3.286   1.057   1.190 -0.9568  0.3071  1.1373
 3317SOL     OW21409   2.689   2.452   3.658  0.3496 -0.3336  0.0589
 3317SOL    HW121410   2.669   2.535   3.701 -0.8021 -0.2808 -0.5901
 3317SOL    HW221411   2.758   2.477   3.596 -0.0848 -1.7104 -0.9658
 3318SOL     OW21412   2.141   2.631   0.145  0.1215  0.3647  0.1195
 3318SOL    HW121413   2.214   2.569   0.139  1.1221  1.4617  1.0494
 3318SOL    HW221414   2.096   2.615   0.062  0.5318  2.0173 -0.4283
 3319SOL     OW21415   0.280   3.939   8.145 -0.5333 -0.1982 -0.0278
 3319SOL    HW121416   0.332   3.874   8.192  1.3744  2.4549  1.5044
 3319SOL    HW221417   0.206   3.884   8.119 -1.7334  1.9731 -1.2302
 3320SOL     OW21418   4.370   1.523   7.297 -0.8663 -0.1190 -0.3660
 3320SOL    HW121419   4.292   1.504   7.245 -0.0830 -3.8592 -0.1261
 3320SOL    HW221420   4.334   1.516   7.385 -1.9826  0.0788 -0.8042
 3321SOL     OW21421   0.513   2.104   3.757  0.3279 -0.3782 -0.0571
 3321SOL    HW121422   0.429   2.066   3.729 -0.8914  2.4677 -0.3033
 3321SOL    HW221423   0.534   2.054   3.836  0.6249  0.8094  0.6251
 3322SOL     OW21424   0.450   1.065  15.181  0.1677  0.1804 -0.3503
 3322SOL    HW121425   0.425   1.150  15.145 -3.0794 -0.3966  0.5845
 3322SOL    HW221426   0.435   1.005  15.109  0.8441 -0.1537 -0.2159
 3323SOL     OW21427   3.257   0.441  15.728  0.3636  0.0850  0.1317
 3323SOL    HW121428   3.215   0.443  15.814  1.6995  1.1511  0.7537
 3323SOL    HW221429   3.176   0.446  15.675  1.0428  1.6006 -0.7830
 3324SOL     OW21430   4.418   4.478   7.991 -0.1475  0.4306  0.3185
 3324SOL    HW121431   4.466   4.421   7.931  0.9667  1.5029  0.1945
 3324SOL    HW221432   4.330   4.466   7.956 -0.6298  1.7192  1.0692
 3325SOL     OW21433   0.081   4.662  17.672 -0.4185  0.0836 -0.0933
 3325SOL    HW121434   0.115   4.636  17.586 -0.1407  0.6518 -0.1581
 3325SOL    HW221435   0.117   0.025  17.672 -0.1020 -0.0461  1.6699
 3326SOL     OW21436   3.407   2.571   3.320 -0.5835  0.0042 -0.1374
 3326SOL    HW121437   3.429   2.478   3.329  1.3478  0.5347  0.6054
 3326SOL    HW221438   3.322   2.554   3.279  0.6643 -2.0423 -1.8947
 3327SOL     OW21439   0.602   2.705  14.930 -0.4803 -0.5214 -0.2382
 3327SOL    HW121440   0.584   2.799  14.928  3.5077  0.2791  1.0667
 3327SOL    HW221441   0.612   2.686  15.023  2.0598  0.4850 -0.2972
 3328SOL     OW21442   4.444   2.011   1.616  0.2712  0.3626  0.5958
 3328SOL    HW121443   4.445   1.935   1.674 -0.7510  0.5442  0.8558
 3328SOL    HW221444   4.532   1.998   1.580  0.5886  2.6281  0.5200
 3329SOL     OW21445   3.751   0.055   4.993 -0.0937 -0.4066  0.1175
 3329SOL    HW121446   3.698   0.093   5.063  0.6042  0.4947  0.1571
 3329SOL    HW221447   3.690   4.714   4.964  1.2785 -1.9715  0.8376
 3330SOL     OW21448   4.696   2.646   5.247  0.2464 -0.4152 -0.6121
 3330SOL    HW121449   4.707   2.734   5.211  1.0465 -0.5449 -0.6877
 3330SOL    HW221450   0.034   2.589   5.204  0.7547 -1.6194  1.7275
 3331SOL     OW21451   3.520   0.294   6.821  0.7468  0.1714 -0.2195
 3331SOL    HW121452   3.443   0.280   6.767  0.7891  0.0812 -0.2558
 3331SOL    HW221453   3.598   0.271   6.770 -0.0068 -2.3741 -0.2243
 3332SOL     OW21454   4.283   1.866   4.387  0.4899 -0.3893 -0.1743
 3332SOL    HW121455   4.322   1.842   4.471  0.5650 -0.7902 -0.3250
 3332SOL    HW221456   4.354   1.857   4.324  1.2820  0.0249  0.6572
 3333SOL     OW21457   1.563   2.420   5.024 -0.0521  0.3533  0.0451
 3333SOL    HW121458   1.632   2.365   4.986  2.2575  1.4369  2.7002
 3333SOL    HW221459   1.606   2.505   5.022 -0.2258  0.4172 -0.7489
 3334SOL     OW21460   2.588   1.967   1.570 -0.0103 -0.0322 -0.2818
 3334SOL    HW121461   2.556   2.057   1.573 -0.5402 -0.2543  0.7356
 3334SOL    HW221462   2.633   1.980   1.654  3.0424  0.0041 -1.9004
 3335SOL     OW21463   0.016   1.334   2.772 -0.0902  0.4614 -0.0341
 3335SOL    HW121464   0.044   1.356   2.861 -0.2399  0.3740  0.0341
 3335SOL    HW221465   4.667   1.393   2.765  1.0068  1.8312 -0.1767
 3336SOL     OW21466   3.201   1.761  10.637 -0.1096 -0.1715 -0.5503
 3336SOL    HW121467   3.168   1.837  10.589  1.1138  0.0734 -0.9811
 3336SOL    HW221468   3.278   1.800  10.677  0.2772 -0.1261 -1.3451
 3337SOL     OW21469   4.580   1.416   3.168  0.3697 -0.1638 -0.3075
 3337SOL    HW121470   4.560   1.498   3.123  1.3676 -0.1269 -0.6844
 3337SOL    HW221471   4.671   1.402   3.142  0.1749 -0.0922 -1.0260
 3338SOL     OW21472   4.000   3.375   1.169  0.1307 -0.3919  0.3887
 3338SOL    HW121473   3.996   3.454   1.115  0.4994  0.3468  1.4390
 3338SOL    HW221474   4.052   3.317   1.113 -1.7485 -0.1123 -1.6511
 3339SOL     OW21475   2.845   1.666  12.986  0.5505 -0.0788  0.0616
 3339SOL    HW121476   2.772   1.610  12.962 -1.1370  2.2057 -0.1114
 3339SOL    HW221477   2.838   1.732  12.917  1.2807 -0.0777 -0.0183
 3340SOL     OW21478   3.738   3.537   3.270  0.4899 -0.4146 -0.6644
 3340SOL    HW121479   3.761   3.624   3.238  1.5583 -1.6022 -3.1358
 3340SOL    HW221480   3.780   3.480   3.205  1.8597 -0.8079  0.5764
 3341SOL     OW21481   3.326   0.513   8.822  0.3294 -0.8800 -0.1899
 3341SOL    HW121482   3.290   0.591   8.864 -0.1923 -0.7411 -0.9047
 3341SOL    HW221483   3.311   0.447   8.889  0.0939  1.2288  1.8376
 3342SOL     OW21484   2.823   1.841  11.710 -0.0880  0.4830 -0.5932
 3342SOL    HW121485   2.764   1.898  11.758 -1.6288 -1.5303 -0.1173
 3342SOL    HW221486   2.799   1.843  11.617 -0.9603 -0.6892 -0.3986
 3343SOL     OW21487   2.754   4.424  16.433 -0.1725 -0.2081  0.1416
 3343SOL    HW121488   2.706   4.348  16.465 -0.5896 -0.4557 -1.0478
 3343SOL    HW221489   2.693   4.464  16.371  0.0543 -0.1727 -0.0592
 3344SOL     OW21490   1.750   3.832   9.746 -0.5189 -0.4526  0.1265
 3344SOL    HW121491   1.775   3.814   9.656 -0.0066 -1.4211  0.4661
 3344SOL    HW221492   1.655   3.835   9.736 -0.3365  1.3551 -0.9750
 3345SOL     OW21493   1.253   1.449   1.893 -0.5921 -0.1447 -0.4094
 3345SOL    HW121494   1.242   1.482   1.983 -3.4577  0.0658 -0.8228
 3345SOL    HW221495   1.192   1.513   1.857  0.5278  1.1970  0.0561
 3346SOL     OW21496   3.898   0.597   3.354 -0.2927  0.2929  0.5575
 3346SOL    HW121497   3.824   0.542   3.331 -0.5962  0.7006  0.5568
 3346SOL    HW221498   3.893   0.603   3.449 -0.6670 -0.1210  0.5624
 3347SOL     OW21499   1.869   4.225   8.675 -0.4242  0.3205  0.0987
 3347SOL    HW121500   1.889   4.287   8.604 -0.1489  0.0486 -0.0605
 3347SOL    HW221501   1.775   4.240   8.688 -0.7491 -0.6103 -1.1172
 3348SOL     OW21502   2.288   4.046   4.336 -0.4267  0.3822  0.0993
 3348SOL    HW121503   2.329   3.965   4.304 -0.8939  0.3084 -0.3210
 3348SOL    HW221504   2.357   4.080   4.393 -0.1888  2.4724 -1.4552
 3349SOL     OW21505   4.321   3.277   8.023 -0.9398 -0.0025  0.6080
 3349SOL    HW121506   4.346   3.247   7.936 -0.8694 -0.4802  0.7954
 3349SOL    HW221507   4.227   3.263   8.014 -0.7892 -1.3454  1.0745
 3350SOL     OW21508   2.286   1.557  11.344  0.0098  0.3373  0.4551
 3350SOL    HW121509   2.238   1.639  11.358 -0.4170 -0.1736  2.0619
 3350SOL    HW221510   2.321   1.577  11.258 -1.5649  4.4412  0.7743
 3351SOL     OW21511   2.806   3.166   2.988  0.2449  0.3342 -0.2262
 3351SOL    HW121512   2.730   3.215   3.021 -0.0582 -0.2792 -0.0161
 3351SOL    HW221513   2.774   3.156   2.898  1.7484 -1.1384 -0.5806
 3352SOL     OW21514   1.994   4.096   5.583 -0.3652 -0.0857 -0.1542
 3352SOL    HW121515   2.076   4.144   5.566 -0.1016 -1.3113 -2.3197
 3352SOL    HW221516   1.965   4.070   5.496  1.9268  1.4645 -1.4060
 3353SOL     OW21517   0.673   4.009   3.706 -0.4571  0.2178 -0.1432
 3353SOL    HW121518   0.698   3.963   3.786  1.0419 -1.5007 -1.6091
 3353SOL    HW221519   0.605   4.067   3.740 -0.5136 -1.1643  2.0705
 3354SOL     OW21520   3.609   4.664   2.220 -0.0749 -0.0592 -0.0989
 3354SOL    HW121521   3.674   4.605   2.257 -1.2057 -1.5597 -0.5127
 3354SOL    HW221522   3.583   4.617   2.141  0.0334  1.1832 -0.8844
 3355SOL     OW21523   0.407   1.660   9.422  0.5218 -0.3554  0.1494
 3355SOL    HW121524   0.396   1.575   9.465 -1.9223 -0.6689 -1.0923
 3355SOL    HW221525   0.406   1.732   9.485 -0.9778  0.1392 -0.4370
 3356SOL     OW21526   2.065   2.965   6.544  0.0951  0.1328 -0.8084
 3356SOL    HW121527   2.008   2.965   6.620  0.6728  0.8211 -0.3790
 3356SOL    HW221528   2.026   2.901   6.484 -1.8239  1.0981 -0.5923
 3357SOL     OW21529   2.770   3.467   7.165 -0.2235  0.2713  0.2574
 3357SOL    HW121530   2.814   3.538   7.119  0.6616 -0.8592 -0.6503
 3357SOL    HW221531   2.843   3.407   7.182  0.8543  1.5555  0.2023
 3358SOL     OW21532   4.489   0.072   6.799 -0.5520  0.3912 -0.3398
 3358SOL    HW121533   4.500   0.005   6.731 -0.8096 -0.0996  0.1003
 3358SOL    HW221534   4.578   0.101   6.816  0.2092 -1.1593 -1.6126
 3359SOL     OW21535   2.129   1.646   9.084 -0.6253  0.0925  0.2104
 3359SOL    HW121536   2.130   1.733   9.044 -0.3649 -1.2319 -2.6461
 3359SOL    HW221537   2.048   1.643   9.135 -0.8818  0.1229 -0.1973
 3360SOL     OW21538   3.123   4.626   2.499  0.3180 -0.5457 -0.0592
 3360SOL    HW121539   3.129   4.534   2.474  1.3799 -0.6720  0.6724
 3360SOL    HW221540   3.156   4.621   2.589  0.5682  0.7808 -0.0732
 3361SOL     OW21541   3.155   3.973   8.565  0.0236 -0.4747  0.1631
 3361SOL    HW121542   3.179   4.062   8.540 -1.7671  0.2877  1.1037
 3361SOL    HW221543   3.068   3.963   8.526 -1.2532 -0.1618  2.9064
 3362SOL     OW21544   0.984   0.930   8.432 -0.1304  0.0278 -0.2182
 3362SOL    HW121545   1.066   0.945   8.478  1.2754 -1.6080 -2.2220
 3362SOL    HW221546   0.926   0.917   8.507  1.1114  1.0203  0.9226
 3363SOL     OW21547   0.463   1.516   8.591 -0.0504  0.0663 -0.3244
 3363SOL    HW121548   0.545   1.509   8.640  0.4444 -2.0905 -1.4418
 3363SOL    HW221549   0.397   1.502   8.658 -1.7033 -1.1898 -2.2088
 3364SOL     OW21550   3.416   0.351   1.425  0.4178  0.0193  0.5826
 3364SOL    HW121551   3.489   0.404   1.392 -1.9210  2.9922  0.1991
 3364SOL    HW221552   3.417   0.283   1.357 -0.5200  1.5834 -0.9969
 3365SOL     OW21553   3.459   0.496   5.085  0.2656  0.1680  0.0413
 3365SOL    HW121554   3.446   0.463   5.174  0.7199 -0.6373 -0.1857
 3365SOL    HW221555   3.537   0.452   5.050  0.5860 -0.5327  1.6443
 3366SOL     OW21556   3.682   4.206  13.640 -0.1741  0.5797 -0.3155
 3366SOL    HW121557   3.659   4.129  13.693  1.1302  0.7266  0.4807
 3366SOL    HW221558   3.621   4.198  13.567  0.5027  1.5179 -0.9769
 3367SOL     OW21559   2.460   1.282  13.968  0.2089  0.0219  0.3913
 3367SOL    HW121560   2.481   1.202  14.017  2.3707  0.4846  0.2052
 3367SOL    HW221561   2.531   1.342  13.989  1.1631  0.0990 -3.1608
 3368SOL     OW21562   0.707   1.170   9.454  0.6791 -0.3120 -0.1529
 3368SOL    HW121563   0.659   1.228   9.395  0.8467 -0.3207 -0.2972
 3368SOL    HW221564   0.655   1.090   9.452  0.9096 -0.5352  2.1451
 3369SOL     OW21565   2.534   4.575   5.173  0.0123  0.1491 -0.3400
 3369SOL    HW121566   2.491   4.491   5.192  1.5120 -1.0843 -2.3466
 3369SOL    HW221567   2.472   4.611   5.111 -0.3209  1.0327  0.5144
 3370SOL     OW21568   0.778   1.554  11.179  0.6254  1.0080 -0.1803
 3370SOL    HW121569   0.812   1.480  11.130  0.6399 -0.0270  1.4055
 3370SOL    HW221570   0.830   1.542  11.259 -1.2190  0.3268  0.9272
 3371SOL     OW21571   1.898   4.184   7.078  0.6469 -0.0342  0.2874
 3371SOL    HW121572   1.917   4.266   7.123 -0.4822 -1.1143  2.7305
 3371SOL    HW221573   1.917   4.136   7.159 -0.6692  1.2748  1.3478
 3372SOL     OW21574   1.707   0.161   8.826  0.4322  0.5732  0.2795
 3372SOL    HW121575   1.737   0.235   8.879  0.5232  1.5283 -1.0894
 3372SOL    HW221576   1.643   0.125   8.887  0.6243 -1.6864 -0.8775
 3373SOL     OW21577   4.574   0.174   6.264  0.1910  0.4085 -1.0449
 3373SOL    HW121578   4.631   0.154   6.338 -0.3649  0.8267 -0.5003
 3373SOL    HW221579   4.493   0.122   6.269  1.0563 -0.7387  0.9390
 3374SOL     OW21580   3.594   4.261   2.245  0.3035 -0.0026  0.4738
 3374SOL    HW121581   3.527   4.217   2.193 -2.2140  1.2368  2.6980
 3374SOL    HW221582   3.652   4.186   2.260  0.8513  0.1274 -0.9706
 3375SOL     OW21583   1.180   0.431   9.062 -0.0104 -0.3584  0.8421
 3375SOL    HW121584   1.110   0.496   9.051 -0.2363 -1.0966 -2.1017
 3375SOL    HW221585   1.169   0.419   9.156 -2.5540  0.8425  0.7053
 3376SOL     OW21586   3.363   2.695  14.172 -0.0078 -0.2491 -0.1959
 3376SOL    HW121587   3.345   2.787  14.191 -0.5781 -0.4926  0.4726
 3376SOL    HW221588   3.445   2.693  14.122 -0.4104 -2.3780 -0.7585
 3377SOL     OW21589   3.308   2.133  17.188 -0.8830  0.2813  0.1506
 3377SOL    HW121590   3.332   2.217  17.228 -0.9480 -0.5873  2.0158
 3377SOL    HW221591   3.332   2.070  17.255 -1.4178 -0.8346 -0.7145
 3378SOL     OW21592   1.523   4.440   9.616 -0.1755  0.6042  0.3601
 3378SOL    HW121593   1.483   4.416   9.700 -1.9435 -1.4839 -1.0731
 3378SOL    HW221594   1.612   4.408   9.633 -0.1778  0.2231 -0.3466
 3379SOL     OW21595   0.185   2.400   0.583 -0.2317  0.7011 -0.0020
 3379SOL    HW121596   0.267   2.448   0.573  1.1021 -1.5145  0.3721
 3379SOL    HW221597   0.196   2.355   0.667 -1.2384 -1.3448 -0.9720
 3380SOL     OW21598   1.766   3.010   7.260  0.2594 -0.0751 -0.3605
 3380SOL    HW121599   1.674   2.985   7.269  0.0646  0.0511 -1.9022
 3380SOL    HW221600   1.757   3.076   7.191  0.1215  0.0043 -0.2641
 3381SOL     OW21601   3.785   0.476   7.872  0.3217  0.2420 -0.1506
 3381SOL    HW121602   3.768   0.517   7.787 -3.5606 -0.3438  0.3444
 3381SOL    HW221603   3.797   0.385   7.847 -2.6009  0.3183 -1.7860
 3382SOL     OW21604   1.790   1.130   9.982  0.0538 -0.0888  0.1665
 3382SOL    HW121605   1.813   1.038   9.993 -0.8487 -0.0552  2.4615
 3382SOL    HW221606   1.847   1.179  10.041 -2.1511  3.3289 -0.5267
 3383SOL     OW21607   3.928   2.583  11.162 -0.7671  0.0487  0.0739
 3383SOL    HW121608   3.946   2.650  11.096 -1.0517  0.0607  0.0087
 3383SOL    HW221609   4.009   2.532  11.172 -0.9334 -0.3944 -0.8097
 3384SOL     OW21610   2.523   3.706   8.682  0.2978 -0.3831  0.0564
 3384SOL    HW121611   2.510   3.789   8.636 -1.7353 -0.9031 -0.3003
 3384SOL    HW221612   2.467   3.724   8.758  2.0837  2.7169  0.6353
 3385SOL     OW21613   1.812   1.090   8.207  0.3154  0.6943  0.0272
 3385SOL    HW121614   1.824   1.001   8.239 -0.9517  0.3034 -0.6102
 3385SOL    HW221615   1.720   1.096   8.232 -1.0972 -0.2538 -4.9844
 3386SOL     OW21616   2.839   1.138   6.336  0.0258 -0.2887 -0.4068
 3386SOL    HW121617   2.891   1.179   6.268 -1.0574  1.2017 -0.3337
 3386SOL    HW221618   2.905   1.124   6.404 -0.8261  1.6768  0.8430
 3387SOL     OW21619   1.665   4.625   3.677 -0.7702 -0.3462 -0.1288
 3387SOL    HW121620   1.694   4.542   3.639 -0.3707 -0.3557  0.1994
 3387SOL    HW221621   1.749   4.661   3.707 -0.6885 -1.0431  0.4894
 3388SOL     OW21622   1.018   3.038   7.363 -0.0661 -0.4061  0.5243
 3388SOL    HW121623   0.974   3.103   7.308 -0.0438 -0.9779 -0.1746
 3388SOL    HW221624   0.975   3.058   7.446 -2.7891  1.3452 -1.2989
 3389SOL     OW21625   0.809   4.034   9.066  0.6365 -0.2091  0.2713
 3389SOL    HW121626   0.831   3.946   9.034 -0.4706  0.0389 -1.1583
 3389SOL    HW221627   0.715   4.022   9.078  0.5283 -0.2933 -0.6668
 3390SOL     OW21628   1.027   1.107  12.537  0.2319  0.4005 -0.0576
 3390SOL    HW121629   1.055   1.051  12.609 -1.5141 -1.0503 -0.5167
 3390SOL    HW221630   0.935   1.115  12.560 -0.1401  2.7062 -2.3653
 3391SOL     OW21631   0.680   1.723  10.597 -0.1488  0.1386  0.0207
 3391SOL    HW121632   0.757   1.668  10.607  0.3479  0.8790  0.2603
 3391SOL    HW221633   0.716   1.811  10.585 -0.7985  0.0288 -2.6626
 3392SOL     OW21634   2.756   3.338   4.013  0.5403 -0.3231 -0.0423
 3392SOL    HW121635   2.807   3.265   3.976 -0.2242 -1.4913  1.2082
 3392SOL    HW221636   2.683   3.289   4.050  1.3465 -1.1080  0.5244
 3393SOL     OW21637   0.069   3.731   8.116 -0.3917  0.3556  0.4047
 3393SOL    HW121638   4.707   3.764   8.096 -0.7699  0.0755  1.6289
 3393SOL    HW221639   0.049   3.638   8.129 -0.8733  0.3355 -0.4297
 3394SOL     OW21640   2.991   1.270   3.670 -0.2462  0.1568  0.7364
 3394SOL    HW121641   3.073   1.273   3.718  0.4581 -2.0321 -0.3207
 3394SOL    HW221642   3.009   1.334   3.602 -1.0403  0.2275  0.5865
 3395SOL     OW21643   2.090   0.590   0.759 -0.2805 -0.1221 -0.1757
 3395SOL    HW121644   2.032   0.611   0.832  2.2424 -0.7322  2.0152
 3395SOL    HW221645   2.104   0.498   0.782 -0.2463  0.0591  0.5402
 3396SOL     OW21646   3.603   3.988   2.531 -0.4747 -0.7247 -0.5352
 3396SOL    HW121647   3.665   4.029   2.471  2.5326 -1.5661  1.9730
 3396SOL    HW221648   3.591   3.901   2.493  1.2286 -0.1179 -2.4675
 3397SOL     OW21649   1.420   3.655   8.123  0.6915  0.3302  0.0543
 3397SOL    HW121650   1.508   3.665   8.087  0.5021  0.6433 -0.3233
 3397SOL    HW221651   1.373   3.622   8.046  0.0865 -0.9363  0.9604
 3398SOL     OW21652   3.604   0.203  16.705 -0.5005 -0.8170 -0.4461
 3398SOL    HW121653   3.654   0.129  16.742 -1.9082 -1.5067  0.0533
 3398SOL    HW221654   3.673   0.244  16.652 -1.7528  1.6486 -0.1430
 3399SOL     OW21655   1.848   0.675   3.251 -0.3386  0.5051 -0.2868
 3399SOL    HW121656   1.818   0.585   3.262  1.9859 -0.2134  0.0950
 3399SOL    HW221657   1.862   0.677   3.157 -0.2486  1.7623 -0.2521
 3400SOL     OW21658   4.341   1.524   5.091  0.3317 -0.3775 -0.1732
 3400SOL    HW121659   4.248   1.505   5.077  0.4892 -0.4156 -1.2126
 3400SOL    HW221660   4.353   1.543   5.184  2.4393  2.4344 -1.0122
 3401SOL     OW21661   2.497   4.612   9.081 -0.1903 -0.0863  0.0612
 3401SOL    HW121662   2.443   4.645   9.152  0.5141 -0.8829  0.9652
 3401SOL    HW221663   2.459   4.661   9.008  2.1631  0.0931 -1.0168
 3402SOL     OW21664   1.405   1.468  14.455  0.0173  0.1708 -0.3606
 3402SOL    HW121665   1.405   1.513  14.370  2.6319  0.6775 -0.1053
 3402SOL    HW221666   1.497   1.478  14.479  0.1652  0.0824 -0.8962
 3403SOL     OW21667   1.758   3.383   0.181  0.5706  0.4509 -0.1679
 3403SOL    HW121668   1.842   3.414   0.148  1.6105 -0.1642  1.9053
 3403SOL    HW221669   1.699   3.429   0.121 -0.7479 -0.6766  0.2651
 3404SOL     OW21670   3.729   2.295   7.243  0.2090  0.0718 -0.0452
 3404SOL    HW121671   3.695   2.205   7.253  0.6094 -0.1480 -0.7214
 3404SOL    HW221672   3.767   2.285   7.156 -1.8093  0.0317 -0.9429
 3405SOL     OW21673   0.632   1.773   0.428 -0.2591 -0.2529  0.2718
 3405SOL    HW121674   0.638   1.717   0.351  1.2593  1.6145 -0.9497
 3405SOL    HW221675   0.677   1.722   0.495  0.9461  1.3285  0.6442
 3406SOL     OW21676   2.760   3.015   6.582 -0.1390 -0.4169  0.0923
 3406SOL    HW121677   2.821   3.086   6.561 -1.5528  1.0268  0.8865
 3406SOL    HW221678   2.719   3.056   6.658  1.2781  1.1278  0.0422
 3407SOL     OW21679   4.151   4.443   7.893 -0.5345  0.3008  0.4676
 3407SOL    HW121680   4.127   4.371   7.835 -1.1559  0.7820  0.1281
 3407SOL    HW221681   4.119   4.514   7.838 -0.7370 -0.0641  0.1062
 3408SOL     OW21682   2.660   1.326   8.464  0.2175  0.2282  0.0557
 3408SOL    HW121683   2.750   1.358   8.457  1.0413 -1.6462  2.2571
 3408SOL    HW221684   2.642   1.336   8.557  0.5233  1.0324  0.0222
 3409SOL     OW21685   4.494   4.252   6.648 -0.0832 -0.6804  0.9714
 3409SOL    HW121686   4.419   4.279   6.702 -0.9271  1.0366 -1.0446
 3409SOL    HW221687   4.453   4.214   6.571 -1.1539 -1.1558  1.7602
 3410SOL     OW21688   3.636   2.082  17.463  0.7703 -0.1481 -0.1990
 3410SOL    HW121689   3.560   2.024  17.470  0.0407  0.7039 -1.1513
 3410SOL    HW221690   3.643   2.109  17.555 -1.1460  1.8634 -0.6535
 3411SOL     OW21691   3.216   3.233   6.991 -0.0379 -0.1991 -0.3346
 3411SOL    HW121692   3.276   3.305   6.975 -0.6292  0.4574  0.4276
 3411SOL    HW221693   3.274   3.161   7.017  1.0689 -0.3364 -3.1718
 3412SOL     OW21694   0.070   2.549   5.498 -0.0466 -0.0017 -0.0689
 3412SOL    HW121695   0.057   2.614   5.429  0.0754  0.5831  0.4652
 3412SOL    HW221696   4.712   2.505   5.513 -1.6146  3.0072 -0.1107
 3413SOL     OW21697   3.187   3.450   3.544  0.3060 -0.0495  0.0393
 3413SOL    HW121698   3.205   3.501   3.622 -0.4628 -1.5924  1.2145
 3413SOL    HW221699   3.246   3.494   3.482 -0.7554  1.9817  0.4772
 3414SOL     OW21700   3.028   1.181  12.795 -0.3170 -0.1130  0.0846
 3414SOL    HW121701   3.114   1.177  12.835  0.0080  2.0344 -0.3975
 3414SOL    HW221702   2.978   1.120  12.849 -1.1864  0.3538 -0.1924
 3415SOL     OW21703   0.530   4.717   5.582  0.2633  0.0267  0.0769
 3415SOL    HW121704   0.594   4.680   5.642 -0.9089 -2.5152 -0.2678
 3415SOL    HW221705   0.474   4.640   5.589  0.0184  0.2618  0.6766
 3416SOL     OW21706   4.679   0.256   4.044 -0.5424  0.5812 -0.7023
 3416SOL    HW121707   0.024   0.314   4.073 -0.6708  0.3506  0.0525
 3416SOL    HW221708   4.631   0.319   3.989 -0.6262  0.3339 -0.9123
 3417SOL     OW21709   3.333   3.546   8.039  0.4630 -0.4799  0.2860
 3417SOL    HW121710   3.308   3.516   8.126  0.8358  2.2609  1.3535
 3417SOL    HW221711   3.426   3.558   8.060  0.7291 -0.4476 -0.9158
 3418SOL     OW21712   3.839   3.681   0.333  0.4650 -0.0934 -0.1561
 3418SOL    HW121713   3.808   3.591   0.343  1.1299 -0.3689 -0.5746
 3418SOL    HW221714   3.931   3.662   0.352  0.3254 -0.8676 -0.2339
 3419SOL     OW21715   0.727   1.592   4.689 -0.0326  0.3682 -0.6881
 3419SOL    HW121716   0.753   1.501   4.676 -0.5085 -0.0628  1.4267
 3419SOL    HW221717   0.648   1.586   4.743  0.9293 -2.6842  0.3398
 3420SOL     OW21718   3.631   4.162  10.411  0.0542  0.9075 -0.2478
 3420SOL    HW121719   3.673   4.195  10.332  0.5741  0.8120 -0.0102
 3420SOL    HW221720   3.550   4.119  10.381  1.6804 -1.1850 -1.6473
 3421SOL     OW21721   2.350   1.232  10.559  0.5643 -0.0392 -0.0652
 3421SOL    HW121722   2.296   1.179  10.501  1.5537  1.0861 -2.0398
 3421SOL    HW221723   2.384   1.295  10.495  1.1434 -0.2920 -0.0058
 3422SOL     OW21724   4.624   3.822  15.188 -0.8206 -0.2914  0.6259
 3422SOL    HW121725   4.541   3.864  15.209 -1.0662  0.2614 -1.4311
 3422SOL    HW221726   4.668   3.897  15.148 -0.7041  0.1670  1.5975
 3423SOL     OW21727   0.770   3.526   0.579  0.0410  0.5406  0.1320
 3423SOL    HW121728   0.749   3.450   0.525  0.5291 -0.6976  1.6881
 3423SOL    HW221729   0.731   3.591   0.520 -0.3241  0.0962 -0.1147
 3424SOL     OW21730   3.593   4.272   7.268 -0.1763  0.3701  0.1128
 3424SOL    HW121731   3.685   4.252   7.280  0.0686  0.1859 -2.1084
 3424SOL    HW221732   3.588   4.362   7.235 -0.9105  0.2053 -0.2305
 3425SOL     OW21733   2.430   0.024   2.877 -0.1626 -0.0285  0.2693
 3425SOL    HW121734   2.388   4.670   2.844  0.8400 -0.5285  0.2062
 3425SOL    HW221735   2.347   0.065   2.902  0.2389  1.3477 -0.6804
 3426SOL     OW21736   3.569   1.468   1.910  0.4721  0.2027 -0.0210
 3426SOL    HW121737   3.616   1.539   1.865 -0.3610 -0.7867 -2.4666
 3426SOL    HW221738   3.483   1.505   1.927  0.3388  0.6611 -1.6219
 3427SOL     OW21739   3.963   0.468   6.042  0.4210 -0.3666 -0.1808
 3427SOL    HW121740   3.969   0.557   6.007 -0.6013 -0.0898  0.3576
 3427SOL    HW221741   3.989   0.490   6.132  1.3599  1.2236 -0.8412
 3428SOL     OW21742   2.885   3.781   7.508  0.2376 -0.1028  0.3914
 3428SOL    HW121743   2.883   3.730   7.589 -0.6932  1.2937  1.2273
 3428SOL    HW221744   2.824   3.736   7.450  1.1518 -2.5748  1.3309
 3429SOL     OW21745   2.647   1.618   0.326 -0.0032  0.2118  0.3976
 3429SOL    HW121746   2.582   1.582   0.265  1.6740 -1.3490 -0.4459
 3429SOL    HW221747   2.677   1.700   0.287  0.6053 -0.3231 -0.2523
 3430SOL     OW21748   3.619   2.613  17.227 -0.2915  0.7589  0.2308
 3430SOL    HW121749   3.625   2.709  17.225  1.1439  0.6955  1.3949
 3430SOL    HW221750   3.524   2.610  17.224 -0.2577  0.4228 -0.5207
 3431SOL     OW21751   2.926   0.847   5.441 -0.3092 -0.3508  0.1203
 3431SOL    HW121752   2.983   0.910   5.485 -0.7008  2.0561 -2.8098
 3431SOL    HW221753   2.910   0.885   5.355 -0.3936 -0.9257 -0.1162
 3432SOL     OW21754   3.714   0.886   9.718  0.4243  0.4268  0.1929
 3432SOL    HW121755   3.654   0.948   9.757  0.0159 -0.2240  0.5955
 3432SOL    HW221756   3.691   0.806   9.766  1.5574 -0.9399 -1.5135
 3433SOL     OW21757   1.632   0.006   7.424  0.4695 -0.5631 -0.1521
 3433SOL    HW121758   1.541   0.033   7.428  0.5129 -0.3859 -0.3457
 3433SOL    HW221759   1.677   0.082   7.459  0.0756 -1.1229  1.5502
 3434SOL     OW21760   1.929   3.806  17.446 -0.4264 -0.0530 -0.4800
 3434SOL    HW121761   1.977   3.741  17.395 -1.4625 -0.3697 -1.0505
 3434SOL    HW221762   1.913   3.873  17.379  1.2835  0.2528 -0.5947
 3435SOL     OW21763   1.021   2.626   9.148  0.4242  0.5729  0.2191
 3435SOL    HW121764   1.081   2.568   9.102  0.8881  0.7866  0.5537
 3435SOL    HW221765   0.969   2.565   9.201 -0.3887  0.3478 -0.8454
 3436SOL     OW21766   0.049   4.146  17.071  0.3990  0.2987 -0.4109
 3436SOL    HW121767   4.711   4.145  17.000 -0.2596 -0.2074  0.1937
 3436SOL    HW221768   0.035   4.054  17.093  3.8995 -0.2974 -0.7141
 3437SOL     OW21769   0.549   3.012  12.860  0.1174  0.0354 -0.0667
 3437SOL    HW121770   0.462   3.036  12.891  0.8236  3.3151 -0.5962
 3437SOL    HW221771   0.597   3.094  12.849  0.5407 -0.4118 -1.5365
 3438SOL     OW21772   2.189   3.732   6.783 -0.0012  0.0416  0.3672
 3438SOL    HW121773   2.169   3.756   6.692  0.1429  0.7345  0.5217
 3438SOL    HW221774   2.278   3.768   6.784 -0.4714  1.1881  0.1994
 3439SOL     OW21775   1.717   2.087   5.182 -0.3455 -0.5660 -1.1133
 3439SOL    HW121776   1.732   2.108   5.090 -0.1387 -0.0349 -0.9543
 3439SOL    HW221777   1.695   1.994   5.173  0.3440 -0.8154 -0.1694
 3440SOL     OW21778   1.990   3.205   8.306 -0.1215 -0.3890 -0.0985
 3440SOL    HW121779   2.061   3.261   8.274 -0.4384  0.3851  0.5639
 3440SOL    HW221780   1.963   3.161   8.225 -0.5309 -0.6999  0.2022
 3441SOL     OW21781   3.918   3.941  14.897  0.3695 -0.0314 -0.6982
 3441SOL    HW121782   4.009   3.965  14.913  0.5505 -1.3422  0.1954
 3441SOL    HW221783   3.877   3.985  14.972  0.3697 -2.0444  0.4829
 3442SOL     OW21784   1.080   2.009   6.778  0.4627 -0.3021 -0.1959
 3442SOL    HW121785   1.031   2.087   6.752  0.7483  0.3944  1.2986
 3442SOL    HW221786   1.120   2.051   6.855  0.4140 -0.0810 -0.2906
 3443SOL     OW21787   3.495   4.285   3.788 -0.0058  0.7844 -0.4159
 3443SOL    HW121788   3.583   4.274   3.825  0.5661  2.5122 -1.2839
 3443SOL    HW221789   3.465   4.194   3.798  0.0582  0.7629 -0.4208
 3444SOL     OW21790   3.390   4.424   1.884  0.6587  0.3428  0.0141
 3444SOL    HW121791   3.457   4.437   1.951  0.0611 -1.0072  0.8719
 3444SOL    HW221792   3.322   4.381   1.937  0.0620  0.6459 -0.4986
 3445SOL     OW21793   1.648   3.454   3.770  0.3682  0.0194 -0.0368
 3445SOL    HW121794   1.622   3.382   3.713 -0.0529  0.0855  0.0690
 3445SOL    HW221795   1.562   3.462   3.811  0.3568  0.7960 -0.2099
 3446SOL     OW21796   0.330   3.713   5.828  0.2310 -0.4518 -0.7053
 3446SOL    HW121797   0.290   3.789   5.869  0.5517 -0.4612 -0.3697
 3446SOL    HW221798   0.245   3.672   5.815 -0.2997  0.0361  1.3292
 3447SOL     OW21799   2.174   2.628   6.420 -0.4754 -0.3505  0.6270
 3447SOL    HW121800   2.133   2.711   6.395 -1.7247 -1.0971  0.2087
 3447SOL    HW221801   2.260   2.657   6.451 -0.6516 -0.6448  1.4150
 3448SOL     OW21802   2.915   4.631  17.103  0.0101 -0.3607  0.1975
 3448SOL    HW121803   2.895   4.604  17.013  2.6965 -2.8369  0.3219
 3448SOL    HW221804   2.856   4.575  17.154 -0.5542 -0.5292 -0.6457
 3449SOL     OW21805   1.813   2.655  15.328 -0.0361 -0.3992  0.5709
 3449SOL    HW121806   1.802   2.599  15.252 -2.1260 -0.8358  1.2012
 3449SOL    HW221807   1.875   2.609  15.384  0.8136 -0.6193 -0.5565
 3450SOL     OW21808   1.776   0.162  13.666  0.2480 -1.0720  0.2212
 3450SOL    HW121809   1.780   0.117  13.582 -0.4351 -0.3598 -0.1899
 3450SOL    HW221810   1.689   0.134  13.695 -1.2413  2.0921 -1.2246
 3451SOL     OW21811   0.760   0.215   1.236 -0.6542  0.4312  0.0118
 3451SOL    HW121812   0.696   0.252   1.297 -0.3168 -0.8233  1.1226
 3451SOL    HW221813   0.840   0.250   1.276 -1.1624  0.6544  0.8144
 3452SOL     OW21814   3.478   3.157   9.930 -0.6907 -0.1803  0.2951
 3452SOL    HW121815   3.417   3.189   9.996 -1.0804  0.8182 -0.5410
 3452SOL    HW221816   3.509   3.073   9.964 -0.7469 -0.2406  0.1973
 3453SOL     OW21817   1.529   1.105   3.791 -0.3135  0.6449  0.5764
 3453SOL    HW121818   1.558   1.053   3.716  0.9120  0.0263  1.4552
 3453SOL    HW221819   1.592   1.078   3.859  2.0409  2.6234 -0.8362
 3454SOL     OW21820   0.902   1.485  11.440 -0.5458  0.0051 -1.6241
 3454SOL    HW121821   0.864   1.429  11.509  0.4754 -0.0692 -1.1264
 3454SOL    HW221822   0.988   1.514  11.471 -0.6493 -0.1686 -1.1625
 3455SOL     OW21823   1.906   2.775   7.293 -0.4867  0.0159  0.0725
 3455SOL    HW121824   1.826   2.751   7.339 -0.0327 -0.3360  0.6790
 3455SOL    HW221825   1.890   2.869   7.289  1.3177  0.4944  4.8902
 3456SOL     OW21826   2.204   4.725  11.750  0.0324  0.1542  0.4582
 3456SOL    HW121827   2.186   0.091  11.765 -2.2988  0.4204 -3.8765
 3456SOL    HW221828   2.205   4.725  11.654 -0.4558 -1.4219  0.4512
 3457SOL     OW21829   3.969   0.731   5.985  0.0234 -0.4582 -0.2586
 3457SOL    HW121830   3.927   0.796   6.041 -1.5544 -1.1644 -0.6155
 3457SOL    HW221831   4.061   0.746   6.008 -0.1448 -2.8925  1.9185
 3458SOL     OW21832   3.140   2.000   0.973 -0.1348  0.5788 -0.8518
 3458SOL    HW121833   3.045   1.991   0.970  0.1204 -1.5014 -2.7224
 3458SOL    HW221834   3.171   1.910   0.978  0.0712  0.6412 -0.9816
 3459SOL     OW21835   4.032   4.013   7.243 -0.8238 -0.0260 -0.1523
 3459SOL    HW121836   4.049   4.058   7.160  3.1123 -1.5254 -0.1504
 3459SOL    HW221837   4.111   3.961   7.256 -0.6056 -0.1990 -2.1506
 3460SOL     OW21838   1.270   1.080  13.634  0.6794 -0.0420 -0.1116
 3460SOL    HW121839   1.262   1.155  13.574 -0.4217 -1.7818 -2.1046
 3460SOL    HW221840   1.198   1.089  13.697  1.9758 -2.1970  1.6516
 3461SOL     OW21841   4.521   0.388   6.786 -0.1661  0.2937  0.0036
 3461SOL    HW121842   4.603   0.419   6.824 -0.3139  0.0551  0.5149
 3461SOL    HW221843   4.470   0.354   6.860 -0.7712  0.2192 -0.4425
 3462SOL     OW21844   0.083   2.405  12.137  0.9201  0.5298  0.3283
 3462SOL    HW121845   0.125   2.491  12.134  1.7102  0.1474  0.4745
 3462SOL    HW221846   0.139   2.347  12.189 -2.6258 -2.6314  0.6556
 3463SOL     OW21847   1.772   1.955  15.814 -1.2359  0.2409  0.2906
 3463SOL    HW121848   1.846   1.966  15.754 -0.8345 -1.0130  0.5542
 3463SOL    HW221849   1.821   1.939  15.895 -1.3792 -0.2740  0.2754
 3464SOL     OW21850   3.745   4.045   2.290  0.1091 -0.0138 -0.1181
 3464SOL    HW121851   3.739   3.957   2.253 -0.7617  0.5524 -1.2873
 3464SOL    HW221852   3.838   4.068   2.286 -0.1322  0.7723 -1.0765
 3465SOL     OW21853   3.097   4.034  11.218  0.0961  0.2684 -0.0591
 3465SOL    HW121854   3.114   4.117  11.263  0.6953  0.8004 -1.2587
 3465SOL    HW221855   3.182   4.020  11.177 -0.1149  1.6559 -0.9718
 3466SOL     OW21856   0.288   3.753   5.000 -0.5640 -0.3509 -0.0699
 3466SOL    HW121857   0.246   3.832   5.034 -4.1785 -1.4998 -1.9055
 3466SOL    HW221858   0.235   3.748   4.921 -1.6822  0.7461  0.6098
 3467SOL     OW21859   1.264   4.003   9.615  0.1658  0.2238 -0.3066
 3467SOL    HW121860   1.300   3.917   9.593 -1.4864 -0.5650  0.0763
 3467SOL    HW221861   1.234   3.981   9.703  3.5091  0.4242  0.8763
 3468SOL     OW21862   2.460   3.847   6.795  0.1534  0.2436  0.0002
 3468SOL    HW121863   2.489   3.937   6.781  1.7945 -0.4749 -1.1921
 3468SOL    HW221864   2.483   3.836   6.888  2.9365  1.5223 -0.5276
 3469SOL     OW21865   2.216   1.309   3.398  0.3947 -0.9155  0.4129
 3469SOL    HW121866   2.143   1.278   3.451 -0.5257  1.7401  0.6873
 3469SOL    HW221867   2.282   1.251   3.437  1.2522 -0.2632 -0.0731
 3470SOL     OW21868   1.262   4.247  11.588  0.0683  0.0897 -0.2083
 3470SOL    HW121869   1.294   4.300  11.516  0.4434 -1.4890 -1.1957
 3470SOL    HW221870   1.302   4.162  11.569 -0.7238 -0.1061 -0.9984
 3471SOL     OW21871   2.451   2.797  15.916 -0.4774 -1.0913  0.2234
 3471SOL    HW121872   2.371   2.780  15.866  0.5135 -2.5474 -0.8664
 3471SOL    HW221873   2.409   2.820  15.999 -3.6299  0.3387 -1.7608
 3472SOL     OW21874   0.609   0.110   6.505  0.6474 -0.0220  0.1673
 3472SOL    HW121875   0.612   0.063   6.588 -0.2498  3.3543  2.1253
 3472SOL    HW221876   0.523   0.151   6.496  0.4754 -0.8913 -2.1422
 3473SOL     OW21877   0.490   4.521  10.830 -0.2665  0.2918  0.1448
 3473SOL    HW121878   0.575   4.530  10.786 -0.8613  0.7767 -0.9164
 3473SOL    HW221879   0.469   4.614  10.830 -1.8110 -0.0620  1.3410
 3474SOL     OW21880   2.264   2.615  17.399 -0.0549  0.1573 -0.2372
 3474SOL    HW121881   2.276   2.530  17.356  0.5776  0.6425 -1.0301
 3474SOL    HW221882   2.239   2.669  17.324  0.1127 -1.5236 -1.4927
 3475SOL     OW21883   3.933   0.626  15.712 -0.0281 -0.6465  0.6480
 3475SOL    HW121884   3.976   0.595  15.632  0.3560  0.7895  0.3065
 3475SOL    HW221885   3.923   0.542  15.757 -2.1116 -0.5900  0.2681
 3476SOL     OW21886   3.939   2.859   5.470  0.4075 -0.3367 -0.6315
 3476SOL    HW121887   3.932   2.876   5.376  0.2073  1.1361 -0.3399
 3476SOL    HW221888   4.007   2.791   5.471  1.3929  0.6473 -0.8598
 3477SOL     OW21889   0.040   4.179   4.430 -0.6401  0.3663  0.5194
 3477SOL    HW121890   4.722   4.109   4.383  0.7448 -0.5610  0.6088
 3477SOL    HW221891   4.707   4.254   4.421  0.0426  1.0107  1.3849
 3478SOL     OW21892   1.628   0.081   5.844 -0.0808  0.3074  0.2076
 3478SOL    HW121893   1.574   0.136   5.900 -0.2172 -1.2517  1.5924
 3478SOL    HW221894   1.713   0.122   5.855  1.8826 -3.9546  0.8126
 3479SOL     OW21895   1.207   1.611  15.593 -0.1067  0.2168  0.4230
 3479SOL    HW121896   1.271   1.668  15.551 -0.8262 -0.2777 -1.3430
 3479SOL    HW221897   1.250   1.595  15.677 -0.6205  0.6947  0.7855
 3480SOL     OW21898   2.808   1.471   4.796 -0.2452  0.5831 -0.3607
 3480SOL    HW121899   2.861   1.482   4.718 -2.7237  1.0723 -1.9756
 3480SOL    HW221900   2.718   1.469   4.762  0.6499  0.3564 -2.6541
 3481SOL     OW21901   4.050   0.556   9.271 -0.6358 -0.1290 -0.6167
 3481SOL    HW121902   4.044   0.477   9.326 -0.6103  1.2035  1.2826
 3481SOL    HW221903   4.009   0.513   9.196  0.3790  2.2636 -2.5170
 3482SOL     OW21904   2.418   2.611   4.185  0.1337 -0.1457 -0.0561
 3482SOL    HW121905   2.392   2.630   4.276  1.9387  2.1052  0.0120
 3482SOL    HW221906   2.414   2.702   4.155  1.8431  0.6259  2.0007
 3483SOL     OW21907   1.301   3.499   0.917  0.0200 -0.3300 -0.1586
 3483SOL    HW121908   1.322   3.427   0.857 -0.4637 -0.0080 -0.7073
 3483SOL    HW221909   1.249   3.557   0.861  1.5380  1.0127 -0.1622
 3484SOL     OW21910   1.772   1.793   2.137  0.0150  0.1687 -0.0531
 3484SOL    HW121911   1.684   1.760   2.156  0.5371  0.8706  3.5613
 3484SOL    HW221912   1.784   1.759   2.048 -1.2206 -0.5829  0.0696
 3485SOL     OW21913   1.606   0.597   2.932  0.1320 -0.3247  0.0186
 3485SOL    HW121914   1.547   0.664   2.965  0.8843  0.6360 -0.5893
 3485SOL    HW221915   1.593   0.524   2.992 -0.7254 -0.5813 -0.4904
 3486SOL     OW21916   0.936   2.621   2.018 -0.0730  0.4067 -0.8375
 3486SOL    HW121917   0.931   2.701   2.070  0.6021 -1.1462  1.6164
 3486SOL    HW221918   1.025   2.587   2.029 -0.4051 -0.2219 -0.0104
 3487SOL     OW21919   1.697   2.125   6.450 -0.3151  0.3855  0.5175
 3487SOL    HW121920   1.703   2.207   6.400 -0.1936 -0.2535 -0.5052
 3487SOL    HW221921   1.718   2.156   6.539 -0.8829  0.9728  0.4485
 3488SOL     OW21922   4.514   4.063   7.327  0.5639 -0.0551  0.1167
 3488SOL    HW121923   4.498   3.969   7.336  1.0905 -0.3439 -1.8780
 3488SOL    HW221924   4.429   4.092   7.359  0.2128 -1.3790  0.3937
 3489SOL     OW21925   3.787   0.902   1.718 -0.0832 -0.0626  0.4000
 3489SOL    HW121926   3.882   0.915   1.717 -0.0807 -0.3661 -2.5185
 3489SOL    HW221927   3.785   0.807   1.727 -0.0760 -0.1132 -0.1052
 3490SOL     OW21928   0.329   2.884   5.480  0.1658 -0.4552  0.1341
 3490SOL    HW121929   0.323   2.793   5.452  2.3082 -0.6373  0.2095
 3490SOL    HW221930   0.315   2.876   5.574  1.0363 -1.6497  0.1639
 3491SOL     OW21931   1.700   3.709  15.628 -0.6823 -0.4226 -0.3905
 3491SOL    HW121932   1.611   3.679  15.610 -0.6395  0.2472 -1.6791
 3491SOL    HW221933   1.724   3.661  15.707  2.7103  0.2725 -1.0322
 3492SOL     OW21934   3.125   1.498   8.715 -0.4611 -0.1743 -0.8492
 3492SOL    HW121935   3.196   1.462   8.662  0.8580  0.8929  0.1902
 3492SOL    HW221936   3.154   1.466   8.800 -1.0618 -1.3648 -1.1007
 3493SOL     OW21937   3.741   1.242  11.253  0.3414 -0.0535  0.3032
 3493SOL    HW121938   3.789   1.191  11.318 -0.5480 -0.4964  0.6172
 3493SOL    HW221939   3.664   1.254  11.308 -1.1324 -0.6643 -1.6422
 3494SOL     OW21940   3.365   3.024   2.281  0.1988  0.2106 -0.1402
 3494SOL    HW121941   3.300   2.954   2.279  1.0050 -0.5595  0.7319
 3494SOL    HW221942   3.313   3.095   2.243 -1.0360  0.0420  1.2400
 3495SOL     OW21943   4.476   2.259   3.615  0.3888  0.1209  0.3177
 3495SOL    HW121944   4.408   2.305   3.663 -0.1996 -1.0409  0.6019
 3495SOL    HW221945   4.557   2.297   3.649 -1.2081  0.1386  4.1412
 3496SOL     OW21946   2.745   2.024  13.355  0.1323  0.0904  0.2242
 3496SOL    HW121947   2.775   2.114  13.350 -0.1089  0.1381 -0.3124
 3496SOL    HW221948   2.823   1.978  13.386  0.3106  1.2569  1.5072
 3497SOL     OW21949   0.974   3.940   8.586  0.3247 -0.7638  0.3573
 3497SOL    HW121950   0.943   3.941   8.496 -0.1883 -3.5196  0.4695
 3497SOL    HW221951   0.893   3.917   8.633 -1.9787  3.7453 -1.4709
 3498SOL     OW21952   4.301   4.373   5.531  0.4832 -0.3856 -0.0972
 3498SOL    HW121953   4.372   4.421   5.572  0.0515  1.7293 -1.8216
 3498SOL    HW221954   4.264   4.444   5.478 -0.9970 -0.8861  0.2638
 3499SOL     OW21955   0.717   2.190  11.010  0.0078 -0.7117  0.3170
 3499SOL    HW121956   0.718   2.101  11.045  1.8112 -1.1078 -0.7129
 3499SOL    HW221957   0.749   2.230  11.091  0.0534 -0.6337  0.2615
 3500SOL     OW21958   0.351   1.885   7.741 -0.6004  0.3295  0.0648
 3500SOL    HW121959   0.352   1.920   7.652  1.2264  0.9233  0.3039
 3500SOL    HW221960   0.324   1.795   7.723  0.2977 -0.2993  1.8797
 3501SOL     OW21961   0.632   1.396   2.928  0.2472  0.6624  0.3198
 3501SOL    HW121962   0.705   1.419   2.871  1.0993  1.1635  1.6167
 3501SOL    HW221963   0.663   1.411   3.017 -1.3437 -1.5410  1.2638
 3502SOL     OW21964   3.666   1.323   6.819 -0.4911  0.1192 -0.5087
 3502SOL    HW121965   3.612   1.331   6.740 -0.5493  0.1602 -0.4646
 3502SOL    HW221966   3.724   1.399   6.824 -0.6940  0.3452 -1.4222
 3503SOL     OW21967   1.450   4.690   4.971 -0.4398 -0.1095 -0.3535
 3503SOL    HW121968   1.372   0.018   4.976 -1.3988 -1.6668  1.2777
 3503SOL    HW221969   1.502   4.723   5.044 -0.7734  1.4190 -0.8132
 3504SOL     OW21970   4.017   3.467   7.190  0.2171 -0.0810  0.3733
 3504SOL    HW121971   4.065   3.468   7.272  0.1642 -0.8007  0.4095
 3504SOL    HW221972   4.057   3.542   7.145 -1.2320  0.6613  0.3068
 3505SOL     OW21973   2.220   3.522   3.795  0.4202 -0.3845  0.4226
 3505SOL    HW121974   2.142   3.501   3.744  0.0929 -0.7530  1.0805
 3505SOL    HW221975   2.191   3.594   3.852  0.9061 -0.3222  0.5933
 3506SOL     OW21976   2.367   2.783   6.545  0.6112 -0.1689 -0.1754
 3506SOL    HW121977   2.345   2.859   6.598 -0.4256 -1.1135  0.7376
 3506SOL    HW221978   2.454   2.763   6.579  0.3900 -0.7853  0.0384
 3507SOL     OW21979   1.951   0.639   0.996 -0.4311  0.1851 -0.4929
 3507SOL    HW121980   1.861   0.667   1.013  0.2793  1.9518  0.4031
 3507SOL    HW221981   1.962   0.565   1.056 -0.0758  0.5239 -0.1405
 3508SOL     OW21982   3.175   3.733   1.891 -0.1522  0.5513  0.6715
 3508SOL    HW121983   3.170   3.655   1.945  1.1690  0.4577  0.6676
 3508SOL    HW221984   3.082   3.735   1.869  0.6471 -0.0305 -2.7786
 3509SOL     OW21985   1.081   4.251   6.321  0.4588  0.3127 -0.1153
 3509SOL    HW121986   0.987   4.269   6.322  0.3173 -0.5409  1.3283
 3509SOL    HW221987   1.117   4.333   6.354  2.3821 -0.1082 -1.1527
 3510SOL     OW21988   3.494   1.241  13.021 -0.6670 -0.1020 -0.0201
 3510SOL    HW121989   3.467   1.329  12.994  1.4481  0.3290 -0.7674
 3510SOL    HW221990   3.556   1.212  12.954  0.2345 -0.0837  0.7987
 3511SOL     OW21991   0.350   2.908  13.058  0.0959  0.1512  0.2696
 3511SOL    HW121992   0.389   2.829  13.022 -1.9993  0.1416 -2.0244
 3511SOL    HW221993   0.355   2.864  13.142 -0.4240 -0.1673  0.1334
 3512SOL     OW21994   0.268   3.583   4.099  0.0702  0.2853 -0.0932
 3512SOL    HW121995   0.316   3.595   4.018 -1.5576 -0.2414 -1.1409
 3512SOL    HW221996   0.230   3.670   4.112 -0.6985  0.1166 -1.2501
 3513SOL     OW21997   1.246   4.316   3.057  0.2718  0.1602  0.0106
 3513SOL    HW121998   1.306   4.249   3.091 -0.4285  0.8450  2.6129
 3513SOL    HW221999   1.202   4.271   2.985  0.4286 -1.6363  1.0337
 3514SOL     OW22000   2.499   0.454   3.948 -0.2074  0.3212 -0.0799
 3514SOL    HW122001   2.404   0.448   3.961 -0.2700 -1.8169 -1.5329
 3514SOL    HW222002   2.529   0.522   4.009  0.7836 -0.5252  0.3752
 3515SOL     OW22003   3.362   3.086  12.092  0.1410  0.5790  0.3212
 3515SOL    HW122004   3.407   3.134  12.022  0.0325 -0.6163 -0.5777
 3515SOL    HW222005   3.425   3.089  12.164 -1.1624 -0.9255  1.5101
 3516SOL     OW22006   2.299   4.481   3.453  0.0114 -0.9507 -0.2133
 3516SOL    HW122007   2.384   4.524   3.458 -0.0585 -0.7600 -0.6132
 3516SOL    HW222008   2.311   4.417   3.383  0.8794 -1.9021  0.8219
 3517SOL     OW22009   4.301   0.753  13.353 -0.2968 -0.0401  0.2641
 3517SOL    HW122010   4.328   0.739  13.262  1.7733 -0.7078  0.9865
 3517SOL    HW222011   4.207   0.735  13.353 -0.1272 -0.9214  0.7311
 3518SOL     OW22012   0.404   4.211   2.820  0.8213 -0.0450  0.5551
 3518SOL    HW122013   0.411   4.304   2.838  3.1166  0.0088 -0.7366
 3518SOL    HW222014   0.495   4.200   2.796  0.9754 -1.8108  1.8891
 3519SOL     OW22015   2.117   3.838   7.129  0.0551 -0.4453 -0.3665
 3519SOL    HW122016   2.196   3.806   7.174  1.8914  2.2028 -1.6752
 3519SOL    HW222017   2.061   3.767   7.160 -0.2784  1.1136  2.6768
 3520SOL     OW22018   0.990   0.862  10.459 -0.0798 -0.1211  0.2507
 3520SOL    HW122019   0.946   0.945  10.476  1.4728  0.8363 -0.4447
 3520SOL    HW222020   1.073   0.871  10.506  0.3960  0.3441 -0.6783
 3521SOL     OW22021   4.198   1.759  15.133 -0.3656  0.2805  0.8813
 3521SOL    HW122022   4.165   1.715  15.212 -1.6021 -1.0461 -0.3959
 3521SOL    HW222023   4.274   1.792  15.181  0.7435 -1.6084  0.4341
 3522SOL     OW22024   1.724   1.760   0.629  0.4398  0.0465  0.1290
 3522SOL    HW122025   1.755   1.779   0.717  0.2289 -4.2461  1.1446
 3522SOL    HW222026   1.656   1.827   0.627 -1.0289 -1.5124 -2.3303
 3523SOL     OW22027   0.329   1.454   8.846 -0.4837 -0.0101 -0.3004
 3523SOL    HW122028   0.320   1.523   8.911  1.1795  2.4983 -2.7076
 3523SOL    HW222029   0.358   1.381   8.901  1.6226  1.7383  0.9314
 3524SOL     OW22030   3.507   2.118   6.619  0.1759 -0.2203  0.4691
 3524SOL    HW122031   3.478   2.117   6.711  0.4402  2.2778  0.5660
 3524SOL    HW222032   3.480   2.031   6.589 -1.1010  0.1360  0.5859
 3525SOL     OW22033   4.693   2.433   1.050 -0.4390 -0.1419 -0.0467
 3525SOL    HW122034   4.717   2.487   0.975  0.2136  0.4867  0.6124
 3525SOL    HW222035   0.025   2.456   1.123 -1.5121  0.2632  0.6908
 3526SOL     OW22036   0.464   0.248   4.755 -0.4611  1.0082 -0.2406
 3526SOL    HW122037   0.459   0.344   4.762  0.8945  0.8311  3.3350
 3526SOL    HW222038   0.560   0.243   4.756 -0.3815  2.0957 -1.9552
 3527SOL     OW22039   1.421   4.266   9.855 -0.3429 -0.0541  0.1427
 3527SOL    HW122040   1.463   4.347   9.885  0.4943 -0.2112 -0.6092
 3527SOL    HW222041   1.492   4.201   9.857  1.7729  2.2315 -0.9126
 3528SOL     OW22042   1.267   0.109   7.916  0.2526  0.1996  0.1966
 3528SOL    HW122043   1.272   0.037   7.854  2.5244  0.6309 -0.1169
 3528SOL    HW222044   1.305   0.183   7.868  0.8323 -2.2533 -3.0966
 3529SOL     OW22045   0.288   0.490  16.600 -0.3700 -0.6155  0.3984
 3529SOL    HW122046   0.236   0.569  16.615 -0.9420  0.1494 -5.3541
 3529SOL    HW222047   0.247   0.430  16.662 -0.2110 -1.0087  0.1246
 3530SOL     OW22048   2.634   2.433   0.234  0.5100  0.7292  0.2082
 3530SOL    HW122049   2.594   2.354   0.197 -1.5803  1.4341  0.9236
 3530SOL    HW222050   2.682   2.467   0.159  0.4670  1.2534  0.4138
 3531SOL     OW22051   0.251   2.252   8.194  0.1026  0.0869  0.1444
 3531SOL    HW122052   0.307   2.177   8.177 -0.0788  0.1075 -0.5438
 3531SOL    HW222053   0.310   2.325   8.212  0.6435 -0.7529  1.7338
 3532SOL     OW22054   4.410   4.244  12.202 -0.2574 -0.3793 -0.1637
 3532SOL    HW122055   4.402   4.187  12.279  2.6613 -0.0686  0.3540
 3532SOL    HW222056   4.500   4.275  12.201 -0.4900  0.3668  1.7698
 3533SOL     OW22057   3.463   3.584  12.214 -0.1707  0.0236 -0.3623
 3533SOL    HW122058   3.409   3.516  12.254  1.8299 -1.4267 -0.1028
 3533SOL    HW222059   3.445   3.567  12.122  0.5169 -0.2542 -0.4415
 3534SOL     OW22060   4.128   1.291   3.650 -0.1617 -0.1565  0.1362
 3534SOL    HW122061   4.064   1.284   3.721 -1.4176  1.7849 -0.7927
 3534SOL    HW222062   4.122   1.381   3.618 -1.1640 -0.0951  0.5043
 3535SOL     OW22063   3.684   2.112  13.406 -0.3419  0.1368  0.4704
 3535SOL    HW122064   3.771   2.075  13.391  0.0293  0.8214  0.9077
 3535SOL    HW222065   3.631   2.053  13.354  0.4834 -0.8474  0.7467
 3536SOL     OW22066   0.237   1.995   6.380  0.2577  0.0102 -0.1159
 3536SOL    HW122067   0.217   1.940   6.304 -4.0440 -0.7555  1.5737
 3536SOL    HW222068   0.158   1.986   6.434 -0.4617  0.2559 -1.1038
 3537SOL     OW22069   2.031   3.733  13.294 -0.2642 -0.4265 -0.3173
 3537SOL    HW122070   2.029   3.659  13.233  0.8381  0.3226 -1.2727
 3537SOL    HW222071   2.117   3.771  13.276  0.2023 -1.2087  0.2931
 3538SOL     OW22072   4.426   0.437  10.548  0.3942 -0.4314 -0.5376
 3538SOL    HW122073   4.460   0.439  10.459  0.8901 -1.3286 -0.3713
 3538SOL    HW222074   4.447   0.525  10.579  0.6556 -0.1786 -1.4508
 3539SOL     OW22075   0.041   0.981   2.054 -0.3942 -0.3293  0.0051
 3539SOL    HW122076   4.717   0.901   2.071 -0.5059 -0.4745 -1.0145
 3539SOL    HW222077   0.107   0.943   1.997 -0.7802  0.5741 -1.0331
 3540SOL     OW22078   2.589   4.145   1.735 -0.3443 -0.0438  0.5613
 3540SOL    HW122079   2.536   4.216   1.774 -2.6567 -1.2219 -0.4191
 3540SOL    HW222080   2.583   4.179   1.645 -1.4396 -1.1227  0.2334
 3541SOL     OW22081   2.904   3.269  14.985 -0.4803 -0.5890  0.0951
 3541SOL    HW122082   2.910   3.174  15.001 -0.5039 -0.7660 -0.9889
 3541SOL    HW222083   2.927   3.294  15.075  1.0046  1.0175 -0.7353
 3542SOL     OW22084   4.328   4.537   4.654  0.1443  0.2314 -0.0224
 3542SOL    HW122085   4.321   4.547   4.749 -0.2298 -1.0110  0.0748
 3542SOL    HW222086   4.419   4.561   4.638 -0.7555  2.4668 -1.8279
 3543SOL     OW22087   0.842   0.821   8.142 -0.1426  0.2099 -0.0749
 3543SOL    HW122088   0.875   0.842   8.054 -0.3889 -0.7684 -0.4079
 3543SOL    HW222089   0.746   0.819   8.134 -0.4135  0.5800  3.2277
 3544SOL     OW22090   1.293   3.857   8.964  0.3816  0.1662 -0.1421
 3544SOL    HW122091   1.371   3.911   8.948 -0.3422  0.7548 -1.6560
 3544SOL    HW222092   1.257   3.839   8.878 -2.3201  0.5703  0.9062
 3545SOL     OW22093   2.214   0.211   2.818  0.9164  0.4455  0.2563
 3545SOL    HW122094   2.303   0.244   2.818  1.8544 -2.0874  2.7714
 3545SOL    HW222095   2.159   0.287   2.835  1.5064  0.8652  0.2686
 3546SOL     OW22096   1.014   2.707   6.303  0.0537 -0.4378 -0.2289
 3546SOL    HW122097   0.990   2.796   6.277 -1.4071 -0.4886  0.9546
 3546SOL    HW222098   1.109   2.711   6.293  0.0010  2.2102  0.5265
 3547SOL     OW22099   3.976   4.073  16.442 -0.3648 -0.0581  0.2969
 3547SOL    HW122100   4.071   4.076  16.454 -0.5059 -0.4619  1.5043
 3547SOL    HW222101   3.942   4.028  16.520  1.0442 -2.8073 -0.6955
 3548SOL     OW22102   4.333   2.401   3.830  0.2810 -0.4556 -0.5168
 3548SOL    HW122103   4.331   2.319   3.880 -0.8595 -0.9561 -1.3730
 3548SOL    HW222104   4.383   2.456   3.890  0.2516  0.6111 -1.4523
 3549SOL     OW22105   3.592   2.402   0.851 -0.3117 -0.4043 -0.1235
 3549SOL    HW122106   3.536   2.356   0.913 -1.8278  2.0607  0.3522
 3549SOL    HW222107   3.654   2.333   0.827 -0.3072  0.2806 -2.0081
 3550SOL     OW22108   4.659   0.888   5.434 -0.2310  0.0822 -0.1512
 3550SOL    HW122109   4.674   0.877   5.340 -4.2792 -0.6575 -0.7051
 3550SOL    HW222110   4.710   0.820   5.480  1.6231  0.1818 -2.0492
 3551SOL     OW22111   0.749   0.046   9.562  0.0212 -0.0797  0.3130
 3551SOL    HW122112   0.743   4.676   9.566  0.7360 -0.1956 -1.0594
 3551SOL    HW222113   0.687   0.048   9.634 -0.4130  0.9839 -0.1004
 3552SOL     OW22114   3.598   3.744   9.307 -0.6258  0.2092 -0.4366
 3552SOL    HW122115   3.504   3.726   9.312 -0.6167  0.0305 -0.9225
 3552SOL    HW222116   3.625   3.709   9.392 -1.9210 -0.9931 -0.5097
 3553SOL     OW22117   2.740   3.923   1.667 -0.2981  0.2366  0.7857
 3553SOL    HW122118   2.719   3.993   1.729 -1.1379 -0.4443  1.2639
 3553SOL    HW222119   2.789   3.966   1.597  0.4688 -0.6106  0.7890
 3554SOL     OW22120   1.459   2.721   8.618 -0.1204  0.0690 -0.1563
 3554SOL    HW122121   1.548   2.746   8.591  0.9390 -1.6809  1.7213
 3554SOL    HW222122   1.457   2.777   8.696  2.8380 -1.1221  0.7837
 3555SOL     OW22123   0.479   4.103  17.217  0.9651  0.0059  0.4354
 3555SOL    HW122124   0.447   4.100  17.307  0.7356 -1.2389  0.3068
 3555SOL    HW222125   0.458   4.017  17.182  0.6602 -0.0546  0.7683
 3556SOL     OW22126   1.877   0.679   3.854  0.0610  0.1208 -0.1084
 3556SOL    HW122127   1.857   0.630   3.933  1.5170  1.7637  1.2632
 3556SOL    HW222128   1.966   0.709   3.870  0.3414 -0.7605  0.0146
 3557SOL     OW22129   0.831   0.609  13.528  0.1428 -0.2637 -0.3903
 3557SOL    HW122130   0.736   0.622  13.531  0.2118  0.2532 -0.4594
 3557SOL    HW222131   0.862   0.688  13.572 -1.5278 -0.2840  0.8283
 3558SOL     OW22132   3.086   1.808  17.159 -0.1037  0.3751 -0.0555
 3558SOL    HW122133   3.152   1.864  17.117  0.2927  0.1024  0.2089
 3558SOL    HW222134   3.021   1.796  17.089 -0.6299 -0.6821  0.6156
 3559SOL     OW22135   4.671   0.934  10.887  0.7096  0.2765  0.1434
 3559SOL    HW122136   4.705   0.981  10.811  0.6315  0.9484  0.5291
 3559SOL    HW222137   4.600   0.993  10.912  1.2278  0.5886  0.8808
 3560SOL     OW22138   1.037   1.813  17.403 -0.0406  0.3818 -0.3397
 3560SOL    HW122139   1.005   1.765  17.327  3.1359  0.6580 -1.8455
 3560SOL    HW222140   1.082   1.886  17.360 -1.0046  1.4599  0.4714
 3561SOL     OW22141   2.030   3.803   4.588 -0.4566 -0.0621  0.3480
 3561SOL    HW122142   2.021   3.712   4.614 -0.6313 -1.1366 -3.4175
 3561SOL    HW222143   2.046   3.847   4.671  0.1441  1.6681 -0.6849
 3562SOL     OW22144   1.713   2.486   6.793 -0.1642 -0.4117 -0.4721
 3562SOL    HW122145   1.663   2.562   6.824  2.0663  1.7973 -2.3044
 3562SOL    HW222146   1.789   2.530   6.755  3.2194 -2.9309  3.3791
 3563SOL     OW22147   4.073   4.414   3.513 -0.0293 -0.2403 -0.1463
 3563SOL    HW122148   4.102   4.495   3.556  0.8321 -1.8054  2.2300
 3563SOL    HW222149   4.087   4.421   3.419  1.8457  1.1490  0.2490
 3564SOL     OW22150   0.931   1.028  16.923 -0.1963 -0.1378  0.2379
 3564SOL    HW122151   0.988   0.980  16.864 -0.1493 -0.8329  0.8478
 3564SOL    HW222152   0.931   1.118  16.890  1.8396 -0.2086  0.0597
 3565SOL     OW22153   0.785   4.485  11.065  0.0000  0.1718  0.4448
 3565SOL    HW122154   0.750   4.574  11.055 -0.3569 -0.0615 -0.3713
 3565SOL    HW222155   0.766   4.467  11.157 -1.1028  0.5041  0.2888
 3566SOL     OW22156   0.374   1.380  11.742  0.1316 -0.2165  0.7858
 3566SOL    HW122157   0.293   1.408  11.785 -1.6797  0.5581 -3.1392
 3566SOL    HW222158   0.393   1.448  11.678  0.6471  0.4685  1.6855
 3567SOL     OW22159   2.494   1.244   2.129 -0.0081 -0.5954  0.0760
 3567SOL    HW122160   2.471   1.163   2.175  0.4125  0.8475  2.8757
 3567SOL    HW222161   2.587   1.222   2.132  0.1571  0.2994  1.5403
 3568SOL     OW22162   1.514   1.760   3.240 -0.0094 -0.1598  0.2332
 3568SOL    HW122163   1.423   1.786   3.224  0.3901  1.1170  0.0552
 3568SOL    HW222164   1.528   1.733   3.331 -0.2421  1.7190  0.8298
 3569SOL     OW22165   0.745   2.293   3.988  0.2453  0.2615 -0.1696
 3569SOL    HW122166   0.688   2.279   3.913  0.5560  1.5185 -0.6306
 3569SOL    HW222167   0.781   2.377   3.961  0.4439  0.5162  0.8724
 3570SOL     OW22168   2.193   1.775   2.294 -0.2544  0.4292  0.5072
 3570SOL    HW122169   2.200   1.705   2.359 -3.3319 -1.9677 -1.7617
 3570SOL    HW222170   2.172   1.717   2.221  0.9236  1.3378 -0.5727
 3571SOL     OW22171   1.885   2.224   4.640  0.0555  0.6535  0.1102
 3571SOL    HW122172   1.802   2.208   4.595 -0.7533  2.6434  0.8745
 3571SOL    HW222173   1.913   2.306   4.598 -0.4411 -0.6423 -2.7409
 3572SOL     OW22174   1.758   1.798   2.976 -0.6677  0.1266 -0.0995
 3572SOL    HW122175   1.673   1.753   2.984 -1.1686  0.8335 -1.4018
 3572SOL    HW222176   1.736   1.879   3.022  2.4995  2.8370 -3.3602
 3573SOL     OW22177   0.482   0.373   5.332 -0.0211 -0.4698  0.5124
 3573SOL    HW122178   0.540   0.380   5.407 -0.2745 -0.8063  0.7423
 3573SOL    HW222179   0.535   0.376   5.252 -1.0817  1.4649 -0.1108
 3574SOL     OW22180   0.684   2.771   4.420 -0.3153 -0.1831  0.0494
 3574SOL    HW122181   0.679   2.694   4.475 -1.3590 -0.5813 -0.6128
 3574SOL    HW222182   0.599   2.804   4.446 -1.0322 -1.1234 -1.1033
 3575SOL     OW22183   2.608   3.825   5.084 -0.2459 -0.0798  0.4845
 3575SOL    HW122184   2.528   3.773   5.072 -0.5981  0.6953 -0.4991
 3575SOL    HW222185   2.593   3.888   5.014 -1.4992 -1.1117 -0.1713
 3576SOL     OW22186   3.929   0.916   2.096 -0.0372 -0.1206 -0.3912
 3576SOL    HW122187   3.962   0.826   2.094  0.7375  0.2154 -2.6875
 3576SOL    HW222188   3.834   0.906   2.088 -0.3097  1.2499  1.1365
 3577SOL     OW22189   0.350   3.445   4.793  0.0035  0.1249  0.3431
 3577SOL    HW122190   0.434   3.476   4.827 -0.0406 -0.3861  0.9205
 3577SOL    HW222191   0.332   3.521   4.738  2.9884  0.2335 -0.4552
 3578SOL     OW22192   1.461   4.071   8.020  0.8084 -0.8018 -0.3626
 3578SOL    HW122193   1.521   4.116   7.960  1.2883  1.5700  1.9069
 3578SOL    HW222194   1.504   4.097   8.101  0.7842  1.1354 -0.9622
 3579SOL     OW22195   2.436   2.546   6.804 -0.0381  0.1069 -0.6941
 3579SOL    HW122196   2.416   2.608   6.874 -1.7114 -0.0151 -1.0712
 3579SOL    HW222197   2.435   2.472   6.865  0.7323  0.7838  0.1321
 3580SOL     OW22198   3.559   1.547   7.739  0.2260  0.6943  0.5016
 3580SOL    HW122199   3.587   1.569   7.650  0.5174  0.4013  0.5195
 3580SOL    HW222200   3.498   1.474   7.726  2.0781 -0.5193 -1.2438
 3581SOL     OW22201   4.026   0.254   8.598 -0.4027  0.5633  0.0555
 3581SOL    HW122202   4.030   0.344   8.632  0.5863  0.9706 -1.1220
 3581SOL    HW222203   4.038   0.262   8.503 -1.9886 -0.5131 -0.2355
 3582SOL     OW22204   2.550   1.838   7.998  0.3973  0.2425 -0.1145
 3582SOL    HW122205   2.635   1.800   8.022 -0.2899 -1.9771 -1.2262
 3582SOL    HW222206   2.580   1.919   7.957  1.6999 -0.2352 -0.0893
 3583SOL     OW22207   4.448   2.770   2.866 -0.1473 -0.4524 -0.0733
 3583SOL    HW122208   4.515   2.727   2.918  0.3231  0.5243  0.1300
 3583SOL    HW222209   4.493   2.842   2.822 -1.0465 -0.4348 -0.9561
 3584SOL     OW22210   4.116   4.311   3.926  0.1838  0.0366  0.6353
 3584SOL    HW122211   4.098   4.405   3.926  0.1295  0.0295  2.7417
 3584SOL    HW222212   4.210   4.300   3.941  0.0792  0.9027  1.9587
 3585SOL     OW22213   3.084   1.410   0.637  1.1259  0.7911  0.3576
 3585SOL    HW122214   3.064   1.335   0.583 -0.3416  1.0638  0.5232
 3585SOL    HW222215   3.075   1.483   0.576 -0.9003 -1.7842 -2.3661
 3586SOL     OW22216   2.023   2.415  10.585 -0.1485  0.3747 -0.1556
 3586SOL    HW122217   2.040   2.437  10.676  1.3268 -1.2715 -0.0322
 3586SOL    HW222218   2.059   2.326  10.575  0.3637  0.6046 -0.3855
 3587SOL     OW22219   1.536   1.886   5.387 -0.1533  0.3069 -0.2175
 3587SOL    HW122220   1.558   1.800   5.423 -2.6275  0.2225  1.0940
 3587SOL    HW222221   1.540   1.951   5.457 -0.0037  0.9664 -0.8339
 3588SOL     OW22222   0.691   0.517   0.322  0.0562 -0.4425 -0.0863
 3588SOL    HW122223   0.599   0.498   0.302 -0.3115  1.4240 -0.1983
 3588SOL    HW222224   0.732   0.474   0.247 -1.1595 -0.9361 -0.4698
 3589SOL     OW22225   3.958   1.712   1.308  0.1713 -0.5458  0.5608
 3589SOL    HW122226   3.958   1.764   1.228  1.1516  0.5569  1.2705
 3589SOL    HW222227   3.892   1.646   1.286 -0.1933 -0.3348  1.0249
 3590SOL     OW22228   2.253   3.099   6.210 -0.3778  0.3639  0.4165
 3590SOL    HW122229   2.248   3.140   6.124 -0.3938  3.2595  1.7894
 3590SOL    HW222230   2.211   3.164   6.267 -1.7196 -0.9823  0.9620
 3591SOL     OW22231   2.843   4.404   6.044  0.3142 -0.0460 -0.0970
 3591SOL    HW122232   2.779   4.460   6.087  1.3676  0.1687  1.1752
 3591SOL    HW222233   2.902   4.377   6.114  1.5054  0.2725 -0.9665
 3592SOL     OW22234   1.950   1.249  12.945 -0.0451  0.3200 -0.0865
 3592SOL    HW122235   1.866   1.223  12.983 -0.3537 -1.1621 -1.8195
 3592SOL    HW222236   2.003   1.170  12.955  1.9007  1.5723 -0.3941
 3593SOL     OW22237   3.332   2.250   2.465  0.5913 -0.6420 -0.0185
 3593SOL    HW122238   3.400   2.191   2.434 -0.3147 -2.8066  2.0565
 3593SOL    HW222239   3.384   2.291   2.534 -0.0611 -0.6006  0.4501
 3594SOL     OW22240   1.473   2.472   4.026 -0.0983  0.5034  0.2234
 3594SOL    HW122241   1.502   2.435   3.943  1.3295 -0.7448  1.2673
 3594SOL    HW222242   1.393   2.424   4.047  1.0916 -1.9064 -0.7508
 3595SOL     OW22243   2.991   2.618  14.785 -0.0605  0.4359  0.1587
 3595SOL    HW122244   2.918   2.561  14.810  0.8628 -1.2892 -1.1139
 3595SOL    HW222245   2.942   2.699  14.800 -0.3552  0.3369 -0.2592
 3596SOL     OW22246   0.003   0.252   6.978 -0.1008  0.3332  0.5855
 3596SOL    HW122247   4.720   0.213   7.065  0.5846 -3.0665 -0.8425
 3596SOL    HW222248   0.023   0.342   7.001  1.7970 -0.1612  0.8560
 3597SOL     OW22249   4.452   1.766   7.971  0.1671  0.1916  0.0850
 3597SOL    HW122250   4.406   1.707   7.912 -1.9637  2.3157 -0.3520
 3597SOL    HW222251   4.407   1.849   7.956  0.7373  0.3498 -0.7758
 3598SOL     OW22252   2.067   4.538   3.105 -0.2018  0.0425 -0.1897
 3598SOL    HW122253   2.147   4.569   3.146 -0.6558  1.2904 -0.2682
 3598SOL    HW222254   2.063   4.606   3.038 -0.5679  0.6887  0.4897
 3599SOL     OW22255   1.831   4.685  12.891 -0.1393 -0.0272  0.2617
 3599SOL    HW122256   1.863   4.647  12.973  0.1088 -0.4913 -0.0498
 3599SOL    HW222257   1.880   0.041  12.885  1.1939 -0.7663  0.8747
 3600SOL     OW22258   1.180   0.352   7.438 -0.2119 -0.2338 -0.7474
 3600SOL    HW122259   1.129   0.417   7.485  0.8472  1.8612 -2.4958
 3600SOL    HW222260   1.257   0.407   7.425  0.7867 -0.9109  2.4207
 3601SOL     OW22261   4.043   1.742  17.371  0.0055  0.0291 -0.4405
 3601SOL    HW122262   4.102   1.725  17.298  0.4829 -0.7794  0.1379
 3601SOL    HW222263   3.998   1.819  17.335 -2.5328 -1.2577 -0.0622
 3602SOL     OW22264   2.633   0.173  10.828  0.0478  0.1607 -0.1058
 3602SOL    HW122265   2.670   0.104  10.773 -1.5756 -2.3090  1.8465
 3602SOL    HW222266   2.595   0.228  10.760 -0.9752  2.3860  2.2654
 3603SOL     OW22267   3.838   1.034   4.310  0.1834  0.3739  0.4784
 3603SOL    HW122268   3.780   1.102   4.275  2.4783  2.7983  1.3397
 3603SOL    HW222269   3.783   0.958   4.331 -0.8262  0.5110 -1.7077
 3604SOL     OW22270   3.950   4.109   7.897  0.0139 -0.2903  0.2286
 3604SOL    HW122271   3.930   4.162   7.974 -1.1424  0.0499 -0.3161
 3604SOL    HW222272   3.871   4.121   7.845  0.1310 -0.9107 -0.0864
 3605SOL     OW22273   0.372   3.146   5.736  0.3086 -0.5712 -0.4516
 3605SOL    HW122274   0.420   3.183   5.662  0.2339  2.3712  0.9780
 3605SOL    HW222275   0.427   3.070   5.756 -1.3693 -1.0659  2.2731
 3606SOL     OW22276   0.547   4.546   5.091 -0.1262 -0.4163  0.1513
 3606SOL    HW122277   0.509   4.476   5.039 -1.5492 -0.4198  1.1858
 3606SOL    HW222278   0.524   4.614   5.027  0.5612 -0.6790 -0.3679
 3607SOL     OW22279   2.536   2.664  13.550 -0.0196  0.0362  0.0209
 3607SOL    HW122280   2.607   2.618  13.505 -0.7476  0.0602 -1.1532
 3607SOL    HW222281   2.486   2.709  13.481 -2.8808  0.1769  2.1696
 3608SOL     OW22282   3.856   2.510   9.915  0.0864 -0.0119 -0.2754
 3608SOL    HW122283   3.945   2.491   9.885 -0.1437 -0.8633 -0.3973
 3608SOL    HW222284   3.829   2.425   9.951  1.0925  0.2866  1.1898
 3609SOL     OW22285   3.124   4.276  12.787 -0.1878 -0.5775  0.3908
 3609SOL    HW122286   3.100   4.361  12.824 -1.0911 -0.1296 -1.2076
 3609SOL    HW222287   3.092   4.205  12.842  0.0015 -1.6099 -0.8331
 3610SOL     OW22288   0.913   3.716  16.103 -0.0854  0.2074 -0.7839
 3610SOL    HW122289   0.986   3.761  16.146 -1.7754 -0.1376  2.4576
 3610SOL    HW222290   0.953   3.647  16.050 -0.4876 -0.0996 -0.6844
 3611SOL     OW22291   3.263   2.469   3.089  0.0923  0.2895  0.0966
 3611SOL    HW122292   3.312   2.394   3.055  1.9044  0.8343  1.4909
 3611SOL    HW222293   3.287   2.535   3.024 -0.7938 -1.1780 -1.7233
 3612SOL     OW22294   0.129   2.959   9.198  0.2216  0.7302 -0.3211
 3612SOL    HW122295   0.199   2.955   9.263 -1.1067 -0.4739  1.0261
 3612SOL    HW222296   0.064   2.897   9.233  3.0809 -1.5349  0.9072
 3613SOL     OW22297   1.184   2.517   0.417  0.3983 -0.7931  0.2740
 3613SOL    HW122298   1.201   2.603   0.456 -0.1497 -0.0772 -1.0576
 3613SOL    HW222299   1.108   2.519   0.359 -0.4596 -1.9353  1.3760
 3614SOL     OW22300   0.940   1.087   2.350  1.0092 -0.3596 -0.1959
 3614SOL    HW122301   0.902   1.046   2.273  1.6119  0.9560 -1.1975
 3614SOL    HW222302   0.909   1.033   2.423  0.8856  0.8992  0.6856
 3615SOL     OW22303   3.914   1.073   6.840  0.0662  0.4450  0.0395
 3615SOL    HW122304   3.858   1.028   6.904 -1.0032 -0.9796 -1.8993
 3615SOL    HW222305   3.885   1.164   6.833  2.1519  1.0215 -0.9511
 3616SOL     OW22306   4.147   0.828  10.425  0.0833 -0.3222 -0.0923
 3616SOL    HW122307   4.146   0.865  10.514 -1.6649  1.8387 -1.0279
 3616SOL    HW222308   4.053   0.816  10.423  0.0005  0.7606 -2.2488
 3617SOL     OW22309   0.545   1.626   1.839 -0.0343  0.0058  0.4145
 3617SOL    HW122310   0.462   1.583   1.818 -1.1449  1.4091  1.8793
 3617SOL    HW222311   0.569   1.591   1.925 -0.6719  0.7927  0.9184
 3618SOL     OW22312   0.559   3.595   8.861 -0.4258 -0.5101 -0.0239
 3618SOL    HW122313   0.580   3.631   8.948 -1.1923  0.3897 -0.2103
 3618SOL    HW222314   0.469   3.625   8.863 -0.4147 -0.3593 -1.7321
 3619SOL     OW22315   1.155   0.056  13.661 -0.0866 -0.3018 -0.1156
 3619SOL    HW122316   1.066   0.054  13.626  0.1818 -0.5607 -0.7815
 3619SOL    HW222317   1.149   4.723  13.736 -1.4113 -0.0295  0.0038
 3620SOL     OW22318   3.908   2.109   0.215  1.0106  0.2593 -0.9121
 3620SOL    HW122319   3.951   2.139   0.295 -0.4823  0.5261 -0.2143
 3620SOL    HW222320   3.840   2.055   0.255 -0.1419  2.1583 -0.3038
 3621SOL     OW22321   3.840   3.241  17.480 -0.5034 -0.3094  0.3302
 3621SOL    HW122322   3.764   3.291  17.451 -0.1016 -0.4378 -0.9601
 3621SOL    HW222323   3.797   3.159  17.505 -0.7359 -0.0715  0.7048
 3622SOL     OW22324   4.669   2.252  15.764  0.1860  0.5942  0.9993
 3622SOL    HW122325   0.021   2.222  15.717 -0.3931 -0.0258  0.4407
 3622SOL    HW222326   4.681   2.220  15.853  0.1891  0.7869  1.0687
 3623SOL     OW22327   3.786   3.462   2.307 -0.4204 -0.1493  0.2818
 3623SOL    HW122328   3.790   3.518   2.229 -1.0018  0.3021  0.5764
 3623SOL    HW222329   3.852   3.397   2.282 -0.6881 -0.7202  1.0676
 3624SOL     OW22330   0.357   0.007   8.967  0.0077  0.1439 -0.4933
 3624SOL    HW122331   0.264   4.719   8.950  0.6871 -3.4252 -1.3575
 3624SOL    HW222332   0.379   4.652   9.013 -2.0131  0.4382  0.9900
 3625SOL     OW22333   3.522   1.319   9.492  0.0785 -0.2476  0.4764
 3625SOL    HW122334   3.542   1.395   9.439  0.6105 -0.1025  0.8841
 3625SOL    HW222335   3.606   1.272   9.495  1.1015  1.5999  0.4297
 3626SOL     OW22336   2.099   3.061   8.510 -0.1701 -0.2765 -0.5221
 3626SOL    HW122337   2.150   3.111   8.574  0.6719  1.0479 -2.2203
 3626SOL    HW222338   2.047   3.124   8.459  0.1046  0.4728  0.1208
 3627SOL     OW22339   1.737   3.839   5.149 -0.1088  0.3052 -0.0989
 3627SOL    HW122340   1.726   3.791   5.067 -1.9323 -0.3530  0.5255
 3627SOL    HW222341   1.733   3.925   5.109 -0.1651  0.4432  0.2053
 3628SOL     OW22342   3.773   2.632   8.181  0.0666  0.0956 -0.5793
 3628SOL    HW122343   3.710   2.566   8.154 -0.0573  0.5755 -1.4524
 3628SOL    HW222344   3.769   2.628   8.277 -1.4882 -1.5566 -0.7159
 3629SOL     OW22345   0.427   2.935   6.462  0.0247 -0.0724 -0.1930
 3629SOL    HW122346   0.436   3.030   6.453  1.5202 -0.5930 -4.1543
 3629SOL    HW222347   0.494   2.904   6.402  0.6694 -0.9980  0.9972
 3630SOL     OW22348   4.725   1.328  14.094  0.0768 -0.4595 -0.0994
 3630SOL    HW122349   4.691   1.390  14.159 -0.6927 -2.1624  1.0953
 3630SOL    HW222350   4.654   1.264  14.085  1.9381 -2.8084  2.1206
 3631SOL     OW22351   0.830   3.958   9.874  0.7336 -0.1027 -0.2160
 3631SOL    HW122352   0.805   4.001   9.792 -0.8852 -0.5217  0.0503
 3631SOL    HW222353   0.821   4.032   9.933 -1.0902 -2.2611  2.2166
 3632SOL     OW22354   0.920   0.217   3.394 -0.2760  0.0052 -0.4907
 3632SOL    HW122355   0.846   0.262   3.436 -0.0022 -0.3427  0.3563
 3632SOL    HW222356   0.997   0.268   3.421  0.7268 -1.0476 -1.3749
 3633SOL     OW22357   0.887   3.943   2.050  0.2938  1.1671  0.3515
 3633SOL    HW122358   0.852   3.888   1.980 -1.0436  1.1895  1.0089
 3633SOL    HW222359   0.879   3.895   2.132 -1.0970  3.7422  1.7456
 3634SOL     OW22360   1.154   3.767  13.261 -0.4886  0.1963 -0.0165
 3634SOL    HW122361   1.097   3.840  13.237  0.6016  1.3970  1.0414
 3634SOL    HW222362   1.205   3.807  13.331  2.2605 -0.7639 -1.4999
 3635SOL     OW22363   2.892   4.024   3.908  0.3373  0.2822 -0.3132
 3635SOL    HW122364   2.799   4.021   3.929 -0.0593  0.9364 -2.0265
 3635SOL    HW222365   2.923   4.019   3.999  0.4566 -2.0526 -0.4902
 3636SOL     OW22366   3.107   1.189   3.129  0.0077  0.3116 -0.0275
 3636SOL    HW122367   3.157   1.213   3.207  2.1819  1.8456 -1.8755
 3636SOL    HW222368   3.153   1.236   3.059 -0.9785 -0.8955 -1.4907
 3637SOL     OW22369   2.468   2.041  11.279 -0.3660  0.0717 -0.7619
 3637SOL    HW122370   2.505   2.005  11.198  0.4593 -0.1700 -0.2701
 3637SOL    HW222371   2.539   2.102  11.296  0.2579 -1.5849  2.4171
 3638SOL     OW22372   0.071   3.076   4.589  0.4047 -0.0027 -0.1105
 3638SOL    HW122373   0.115   3.092   4.672  1.1234 -0.1626 -0.4641
 3638SOL    HW222374   0.139   3.077   4.521  0.7072  0.9488  0.2054
 3639SOL     OW22375   1.156   1.302  13.511 -0.4872 -0.2170  0.0752
 3639SOL    HW122376   1.131   1.387  13.549 -0.8539  0.6366 -2.0494
 3639SOL    HW222377   1.221   1.322  13.444 -0.6267 -0.8924 -0.2533
 3640SOL     OW22378   3.280   2.338   0.407  0.7078 -0.5599  0.3399
 3640SOL    HW122379   3.268   2.327   0.501  2.9910 -1.2626  0.5551
 3640SOL    HW222380   3.243   2.257   0.371 -0.9145  1.2604 -2.0872
 3641SOL     OW22381   1.676   1.622   8.602  0.3674  0.0904 -0.0527
 3641SOL    HW122382   1.739   1.676   8.650  0.1337  1.2228 -1.0401
 3641SOL    HW222383   1.595   1.649   8.645  1.6755 -1.0973  3.1422
 3642SOL     OW22384   4.147   1.902   8.316 -0.2623  0.7270  0.1976
 3642SOL    HW122385   4.242   1.896   8.308 -0.4568  0.4156 -1.7477
 3642SOL    HW222386   4.130   1.979   8.261  1.9909  2.0004  1.3057
 3643SOL     OW22387   3.943   2.732   7.240 -0.1149 -1.2368 -0.2628
 3643SOL    HW122388   3.938   2.794   7.312  1.0719 -1.8638  0.3482
 3643SOL    HW222389   3.899   2.776   7.167 -0.1047  0.4605  0.7491
 3644SOL     OW22390   4.169   1.710   6.782  0.1221  0.4181 -0.1260
 3644SOL    HW122391   4.188   1.730   6.691  0.5978 -1.7951 -0.5304
 3644SOL    HW222392   4.246   1.748   6.823 -0.8509  2.8002 -0.4936
 3645SOL     OW22393   0.221   3.915  17.196  0.4119  0.6279 -0.2470
 3645SOL    HW122394   0.148   3.860  17.226 -0.6677  1.7584 -0.7981
 3645SOL    HW222395   0.205   3.916  17.102 -0.0498  1.9833 -0.1453
 3646SOL     OW22396   1.549   4.354   2.884  0.1462 -0.1192  0.2868
 3646SOL    HW122397   1.512   4.429   2.930  1.1560  0.1808  0.5937
 3646SOL    HW222398   1.617   4.392   2.830 -0.1892 -0.2917 -0.2637
 3647SOL     OW22399   0.782   0.108   2.903 -0.3542 -0.1037  0.2110
 3647SOL    HW122400   0.803   0.121   2.995  0.7902 -0.6382  0.0337
 3647SOL    HW222401   0.868   0.077   2.874  0.4520  0.9457  1.5303
 3648SOL     OW22402   1.803   2.981   6.647 -0.2169  0.1340 -0.0814
 3648SOL    HW122403   1.827   3.073   6.658  1.7506 -0.3093 -0.5483
 3648SOL    HW222404   1.709   2.998   6.648 -0.4560 -1.2134  1.3233
 3649SOL     OW22405   4.497   3.848   3.258 -0.4906  0.0270 -0.2445
 3649SOL    HW122406   4.521   3.895   3.179 -1.3916 -0.6039 -0.9018
 3649SOL    HW222407   4.458   3.770   3.218  0.2571  1.0354 -2.9083
 3650SOL     OW22408   2.694   2.475   7.202  0.3133 -0.3214  0.1493
 3650SOL    HW122409   2.775   2.483   7.152  0.0915 -0.4919 -0.2420
 3650SOL    HW222410   2.690   2.560   7.245  1.4320 -1.7198  3.0179
 3651SOL     OW22411   0.568   3.190  15.907  0.1240  0.6827 -0.3135
 3651SOL    HW122412   0.651   3.160  15.944 -0.1589 -0.3424 -0.5103
 3651SOL    HW222413   0.570   3.146  15.822  0.9475 -1.6059  0.9064
 3652SOL     OW22414   2.479   1.839  11.826 -0.1168  0.4391 -0.0176
 3652SOL    HW122415   2.494   1.902  11.755  0.3725 -0.0588 -0.3585
 3652SOL    HW222416   2.403   1.881  11.865 -0.1382 -0.0950  0.5155
 3653SOL     OW22417   1.785   1.102   7.920  0.1565 -0.2337 -0.0056
 3653SOL    HW122418   1.790   1.142   8.006 -0.4449  3.9995 -1.9498
 3653SOL    HW222419   1.795   1.178   7.863 -1.5148  1.0217  1.3727
 3654SOL     OW22420   4.605   1.419   4.991  0.0870  0.2905  0.1041
 3654SOL    HW122421   4.579   1.423   4.899 -0.6294 -1.4785  0.2352
 3654SOL    HW222422   4.541   1.483   5.024  0.3134 -0.7046  2.4946
 3655SOL     OW22423   0.801   3.307   8.615  0.1618 -0.5653  1.0764
 3655SOL    HW122424   0.718   3.273   8.647 -0.5861 -1.9774 -2.4242
 3655SOL    HW222425   0.775   3.395   8.587  0.6485 -0.8464 -0.2352
 3656SOL     OW22426   0.402   2.221  14.487 -0.3293  0.3754  0.1031
 3656SOL    HW122427   0.410   2.306  14.444 -0.5800 -0.6231 -1.9209
 3656SOL    HW222428   0.327   2.234  14.544 -0.6597  0.7013 -0.3995
 3657SOL     OW22429   2.211   0.661   3.361  0.2198 -0.1876 -0.2694
 3657SOL    HW122430   2.211   0.753   3.334  0.1667 -0.1281 -0.0635
 3657SOL    HW222431   2.234   0.633   3.272 -0.1073  0.3421 -0.5216
 3658SOL     OW22432   0.831   3.045  12.167  0.1007  0.1417  1.1269
 3658SOL    HW122433   0.751   3.023  12.215 -1.1068  0.2177 -0.8686
 3658SOL    HW222434   0.899   3.038  12.235  0.5777  0.3771  0.6763
 3659SOL     OW22435   0.019   0.909  11.235  0.3615  0.2442  0.5782
 3659SOL    HW122436   0.053   0.943  11.318 -3.3682  1.6649  1.5125
 3659SOL    HW222437   4.654   0.934  11.250 -0.1516 -2.4715  1.8894
 3660SOL     OW22438   3.219   4.567   6.471  0.0939 -0.0921 -0.5912
 3660SOL    HW122439   3.192   4.486   6.516  0.0255 -0.3239 -1.0465
 3660SOL    HW222440   3.149   4.624   6.504 -0.6052 -1.6175  0.5771
 3661SOL     OW22441   2.750   4.596   1.929  0.1377 -0.7425  0.3848
 3661SOL    HW122442   2.808   4.621   1.857 -1.8576 -0.2111 -1.0051
 3661SOL    HW222443   2.759   4.672   1.987 -3.9548  0.6093 -0.7904
 3662SOL     OW22444   0.954   2.510   3.352 -0.6996 -0.1636 -0.6246
 3662SOL    HW122445   0.971   2.503   3.445 -2.0035 -1.9911 -0.5345
 3662SOL    HW222446   1.029   2.466   3.313 -0.6369 -0.9060  0.3502
 3663SOL     OW22447   2.489   3.479   7.461 -0.4352 -0.2374  0.4721
 3663SOL    HW122448   2.455   3.555   7.509 -0.0302  0.9240 -1.0538
 3663SOL    HW222449   2.488   3.414   7.531 -2.5110  0.5886  1.2197
 3664SOL     OW22450   1.446   0.242  16.003 -0.2479 -0.4115 -0.3613
 3664SOL    HW122451   1.396   0.305  16.054  3.6928  1.6424  0.9015
 3664SOL    HW222452   1.417   0.264  15.915 -1.0974  0.8703  0.2434
 3665SOL     OW22453   2.587   4.489   9.491 -0.2885 -0.0643  0.3437
 3665SOL    HW122454   2.655   4.556   9.500 -1.7798  1.2398  1.8510
 3665SOL    HW222455   2.577   4.482   9.396  2.7815  1.4588 -0.1000
 3666SOL     OW22456   3.626   3.692   5.524  0.5851 -0.1764 -0.2078
 3666SOL    HW122457   3.634   3.597   5.538  0.5471 -0.0932  0.3979
 3666SOL    HW222458   3.543   3.702   5.572  1.2327  1.8629  0.4838
 3667SOL     OW22459   0.393   0.257   1.879  0.4275  0.0097 -0.0037
 3667SOL    HW122460   0.332   0.325   1.909 -0.8810 -1.0263 -0.2985
 3667SOL    HW222461   0.438   0.295   1.804 -0.2614  1.0067  0.0857
 3668SOL     OW22462   2.285   0.219   2.019  0.6059  0.2991 -0.1838
 3668SOL    HW122463   2.233   0.219   1.939 -1.9207 -0.3076  1.4263
 3668SOL    HW222464   2.266   0.312   2.037 -0.2452  0.0771  0.0921
 3669SOL     OW22465   2.607   1.807   7.369 -0.0242  0.1742 -0.0372
 3669SOL    HW122466   2.594   1.719   7.333  0.0820 -0.2537  0.9826
 3669SOL    HW222467   2.565   1.867   7.307 -2.7681 -2.8721 -1.1908
 3670SOL     OW22468   4.713   4.077  15.105 -0.4756  0.1850 -0.2866
 3670SOL    HW122469   4.710   4.071  15.009 -0.3557 -1.2205 -0.2025
 3670SOL    HW222470   0.015   4.168  15.113  0.7622 -0.3165  1.1296
 3671SOL     OW22471   3.769   4.299  12.072  0.2117 -0.0215  0.3011
 3671SOL    HW122472   3.826   4.227  12.102  1.1231  0.0770 -1.1707
 3671SOL    HW222473   3.775   4.360  12.145  0.3137  2.2245 -1.6062
 3672SOL     OW22474   1.273   2.902  11.958  0.6087  0.0183 -0.6345
 3672SOL    HW122475   1.243   2.962  11.890  0.4797  0.7659  0.0809
 3672SOL    HW222476   1.334   2.965  11.997  0.8617 -0.5610 -0.1024
 3673SOL     OW22477   0.078   3.712   6.933 -0.5988  0.0736 -0.1840
 3673SOL    HW122478   0.109   3.799   6.908  2.1938 -0.9294 -0.2506
 3673SOL    HW222479   4.723   3.748   6.968  0.2760  2.0427 -0.2203
 3674SOL     OW22480   3.635   1.250   3.773  0.0953 -0.3230 -0.3901
 3674SOL    HW122481   3.690   1.321   3.740  0.5832 -0.5241 -0.0162
 3674SOL    HW222482   3.672   1.179   3.721 -0.2845 -0.8213  0.0138
 3675SOL     OW22483   0.467   4.021   6.841  0.3085  0.1635  0.5753
 3675SOL    HW122484   0.479   4.101   6.791 -0.9676  0.0400  0.0520
 3675SOL    HW222485   0.427   4.056   6.920  1.4853  2.5552  0.0816
 3676SOL     OW22486   0.825   3.868   8.354  0.2692 -0.1282  0.1227
 3676SOL    HW122487   0.888   3.891   8.285 -0.9200 -2.0194 -1.5911
 3676SOL    HW222488   0.767   3.944   8.354 -1.4120 -1.4010  0.1567
 3677SOL     OW22489   2.416   2.221  10.930 -0.2828 -0.2474  0.3756
 3677SOL    HW122490   2.345   2.283  10.947 -0.2700 -0.6785  2.0338
 3677SOL    HW222491   2.410   2.211  10.835  0.4577 -0.9149  0.3922
 3678SOL     OW22492   1.872   3.248   8.954  0.0458  0.0444 -0.1245
 3678SOL    HW122493   1.912   3.310   9.016  1.1247 -0.6719 -0.1013
 3678SOL    HW222494   1.777   3.251   8.968  0.1968  1.5153  0.6185
 3679SOL     OW22495   0.633   0.406   5.095 -0.0510 -0.1517 -0.2135
 3679SOL    HW122496   0.703   0.412   5.030  0.3170 -0.0898  0.1899
 3679SOL    HW222497   0.587   0.489   5.084 -0.5189 -0.7786 -2.8266
 3680SOL     OW22498   2.479   2.768   0.142 -0.0751 -0.6523  0.2020
 3680SOL    HW122499   2.454   2.686   0.099  1.8513 -1.2976  0.2999
 3680SOL    HW222500   2.478   2.828   0.068 -2.9261 -2.7013 -1.3986
 3681SOL     OW22501   4.569   2.631   8.614  0.0660  0.4665  0.1650
 3681SOL    HW122502   4.613   2.560   8.567 -0.8737 -0.3956  0.5852
 3681SOL    HW222503   4.640   2.696   8.619  0.7174 -0.3830  2.0610
 3682SOL     OW22504   3.962   1.245   8.511  0.5055  0.3688  0.0273
 3682SOL    HW122505   4.033   1.190   8.478 -0.2228 -0.1913 -0.5805
 3682SOL    HW222506   3.906   1.256   8.435  1.3970 -0.7122 -0.7941
 3683SOL     OW22507   0.029   0.668  17.152  0.0966  0.0921  0.3352
 3683SOL    HW122508   0.039   0.696  17.243  0.4244  1.3600 -0.0855
 3683SOL    HW222509   4.670   0.703  17.127  0.5062 -0.0238 -1.2266
 3684SOL     OW22510   2.068   4.026   9.743  0.3280 -0.3569  0.1480
 3684SOL    HW122511   2.026   3.979   9.815 -3.3511 -1.8600 -2.9097
 3684SOL    HW222512   1.986   4.039   9.694  0.8477  0.2575 -0.5539
 3685SOL     OW22513   1.701   3.790   0.925  0.2443 -0.0366  0.1312
 3685SOL    HW122514   1.632   3.752   0.872  1.0650 -1.1321 -0.1575
 3685SOL    HW222515   1.693   3.724   0.995 -0.5505 -0.5919 -0.4794
 3686SOL     OW22516   4.410   3.045   8.844  0.8389  0.1043  0.2601
 3686SOL    HW122517   4.370   3.078   8.923  1.2002  2.6328 -0.6118
 3686SOL    HW222518   4.480   2.987   8.874  0.5003  0.3416  1.4780
 3687SOL     OW22519   2.336   0.686   5.420  0.5760 -0.3677 -0.2677
 3687SOL    HW122520   2.262   0.637   5.385  1.4996 -2.1500  0.2822
 3687SOL    HW222521   2.351   0.638   5.501  1.3780 -0.9180 -0.7468
 3688SOL     OW22522   3.052   2.241   0.291 -1.1080  0.3186  0.8841
 3688SOL    HW122523   2.982   2.293   0.331 -1.7409 -0.2677  0.5506
 3688SOL    HW222524   3.030   2.148   0.298 -0.0915 -0.1014 -1.5322
 3689SOL     OW22525   0.764   2.544   0.694  0.4537 -0.0461  0.4839
 3689SOL    HW122526   0.784   2.589   0.612  0.7220 -0.3614  0.3769
 3689SOL    HW222527   0.721   2.621   0.732  1.0129 -0.0864  1.1934
 3690SOL     OW22528   4.419   2.545   5.222 -0.4072  0.4236 -0.2267
 3690SOL    HW122529   4.499   2.504   5.187 -0.4460 -0.7033  0.9850
 3690SOL    HW222530   4.444   2.634   5.199  1.8598  0.0136  0.6570
 3691SOL     OW22531   0.002   3.215   6.935 -0.4461  0.3406  0.1655
 3691SOL    HW122532   4.673   3.204   6.857  1.8397 -0.8761 -1.2649
 3691SOL    HW222533   0.062   3.286   6.912  1.7332 -0.8320  2.2814
 3692SOL     OW22534   3.953   3.422  14.166  0.3368  0.0791 -0.2152
 3692SOL    HW122535   3.887   3.375  14.115  0.6186  0.3982 -0.8602
 3692SOL    HW222536   3.933   3.417  14.260 -0.5797  1.9717 -0.3028
 3693SOL     OW22537   3.059   3.430  10.435  0.7952  0.1223 -0.0205
 3693SOL    HW122538   3.096   3.517  10.447  0.3270  0.2862  0.2025
 3693SOL    HW222539   2.966   3.447  10.426  1.2229  2.6737  0.4007
 3694SOL     OW22540   0.987   0.601   1.673  0.4405 -0.3705  0.4512
 3694SOL    HW122541   0.950   0.663   1.611 -0.4237 -1.3641 -0.0206
 3694SOL    HW222542   1.006   0.660   1.746 -1.0983  0.3940  0.2214
 3695SOL     OW22543   3.003   2.329   9.116  0.1738  0.2279 -0.4296
 3695SOL    HW122544   2.934   2.269   9.146 -2.4938  2.2184 -2.6731
 3695SOL    HW222545   3.068   2.331   9.187 -0.1326  1.5575 -0.1955
 3696SOL     OW22546   3.481   4.066   4.108 -0.0897 -0.7112 -0.4397
 3696SOL    HW122547   3.500   4.076   4.015  0.4846  0.4771 -0.2045
 3696SOL    HW222548   3.428   3.987   4.102 -0.4447 -0.4056 -1.2990
 3697SOL     OW22549   3.712   4.239   5.728  0.1215  0.6059  0.8433
 3697SOL    HW122550   3.769   4.206   5.659 -1.2092  1.1973 -0.5531
 3697SOL    HW222551   3.738   4.331   5.738 -1.2460  1.1033 -0.1009
 3698SOL     OW22552   0.637   4.438  13.226 -0.3251 -0.1725 -0.2189
 3698SOL    HW122553   0.641   4.512  13.285 -0.3566 -0.2956 -0.0635
 3698SOL    HW222554   0.645   4.477  13.139 -0.8878 -1.2639 -0.7614
 3699SOL     OW22555   1.156   0.592   6.305  0.2291  0.0258  0.2555
 3699SOL    HW122556   1.244   0.569   6.336 -0.9707 -1.5148  2.5102
 3699SOL    HW222557   1.182   0.667   6.252  0.9953  1.8127  3.1428
 3700SOL     OW22558   1.927   0.985   5.001 -0.1895 -0.5962  0.1594
 3700SOL    HW122559   2.006   0.975   4.948 -0.2293  1.3331 -0.2674
 3700SOL    HW222560   1.917   1.080   4.991  0.4778 -0.6538 -1.0764
 3701SOL     OW22561   0.500   1.993   6.504  0.0735 -0.2054 -0.4398
 3701SOL    HW122562   0.405   1.989   6.513  0.0289  2.8420  0.5050
 3701SOL    HW222563   0.525   2.061   6.566  0.2671 -0.4563 -0.2444
 3702SOL     OW22564   4.439   0.351   6.100 -0.6051 -0.2027 -0.7236
 3702SOL    HW122565   4.477   0.350   6.013 -0.7073 -1.3930 -0.7488
 3702SOL    HW222566   4.483   0.278   6.142  0.3215  1.6587  1.5471
 3703SOL     OW22567   0.270   1.128  11.700  0.5819 -0.0442  0.0756
 3703SOL    HW122568   0.321   1.208  11.712 -0.7562  0.6421  1.2368
 3703SOL    HW222569   0.305   1.101  11.615 -0.8539 -1.1848 -0.1425
 3704SOL     OW22570   3.011   2.606   3.832 -0.0912  0.1597 -0.3263
 3704SOL    HW122571   3.093   2.621   3.785 -1.1439 -0.3623 -2.3242
 3704SOL    HW222572   2.967   2.534   3.785 -2.0426  1.0103  0.1808
 3705SOL     OW22573   0.955   3.791   3.642  0.0350 -0.7473 -0.3897
 3705SOL    HW122574   0.932   3.737   3.567 -0.2611  0.1878 -0.9684
 3705SOL    HW222575   0.889   3.768   3.708  1.8364 -1.1840  1.2445
 3706SOL     OW22576   2.498   0.220   4.164 -0.2276 -0.2737  0.3015
 3706SOL    HW122577   2.408   0.249   4.178  0.0599  1.4053 -1.2974
 3706SOL    HW222578   2.539   0.297   4.125 -0.8594 -1.3015 -2.3943
 3707SOL     OW22579   4.328   2.589  17.384 -0.0030  0.0666  0.1938
 3707SOL    HW122580   4.341   2.501  17.418  0.6280 -0.3334 -1.0776
 3707SOL    HW222581   4.282   2.563  17.304 -2.6000  0.7502  1.4447
 3708SOL     OW22582   1.274   1.993   6.330 -0.0030  0.1616  0.0757
 3708SOL    HW122583   1.201   2.050   6.357  0.6138  1.3578 -0.7840
 3708SOL    HW222584   1.260   2.010   6.237 -0.3013 -0.0801  0.0756
 3709SOL     OW22585   0.327   2.421   4.227  0.2457  0.5726  0.4729
 3709SOL    HW122586   0.344   2.331   4.198 -0.5353  0.0616  1.6197
 3709SOL    HW222587   0.415   2.437   4.260  0.6836  1.2781 -1.0522
 3710SOL     OW22588   2.052   2.323   8.505  0.4083 -0.5390 -0.1873
 3710SOL    HW122589   2.144   2.332   8.530  0.0835 -1.2399  1.2642
 3710SOL    HW222590   2.054   2.372   8.423  2.0351 -1.4794 -0.7089
 3711SOL     OW22591   2.071   1.680   2.591 -0.6768 -0.1504  0.2800
 3711SOL    HW122592   2.019   1.631   2.526  1.2968 -0.9477 -0.6856
 3711SOL    HW222593   2.159   1.645   2.581  0.1807  2.2878 -0.7608
 3712SOL     OW22594   1.469   4.723   9.174  0.3759 -0.2909  0.1351
 3712SOL    HW122595   1.385   4.678   9.173  0.3330 -0.2003 -1.7704
 3712SOL    HW222596   1.441   0.082   9.139 -0.7002 -0.6098  0.2238
 3713SOL     OW22597   0.002   2.710  12.771  0.3824  0.2229  0.5518
 3713SOL    HW122598   0.091   2.701  12.737  1.1494  0.8473  2.3544
 3713SOL    HW222599   4.692   2.645  12.712  0.2010 -0.0378  0.9464
 3714SOL     OW22600   2.092   0.434   2.076 -0.2197  0.2608 -0.6175
 3714SOL    HW122601   2.161   0.494   2.047  1.7068 -1.6934 -0.1043
 3714SOL    HW222602   2.020   0.494   2.093 -0.6523 -0.4965  0.2165
 3715SOL     OW22603   1.369   4.187  10.431  0.3216  0.7968 -0.5426
 3715SOL    HW122604   1.432   4.207  10.362 -0.6696  0.5978 -1.4878
 3715SOL    HW222605   1.283   4.178  10.391 -1.0670 -1.3455  2.8706
 3716SOL     OW22606   4.107   3.477   7.846 -0.1425  0.5614  0.3129
 3716SOL    HW122607   4.198   3.504   7.836 -0.6300  1.5543 -1.4487
 3716SOL    HW222608   4.078   3.524   7.924 -0.3370 -0.4235  0.8319
 3717SOL     OW22609   2.739   3.482   3.218 -0.2597  0.1933 -0.2027
 3717SOL    HW122610   2.703   3.568   3.198 -2.0542 -0.1243  1.6651
 3717SOL    HW222611   2.665   3.424   3.236  1.8297 -1.9263  1.6762
 3718SOL     OW22612   2.222   3.055   7.213 -0.2698 -0.5503 -0.2594
 3718SOL    HW122613   2.293   2.997   7.188 -0.7522 -0.6435 -1.4416
 3718SOL    HW222614   2.265   3.102   7.284 -0.6768 -0.6526  0.0562
 3719SOL     OW22615   0.536   2.027   4.843  0.6486  0.1193  0.1330
 3719SOL    HW122616   0.523   1.963   4.914  0.5309 -1.1332 -1.0220
 3719SOL    HW222617   0.450   2.031   4.801  0.0114 -0.3563  1.3815
 3720SOL     OW22618   4.449   4.271   2.474  0.3246 -0.5400  0.0039
 3720SOL    HW122619   4.536   4.271   2.434 -0.4201  0.8573 -1.5886
 3720SOL    HW222620   4.465   4.216   2.550  1.8526 -1.3371 -0.9072
 3721SOL     OW22621   2.278   2.515   5.305  0.1008 -0.2695  0.3074
 3721SOL    HW122622   2.320   2.475   5.382 -0.6673 -2.7216 -0.5599
 3721SOL    HW222623   2.354   2.570   5.286  0.7105 -0.5283  1.9250
 3722SOL     OW22624   1.977   0.858   0.261  0.4937  0.3055  0.1313
 3722SOL    HW122625   1.928   0.810   0.328  1.5198  2.5092  2.4697
 3722SOL    HW222626   1.978   0.946   0.298 -0.0670 -0.4605  1.9762
 3723SOL     OW22627   2.200   0.920   5.386 -0.1623 -0.1341  0.4986
 3723SOL    HW122628   2.247   0.838   5.368 -0.5557 -0.0988 -0.7000
 3723SOL    HW222629   2.268   0.986   5.372 -1.1005  0.7794  0.3300
 3724SOL     OW22630   2.772   0.295   0.310  0.4634  0.2532  0.4855
 3724SOL    HW122631   2.767   0.340   0.226 -2.1900  0.9877  1.0516
 3724SOL    HW222632   2.782   0.375   0.361 -0.6010  1.0989 -0.6539
 3725SOL     OW22633   0.426   3.157   3.822  0.4501 -0.4155 -0.6419
 3725SOL    HW122634   0.511   3.182   3.857  0.0640  0.1312 -0.1025
 3725SOL    HW222635   0.429   3.062   3.836 -1.7847 -0.2948  0.6223
 3726SOL     OW22636   3.306   4.350   0.043  0.0360  0.8799 -0.6519
 3726SOL    HW122637   3.264   4.404   0.110 -0.4058  2.0589 -1.8671
 3726SOL    HW222638   3.356   4.295   0.103 -1.5393 -0.7244 -0.8362
 3727SOL     OW22639   2.402   1.231  10.095  0.7881 -0.5862  0.0005
 3727SOL    HW122640   2.462   1.229  10.170 -0.9227  2.4818  1.4635
 3727SOL    HW222641   2.435   1.154  10.049  2.6750  1.7227 -2.5269
 3728SOL     OW22642   3.685   0.193   7.996 -0.5841  0.0715 -0.0544
 3728SOL    HW122643   3.629   0.120   7.971  0.4183 -1.6878  2.7735
 3728SOL    HW222644   3.730   0.198   7.912  1.2561  2.3971  1.0616
 3729SOL     OW22645   0.073   3.942   2.331 -0.0597 -0.5240 -0.3642
 3729SOL    HW122646   0.008   3.990   2.381  0.3558 -1.5107  1.1374
 3729SOL    HW222647   0.154   3.978   2.367 -0.7710  0.2501  0.4670
 3730SOL     OW22648   3.855   2.067   1.447 -0.1160  0.0945  1.0684
 3730SOL    HW122649   3.820   2.100   1.530 -1.9926  0.7580  0.0335
 3730SOL    HW222650   3.931   2.018   1.478  0.5653  1.2852  1.2763
 3731SOL     OW22651   0.243   4.005  10.339 -0.0779 -0.1044  0.1524
 3731SOL    HW122652   0.237   4.096  10.370  1.0852 -0.0734  0.2875
 3731SOL    HW222653   0.314   4.008  10.275  1.1202 -3.1293  1.3200
 3732SOL     OW22654   2.592   0.674   2.592 -0.5795 -0.5653 -0.3464
 3732SOL    HW122655   2.664   0.625   2.630  0.1378 -1.1773 -2.4723
 3732SOL    HW222656   2.551   0.605   2.540 -0.5407 -1.5453  0.9326
 3733SOL     OW22657   0.732   0.226   9.319 -0.3900 -0.5842 -0.5709
 3733SOL    HW122658   0.645   0.257   9.297 -0.7205 -0.8533  0.3665
 3733SOL    HW222659   0.709   0.156   9.380 -0.7058  0.9235  1.0463
 3734SOL     OW22660   2.594   2.083   3.462  0.0344  0.5165 -0.1396
 3734SOL    HW122661   2.526   2.092   3.396  0.9031 -1.1495 -1.2594
 3734SOL    HW222662   2.643   2.165   3.452  1.0423  0.1904  2.0737
 3735SOL     OW22663   0.964   1.311  11.692 -0.2789 -0.0789  0.0893
 3735SOL    HW122664   0.945   1.398  11.726 -1.2152  0.4665 -1.8316
 3735SOL    HW222665   1.059   1.310  11.708 -0.3084  0.7033  0.3002
 3736SOL     OW22666   4.624   3.407   7.146 -0.5173  0.1761 -0.8284
 3736SOL    HW122667   4.635   3.484   7.091 -0.3093 -0.2522 -1.3886
 3736SOL    HW222668   4.556   3.356   7.100  0.0848 -1.1508 -0.2540
 3737SOL     OW22669   4.077   2.866   7.465  0.0058 -0.2298  0.0462
 3737SOL    HW122670   4.109   2.954   7.487 -1.2092  0.0903  0.5536
 3737SOL    HW222671   4.154   2.810   7.464  0.6721  0.6804 -0.1257
 3738SOL     OW22672   0.757   4.401  15.688 -0.2126 -0.2877  0.2040
 3738SOL    HW122673   0.717   4.448  15.615 -0.8304  1.4478  1.6442
 3738SOL    HW222674   0.841   4.446  15.692 -0.8423  0.8329  0.7686
 3739SOL     OW22675   3.509   3.953   6.751  0.1313  0.1728  0.2870
 3739SOL    HW122676   3.471   4.010   6.819  0.8741  1.1623 -0.1344
 3739SOL    HW222677   3.601   3.947   6.775  0.4344 -0.6117 -1.0843
 3740SOL     OW22678   0.504   0.558   6.624  0.0865 -0.4852  0.0640
 3740SOL    HW122679   0.588   0.530   6.586  0.3395  1.1474 -0.5734
 3740SOL    HW222680   0.501   0.632   6.563  1.3058  0.8833  1.6778
 3741SOL     OW22681   2.464   0.765  14.535  0.0012 -0.2394  0.5432
 3741SOL    HW122682   2.374   0.736  14.541  0.0655 -0.5442 -0.0322
 3741SOL    HW222683   2.511   0.682  14.527  0.7427  0.1894  0.4228
 3742SOL     OW22684   4.013   1.389   0.030  0.2022 -0.5713  0.0982
 3742SOL    HW122685   3.969   1.305   0.020 -0.4223 -0.2843  0.4167
 3742SOL    HW222686   4.065   1.378  17.656  0.6238  0.2051  0.2616
 3743SOL     OW22687   0.832   3.460  16.936  0.2241 -0.1051 -0.1685
 3743SOL    HW122688   0.787   3.377  16.950  0.8222 -0.6077 -1.2036
 3743SOL    HW222689   0.844   3.449  16.842  0.7550  0.9607 -0.2201
 3744SOL     OW22690   3.763   2.648   0.402  0.1575 -0.1691 -0.1082
 3744SOL    HW122691   3.797   2.574   0.352  1.7040  1.9607 -2.1713
 3744SOL    HW222692   3.829   2.659   0.470  0.0637 -0.7120  0.0769
 3745SOL     OW22693   3.869   3.371   4.691 -0.1600 -0.4195  0.1136
 3745SOL    HW122694   3.890   3.318   4.769 -1.7658 -1.5127 -0.1948
 3745SOL    HW222695   3.774   3.359   4.694 -0.0923 -1.2131 -1.0829
 3746SOL     OW22696   2.506   2.665   3.739 -0.2321  0.6954  0.1395
 3746SOL    HW122697   2.527   2.756   3.718 -1.6901  0.6672 -1.4216
 3746SOL    HW222698   2.426   2.651   3.688 -0.6463 -0.3424  1.0753
 3747SOL     OW22699   3.186   4.127   4.322  0.2619 -0.2122  0.2334
 3747SOL    HW122700   3.236   4.194   4.275  0.8032  1.0758  2.6227
 3747SOL    HW222701   3.100   4.138   4.282  0.0167 -1.9574  0.2605
 3748SOL     OW22702   0.546   2.705   1.508  0.2561 -0.1283  0.1847
 3748SOL    HW122703   0.493   2.746   1.440  2.7438  0.5417 -1.3451
 3748SOL    HW222704   0.636   2.729   1.485  0.4174 -1.8480 -0.9766
 3749SOL     OW22705   3.352   4.249  12.924  0.0500  0.3952  0.0640
 3749SOL    HW122706   3.386   4.160  12.911  0.0017  0.5655 -1.2789
 3749SOL    HW222707   3.269   4.243  12.875 -0.1207  0.6262  0.3250
 3750SOL     OW22708   2.736   4.716   3.330 -0.1202 -0.0422  0.0292
 3750SOL    HW122709   2.816   4.713   3.277 -1.0325 -1.7838 -1.2633
 3750SOL    HW222710   2.758   0.053   3.399  0.6344  1.0773 -1.2291
 3751SOL     OW22711   1.292   3.398   5.092  0.2743  0.0818 -0.7981
 3751SOL    HW122712   1.374   3.357   5.067  0.6179  0.3686 -0.1582
 3751SOL    HW222713   1.301   3.464   5.161 -0.4925  2.3876 -2.8840
 3752SOL     OW22714   0.571   4.067  11.933  0.1427 -0.1813  0.2669
 3752SOL    HW122715   0.561   4.161  11.947 -1.3692 -0.1753 -0.8631
 3752SOL    HW222716   0.663   4.051  11.950 -0.3074 -2.5858  0.4087
 3753SOL     OW22717   2.990   3.368   7.850 -0.7869  0.4200  0.2216
 3753SOL    HW122718   3.080   3.355   7.822 -0.9504  1.0483 -0.6008
 3753SOL    HW222719   3.008   3.400   7.938 -1.0733 -2.4175  1.3212
 3754SOL     OW22720   3.390   4.249   9.075 -0.5394  0.4510 -0.8998
 3754SOL    HW122721   3.442   4.328   9.064 -1.1076  0.7501 -1.4205
 3754SOL    HW222722   3.381   4.219   8.985 -0.4226  3.0490 -1.7561
 3755SOL     OW22723   2.757   3.315  14.756 -0.0590  0.5697  0.2386
 3755SOL    HW122724   2.814   3.307  14.833  0.5437 -0.5480 -0.3152
 3755SOL    HW222725   2.808   3.371  14.698 -0.0676 -1.2555 -1.5239
 3756SOL     OW22726   2.416   4.181   3.891  0.6231 -0.0094 -0.0770
 3756SOL    HW122727   2.331   4.164   3.932  1.2693  1.6502  1.9703
 3756SOL    HW222728   2.422   4.275   3.908 -2.0889  0.1030  0.2395
 3757SOL     OW22729   3.659   3.284   3.368 -0.2194  0.0186 -0.0790
 3757SOL    HW122730   3.664   3.378   3.350 -1.4504  0.2351  0.7091
 3757SOL    HW222731   3.564   3.274   3.377 -0.4710  1.4356 -1.0377
 3758SOL     OW22732   1.085   4.287   9.350  0.2375 -0.4416  0.2430
 3758SOL    HW122733   1.013   4.345   9.376  0.1036  0.0955 -1.3461
 3758SOL    HW222734   1.153   4.309   9.414 -0.0327 -0.5113  0.5566
 3759SOL     OW22735   2.077   2.879  16.841 -0.3017 -0.1304 -0.0535
 3759SOL    HW122736   2.119   2.830  16.770  0.9083  1.8611 -0.7274
 3759SOL    HW222737   1.992   2.836  16.840  0.6787 -2.0719  0.1210
 3760SOL     OW22738   2.959   1.884  13.464  0.1801  0.3530 -0.1826
 3760SOL    HW122739   2.969   1.853  13.374 -2.5411  1.2948 -0.8012
 3760SOL    HW222740   3.049   1.899  13.494  0.5204  0.8533 -1.4706
 3761SOL     OW22741   1.196   4.501   0.240 -0.0336 -0.2857 -0.6297
 3761SOL    HW122742   1.143   4.521   0.317  1.4936 -0.2415  0.4041
 3761SOL    HW222743   1.285   4.529   0.263  0.2467 -1.8241  0.1069
 3762SOL     OW22744   0.751   2.876   1.703 -0.1956  0.1421  0.0435
 3762SOL    HW122745   0.700   2.937   1.650  0.2008  0.8439  0.4823
 3762SOL    HW222746   0.673   2.833   1.739 -0.0507 -0.2994 -0.1597
 3763SOL     OW22747   3.352   0.798   8.673 -0.1917 -0.0810  0.7114
 3763SOL    HW122748   3.277   0.796   8.732 -0.3405  1.8111  0.5984
 3763SOL    HW222749   3.341   0.882   8.628  1.0952 -0.5142 -0.4053
 3764SOL     OW22750   0.011   4.176   6.744 -0.0340  0.5864 -0.2601
 3764SOL    HW122751   0.020   4.271   6.740 -0.4456  0.6259 -0.2541
 3764SOL    HW222752   4.646   4.171   6.717  0.2616  1.9098 -1.5042
 3765SOL     OW22753   3.771   1.660   0.950 -0.2021 -0.1624 -0.3241
 3765SOL    HW122754   3.710   1.709   0.895  0.9024  2.0326  0.4004
 3765SOL    HW222755   3.739   1.569   0.947 -0.7753  0.0159  0.3718
 3766SOL     OW22756   1.222   3.288   7.220  0.0554  0.7328 -0.2553
 3766SOL    HW122757   1.243   3.321   7.307  0.2241 -2.1530  0.7754
 3766SOL    HW222758   1.266   3.361   7.176 -3.4828  2.5635 -0.7976
 3767SOL     OW22759   0.664   1.435  15.145 -0.1056 -0.0495  0.3422
 3767SOL    HW122760   0.707   1.513  15.108 -0.7985 -0.3248 -1.0454
 3767SOL    HW222761   0.687   1.435  15.238 -2.7047 -1.3671  0.9814
 3768SOL     OW22762   4.018   1.933   3.736  0.2253 -0.4898 -0.1447
 3768SOL    HW122763   4.048   1.886   3.814 -0.6464  0.5310  0.8217
 3768SOL    HW222764   4.054   2.021   3.745  1.6545 -1.0870 -0.0543
 3769SOL     OW22765   3.111   3.055   4.278  0.1421  0.4005  0.2122
 3769SOL    HW122766   3.046   3.094   4.336 -3.2463 -2.6653 -1.5559
 3769SOL    HW222767   3.087   3.100   4.197 -2.2005  1.2267  1.3705
 3770SOL     OW22768   3.482   3.846   2.775  0.0793 -0.0981  0.1667
 3770SOL    HW122769   3.397   3.862   2.817 -0.2544  2.7739 -1.5347
 3770SOL    HW222770   3.477   3.754   2.750  0.7208 -0.2553  0.6225
 3771SOL     OW22771   4.566   1.567   8.154 -0.4441 -0.2103  0.6247
 3771SOL    HW122772   4.533   1.643   8.107  0.7146 -0.5196 -0.6840
 3771SOL    HW222773   4.567   1.613   8.239 -0.1719 -2.7729  2.0062
 3772SOL     OW22774   3.742   4.412   3.192  0.0294  0.7038 -0.3178
 3772SOL    HW122775   3.743   4.390   3.285 -4.1526  1.0493 -0.1578
 3772SOL    HW222776   3.819   4.468   3.188  1.9185 -1.8509  0.9342
 3773SOL     OW22777   3.170   3.724   1.322  0.0587 -0.4689 -0.3643
 3773SOL    HW122778   3.129   3.664   1.384  0.1794 -0.5165 -0.3296
 3773SOL    HW222779   3.182   3.795   1.385 -0.0352  0.0338 -0.9124
 3774SOL     OW22780   0.500   2.227   3.392  0.1758  0.0578  0.2066
 3774SOL    HW122781   0.568   2.293   3.379 -0.3204  0.8905  1.8989
 3774SOL    HW222782   0.506   2.180   3.309 -1.2660  1.1717 -0.5089
 3775SOL     OW22783   1.221   4.090   8.281 -0.6604 -0.7452 -0.0320
 3775SOL    HW122784   1.284   4.022   8.304 -0.3061 -0.5156 -0.3128
 3775SOL    HW222785   1.280   4.159   8.249 -1.1884 -1.3327 -2.2259
 3776SOL     OW22786   1.746   3.989  15.553 -0.3184  0.1688 -0.2263
 3776SOL    HW122787   1.746   3.904  15.596 -0.7601  0.5987  0.6321
 3776SOL    HW222788   1.659   4.024  15.574 -0.8296 -0.2535 -1.6415
 3777SOL     OW22789   3.473   0.035  10.758 -0.3195  0.0033  0.4484
 3777SOL    HW122790   3.540   0.014  10.823  0.1715  1.8513  0.5181
 3777SOL    HW222791   3.443   4.682  10.713  0.1432 -0.9482  1.7982
 3778SOL     OW22792   1.963   0.461   6.594 -0.0250 -0.2920  0.3603
 3778SOL    HW122793   1.874   0.482   6.623 -0.3607 -1.4308  0.1558
 3778SOL    HW222794   2.014   0.492   6.670 -2.4897  1.5601  1.2543
 3779SOL     OW22795   1.912   0.981   1.156 -0.1673 -0.3177 -0.0791
 3779SOL    HW122796   1.906   0.982   1.060  0.2294 -0.0109 -0.0982
 3779SOL    HW222797   1.822   0.961   1.181 -0.3304  0.1263 -0.3053
 3780SOL     OW22798   4.213   4.194   0.161 -0.6138  0.1012  0.5106
 3780SOL    HW122799   4.276   4.179   0.232 -0.6340 -1.5750  0.1610
 3780SOL    HW222800   4.230   4.283   0.130 -2.1789 -0.3017 -1.4740
 3781SOL     OW22801   1.295   3.732   7.099 -0.3112 -0.7283 -0.5747
 3781SOL    HW122802   1.306   3.755   7.007  0.4037 -0.4693 -0.4175
 3781SOL    HW222803   1.384   3.746   7.130 -0.6088 -0.5975  0.2253
 3782SOL     OW22804   3.505   2.207  10.135  0.0384  0.1356  0.0060
 3782SOL    HW122805   3.599   2.210  10.120 -0.5205  0.4532 -3.4176
 3782SOL    HW222806   3.471   2.136  10.081  1.6937 -1.7330  1.4514
 3783SOL     OW22807   3.329   2.997  16.701  0.4291 -0.3163 -0.2245
 3783SOL    HW122808   3.274   3.036  16.633 -0.0922  1.6868  1.3209
 3783SOL    HW222809   3.409   2.983  16.652 -0.6884 -2.2369 -1.4816
 3784SOL     OW22810   0.397   3.018   0.649  0.6290 -0.3855 -0.5933
 3784SOL    HW122811   0.387   3.096   0.594  1.8337  0.4829  0.4186
 3784SOL    HW222812   0.420   2.955   0.580 -2.1521 -0.2249 -1.6841
 3785SOL     OW22813   1.910   4.400   9.048 -0.8091 -0.3283 -0.6200
 3785SOL    HW122814   1.836   4.361   9.002 -0.9317 -0.0761 -0.6375
 3785SOL    HW222815   1.881   4.491   9.042 -2.7454 -0.9605 -0.7040
 3786SOL     OW22816   1.688   2.516   7.989  0.0339  0.2730 -0.0400
 3786SOL    HW122817   1.681   2.472   8.074  0.2863 -1.0040 -0.6745
 3786SOL    HW222818   1.757   2.463   7.950 -1.2778 -2.4408  1.2962
 3787SOL     OW22819   4.331   2.366  17.518 -0.0708  0.5749  0.3159
 3787SOL    HW122820   4.401   2.316  17.560 -1.2341 -0.2658  1.2849
 3787SOL    HW222821   4.292   2.419  17.588  0.2298 -0.2806  1.1378
 3788SOL     OW22822   0.869   3.539   4.771  0.2456 -0.3199  0.1863
 3788SOL    HW122823   0.810   3.496   4.832 -1.1832  1.0382 -0.2355
 3788SOL    HW222824   0.921   3.468   4.733 -0.2218 -0.3058 -0.4817
 3789SOL     OW22825   2.257   1.000   8.793  0.2522  0.2889 -1.1191
 3789SOL    HW122826   2.323   0.933   8.777  1.6265  0.8741  2.2422
 3789SOL    HW222827   2.296   1.052   8.863  1.1418 -1.5253 -0.2784
 3790SOL     OW22828   2.658   0.742   3.419  0.4226  0.2873  0.1384
 3790SOL    HW122829   2.715   0.669   3.393  1.3604  1.4360 -1.0032
 3790SOL    HW222830   2.686   0.813   3.362  2.7159 -0.6787  0.0789
 3791SOL     OW22831   0.218   3.935   4.270  0.3925 -0.5845  0.2021
 3791SOL    HW122832   0.187   3.934   4.180  1.2909  1.6148 -0.1099
 3791SOL    HW222833   0.196   3.844   4.293  0.9640 -0.4264  1.4152
 3792SOL     OW22834   3.779   1.096  11.474  0.2149 -0.2636 -0.1756
 3792SOL    HW122835   3.706   1.045  11.509  1.3981  0.4838  3.3305
 3792SOL    HW222836   3.847   1.031  11.489 -0.0695 -1.0662 -2.3339
 3793SOL     OW22837   3.920   1.820   9.826  0.1102  0.1979 -0.1762
 3793SOL    HW122838   3.905   1.774   9.744  0.7276 -0.1535 -0.0971
 3793SOL    HW222839   3.852   1.779   9.880  0.3875  1.0011  0.7960
 3794SOL     OW22840   0.026   2.376   6.402 -0.3679  0.2192  0.0928
 3794SOL    HW122841   0.079   2.442   6.359  0.4007  0.0873  0.8378
 3794SOL    HW222842   0.029   2.399   6.495  0.1878 -3.6620  1.0219
 3795SOL     OW22843   0.961   2.131   3.077 -0.4062 -0.4669 -0.0318
 3795SOL    HW122844   0.890   2.080   3.115 -0.8125  1.9669  2.4408
 3795SOL    HW222845   0.914   2.190   3.018  1.4620  2.3631  1.2524
 3796SOL     OW22846   0.290   3.081   4.431 -0.4753 -0.8499  0.0802
 3796SOL    HW122847   0.325   3.123   4.352  2.5930 -3.0669  0.2823
 3796SOL    HW222848   0.312   3.148   4.495  1.6775 -0.0071 -1.5314
 3797SOL     OW22849   3.510   1.138  13.993 -0.3678 -0.5041 -0.1485
 3797SOL    HW122850   3.596   1.096  14.005  0.2431  0.9143  0.5149
 3797SOL    HW222851   3.518   1.146  13.898  0.9570 -1.3824 -0.1178
 3798SOL     OW22852   3.821   1.571   9.658 -0.2909  0.1475 -0.3795
 3798SOL    HW122853   3.835   1.579   9.564 -3.3576  1.3233 -0.7370
 3798SOL    HW222854   3.879   1.504   9.696  0.0612  0.9667  0.5177
 3799SOL     OW22855   3.260   0.554   4.899  0.0750  0.0360  0.1645
 3799SOL    HW122856   3.327   0.547   4.967  1.0389 -1.1105 -0.9201
 3799SOL    HW222857   3.239   0.463   4.876 -1.5289  0.7283 -1.1652
 3800SOL     OW22858   0.265   3.955   3.568  0.0609  0.2990 -0.0154
 3800SOL    HW122859   0.205   3.984   3.499 -0.0342 -0.5342 -0.2817
 3800SOL    HW222860   0.221   3.889   3.621  0.9511 -1.7095 -1.7600
 3801SOL     OW22861   3.505   0.810  12.303 -0.2585  0.3487 -0.5760
 3801SOL    HW122862   3.476   0.897  12.331 -1.9399 -0.6173  0.6786
 3801SOL    HW222863   3.560   0.792  12.379  0.2219  1.1849 -0.7192
 3802SOL     OW22864   4.433   2.600   3.470  0.0170 -0.0462  0.0078
 3802SOL    HW122865   4.445   2.596   3.375 -0.3254  0.3332 -0.0502
 3802SOL    HW222866   4.519   2.568   3.498 -0.4033 -2.3595 -1.3370
 3803SOL     OW22867   1.756   3.148  16.677 -0.2844 -0.0587 -0.3369
 3803SOL    HW122868   1.740   3.241  16.696  0.6850  0.8995 -4.1550
 3803SOL    HW222869   1.779   3.123  16.766 -3.1426  2.6552  1.1765
 3804SOL     OW22870   3.771   1.623  10.201  0.2007  0.4102  0.4789
 3804SOL    HW122871   3.684   1.640  10.238  0.4061  2.4661  0.0274
 3804SOL    HW222872   3.764   1.675  10.121  0.0356 -0.5134 -0.1008
 3805SOL     OW22873   3.884   0.866   4.031 -0.2848  0.6673  0.2275
 3805SOL    HW122874   3.928   0.938   4.077 -0.0566  0.7181 -0.0623
 3805SOL    HW222875   3.794   0.871   4.062 -0.4663  1.1870 -0.3625
 3806SOL     OW22876   3.281   3.905   6.172  0.2966  0.2091 -0.2759
 3806SOL    HW122877   3.212   3.863   6.120 -0.5328  0.7724  0.3635
 3806SOL    HW222878   3.360   3.860   6.144  1.0276  0.8737  0.7138
 3807SOL     OW22879   4.009   0.077  14.587 -0.0655 -0.2160 -0.0545
 3807SOL    HW122880   4.037   0.060  14.677 -0.0955  0.7356  0.1441
 3807SOL    HW222881   3.923   0.036  14.592 -0.6943  1.0486 -0.4605
 3808SOL     OW22882   2.239   0.960   3.673  0.3783  0.1338 -0.1253
 3808SOL    HW122883   2.317   0.908   3.650  1.2948  1.1277  0.7366
 3808SOL    HW222884   2.181   0.944   3.598 -1.2521 -1.4888  1.4936
 3809SOL     OW22885   1.690   0.628   5.191 -0.2663  0.1796 -0.3060
 3809SOL    HW122886   1.684   0.700   5.128  0.4258  1.2612  0.8849
 3809SOL    HW222887   1.598   0.604   5.197  0.2971 -1.7604  0.8316
 3810SOL     OW22888   4.109   1.528   4.772  0.4356 -0.2078  0.3688
 3810SOL    HW122889   4.023   1.560   4.800  0.1810  1.2482 -2.0730
 3810SOL    HW222890   4.153   1.612   4.786 -0.4041  0.7602 -2.7808
 3811SOL     OW22891   0.653   3.938   7.413 -0.0577 -0.1453  0.0209
 3811SOL    HW122892   0.583   3.889   7.455  1.0693 -0.1527  1.8723
 3811SOL    HW222893   0.706   3.957   7.491  0.3735  0.5297 -0.4320
 3812SOL     OW22894   0.254   1.574  15.732  0.1394  0.2120  0.3630
 3812SOL    HW122895   0.301   1.579  15.648  0.9754  0.1516  0.8327
 3812SOL    HW222896   0.182   1.516  15.709 -1.7273  1.8267  2.0785
 3813SOL     OW22897   4.228   1.424  10.433  0.5850  0.0252  0.0429
 3813SOL    HW122898   4.221   1.329  10.434  2.0694 -0.0737  0.4805
 3813SOL    HW222899   4.171   1.453  10.361  0.0527  1.8201  1.1896
 3814SOL     OW22900   1.305   0.396  16.188 -0.1577  0.0732  0.2267
 3814SOL    HW122901   1.257   0.323  16.150  3.0451 -2.3369  0.7929
 3814SOL    HW222902   1.277   0.396  16.279 -1.4666  1.2283 -0.1704
 3815SOL     OW22903   0.154   0.607   4.089  0.2471  0.0760 -0.0768
 3815SOL    HW122904   0.196   0.522   4.075  0.4623  0.3181 -0.8930
 3815SOL    HW222905   0.093   0.572   4.154  3.0451  0.0148  2.5355
 3816SOL     OW22906   3.948   0.086   7.559 -0.6959  0.0034  0.2333
 3816SOL    HW122907   3.915   0.128   7.480 -1.5026 -1.1616 -0.0383
 3816SOL    HW222908   4.043   0.098   7.550 -0.9021  2.1518  0.9192
 3817SOL     OW22909   1.620   1.433   3.297 -0.2622 -0.5681  0.0405
 3817SOL    HW122910   1.552   1.419   3.231 -0.9402 -1.6456  0.9813
 3817SOL    HW222911   1.684   1.494   3.259 -1.0510 -0.1225 -0.5792
 3818SOL     OW22912   1.528   1.060  17.705  0.5266 -0.2594  0.4534
 3818SOL    HW122913   1.467   0.989  17.685 -0.4248  0.7867 -0.3525
 3818SOL    HW222914   1.475   1.137  17.683 -0.1673 -0.3401  1.8117
 3819SOL     OW22915   1.637   1.627   4.453 -0.0289  0.4488 -0.1220
 3819SOL    HW122916   1.662   1.719   4.452  2.6742 -0.2986  0.2921
 3819SOL    HW222917   1.652   1.610   4.360 -0.1642  1.1908 -0.2797
 3820SOL     OW22918   2.357   0.073   6.691 -0.1050 -0.3863 -0.3723
 3820SOL    HW122919   2.364   4.723   6.633 -1.1430  0.9311 -2.2451
 3820SOL    HW222920   2.434   0.064   6.747 -1.7337 -1.1246  1.7206
 3821SOL     OW22921   1.862   1.610   5.920  0.1923 -0.4211 -0.0455
 3821SOL    HW122922   1.894   1.690   5.878  1.3743 -0.5013  0.7064
 3821SOL    HW222923   1.898   1.624   6.008 -0.2857 -2.2046  0.4346
 3822SOL     OW22924   1.901   0.839   0.691 -0.4946  0.2759  0.6736
 3822SOL    HW122925   1.962   0.905   0.660  1.4868 -2.1919 -0.6394
 3822SOL    HW222926   1.919   0.772   0.625 -2.0679  0.1971  0.3145
 3823SOL     OW22927   3.520   2.109   8.321  0.0883  0.1603 -0.2554
 3823SOL    HW122928   3.491   2.174   8.258  0.2955 -0.1151 -0.6350
 3823SOL    HW222929   3.486   2.147   8.403 -0.7035  1.7456 -1.3196
 3824SOL     OW22930   2.307   3.924  15.031  0.7481  0.2739  0.4748
 3824SOL    HW122931   2.228   3.897  15.078 -0.0968  2.4782  0.3007
 3824SOL    HW222932   2.347   3.838  15.016 -0.0800  0.0446 -0.4122
 3825SOL     OW22933   3.052   3.690   6.725  0.0025  0.3749 -0.4184
 3825SOL    HW122934   3.109   3.706   6.650  1.5154  0.9117  0.8462
 3825SOL    HW222935   3.103   3.729   6.796 -0.6757 -0.8651  0.7577
 3826SOL     OW22936   3.858   2.684   3.030  0.1078  0.9112 -0.1358
 3826SOL    HW122937   3.878   2.710   3.120 -1.4772 -2.7300  1.2601
 3826SOL    HW222938   3.775   2.637   3.035 -0.9380  2.8896  1.0678
 3827SOL     OW22939   3.330   1.051   2.372 -0.1402 -0.0432 -0.0716
 3827SOL    HW122940   3.236   1.033   2.377 -0.1866 -0.2406 -1.7485
 3827SOL    HW222941   3.345   1.099   2.453  0.3888 -0.9798  0.3778
 3828SOL     OW22942   2.150   1.299   4.436 -0.1147  0.2623 -0.6457
 3828SOL    HW122943   2.079   1.238   4.412  1.0337 -1.4542  0.3545
 3828SOL    HW222944   2.230   1.247   4.437  0.8279  1.7385  0.1596
 3829SOL     OW22945   0.239   3.386  14.561 -0.2725  0.2973  0.3618
 3829SOL    HW122946   0.145   3.387  14.548 -0.5184  0.1816  2.1130
 3829SOL    HW222947   0.258   3.293  14.574 -0.9604 -0.0973 -1.4527
 3830SOL     OW22948   2.851   1.632   4.501 -0.0555  0.7118  0.4356
 3830SOL    HW122949   2.827   1.557   4.447 -0.3388  1.2316 -0.1610
 3830SOL    HW222950   2.945   1.617   4.511 -0.2650 -1.8132 -1.2246
 3831SOL     OW22951   3.056   0.388   3.887  0.4124  0.5789  0.3079
 3831SOL    HW122952   3.051   0.451   3.959  1.2963 -0.7570  1.5197
 3831SOL    HW222953   3.043   0.442   3.809 -0.8941  0.3659  0.3761
 3832SOL     OW22954   0.012   3.769   2.159  0.2377  0.0898  0.1198
 3832SOL    HW122955   0.076   3.761   2.088 -0.5374  0.3224 -0.6101
 3832SOL    HW222956   0.040   3.850   2.203 -0.1380  0.3269 -0.0749
 3833SOL     OW22957   3.287   0.118   5.004  0.1731 -0.2130 -0.3102
 3833SOL    HW122958   3.300   0.030   4.968 -2.7299 -1.2159  1.1036
 3833SOL    HW222959   3.200   0.109   5.043 -0.0845 -0.4329 -0.9373
 3834SOL     OW22960   3.422   2.304  12.859  0.6462  0.3261  0.2217
 3834SOL    HW122961   3.389   2.220  12.828  1.1336  0.5563 -0.9474
 3834SOL    HW222962   3.482   2.269  12.925  0.9559  0.5480  0.0565
 3835SOL     OW22963   2.380   1.122  13.781 -0.0685 -0.1850 -0.6081
 3835SOL    HW122964   2.357   1.036  13.817 -1.1531 -0.6392 -2.3891
 3835SOL    HW222965   2.377   1.181  13.857 -1.2166 -0.1383 -0.6927
 3836SOL     OW22966   3.724   2.613  15.261  1.1917  0.8416  0.1386
 3836SOL    HW122967   3.721   2.658  15.346 -0.8300 -0.2666  0.6574
 3836SOL    HW222968   3.807   2.650  15.232  0.5913  0.6987 -1.7160
 3837SOL     OW22969   2.106   0.073   5.330 -0.1912 -0.2225  0.3912
 3837SOL    HW122970   2.137   0.153   5.372  1.7335  0.4175 -2.2964
 3837SOL    HW222971   2.115   0.093   5.237 -0.5440  2.2504  0.8971
 3838SOL     OW22972   3.049   4.702   1.468  0.2616 -0.7482  0.2548
 3838SOL    HW122973   2.965   4.684   1.510  0.0024 -2.3490 -0.9511
 3838SOL    HW222974   3.009   0.008   1.387  2.8948 -0.9865 -1.1648
 3839SOL     OW22975   4.422   0.315   7.287 -0.0486 -0.0367  0.0921
 3839SOL    HW122976   4.350   0.377   7.298  0.6254  0.4259  1.9176
 3839SOL    HW222977   4.489   0.378   7.262  0.2803 -0.9101 -1.1984
 3840SOL     OW22978   2.921   1.738   4.859 -0.1361  0.4613 -0.0932
 3840SOL    HW122979   2.869   1.759   4.782 -0.1388 -0.0043 -0.2182
 3840SOL    HW222980   2.873   1.662   4.892 -2.1493  2.2604  1.0582
 3841SOL     OW22981   2.301   1.166  13.399  0.0907 -0.3938  0.2389
 3841SOL    HW122982   2.252   1.249  13.399 -1.1613 -1.1284  1.1161
 3841SOL    HW222983   2.233   1.107  13.431  1.6616 -1.7825  0.9875
 3842SOL     OW22984   2.037   2.471  10.846 -0.3436 -0.0587  0.2258
 3842SOL    HW122985   2.084   2.534  10.900  0.4432  1.2546 -2.0199
 3842SOL    HW222986   2.060   2.385  10.881  2.4301  0.5413 -0.1406
 3843SOL     OW22987   0.441   0.537   5.943  0.0380  0.0798  0.9805
 3843SOL    HW122988   0.494   0.616   5.931  3.6446 -2.5858 -0.6566
 3843SOL    HW222989   0.417   0.551   6.034 -1.5616 -1.4213  0.7782
 3844SOL     OW22990   3.731   2.429   2.637 -0.0215  0.4164  0.2225
 3844SOL    HW122991   3.636   2.417   2.629  0.1776 -0.1465 -1.3455
 3844SOL    HW222992   3.755   2.379   2.715  0.8757 -1.5597 -1.3252
 3845SOL     OW22993   0.220   2.281   2.531  0.2439 -0.7573  0.4065
 3845SOL    HW122994   0.223   2.190   2.561 -0.9259 -0.7636  0.5257
 3845SOL    HW222995   0.223   2.324   2.617  0.7295 -0.4093  0.2134
 3846SOL     OW22996   3.428   2.368   2.105  0.2697  0.3579  0.5254
 3846SOL    HW122997   3.504   2.414   2.139 -0.7211 -0.2368  3.5362
 3846SOL    HW222998   3.435   2.373   2.009  1.5592 -1.4438  0.5379
 3847SOL     OW22999   0.386   1.264   4.495  0.0177  0.8694  0.1940
 3847SOL    HW123000   0.346   1.344   4.527  0.4922  1.8307 -1.5986
 3847SOL    HW223001   0.368   1.260   4.401 -2.7648 -0.1650  0.7848
 3848SOL     OW23002   1.295   1.304   6.205  0.5637  0.4714 -0.1681
 3848SOL    HW123003   1.349   1.279   6.280  0.7146 -0.8481 -0.7109
 3848SOL    HW223004   1.234   1.361   6.253 -1.2825 -1.8246  0.2129
 3849SOL     OW23005   2.857   0.739   4.400 -0.4971  0.1983  0.3399
 3849SOL    HW123006   2.898   0.694   4.474 -0.0116  0.9230  0.5100
 3849SOL    HW223007   2.921   0.740   4.329 -0.9668  0.0403 -0.0927
 3850SOL     OW23008   1.147   3.561   4.145  0.3332 -0.5122  0.0008
 3850SOL    HW123009   1.072   3.581   4.200  0.1402 -0.1752 -0.3864
 3850SOL    HW223010   1.109   3.569   4.058  0.4626 -1.2280 -0.1223
 3851SOL     OW23011   1.352   2.735   6.416 -0.6086  0.5816  0.0131
 3851SOL    HW123012   1.351   2.655   6.468  0.2153 -0.3004 -1.3431
 3851SOL    HW223013   1.328   2.700   6.330 -0.9685  0.9012 -0.0202
 3852SOL     OW23014   0.746   4.362   9.815  0.3457 -0.4050 -0.3013
 3852SOL    HW123015   0.719   4.282   9.769 -1.3547  1.6890 -2.9584
 3852SOL    HW223016   0.839   4.345   9.802  0.5296 -0.5002  1.1098
 3853SOL     OW23017   4.101   4.586   4.504  0.4431 -0.3805 -0.5353
 3853SOL    HW123018   4.107   4.682   4.498 -0.0583 -0.3233 -0.0492
 3853SOL    HW223019   4.187   4.557   4.533 -0.0224  0.0058  1.2136
 3854SOL     OW23020   1.157   4.613  10.755  0.3659  0.4666  0.0966
 3854SOL    HW123021   1.220   4.649  10.817 -0.4070  1.3546  0.3749
 3854SOL    HW223022   1.204   4.598  10.673 -1.1671 -3.6218 -0.0320
 3855SOL     OW23023   2.905   0.910   2.384  0.0596 -0.2421 -0.2967
 3855SOL    HW123024   2.928   0.991   2.337 -1.2905  1.2050  1.5047
 3855SOL    HW223025   2.986   0.859   2.377  1.1072  1.3228  0.2189
 3856SOL     OW23026   3.225   1.533   6.810  0.6600  1.0178  0.3971
 3856SOL    HW123027   3.224   1.611   6.866  0.2991  1.9755 -0.9516
 3856SOL    HW223028   3.224   1.478   6.888  2.4191 -0.4957 -0.6311
 3857SOL     OW23029   0.216   0.295   7.669  0.2620  0.0437  0.4294
 3857SOL    HW123030   0.270   0.242   7.727 -0.6477 -0.6675  0.6195
 3857SOL    HW223031   0.135   0.286   7.719 -0.7257  3.6545 -0.4797
 3858SOL     OW23032   0.910   3.247   4.014  0.0509  0.5083  0.2194
 3858SOL    HW123033   0.872   3.325   4.054  2.9137  1.2941  1.4329
 3858SOL    HW223034   0.962   3.212   4.087  0.6473 -2.0518 -1.4248
 3859SOL     OW23035   1.295   1.317   7.649  0.3617 -0.5931 -0.4393
 3859SOL    HW123036   1.261   1.405   7.664  1.4830 -0.7295  2.8260
 3859SOL    HW223037   1.283   1.315   7.554 -0.2800 -0.5227 -0.3610
 3860SOL     OW23038   3.699   1.657   9.195 -0.7288 -0.0849 -0.3005
 3860SOL    HW123039   3.700   1.730   9.257  0.2145 -1.9422  1.8935
 3860SOL    HW223040   3.661   1.701   9.119 -2.1392 -1.2593 -0.2648
 3861SOL     OW23041   0.268   1.758  10.044  0.0831 -1.1915  0.3224
 3861SOL    HW123042   0.183   1.750  10.086 -0.3065 -2.9377 -0.8064
 3861SOL    HW223043   0.275   1.680   9.989 -0.2333 -2.5351  2.2219
 3862SOL     OW23044   3.267   4.445   1.259  0.0040  0.3589 -0.4144
 3862SOL    HW123045   3.259   4.483   1.347  2.6137 -1.0165  0.4039
 3862SOL    HW223046   3.275   4.526   1.209  0.4397  0.7697  0.3208
 3863SOL     OW23047   2.526   4.296   9.664 -0.1361  0.1669 -0.9681
 3863SOL    HW123048   2.583   4.361   9.623 -1.7703  1.4353 -1.2260
 3863SOL    HW223049   2.542   4.224   9.602  1.8985  1.2884 -1.7259
 3864SOL     OW23050   0.672   0.917   5.606  0.0314 -0.4258 -0.0599
 3864SOL    HW123051   0.632   0.996   5.570 -0.1576 -0.1957  0.6612
 3864SOL    HW223052   0.751   0.952   5.647 -0.3194  0.8233 -0.4512
 3865SOL     OW23053   3.168   2.052  12.945  0.4132 -0.5773  0.4666
 3865SOL    HW123054   3.095   2.011  12.899  1.6101 -1.0120 -1.0662
 3865SOL    HW223055   3.223   2.063  12.867  1.0916  2.0272  1.3147
 3866SOL     OW23056   2.996   3.546  10.921 -0.6926 -0.0946 -1.1827
 3866SOL    HW123057   2.948   3.526  11.001 -1.3897  2.4883 -0.9497
 3866SOL    HW223058   2.930   3.522  10.855 -2.0421 -1.7394  0.7613
 3867SOL     OW23059   1.740   1.634   4.183 -0.0068  0.1396 -0.3408
 3867SOL    HW123060   1.754   1.540   4.175  2.9950  0.7434 -2.0497
 3867SOL    HW223061   1.831   1.665   4.190 -0.1363  0.2487  0.8924
 3868SOL     OW23062   4.052   1.960   2.167  0.0334 -0.5037 -0.8890
 3868SOL    HW123063   4.037   1.866   2.166 -0.6932 -0.4092  0.2956
 3868SOL    HW223064   3.981   1.986   2.108 -1.0532 -1.9463 -0.2048
 3869SOL     OW23065   0.846   2.618  12.707  0.1479  0.1922 -0.3388
 3869SOL    HW123066   0.789   2.693  12.725  2.2093  2.1823 -2.1128
 3869SOL    HW223067   0.885   2.595  12.791 -2.9951 -1.8599  0.5616
 3870SOL     OW23068   0.742   0.407   7.309 -0.7222 -0.3135 -0.2872
 3870SOL    HW123069   0.650   0.405   7.335 -1.0981 -1.5940 -1.7419
 3870SOL    HW223070   0.784   0.460   7.377 -1.6160 -1.4258  1.1252
 3871SOL     OW23071   2.920   3.402   6.741 -0.0497  0.2358 -0.3511
 3871SOL    HW123072   2.833   3.425   6.707 -0.3926  2.3701  1.9700
 3871SOL    HW223073   2.953   3.491   6.755  2.2406 -0.9141  1.4346
 3872SOL     OW23074   3.654   2.513   3.962 -0.7527  0.2642 -0.2790
 3872SOL    HW123075   3.583   2.570   3.933 -1.9002 -2.0076 -1.9460
 3872SOL    HW223076   3.624   2.438   3.910  1.6965 -1.2551  0.4951
 3873SOL     OW23077   2.937   0.737   4.781 -0.3135 -0.2167  0.1246
 3873SOL    HW123078   3.010   0.677   4.794  0.8264  0.9351 -1.0129
 3873SOL    HW223079   2.875   0.719   4.852  0.3514 -0.1184  0.7259
 3874SOL     OW23080   0.071   0.251   9.114 -0.1971 -0.2523  0.0970
 3874SOL    HW123081   0.116   0.203   9.183 -0.6663 -2.4136 -1.1031
 3874SOL    HW223082   0.070   0.186   9.044 -0.9682  0.6506 -0.7316
 3875SOL     OW23083   2.339   1.463   6.741  0.4561 -0.2896  0.4018
 3875SOL    HW123084   2.281   1.403   6.789  1.3393 -1.3951  0.0978
 3875SOL    HW223085   2.378   1.510   6.815  0.6473  0.1166  0.0369
 3876SOL     OW23086   2.619   0.185   1.853 -0.2689  0.1035  0.1469
 3876SOL    HW123087   2.671   0.167   1.932 -0.2082  1.9210  0.5284
 3876SOL    HW223088   2.537   0.224   1.883  0.3462 -0.0160  1.9761
 3877SOL     OW23089   2.729   0.899  16.758 -0.1119  0.3026 -0.1128
 3877SOL    HW123090   2.687   0.815  16.746  1.3266 -0.0588 -2.5942
 3877SOL    HW223091   2.715   0.896  16.853  0.0744  0.7539 -0.0680
 3878SOL     OW23092   0.509   0.848   6.793  0.7808  0.4348 -0.2842
 3878SOL    HW123093   0.465   0.900   6.726 -0.3925 -1.0502 -0.6604
 3878SOL    HW223094   0.439   0.788   6.819  1.7214 -1.4992 -2.2469
 3879SOL     OW23095   2.401   0.282   4.469  0.3042 -0.2210  0.2507
 3879SOL    HW123096   2.496   0.283   4.456  0.1856 -1.1338 -0.6137
 3879SOL    HW223097   2.386   0.188   4.463 -0.3081  0.0291 -1.8679
 3880SOL     OW23098   0.938   2.532   8.696  0.1663  0.1130  0.5000
 3880SOL    HW123099   0.861   2.476   8.686 -1.0198  2.0437 -0.9891
 3880SOL    HW223100   1.008   2.466   8.693 -2.0461 -2.3724  3.1880
 3881SOL     OW23101   0.397   4.471   2.826  0.2005 -0.3595  0.4875
 3881SOL    HW123102   0.478   4.515   2.853 -1.3020  2.1642  0.8500
 3881SOL    HW223103   0.405   4.483   2.731 -0.4153 -0.5442  0.4113
 3882SOL     OW23104   0.100   3.319   3.003 -0.0919  0.2118  1.0151
 3882SOL    HW123105   0.078   3.413   3.001  3.2605  0.9792 -0.7055
 3882SOL    HW223106   0.015   3.279   2.985  0.0925  0.6014 -0.6609
 3883SOL     OW23107   4.194   4.170  11.473  0.0881  0.1336  0.0806
 3883SOL    HW123108   4.157   4.215  11.549  0.1656  0.0135  0.1887
 3883SOL    HW223109   4.219   4.244  11.418  1.0574  0.0047  0.3313
 3884SOL     OW23110   1.425   1.090   8.994  0.0894 -0.4278 -0.0032
 3884SOL    HW123111   1.483   1.117   9.065 -0.4486  1.6076 -0.3260
 3884SOL    HW223112   1.465   1.149   8.930 -2.0356 -1.0917 -1.9371
 3885SOL     OW23113   1.996   2.420  11.153  0.1638 -0.2926 -0.1381
 3885SOL    HW123114   1.917   2.367  11.138  0.4024 -0.9291  0.8263
 3885SOL    HW223115   2.021   2.377  11.235  1.8653  2.8678  1.0156
 3886SOL     OW23116   0.789   1.685   7.629 -0.0574  0.4608  0.0782
 3886SOL    HW123117   0.806   1.722   7.716 -0.2892  0.3262  0.1802
 3886SOL    HW223118   0.879   1.682   7.597 -0.4544 -2.2813 -0.7700
 3887SOL     OW23119   4.061   2.030  17.310  0.0852  0.3429 -0.2179
 3887SOL    HW123120   4.087   2.115  17.274 -0.5321  1.2148  1.4189
 3887SOL    HW223121   4.111   2.031  17.392 -0.9973 -1.0067  0.4575
 3888SOL     OW23122   3.067   0.571  15.093 -0.4318 -0.1428 -0.1852
 3888SOL    HW123123   3.007   0.611  15.156  1.5742 -1.8286  2.8349
 3888SOL    HW223124   3.007   0.523  15.036 -0.9159 -0.3865  0.5292
 3889SOL     OW23125   2.887   3.938   6.964 -0.8400 -0.0596  0.9160
 3889SOL    HW123126   2.885   3.866   7.027 -1.8453 -0.2114  0.7023
 3889SOL    HW223127   2.978   3.951   6.937 -0.6798 -1.3195  0.8895
 3890SOL     OW23128   2.859   0.181   5.287  0.1772  0.3486  0.2546
 3890SOL    HW123129   2.838   0.091   5.262  1.0306  0.5733 -1.2772
 3890SOL    HW223130   2.937   0.177   5.342 -1.3322  2.1252  2.5104
 3891SOL     OW23131   3.510   2.201   6.224 -0.5185 -0.0868  0.1663
 3891SOL    HW123132   3.485   2.275   6.279 -0.9074  0.9662 -1.4402
 3891SOL    HW223133   3.600   2.194   6.254 -0.0384 -0.5982 -1.3869
 3892SOL     OW23134   1.552   0.855   9.262 -0.5814 -0.0340  0.0891
 3892SOL    HW123135   1.632   0.833   9.214 -1.1144 -0.1551 -0.7479
 3892SOL    HW223136   1.585   0.939   9.295  0.1483 -0.5543  0.6805
 3893SOL     OW23137   2.660   1.259   7.410  0.4677  0.1464  0.0333
 3893SOL    HW123138   2.624   1.255   7.499 -3.6829  0.9044 -1.6239
 3893SOL    HW223139   2.599   1.211   7.354 -0.0062  0.1608  0.5322
 3894SOL     OW23140   0.194   3.135   5.283  0.0659 -0.0735  0.2700
 3894SOL    HW123141   0.142   3.060   5.253 -0.3674  0.3455 -0.0057
 3894SOL    HW223142   0.233   3.158   5.199  0.8983  0.5777  0.8373
 3895SOL     OW23143   2.576   1.281   9.442  0.6412 -0.5140  0.1073
 3895SOL    HW123144   2.658   1.233   9.450  1.0292  0.1100 -0.1365
 3895SOL    HW223145   2.527   1.248   9.517  0.9677 -1.4067 -0.0786
 3896SOL     OW23146   2.872   1.915   0.979  0.0357 -0.2178 -0.2862
 3896SOL    HW123147   2.921   1.838   0.953  0.4579 -0.3847  1.0217
 3896SOL    HW223148   2.871   1.921   1.075 -0.5249 -0.8375 -0.2600
 3897SOL     OW23149   0.717   1.140   7.992 -0.4036  0.1304 -0.2298
 3897SOL    HW123150   0.769   1.187   8.057 -0.5378 -0.5091  0.3481
 3897SOL    HW223151   0.638   1.119   8.041  0.5760 -1.3321  0.7557
 3898SOL     OW23152   0.551   2.735  15.991  0.1344  0.0531 -0.1162
 3898SOL    HW123153   0.495   2.657  15.994 -1.2423  1.0533  0.4701
 3898SOL    HW223154   0.491   2.798  15.952 -2.1925 -2.2467 -0.3110
 3899SOL     OW23155   1.957   4.165   6.024 -0.4184  0.4714  0.2558
 3899SOL    HW123156   1.991   4.248   5.991 -0.6978  1.2141  1.8185
 3899SOL    HW223157   1.870   4.152   5.986 -0.7900  0.7140  1.0234
 3900SOL     OW23158   3.737   1.557   3.854 -0.0363  0.0161  0.4764
 3900SOL    HW123159   3.729   1.562   3.758  0.1910 -1.2862  0.3896
 3900SOL    HW223160   3.744   1.650   3.875 -2.9202 -0.0032  1.5285
 3901SOL     OW23161   0.433   3.118   1.526 -0.6440  0.4544  0.1612
 3901SOL    HW123162   0.518   3.087   1.496 -0.2431  0.8328  0.9026
 3901SOL    HW223163   0.457   3.208   1.550  1.9736 -0.3445  0.5966
 3902SOL     OW23164   4.650   1.906  10.341  0.0497 -0.2360 -0.2769
 3902SOL    HW123165   4.592   1.875  10.411  1.1511  0.7861  1.1030
 3902SOL    HW223166   4.691   1.976  10.392 -0.4197  0.5081 -0.9232
 3903SOL     OW23167   0.727   1.745   3.473 -0.1776  0.2319  0.8539
 3903SOL    HW123168   0.747   1.690   3.397  1.9837  0.6165  1.1624
 3903SOL    HW223169   0.817   1.769   3.494  0.7949 -1.0008 -1.8448
 3904SOL     OW23170   0.266   0.977   7.327  0.5343  0.2139  0.2970
 3904SOL    HW123171   0.356   0.952   7.304  0.9517  0.3407  1.7566
 3904SOL    HW223172   0.224   0.980   7.241 -2.1861  2.2672  1.6886
 3905SOL     OW23173   3.287   1.835   6.152 -0.4466  0.0484 -0.4881
 3905SOL    HW123174   3.317   1.916   6.111  1.2716 -0.6321 -0.5517
 3905SOL    HW223175   3.199   1.862   6.177 -0.2449  0.7616 -0.5254
 3906SOL     OW23176   3.923   3.916   0.529 -0.0590  0.9857  0.0973
 3906SOL    HW123177   3.855   3.920   0.462 -0.1511 -1.4276  0.0405
 3906SOL    HW223178   3.987   3.970   0.481  0.7381 -0.1121 -0.0796
 3907SOL     OW23179   1.013   2.973   0.308  0.5853 -0.1441 -0.2675
 3907SOL    HW123180   1.058   2.922   0.240  0.7627  0.8435 -0.8884
 3907SOL    HW223181   1.058   2.955   0.390  0.9587 -0.8822 -0.6342
 3908SOL     OW23182   2.727   1.021   1.389  1.0926 -0.5867  0.1139
 3908SOL    HW123183   2.757   0.980   1.308 -2.6984 -1.3893 -0.8991
 3908SOL    HW223184   2.795   1.088   1.389  0.7073 -0.2031 -1.3909
 3909SOL     OW23185   0.085   1.917   2.065  0.0337 -0.5941 -0.1560
 3909SOL    HW123186   0.180   1.918   2.077  0.1923  0.3400 -1.5386
 3909SOL    HW223187   0.063   2.006   2.038 -0.9010 -0.0893  2.2818
 3910SOL     OW23188   4.133   1.707   2.509  0.1142  0.0819 -0.3412
 3910SOL    HW123189   4.168   1.648   2.443  0.0587 -1.0509  0.6422
 3910SOL    HW223190   4.200   1.775   2.517  1.5465 -1.1963 -1.6527
 3911SOL     OW23191   3.950   0.918   4.969  0.3698 -1.1490  0.0619
 3911SOL    HW123192   3.964   0.934   5.063  0.6878  2.7259 -0.6564
 3911SOL    HW223193   3.877   0.976   4.949  0.0231 -1.3358  0.7518
 3912SOL     OW23194   4.248   2.148   6.756  0.0661  0.2612 -0.3687
 3912SOL    HW123195   4.152   2.141   6.764 -0.3630  4.8582 -1.0394
 3912SOL    HW223196   4.268   2.059   6.783 -0.0024  0.7757  1.4454
 3913SOL     OW23197   0.322   1.357  15.993  0.2531  0.4627  0.0408
 3913SOL    HW123198   0.407   1.336  16.031 -0.2300 -0.6767  0.4972
 3913SOL    HW223199   0.323   1.311  15.909  1.1380 -0.4712  0.5600
 3914SOL     OW23200   1.311   1.039   4.623 -0.0309  0.0528 -0.3456
 3914SOL    HW123201   1.352   1.084   4.549  2.2137  0.8182  1.3388
 3914SOL    HW223202   1.234   0.998   4.583 -0.7710  0.3243  0.8038
 3915SOL     OW23203   1.437   2.995   3.583  0.0317  0.5432  0.0546
 3915SOL    HW123204   1.436   3.036   3.670  0.1269 -2.0843  1.3041
 3915SOL    HW223205   1.469   2.907   3.601  1.5881  1.2962  1.0586
 3916SOL     OW23206   1.742   1.327  16.168 -0.6446  0.0865  0.1896
 3916SOL    HW123207   1.702   1.369  16.091  0.9717 -1.2868 -1.3952
 3916SOL    HW223208   1.663   1.312  16.221 -1.2575 -0.1438 -0.7709
 3917SOL     OW23209   0.072   1.216  12.174 -0.1593  0.1647  0.2480
 3917SOL    HW123210   0.066   1.183  12.084 -0.1898 -0.0017  0.3120
 3917SOL    HW223211   4.717   1.181  12.210 -0.5024  0.0349 -0.6433
 3918SOL     OW23212   0.702   0.052   8.412  0.2263  0.1243 -0.5931
 3918SOL    HW123213   0.744   0.078   8.330 -0.7766  1.0753 -0.7926
 3918SOL    HW223214   0.671   4.694   8.380 -0.3020 -0.0111  0.2662
 3919SOL     OW23215   1.254   3.893  13.534 -0.0930 -0.1675 -0.0528
 3919SOL    HW123216   1.175   3.944  13.549 -0.7743 -1.6631  1.4371
 3919SOL    HW223217   1.272   3.848  13.616  1.7868  1.9451  0.7036
 3920SOL     OW23218   2.656   2.466   8.162  0.1385 -0.6406 -0.2050
 3920SOL    HW123219   2.679   2.448   8.071  0.4918  0.3108 -0.2973
 3920SOL    HW223220   2.630   2.558   8.164  0.9795 -0.4519  2.0782
 3921SOL     OW23221   2.614   3.814  17.482  0.1451  0.0154  0.4203
 3921SOL    HW123222   2.703   3.783  17.498 -0.0511 -0.3179  0.8510
 3921SOL    HW223223   2.627   3.842  17.391  0.2946 -2.4544 -0.3075
 3922SOL     OW23224   2.812   3.519  16.640 -0.3515 -0.3011  0.1638
 3922SOL    HW123225   2.724   3.516  16.678 -0.4315 -1.5461 -0.1075
 3922SOL    HW223226   2.851   3.602  16.667  0.5598 -0.3465 -1.0505
 3923SOL     OW23227   0.924   4.533   7.247  0.2615  0.3355 -0.5399
 3923SOL    HW123228   0.851   4.484   7.284  2.4407 -1.6887  1.0843
 3923SOL    HW223229   0.992   4.505   7.309  0.4336  0.7355 -0.5428
 3924SOL     OW23230   1.687   0.471   6.643  0.5932 -0.0114  0.3124
 3924SOL    HW123231   1.668   0.562   6.663 -1.1054 -0.9083  2.7866
 3924SOL    HW223232   1.600   0.431   6.634  1.0479 -0.4273 -2.1394
 3925SOL     OW23233   3.146   1.076   2.656 -0.3473 -0.4290  0.5265
 3925SOL    HW123234   3.118   1.076   2.747  1.3552  0.0907  1.0526
 3925SOL    HW223235   3.148   0.980   2.650  0.2436 -0.2453 -2.1440
 3926SOL     OW23236   2.885   3.110   5.906 -0.0604 -0.0679 -0.0628
 3926SOL    HW123237   2.916   3.020   5.909 -0.5204 -0.1793  1.6516
 3926SOL    HW223238   2.941   3.140   5.978 -1.5933 -1.1596  1.5845
 3927SOL     OW23239   3.040   0.788   2.056  0.7366  0.0726  0.0930
 3927SOL    HW123240   3.038   0.828   1.970  0.3312 -0.8593 -0.3364
 3927SOL    HW223241   3.014   0.698   2.035 -0.8046  0.9197 -1.6296
 3928SOL     OW23242   2.885   2.665   5.921  0.5901 -0.0258 -0.1062
 3928SOL    HW123243   2.909   2.713   6.000 -0.6991  0.0899  0.2150
 3928SOL    HW223244   2.800   2.634   5.952 -0.7311  2.0315 -1.6471
 3929SOL     OW23245   2.774   2.463   7.635 -0.3057  0.0233  0.6559
 3929SOL    HW123246   2.814   2.378   7.618 -2.7797 -1.1605  0.7390
 3929SOL    HW223247   2.682   2.451   7.611 -0.0812 -0.0380 -0.1650
 3930SOL     OW23248   2.170   3.933   7.697 -0.0200  0.2865  0.4222
 3930SOL    HW123249   2.137   3.897   7.615 -0.2454  0.3749  0.4740
 3930SOL    HW223250   2.197   3.849   7.736  1.6796  0.1337 -1.0840
 3931SOL     OW23251   3.435   2.341   1.591  0.7517 -0.2526  0.0003
 3931SOL    HW123252   3.347   2.375   1.575  0.6756 -1.6593 -2.5854
 3931SOL    HW223253   3.436   2.262   1.537  1.1573  1.4753 -2.5317
 3932SOL     OW23254   2.062   1.168   8.182 -0.5319  0.2012  0.1233
 3932SOL    HW123255   2.085   1.217   8.261 -0.9826  2.9950 -1.4766
 3932SOL    HW223256   1.969   1.156   8.201 -0.4239  1.8759  1.7826
 3933SOL     OW23257   0.103   0.931   2.454  0.0916 -0.2392  0.0796
 3933SOL    HW123258   0.088   0.894   2.541 -0.3431  0.0724  0.1389
 3933SOL    HW223259   0.093   0.860   2.392  1.3892  0.4512 -0.9169
 3934SOL     OW23260   2.220   3.693   4.042  0.3057  0.4462  0.1228
 3934SOL    HW123261   2.199   3.786   4.035 -0.4946  0.2222 -0.5985
 3934SOL    HW223262   2.149   3.668   4.101  0.9095 -0.3853  0.4991
 3935SOL     OW23263   1.158   3.447  14.891 -0.0523 -0.9474  0.9459
 3935SOL    HW123264   1.127   3.434  14.802  2.2934 -0.2163  0.0258
 3935SOL    HW223265   1.078   3.450  14.944  0.1019 -1.0542  1.1890
 3936SOL     OW23266   2.868   3.568   5.308 -0.6950  0.1063  0.0824
 3936SOL    HW123267   2.805   3.537   5.244  0.1768  1.0624 -1.2558
 3936SOL    HW223268   2.807   3.611   5.368 -1.7971 -0.4943 -0.6108
 3937SOL     OW23269   4.094   1.430   6.559  0.0361  0.9192 -0.0610
 3937SOL    HW123270   4.180   1.396   6.531 -0.4325 -0.2026 -0.1357
 3937SOL    HW223271   4.115   1.523   6.571  0.5530  0.4945  2.2080
 3938SOL     OW23272   4.685   3.192  15.622 -0.0968  0.2531 -0.0202
 3938SOL    HW123273   4.691   3.220  15.713 -0.0678  0.3148 -0.0407
 3938SOL    HW223274   0.047   3.215  15.592  0.1980 -2.0122 -0.8905
 3939SOL     OW23275   1.279   1.926  11.269 -0.3674 -0.2390 -0.4626
 3939SOL    HW123276   1.197   1.877  11.266 -1.0474  0.7911  1.2056
 3939SOL    HW223277   1.301   1.907  11.178  2.2153 -0.5254  0.2424
 3940SOL     OW23278   4.305   3.604   5.460  0.2103  0.0140  0.1789
 3940SOL    HW123279   4.317   3.539   5.529 -2.9954 -2.3063 -1.4207
 3940SOL    HW223280   4.396   3.626   5.443  0.4534  0.4939  2.0519
 3941SOL     OW23281   2.141   0.434   0.095 -0.5796 -0.4717  0.1113
 3941SOL    HW123282   2.233   0.431   0.122 -0.5101  1.6400  0.1197
 3941SOL    HW223283   2.123   0.526   0.079  3.1880  0.3441  0.5141
 3942SOL     OW23284   4.100   0.812   8.351  0.4126 -0.1981 -1.0380
 3942SOL    HW123285   4.095   0.723   8.317 -1.6267 -0.2102 -0.7356
 3942SOL    HW223286   4.014   0.814   8.394  0.5192  0.3811 -0.8555
 3943SOL     OW23287   1.363   2.073   3.882  0.1839  0.7938  0.2924
 3943SOL    HW123288   1.360   1.977   3.887 -1.1187  0.9084  1.9265
 3943SOL    HW223289   1.424   2.089   3.954 -0.5144  2.3095  0.5396
 3944SOL     OW23290   4.030   2.572   5.485  0.5718 -0.5115 -0.1281
 3944SOL    HW123291   3.942   2.535   5.473  1.6882 -2.9888 -0.6977
 3944SOL    HW223292   4.067   2.497   5.532 -0.0079 -0.8411 -0.1890
 3945SOL     OW23293   3.147   0.790   2.340 -0.5232 -0.0361 -0.3018
 3945SOL    HW123294   3.190   0.706   2.354 -2.3368 -0.8867  0.1832
 3945SOL    HW223295   3.124   0.793   2.247  0.9448  0.2594 -0.6617
 3946SOL     OW23296   0.616   4.036   6.426  0.1904  1.4109  0.3240
 3946SOL    HW123297   0.642   3.973   6.359 -1.3247  1.6780 -0.5200
 3946SOL    HW223298   0.587   3.980   6.498  0.4226  0.9563  0.0612
 3947SOL     OW23299   2.748   2.144   9.802 -0.5815  0.5181  0.4103
 3947SOL    HW123300   2.703   2.228   9.807 -1.3055  0.1499  0.0671
 3947SOL    HW223301   2.680   2.085   9.770  1.3452 -1.5255  0.0316
 3948SOL     OW23302   3.000   2.671   7.726 -0.6779 -0.0329  0.0815
 3948SOL    HW123303   2.975   2.748   7.675 -1.3767 -1.0441 -1.0965
 3948SOL    HW223304   3.045   2.609   7.668 -2.9665  0.3858 -2.1133
 3949SOL     OW23305   1.379   4.020  11.491  0.2352  1.5599 -0.3872
 3949SOL    HW123306   1.473   4.021  11.474  0.4260  0.8376  0.6899
 3949SOL    HW223307   1.341   3.977  11.414  0.6230 -1.1692  0.9835
 3950SOL     OW23308   3.348   1.987  12.092 -0.4901 -0.8096 -0.1109
 3950SOL    HW123309   3.307   1.960  12.175  1.5166 -0.5764  0.9514
 3950SOL    HW223310   3.436   1.963  12.121 -0.7256 -1.2556  0.2476
 3951SOL     OW23311   0.820   0.766   5.155 -0.1589 -0.7003  0.0518
 3951SOL    HW123312   0.733   0.726   5.149 -1.1723  1.5703 -0.0988
 3951SOL    HW223313   0.874   0.739   5.080 -0.5530  0.0519 -0.5013
 3952SOL     OW23314   1.861   1.952  16.244 -0.0605  0.0983  0.7274
 3952SOL    HW123315   1.792   1.886  16.232  0.1329 -0.1219  0.8312
 3952SOL    HW223316   1.909   1.937  16.163  1.0430 -0.8662  1.5737
 3953SOL     OW23317   0.868   1.376  10.991  0.2991 -0.8808  0.0181
 3953SOL    HW123318   0.909   1.327  10.920 -1.8553 -2.7893  0.0823
 3953SOL    HW223319   0.783   1.335  10.976  0.1478 -0.6822  0.3302
 3954SOL     OW23320   2.441   3.562   6.714 -0.3632  0.3374 -0.2216
 3954SOL    HW123321   2.490   3.638   6.745  0.1266  0.5169 -1.4189
 3954SOL    HW223322   2.397   3.600   6.638  0.1928  0.5301 -0.4507
 3955SOL     OW23323   3.271   4.473   3.744 -0.0172 -0.3702 -0.6570
 3955SOL    HW123324   3.228   4.401   3.698 -0.5654 -0.8351  0.5759
 3955SOL    HW223325   3.363   4.448   3.758  0.3363  2.1432  1.5353
 3956SOL     OW23326   0.271   1.889  15.258 -0.0044  0.2078  0.1499
 3956SOL    HW123327   0.300   1.978  15.238 -0.5129  0.5781  1.0604
 3956SOL    HW223328   0.222   1.904  15.339 -2.7192  0.5667 -1.5952
 3957SOL     OW23329   3.287   4.293   5.625  0.0721  0.1158  0.6656
 3957SOL    HW123330   3.303   4.377   5.583  2.1961  0.2131  1.6779
 3957SOL    HW223331   3.312   4.306   5.716 -0.5495  1.9077  0.5815
 3958SOL     OW23332   3.017   1.489  15.256  0.6484  0.4680 -0.0381
 3958SOL    HW123333   2.966   1.546  15.198  0.9946  0.2272 -0.5798
 3958SOL    HW223334   3.093   1.470  15.201 -0.8065  0.0248 -1.8733
 3959SOL     OW23335   0.553   0.908  13.658 -0.3795 -0.2903 -0.1491
 3959SOL    HW123336   0.466   0.949  13.659 -0.8292 -1.2347 -0.6562
 3959SOL    HW223337   0.597   0.963  13.594 -0.3711 -1.4175 -1.1202
 3960SOL     OW23338   0.182   1.909   4.290 -0.1700  0.2979  0.0696
 3960SOL    HW123339   0.165   1.957   4.371  0.4079 -1.3758  1.2002
 3960SOL    HW223340   0.166   1.818   4.317  1.1576  0.2919  0.8148
 3961SOL     OW23341   4.558   2.356  15.140 -0.5185 -0.1627  0.0175
 3961SOL    HW123342   4.636   2.395  15.100 -1.8337  1.2268 -1.1687
 3961SOL    HW223343   4.520   2.302  15.071  0.3123  2.0223 -2.1499
 3962SOL     OW23344   1.579   2.072   6.769  0.2216  0.0675 -0.0319
 3962SOL    HW123345   1.549   2.152   6.813  2.7235  0.9945 -0.0535
 3962SOL    HW223346   1.660   2.111   6.736  1.8646 -0.9994  2.6894
 3963SOL     OW23347   1.360   4.346   4.091 -0.7285 -0.4212 -0.2362
 3963SOL    HW123348   1.297   4.374   4.024 -2.3301  0.2801  1.5623
 3963SOL    HW223349   1.392   4.265   4.052  0.6040  0.3955 -0.8541
 3964SOL     OW23350   1.470   3.846   6.354 -0.4686  0.2750  0.5283
 3964SOL    HW123351   1.422   3.918   6.395  0.2352  1.2426 -0.3371
 3964SOL    HW223352   1.556   3.878   6.330 -0.3147 -1.6209 -1.4957
 3965SOL     OW23353   2.558   1.147  14.812 -0.3623  0.4529  0.1729
 3965SOL    HW123354   2.531   1.238  14.805 -0.6696  0.4242  0.9642
 3965SOL    HW223355   2.631   1.150  14.875  0.2426  1.5469 -0.5955
 3966SOL     OW23356   1.421   3.888   5.488  0.8400  0.0684 -0.5360
 3966SOL    HW123357   1.390   3.802   5.460 -0.0889  0.7484 -1.6213
 3966SOL    HW223358   1.489   3.856   5.547  1.5568  0.3716 -1.2119
 3967SOL     OW23359   0.790   3.442   8.893  0.5503  0.1174  0.7587
 3967SOL    HW123360   0.737   3.401   8.825  0.4828  1.8083 -0.2107
 3967SOL    HW223361   0.791   3.374   8.960  0.1883  0.9627  1.6381
 3968SOL     OW23362   4.289   2.199   1.885  0.1240  0.3254  0.1515
 3968SOL    HW123363   4.377   2.163   1.887 -0.4251 -1.1872 -2.9472
 3968SOL    HW223364   4.246   2.148   1.954 -2.9287  2.7285  0.0676
 3969SOL     OW23365   0.109   1.305  10.085  0.2427 -0.8851  0.0105
 3969SOL    HW123366   0.159   1.224  10.095 -0.6435 -1.3819  0.4194
 3969SOL    HW223367   0.118   1.324   9.992 -0.9214 -0.5919 -0.0521
 3970SOL     OW23368   2.729   3.122   8.127 -0.4940 -0.2285 -0.5022
 3970SOL    HW123369   2.681   3.041   8.106 -1.1840 -0.4024  1.7902
 3970SOL    HW223370   2.819   3.116   8.094  0.4715 -0.9464  2.2372
 3971SOL     OW23371   3.271   2.876   7.599 -0.3379 -0.7967 -0.4763
 3971SOL    HW123372   3.194   2.838   7.557  0.5752 -0.3967 -2.4752
 3971SOL    HW223373   3.219   2.946   7.640 -0.0546 -0.0895 -1.3169
 3972SOL     OW23374   3.640   2.496  11.280 -0.4834  0.6206 -0.4828
 3972SOL    HW123375   3.726   2.511  11.240 -1.9603  0.1004 -3.9070
 3972SOL    HW223376   3.647   2.451  11.364 -0.6650  1.2366 -0.1422
 3973SOL     OW23377   3.857   0.474   2.855 -0.1211  0.0213  0.2503
 3973SOL    HW123378   3.909   0.552   2.834  0.5493 -0.0187  1.7587
 3973SOL    HW223379   3.886   0.417   2.783 -0.2288  0.7996 -0.4145
 3974SOL     OW23380   3.161   4.541   8.455 -0.3567  0.0485  0.5858
 3974SOL    HW123381   3.156   4.617   8.512 -0.8916  0.2434  0.2720
 3974SOL    HW223382   3.257   4.529   8.458 -0.5649 -1.8360  0.1135
 3975SOL     OW23383   1.909   1.031   6.941 -0.0839 -0.1889 -0.5021
 3975SOL    HW123384   1.837   1.091   6.959 -0.1335 -0.0017 -1.3047
 3975SOL    HW223385   1.968   1.096   6.902 -0.8211  0.7040 -0.0999
 3976SOL     OW23386   3.007   2.218   3.582 -0.5363 -0.8101 -0.6255
 3976SOL    HW123387   2.978   2.254   3.666 -0.2310 -2.5920  0.2398
 3976SOL    HW223388   2.938   2.247   3.522 -0.1437  0.2572 -0.5544
 3977SOL     OW23389   1.237   1.889   7.017 -0.2456 -0.8668  0.3257
 3977SOL    HW123390   1.330   1.911   7.027 -0.5057  0.4408 -0.2845
 3977SOL    HW223391   1.232   1.830   6.942 -0.0835 -1.1013  0.4973
 3978SOL     OW23392   0.448   3.877   8.385  0.9456 -0.0627 -0.0049
 3978SOL    HW123393   0.360   3.858   8.416  1.7710 -0.8168  1.8804
 3978SOL    HW223394   0.485   3.895   8.471  0.2407 -0.1981  0.3260
 3979SOL     OW23395   0.982   1.454   7.884 -1.1299  0.2262  0.5279
 3979SOL    HW123396   0.912   1.520   7.880 -0.5599  0.7696 -0.5427
 3979SOL    HW223397   0.982   1.442   7.979  1.5947  0.1954  0.5078
 3980SOL     OW23398   2.953   4.685   6.521  0.0939  0.7537 -0.3980
 3980SOL    HW123399   2.934   4.641   6.438  0.5052 -0.1698  0.0050
 3980SOL    HW223400   2.868   4.691   6.565  1.2434 -1.4776  2.1512
 3981SOL     OW23401   4.665   2.115  11.712 -0.2644  0.4951 -0.1953
 3981SOL    HW123402   4.632   2.037  11.667 -1.1522  0.8305 -0.1248
 3981SOL    HW223403   0.014   2.081  11.760  0.1767  3.0680  0.9415
 3982SOL     OW23404   2.439   4.164   5.246 -0.4244 -1.2265 -0.1280
 3982SOL    HW123405   2.459   4.212   5.327  0.6359  1.0554 -1.7335
 3982SOL    HW223406   2.511   4.101   5.237 -2.3517 -3.4501 -0.0031
 3983SOL     OW23407   3.014   3.285   2.837  0.1812  0.6979 -0.1760
 3983SOL    HW123408   3.106   3.257   2.840 -1.2084 -3.7385  0.9467
 3983SOL    HW223409   2.979   3.230   2.907 -0.7045 -1.1754 -2.1048
 3984SOL     OW23410   3.948   3.768   3.337  0.0468  0.0968  0.1874
 3984SOL    HW123411   4.014   3.779   3.406  1.1303  2.1994 -1.1846
 3984SOL    HW223412   3.905   3.695   3.380  2.1555 -0.5374  1.2478
 3985SOL     OW23413   4.045   3.114  17.259 -0.2424 -0.9491 -0.3080
 3985SOL    HW123414   3.980   3.125  17.329  0.1567 -1.2067  0.1060
 3985SOL    HW223415   4.022   3.188  17.203  2.9427  2.4496  2.9024
 3986SOL     OW23416   3.096   0.173   2.441 -0.3494 -0.4760  0.2949
 3986SOL    HW123417   3.006   0.193   2.414 -0.0294  3.5707  2.3266
 3986SOL    HW223418   3.100   0.078   2.447  0.4391 -0.3350  1.9844
 3987SOL     OW23419   3.899   1.546   2.523  0.2104 -0.1131  0.3207
 3987SOL    HW123420   3.984   1.589   2.532  0.1054  0.6964 -2.8713
 3987SOL    HW223421   3.862   1.586   2.445  0.4919  3.6529  2.1450
 3988SOL     OW23422   0.485   1.694   6.172 -0.1305 -0.1809  0.4762
 3988SOL    HW123423   0.505   1.772   6.222  2.3015 -1.5298  1.6020
 3988SOL    HW223424   0.400   1.671   6.210 -0.2155  0.9097  0.9250
 3989SOL     OW23425   1.048   3.044   1.461 -0.2195 -0.2403  0.1091
 3989SOL    HW123426   1.066   3.023   1.370  2.9615  1.0679  0.4277
 3989SOL    HW223427   1.026   2.956   1.492 -1.6700  0.6701  1.6513
 3990SOL     OW23428   3.200   1.287   4.933  0.3654  0.2386  0.1284
 3990SOL    HW123429   3.149   1.247   4.862  0.3737 -0.4482  0.5105
 3990SOL    HW223430   3.186   1.379   4.910  1.3838 -0.2979 -2.6903
 3991SOL     OW23431   3.331   0.912   6.181 -0.3060  0.5935  0.4913
 3991SOL    HW123432   3.245   0.935   6.148 -1.3316 -1.4903  1.7281
 3991SOL    HW223433   3.319   0.922   6.275  0.8617  0.1968  0.6885
 3992SOL     OW23434   1.028   3.028  15.673  0.2973 -0.3738 -0.6657
 3992SOL    HW123435   0.950   2.998  15.626  1.4931 -2.2972 -1.4097
 3992SOL    HW223436   1.012   2.994  15.761  0.2077 -0.6263 -0.7787
 3993SOL     OW23437   0.149   2.280   3.952  0.0328 -0.0176  0.0248
 3993SOL    HW123438   0.164   2.186   3.955  0.3560 -0.0467 -2.7054
 3993SOL    HW223439   0.238   2.315   3.948 -0.3868  0.9385 -1.0857
 3994SOL     OW23440   0.595   0.749   5.878  0.2169  0.4835 -0.1959
 3994SOL    HW123441   0.633   0.825   5.922  3.5722 -0.6965 -1.0418
 3994SOL    HW223442   0.611   0.778   5.788  0.4169  1.2964  0.0933
 3995SOL     OW23443   2.033   3.443  16.496 -0.2004 -0.2727  0.8044
 3995SOL    HW123444   2.047   3.456  16.403 -2.3583  1.9165  0.7735
 3995SOL    HW223445   1.987   3.359  16.487 -1.9327  0.7543  0.0183
 3996SOL     OW23446   1.403   4.100   3.978  0.0118 -0.2103  0.3864
 3996SOL    HW123447   1.411   4.042   3.903 -3.4478  0.1808 -0.2698
 3996SOL    HW223448   1.474   4.071   4.035 -2.0489 -1.8102  2.1454
 3997SOL     OW23449   0.394   4.663   6.219  0.2481  0.4118  0.6710
 3997SOL    HW123450   0.300   4.659   6.236  0.5651 -1.5232  1.9507
 3997SOL    HW223451   0.399   0.033   6.223  3.9779  0.2679 -0.4989
 3998SOL     OW23452   0.679   0.156   5.808  0.1522 -0.3237  0.1101
 3998SOL    HW123453   0.688   0.145   5.903  0.9292  0.1821  0.0912
 3998SOL    HW223454   0.687   0.065   5.780  0.1529 -0.4143  0.4007
 3999SOL     OW23455   4.108   3.301   5.219  0.5000 -0.0679  0.1174
 3999SOL    HW123456   4.040   3.255   5.268  2.7560 -1.7660  1.6807
 3999SOL    HW223457   4.190   3.293   5.268  1.5751 -0.2546 -1.7147
 4000SOL     OW23458   2.392   4.303   1.854  0.1224 -0.0847  0.5537
 4000SOL    HW123459   2.412   4.391   1.887  0.4733  0.0899 -0.1246
 4000SOL    HW223460   2.346   4.270   1.931  0.7640  0.0549  1.0004
 4001SOL     OW23461   2.352   4.200   1.381  0.9147 -0.2165 -0.0844
 4001SOL    HW123462   2.406   4.182   1.304  1.4810 -1.3619  0.5798
 4001SOL    HW223463   2.330   4.111   1.410  1.8599 -1.6034 -3.5404
 4002SOL     OW23464   1.363   1.165   2.248 -0.2785  0.6393 -0.0569
 4002SOL    HW123465   1.421   1.230   2.286  2.0553 -1.5123  0.0724
 4002SOL    HW223466   1.420   1.124   2.182 -0.6546 -2.1760  1.3566
 4003SOL     OW23467   3.880   2.738   1.818 -0.3270 -0.5429 -0.4184
 4003SOL    HW123468   3.788   2.710   1.814  0.2723 -2.6589  0.7822
 4003SOL    HW223469   3.887   2.731   1.913  0.2880 -0.5511 -0.4665
 4004SOL     OW23470   1.053   0.781   3.361 -0.0033 -0.5333  0.3064
 4004SOL    HW123471   1.063   0.699   3.313  1.1338 -0.7950  0.9904
 4004SOL    HW223472   1.014   0.834   3.292  0.3903 -2.4657 -1.3807
 4005SOL     OW23473   3.369   0.431   3.318  0.0954 -0.0526  0.2190
 4005SOL    HW123474   3.320   0.513   3.309 -0.1361 -0.4253 -1.9326
 4005SOL    HW223475   3.339   0.405   3.405 -0.5677 -0.0578 -0.0050
 4006SOL     OW23476   3.651   1.729   4.232  0.8199 -0.5287  0.3845
 4006SOL    HW123477   3.664   1.766   4.145 -1.3570 -1.6350 -0.3946
 4006SOL    HW223478   3.579   1.784   4.263  0.0757 -1.5619  0.4932
 4007SOL     OW23479   4.013   2.713   3.497 -0.1177 -0.3401  0.1657
 4007SOL    HW123480   4.078   2.776   3.529  0.3360 -0.5165 -0.4086
 4007SOL    HW223481   3.966   2.690   3.577  0.6827 -0.6836  0.5351
 4008SOL     OW23482   4.585   3.927   1.581 -0.5322  0.1673 -0.5427
 4008SOL    HW123483   4.498   3.965   1.591  0.5406  2.4677  0.1564
 4008SOL    HW223484   4.621   3.997   1.636  0.3200 -1.2019  0.6342
 4009SOL     OW23485   2.969   3.299   3.697  0.1770  0.3276 -0.2049
 4009SOL    HW123486   2.912   3.224   3.679  0.5830  0.4049 -1.8034
 4009SOL    HW223487   2.984   3.327   3.607  0.5124  0.6302 -0.0509
 4010SOL     OW23488   4.040   1.810   0.252 -0.6668  0.0086  0.9141
 4010SOL    HW123489   3.980   1.735   0.256  0.7091 -1.0567  1.4884
 4010SOL    HW223490   3.992   1.878   0.205 -0.0529 -1.4192 -1.8254
 4011SOL     OW23491   4.247   2.377   5.609 -0.2932  0.6019 -0.0632
 4011SOL    HW123492   4.268   2.349   5.520 -0.4389 -1.8759  0.6783
 4011SOL    HW223493   4.269   2.290   5.644  3.6371  1.6625  0.0982
 4012SOL     OW23494   4.540   4.333   3.593 -0.0107  0.3131 -0.6255
 4012SOL    HW123495   4.587   4.363   3.671 -1.5526  0.5560  0.2113
 4012SOL    HW223496   4.584   4.375   3.520  0.8011 -1.8190 -1.3842
 4013SOL     OW23497   0.732   4.133   8.473  0.0378 -0.0343  0.6923
 4013SOL    HW123498   0.759   4.134   8.565 -1.2919 -1.8430  1.0977
 4013SOL    HW223499   0.816   4.133   8.427 -0.5457 -0.6745 -0.3574
 4014SOL     OW23500   3.501   2.366   1.838  0.1123 -0.3264  0.3562
 4014SOL    HW123501   3.473   2.357   1.747  0.0949 -1.1065  0.4409
 4014SOL    HW223502   3.596   2.365   1.829  0.4239  0.9632  3.7230
 4015SOL     OW23503   3.293   0.426  14.988  0.0210  0.3247 -0.0033
 4015SOL    HW123504   3.284   0.346  15.039 -0.3851  1.3554  1.5380
 4015SOL    HW223505   3.225   0.485  15.020  1.2539  1.3996  0.6555
 4016SOL     OW23506   2.963   1.170   4.131  0.1503  0.0708 -0.1603
 4016SOL    HW123507   2.891   1.117   4.097 -1.9956  1.0168  2.9489
 4016SOL    HW223508   3.026   1.100   4.152 -0.1159  0.2197  1.1590
 4017SOL     OW23509   3.998   4.024   8.419  0.1545 -0.2070 -0.0817
 4017SOL    HW123510   4.055   4.004   8.345 -1.3085 -2.5438 -0.5832
 4017SOL    HW223511   4.053   4.059   8.488 -2.5109  0.0531  1.9307
 4018SOL     OW23512   4.352   3.925  15.235  0.1882  0.3324  0.2556
 4018SOL    HW123513   4.377   3.883  15.317 -1.8466 -1.7543 -0.1790
 4018SOL    HW223514   4.297   3.855  15.199  2.3351  0.3255 -3.0378
 4019SOL     OW23515   0.122   3.610   8.566 -0.1413  0.0002 -0.1916
 4019SOL    HW123516   0.108   3.586   8.657  1.6189 -0.0338  0.0757
 4019SOL    HW223517   0.040   3.573   8.533  0.1528 -1.1735  0.4164
 4020SOL     OW23518   3.684   2.581   1.921  0.1481 -0.3345 -0.0683
 4020SOL    HW123519   3.679   2.621   2.008  2.1468  2.4445 -1.2235
 4020SOL    HW223520   3.617   2.629   1.872  0.2924 -0.7774 -0.7019
 4021SOL     OW23521   3.307   4.384   0.326  1.1273 -0.1983  0.3365
 4021SOL    HW123522   3.294   4.310   0.386 -1.5601 -1.3810 -1.6996
 4021SOL    HW223523   3.219   4.421   0.327  0.2249 -2.3013 -0.9466
 4022SOL     OW23524   3.131   0.046   8.599 -0.3714 -0.4562  0.5933
 4022SOL    HW123525   3.179   0.027   8.680  0.5345  0.9018  0.3765
 4022SOL    HW223526   3.176   0.123   8.565 -0.9670 -0.1831  0.4242
 4023SOL     OW23527   0.992   1.000   5.318  0.2637 -0.2670 -0.4973
 4023SOL    HW123528   1.010   1.057   5.243 -3.1876 -1.1067 -1.9857
 4023SOL    HW223529   0.986   0.915   5.273 -0.7082 -0.5315  0.1237
 4024SOL     OW23530   3.169   1.853   7.911 -0.2207  0.1601 -0.5064
 4024SOL    HW123531   3.114   1.841   7.834 -2.5526 -2.7669  1.6406
 4024SOL    HW223532   3.119   1.849   7.992  3.0180  0.0143  1.4938
 4025SOL     OW23533   2.084   2.220   4.427 -0.0053  0.1652  0.0393
 4025SOL    HW123534   2.178   2.208   4.414  0.3700  0.1648  2.7894
 4025SOL    HW223535   2.073   2.182   4.514 -1.3689  0.2186 -0.1088
 4026SOL     OW23536   0.556   4.104  16.044  0.0162 -0.0707 -0.8102
 4026SOL    HW123537   0.626   4.039  16.042 -0.0843 -0.3010  3.1266
 4026SOL    HW223538   0.518   4.071  15.963 -2.1462 -3.1436  1.4500
 4027SOL     OW23539   1.046   4.599   0.427  0.2397 -0.1569  0.1890
 4027SOL    HW123540   1.068   4.642   0.509  2.6664 -0.3849 -0.3368
 4027SOL    HW223541   0.969   4.645   0.393 -0.8731  0.2652  3.3667
 4028SOL     OW23542   1.675   0.162   2.782 -0.8286 -0.3591  0.2658
 4028SOL    HW123543   1.697   0.108   2.706 -0.2746 -1.2448  1.0542
 4028SOL    HW223544   1.708   0.244   2.744  2.3967 -1.5617  0.4277
 4029SOL     OW23545   1.171   2.250   5.361  0.4942 -0.2508 -0.2784
 4029SOL    HW123546   1.131   2.325   5.403  1.5272  1.5056 -2.4278
 4029SOL    HW223547   1.089   2.215   5.326 -0.0959 -1.2773  2.1119
 4030SOL     OW23548   0.604   3.904   0.005  0.2939  0.1622 -0.0760
 4030SOL    HW123549   0.651   3.930   0.084 -2.0173 -0.4150  1.4835
 4030SOL    HW223550   0.519   3.894   0.047  0.5555  0.2029  0.4687
 4031SOL     OW23551   3.429   0.897   3.874 -0.1763  0.4488  0.3849
 4031SOL    HW123552   3.453   0.805   3.861 -0.9510  0.6329 -2.3999
 4031SOL    HW223553   3.467   0.924   3.957 -0.5297  2.0475  0.0202
 4032SOL     OW23554   2.366   2.579   7.050 -0.1075 -0.2650  0.6408
 4032SOL    HW123555   2.397   2.627   7.127  1.9108 -0.9532  0.2536
 4032SOL    HW223556   2.355   2.492   7.088 -1.6980 -0.4118 -0.1762
 4033SOL     OW23557   0.016   2.151   8.326 -0.2612  0.2846 -0.5438
 4033SOL    HW123558   0.080   2.196   8.271  1.2821  1.3303  2.0888
 4033SOL    HW223559   4.703   2.086   8.268 -0.6642 -0.6004  0.7337
 4034SOL     OW23560   3.481   0.444   5.366  0.6701 -0.1837  0.2900
 4034SOL    HW123561   3.447   0.384   5.432  0.4882 -1.3846 -0.8831
 4034SOL    HW223562   3.543   0.484   5.427 -0.4961 -2.4043  2.9182
 4035SOL     OW23563   1.688   3.500   8.734 -0.0734  0.1163  0.2427
 4035SOL    HW123564   1.609   3.554   8.728  0.4988  0.9595  0.3186
 4035SOL    HW223565   1.655   3.433   8.793  2.1627  0.2332  1.6235
 4036SOL     OW23566   2.224   3.921  11.109 -0.2350  0.1139 -0.0626
 4036SOL    HW123567   2.140   3.947  11.148  1.3266  2.0441  1.9894
 4036SOL    HW223568   2.198   3.867  11.034 -0.3818  0.1710 -0.0542
 4037SOL     OW23569   1.859   0.197   1.398  0.2517 -0.3247 -0.1883
 4037SOL    HW123570   1.784   0.138   1.399 -0.4365  0.5527 -0.1522
 4037SOL    HW223571   1.909   0.172   1.321  0.1450 -1.3112  0.0690
 4038SOL     OW23572   2.127   4.460   9.299  0.4095 -0.0588 -0.5750
 4038SOL    HW123573   2.036   4.475   9.275 -0.3479 -1.3506  1.5081
 4038SOL    HW223574   2.115   4.483   9.391  2.4130 -0.1772 -0.2832
 4039SOL     OW23575   4.566   3.036  15.142 -0.0049  0.7429 -0.0199
 4039SOL    HW123576   4.649   3.045  15.189  0.4632 -0.7618 -0.5490
 4039SOL    HW223577   4.509   3.042  15.218 -1.3405 -0.3694 -0.9197
 4040SOL     OW23578   4.190   4.645  15.870  0.1570 -0.7425  0.0644
 4040SOL    HW123579   4.159   4.629  15.959 -1.6840  0.7259 -0.3099
 4040SOL    HW223580   4.286   4.648  15.880  0.6114 -0.6049 -4.4152
 4041SOL     OW23581   4.250   3.495  17.278 -0.3144 -0.1903  0.1977
 4041SOL    HW123582   4.307   3.432  17.322  1.3071 -0.0983 -1.7437
 4041SOL    HW223583   4.169   3.479  17.326 -1.6882  1.3105 -1.6120
 4042SOL     OW23584   2.960   4.616   3.829 -0.0407  0.0332  0.2103
 4042SOL    HW123585   2.918   4.699   3.807  0.0511  0.0608  0.1399
 4042SOL    HW223586   2.991   4.583   3.745  2.0783  3.8952 -0.5080
 4043SOL     OW23587   3.778   1.044   7.658 -0.5573  0.2042 -0.7431
 4043SOL    HW123588   3.833   1.091   7.595  0.9162 -1.5419 -0.7157
 4043SOL    HW223589   3.735   0.987   7.595 -1.1523 -0.0105 -0.1529
 4044SOL     OW23590   4.585   3.133   3.826 -0.1758  0.1701  0.2463
 4044SOL    HW123591   4.596   3.148   3.732  0.7058  0.8654  0.4584
 4044SOL    HW223592   4.538   3.050   3.818  1.4855 -0.4593 -2.8873
 4045SOL     OW23593   1.094   0.015   5.182 -0.5059 -0.0504  0.2905
 4045SOL    HW123594   1.167   0.045   5.237 -0.5333 -0.0674  0.3359
 4045SOL    HW223595   1.134   0.034   5.097  0.8725  0.1496  0.9806
 4046SOL     OW23596   0.480   0.507   3.268  0.5019 -0.5061 -0.3947
 4046SOL    HW123597   0.519   0.425   3.239 -1.8649 -1.8137  0.1037
 4046SOL    HW223598   0.451   0.542   3.184  3.9090 -0.2015 -1.4410
 4047SOL     OW23599   1.173   4.427   6.962  0.4310 -0.2781 -0.1116
 4047SOL    HW123600   1.227   4.465   7.031 -0.4773  1.3452 -0.2948
 4047SOL    HW223601   1.095   4.402   7.012  0.4068  0.7744  0.3612
 4048SOL     OW23602   2.284   3.446  11.937  0.0887  0.0978 -0.0975
 4048SOL    HW123603   2.329   3.368  11.969 -2.7063 -1.4692 -0.0123
 4048SOL    HW223604   2.282   3.489  12.022 -0.4877  0.6983 -0.4137
 4049SOL     OW23605   1.166   3.957   3.655  0.1716  0.0713  0.3970
 4049SOL    HW123606   1.246   3.907   3.671 -1.4882 -2.9695 -0.7588
 4049SOL    HW223607   1.099   3.889   3.648  0.0614  0.2475 -0.2704
 4050SOL     OW23608   3.339   2.087   7.396 -0.0801  0.0818  0.1279
 4050SOL    HW123609   3.433   2.069   7.400  0.1535  1.5248  1.5391
 4050SOL    HW223610   3.319   2.032   7.472 -1.0704  0.6942  0.3060
 4051SOL     OW23611   2.853   1.930   9.609 -0.2384  0.1891  0.3194
 4051SOL    HW123612   2.945   1.956   9.610 -1.3818  4.1156  0.3082
 4051SOL    HW223613   2.807   2.009   9.635 -0.4248  0.4150 -0.7243
 4052SOL     OW23614   4.085   2.854   5.739 -0.5582  0.2554 -0.6247
 4052SOL    HW123615   4.122   2.766   5.749  0.8854  0.5300 -3.6027
 4052SOL    HW223616   4.013   2.835   5.678 -1.9428 -1.2622  1.4424
 4053SOL     OW23617   3.870   3.563   7.684  0.2113  0.4574 -0.2931
 4053SOL    HW123618   3.954   3.541   7.724 -0.7796 -1.6577  0.6263
 4053SOL    HW223619   3.856   3.477   7.646 -1.9442  0.4701  0.4997
 4054SOL     OW23620   0.462   2.329   7.888  0.2889  0.4859  0.0335
 4054SOL    HW123621   0.543   2.280   7.899 -0.1320 -0.2880 -0.3327
 4054SOL    HW223622   0.477   2.366   7.801  1.5220 -0.6668 -0.2411
 4055SOL     OW23623   2.394   0.674   5.009 -0.3697  0.3499  0.0629
 4055SOL    HW123624   2.351   0.760   5.016 -0.2685  0.3552  0.6344
 4055SOL    HW223625   2.459   0.686   5.078 -1.4141 -1.0582  1.2898
 4056SOL     OW23626   1.675   2.591   5.828 -0.1563 -0.0888 -0.4693
 4056SOL    HW123627   1.681   2.685   5.814  0.2837  0.1418  1.2689
 4056SOL    HW223628   1.620   2.563   5.754  0.4744  0.5517 -1.1798
 4057SOL     OW23629   3.464   0.592  15.888 -0.1554 -0.0698 -0.2114
 4057SOL    HW123630   3.387   0.590  15.945  0.9854  1.4886  1.3656
 4057SOL    HW223631   3.463   0.523  15.822 -0.5019  0.7878 -1.1117
 4058SOL     OW23632   3.170   1.773   7.528  0.2007  0.4723 -0.0123
 4058SOL    HW123633   3.261   1.791   7.551  0.3972 -0.8521  0.2196
 4058SOL    HW223634   3.152   1.697   7.583  1.1436 -0.9087 -1.6348
 4059SOL     OW23635   1.795   2.644  16.303 -0.0040  0.0616  0.3521
 4059SOL    HW123636   1.802   2.572  16.366  2.7374 -1.7139 -1.9631
 4059SOL    HW223637   1.700   2.655  16.308  0.2127  2.5214 -0.7418
 4060SOL     OW23638   2.063   0.606   5.364 -0.3224 -0.6457 -0.0943
 4060SOL    HW123639   1.974   0.598   5.400 -0.4233 -1.4716 -0.5440
 4060SOL    HW223640   2.038   0.672   5.299  3.0578  0.8903  0.1756
 4061SOL     OW23641   2.385   0.119  12.666 -0.6433 -0.9806  0.3215
 4061SOL    HW123642   2.310   0.130  12.723 -2.1337  1.3881 -2.0815
 4061SOL    HW223643   2.372   0.195  12.609 -0.6464  0.2792  1.9993
 4062SOL     OW23644   0.572   0.065  11.609 -0.2706  0.1431 -0.4353
 4062SOL    HW123645   0.587   4.698  11.627 -1.6712 -0.1063 -0.5771
 4062SOL    HW223646   0.650   0.091  11.558 -0.4494  1.4721 -0.0081
 4063SOL     OW23647   2.485   2.231   5.905 -0.1238 -0.0624  0.8879
 4063SOL    HW123648   2.397   2.233   5.866 -0.1637 -3.3692  0.7639
 4063SOL    HW223649   2.454   2.257   5.992  1.2160  0.4068  1.2179
 4064SOL     OW23650   0.880   1.318  12.935  0.1030 -0.6164 -0.2056
 4064SOL    HW123651   0.916   1.325  13.023  0.0815 -1.3316 -0.1429
 4064SOL    HW223652   0.930   1.242  12.904  1.4596  0.1170  0.2088
 4065SOL     OW23653   0.014   4.227   2.436  0.3824 -0.2445 -0.2335
 4065SOL    HW123654   0.107   4.219   2.459  1.0458 -0.9040 -3.1278
 4065SOL    HW223655   0.012   4.320   2.414 -1.4384  0.2974  2.1964
 4066SOL     OW23656   2.270   1.350  11.575 -0.2268 -0.1812 -0.3971
 4066SOL    HW123657   2.328   1.420  11.544  0.4733  0.1475  1.6473
 4066SOL    HW223658   2.216   1.387  11.644  3.0277  0.0031  2.0447
 4067SOL     OW23659   1.097   1.048  13.842 -0.1300 -0.5510  0.0502
 4067SOL    HW123660   1.016   1.014  13.802 -0.3212 -0.6859  0.5481
 4067SOL    HW223661   1.075   1.072  13.931 -1.2568  1.8819 -0.8871
 4068SOL     OW23662   3.555   3.304   1.753 -0.1433 -0.7146 -0.1074
 4068SOL    HW123663   3.579   3.314   1.846 -1.2389 -0.1569  0.1079
 4068SOL    HW223664   3.639   3.315   1.708 -0.1623  0.7016  0.1772
 4069SOL     OW23665   0.075   2.087   7.202 -0.0221 -0.1672 -0.2146
 4069SOL    HW123666   0.126   2.159   7.165 -1.6282  1.0330 -0.1084
 4069SOL    HW223667   0.002   2.099   7.142  0.8732  0.0022 -1.2676
 4070SOL     OW23668   0.718   0.437   7.928  0.7201  0.1945  0.1450
 4070SOL    HW123669   0.787   0.495   7.897  0.4918 -0.1719 -1.0424
 4070SOL    HW223670   0.742   0.440   8.021  0.8712  0.9024  0.0824
 4071SOL     OW23671   1.421   1.612  12.093 -0.2215 -0.0109 -0.2756
 4071SOL    HW123672   1.438   1.702  12.121  0.4558 -0.4365  0.6988
 4071SOL    HW223673   1.383   1.571  12.171  1.5658 -1.5799 -0.2401
 4072SOL     OW23674   2.404   4.218   5.723 -0.2015 -0.7547 -0.2383
 4072SOL    HW123675   2.397   4.129   5.759 -0.4327 -2.2364 -3.9805
 4072SOL    HW223676   2.483   4.242   5.772 -0.6273 -0.8520  0.5003
 4073SOL     OW23677   0.437   1.083   2.597  0.5490 -0.1093  0.1676
 4073SOL    HW123678   0.398   1.168   2.577  0.7464  0.0342  0.3873
 4073SOL    HW223679   0.467   1.057   2.510  2.9501  1.1845  0.5977
 4074SOL     OW23680   1.993   1.964   6.339 -0.2038 -0.1946 -0.1282
 4074SOL    HW123681   2.054   1.891   6.350 -1.8072 -1.0739  3.0535
 4074SOL    HW223682   2.050   2.026   6.293 -0.4078 -2.0502 -2.9080
 4075SOL     OW23683   2.516   1.738  16.658  0.0027 -0.8184  0.2165
 4075SOL    HW123684   2.434   1.691  16.641 -0.1074 -1.1797  1.7695
 4075SOL    HW223685   2.529   1.789  16.578 -0.9522  0.2521  0.7606
 4076SOL     OW23686   1.828   3.986   9.070  0.0028  0.4642 -0.0621
 4076SOL    HW123687   1.834   4.078   9.047 -0.8122  0.0829 -1.7537
 4076SOL    HW223688   1.770   3.986   9.146  0.3762  1.2273  0.2229
 4077SOL     OW23689   2.518   1.581   2.863  0.2896  1.1872  0.1183
 4077SOL    HW123690   2.519   1.567   2.768  1.1208 -0.6081  0.3841
 4077SOL    HW223691   2.597   1.535   2.892 -0.2923  0.4981  0.6015
 4078SOL     OW23692   1.268   2.874   7.360  0.3270  0.1921  0.4345
 4078SOL    HW123693   1.193   2.932   7.375 -0.3836 -1.3052  2.7288
 4078SOL    HW223694   1.222   2.791   7.345 -1.4442  1.2134  0.1375
 4079SOL     OW23695   0.747   2.369   1.609 -0.2649 -0.6065  0.3221
 4079SOL    HW123696   0.738   2.464   1.619 -1.0824 -0.6505 -0.0052
 4079SOL    HW223697   0.838   2.361   1.581 -0.1343 -0.4842  0.7203
 4080SOL     OW23698   4.507   3.599   5.749 -0.2148 -0.7595 -0.0624
 4080SOL    HW123699   4.496   3.549   5.830  1.6553 -0.9637  0.0548
 4080SOL    HW223700   4.465   3.536   5.690  1.4092 -1.9350  0.0515
 4081SOL     OW23701   0.109   1.402   3.032  0.1874  0.8429 -0.1125
 4081SOL    HW123702   0.194   1.359   3.023  0.0977  0.3150  1.5586
 4081SOL    HW223703   0.139   1.484   3.070 -2.3564  2.1601 -0.9218
 4082SOL     OW23704   4.040   1.735  10.751 -0.0769 -0.0535 -0.2359
 4082SOL    HW123705   4.106   1.686  10.702 -0.0783 -1.0656  0.7890
 4082SOL    HW223706   3.970   1.725  10.686 -1.5385  0.8162  1.2045
 4083SOL     OW23707   0.681   2.877   9.387  0.1235  0.4529 -0.1528
 4083SOL    HW123708   0.640   2.811   9.442  1.3598 -0.9095 -0.8579
 4083SOL    HW223709   0.620   2.876   9.313 -0.6175  0.2807  0.4701
 4084SOL     OW23710   3.093   0.864  13.443  0.1606 -0.1555 -0.2507
 4084SOL    HW123711   3.001   0.852  13.466  0.8080  0.4832  2.8042
 4084SOL    HW223712   3.120   0.779  13.477  0.1264  0.3204  0.9816
 4085SOL     OW23713   0.664   2.211   9.330 -0.4619 -0.5183  0.4310
 4085SOL    HW123714   0.666   2.289   9.385 -0.1387 -2.0999  2.6498
 4085SOL    HW223715   0.742   2.169   9.367 -0.2928 -0.7415 -0.1791
 4086SOL     OW23716   4.162   0.584   5.109  0.2760  0.0960  0.3369
 4086SOL    HW123717   4.225   0.655   5.123 -2.0598  1.9331  1.5808
 4086SOL    HW223718   4.149   0.589   5.014 -2.4033  1.2176  0.7696
 4087SOL     OW23719   2.310   4.679  10.477  0.0382  0.6224  0.0241
 4087SOL    HW123720   2.289   0.045  10.492  2.2444  0.6947  2.6906
 4087SOL    HW223721   2.394   4.676  10.522  0.3631  0.3295 -0.6081
 4088SOL     OW23722   3.727   4.675   2.951  0.1070  0.2009 -0.2406
 4088SOL    HW123723   3.718   4.609   2.882 -0.7590  0.7384 -0.6529
 4088SOL    HW223724   3.819   4.696   2.936 -0.2268  0.9342 -1.2504
 4089SOL     OW23725   2.618   4.553   2.389 -0.8709 -0.5660  0.6453
 4089SOL    HW123726   2.707   4.519   2.394 -0.1863  1.4033  2.2449
 4089SOL    HW223727   2.607   4.575   2.482 -0.5560  0.9166  0.3341
 4090SOL     OW23728   2.332   3.836   3.514  0.1343 -0.1111 -0.1137
 4090SOL    HW123729   2.417   3.864   3.547 -0.4637 -0.3361  1.6070
 4090SOL    HW223730   2.290   3.921   3.529  1.0905  0.5369 -1.1140
 4091SOL     OW23731   1.541   3.807   4.417 -0.2275 -0.8140  0.5613
 4091SOL    HW123732   1.595   3.779   4.343 -0.8016  1.0306 -0.5687
 4091SOL    HW223733   1.455   3.826   4.380  1.4328  1.7685 -1.9463
 4092SOL     OW23734   3.612   0.779  10.039  0.5101  0.4797 -0.4302
 4092SOL    HW123735   3.531   0.797   9.990 -0.7491  0.5484  1.6522
 4092SOL    HW223736   3.655   0.716   9.981  2.4363  1.0747  0.3840
 4093SOL     OW23737   2.468   1.786  11.491  0.0958 -0.5048 -0.1675
 4093SOL    HW123738   2.477   1.692  11.507 -2.8129 -0.7963 -0.2052
 4093SOL    HW223739   2.466   1.803  11.397  0.4774  1.9338  0.2745
 4094SOL     OW23740   3.160   3.688   7.504 -0.0604  0.0833  0.5736
 4094SOL    HW123741   3.206   3.766   7.472  1.1354  0.0234  2.1905
 4094SOL    HW223742   3.072   3.717   7.529 -1.3697 -2.3110 -1.2637
 4095SOL     OW23743   4.490   1.706   8.649  0.3747 -0.2170 -0.1648
 4095SOL    HW123744   4.408   1.704   8.699  0.5035 -2.1020 -0.0429
 4095SOL    HW223745   4.525   1.633   8.699 -0.1182 -1.8973 -2.2710
 4096SOL     OW23746   0.861   0.988   9.633  0.0730 -0.5037  0.0483
 4096SOL    HW123747   0.779   0.962   9.676  0.6214 -2.1164  0.1427
 4096SOL    HW223748   0.835   1.077   9.611  0.4156 -0.5241 -0.4437
 4097SOL     OW23749   3.363   4.165   3.062 -0.1490  0.1887  0.7206
 4097SOL    HW123750   3.358   4.072   3.081 -3.4683  0.3263  0.4922
 4097SOL    HW223751   3.348   4.176   2.968  3.6610 -2.1892 -0.1662
 4098SOL     OW23752   2.242   2.767  11.749 -0.2212  0.1124  0.4521
 4098SOL    HW123753   2.274   2.800  11.665  0.4255 -0.4957  0.4617
 4098SOL    HW223754   2.154   2.733  11.732  0.5755 -3.0637  2.6800
 4099SOL     OW23755   2.622   3.416   9.475 -0.7714  0.3293  0.2879
 4099SOL    HW123756   2.643   3.476   9.547  0.8633  2.0383 -1.6052
 4099SOL    HW223757   2.585   3.489   9.425 -1.4634 -1.0033 -1.1678
 4100SOL     OW23758   3.806   1.237   7.862  0.0846  0.0133 -0.0642
 4100SOL    HW123759   3.899   1.259   7.855 -0.7680  3.4435 -0.2833
 4100SOL    HW223760   3.795   1.179   7.786 -0.4005 -1.2165  0.9446
 4101SOL     OW23761   3.049   4.153  12.258 -0.2066  0.1473 -0.3799
 4101SOL    HW123762   3.025   4.152  12.351 -1.5840 -0.6985 -0.7515
 4101SOL    HW223763   3.120   4.088  12.257 -0.7282 -0.3907 -1.2875
 4102SOL     OW23764   3.301   0.179   6.573  0.5731 -0.5095 -0.2617
 4102SOL    HW123765   3.298   0.262   6.527 -0.1626 -0.7992 -0.7398
 4102SOL    HW223766   3.210   0.183   6.604  1.3719 -0.2206  2.0092
 4103SOL     OW23767   2.254   2.013  11.094 -0.6250 -0.2789  0.3907
 4103SOL    HW123768   2.289   2.023  11.183  0.3040 -1.3286  0.1387
 4103SOL    HW223769   2.337   2.025  11.049 -0.6672 -2.7912 -0.3556
 4104SOL     OW23770   3.185   1.707  16.136 -0.4694 -0.0994 -0.1891
 4104SOL    HW123771   3.131   1.708  16.057 -0.7804 -2.2550 -0.0123
 4104SOL    HW223772   3.214   1.619  16.111 -0.4209 -0.4382  1.0470
 4105SOL     OW23773   0.129   0.029   5.085  0.0394 -0.1039 -0.3464
 4105SOL    HW123774   0.164   0.062   5.168 -1.6631 -0.6392  0.5765
 4105SOL    HW223775   0.158   0.100   5.028  1.8337 -1.9535 -1.7412
 4106SOL     OW23776   2.758   1.806  11.437 -0.4602 -0.7318 -0.3013
 4106SOL    HW123777   2.821   1.787  11.368  0.0297  0.7459 -0.2660
 4106SOL    HW223778   2.678   1.761  11.410 -0.8831 -1.3445  1.9269
 4107SOL     OW23779   0.197   0.236  13.924  0.2988  0.0561 -0.3460
 4107SOL    HW123780   0.143   0.310  13.897 -0.4137  0.4272  2.1815
 4107SOL    HW223781   0.267   0.230  13.859  1.0281  0.1439  0.4328
 4108SOL     OW23782   2.588   3.718   3.150 -0.5629  0.0524  0.4412
 4108SOL    HW123783   2.624   3.784   3.209  1.9496  0.2662 -1.3709
 4108SOL    HW223784   2.653   3.723   3.080  0.0480  0.7257  1.0540
 4109SOL     OW23785   1.172   3.461   8.781  0.4611 -0.2735  0.1408
 4109SOL    HW123786   1.156   3.381   8.730  0.5013  1.0395 -1.9275
 4109SOL    HW223787   1.096   3.513   8.756 -0.5842 -0.8874  2.0238
 4110SOL     OW23788   2.715   3.423   5.099  0.4018  0.1024  0.1655
 4110SOL    HW123789   2.759   3.499   5.060 -0.4364  0.8570  0.6979
 4110SOL    HW223790   2.652   3.454   5.164 -0.1747 -0.7330  0.0036
 4111SOL     OW23791   4.335   4.318   4.497 -0.1054  0.0681  0.0764
 4111SOL    HW123792   4.316   4.380   4.566  2.0156  0.9776 -0.1456
 4111SOL    HW223793   4.427   4.336   4.476  0.4968 -0.1402  2.5815
 4112SOL     OW23794   4.581   1.753  11.168 -0.4802 -0.9338  0.1681
 4112SOL    HW123795   4.625   1.755  11.083 -0.4748 -0.1036  0.1988
 4112SOL    HW223796   4.622   1.677  11.210 -1.3944  0.0225  2.7666
 4113SOL     OW23797   0.403   0.288   3.779 -0.9403 -0.0746  0.0378
 4113SOL    HW123798   0.426   0.353   3.713 -0.6845  3.3983  3.5409
 4113SOL    HW223799   0.488   0.248   3.798 -1.1491 -0.2947  0.5292
 4114SOL     OW23800   1.517   2.675   2.049 -0.0577  0.0802  0.1684
 4114SOL    HW123801   1.469   2.733   1.990 -1.3117 -1.1247 -0.0036
 4114SOL    HW223802   1.598   2.658   2.001  0.0778  0.4372  0.2679
 4115SOL     OW23803   4.696   2.713  11.514 -0.3192  0.1904 -0.4618
 4115SOL    HW123804   4.629   2.774  11.544  0.2037 -0.0873  1.3053
 4115SOL    HW223805   4.714   2.752  11.429  2.9173  0.9363  0.5494
 4116SOL     OW23806   0.275   3.744   0.345 -0.4496 -0.2257  0.7376
 4116SOL    HW123807   0.336   3.812   0.371  0.6566 -1.6116  1.7491
 4116SOL    HW223808   0.340   3.680   0.316  1.1130  2.1861 -1.0300
 4117SOL     OW23809   2.397   0.111  13.046 -0.4371 -0.4191  0.2088
 4117SOL    HW123810   2.388   0.179  13.113 -0.0655 -0.2032  0.0340
 4117SOL    HW223811   2.339   0.143  12.977 -2.2143 -1.7377  1.0696
 4118SOL     OW23812   2.702   4.661   8.833  0.3615  0.1295 -0.1339
 4118SOL    HW123813   2.680   4.726   8.767 -0.6766 -1.2208 -1.1164
 4118SOL    HW223814   2.626   4.603   8.830  1.9639 -2.1345  2.3212
 4119SOL     OW23815   2.372   4.295   3.254 -0.5088 -0.0444 -0.2252
 4119SOL    HW123816   2.404   4.339   3.175  0.9461 -2.9495 -1.2684
 4119SOL    HW223817   2.452   4.246   3.273  1.2608  2.5474 -0.8810
 4120SOL     OW23818   1.572   4.226   5.388  0.1284 -0.4027  0.1176
 4120SOL    HW123819   1.627   4.202   5.462  0.2359  0.9365  0.4743
 4120SOL    HW223820   1.611   4.278   5.316  0.7627 -0.6390  0.2889
 4121SOL     OW23821   0.432   1.427   6.387  0.1654 -0.0290 -0.7022
 4121SOL    HW123822   0.512   1.477   6.402  0.7427 -0.7869 -1.2340
 4121SOL    HW223823   0.459   1.344   6.427 -1.9950 -0.5546 -0.3362
 4122SOL     OW23824   2.458   1.401  17.278  0.0348 -0.0097  0.3500
 4122SOL    HW123825   2.433   1.493  17.280 -1.0549 -0.3338  1.5740
 4122SOL    HW223826   2.401   1.361  17.344 -1.5149  0.3318 -0.8092
 4123SOL     OW23827   3.458   4.016   5.442 -0.1829 -0.1185 -0.1220
 4123SOL    HW123828   3.370   4.048   5.461  0.6537  0.7372  2.2799
 4123SOL    HW223829   3.496   4.078   5.380 -0.1541  0.1952  0.2117
 4124SOL     OW23830   0.400   0.446   3.535 -0.0293  0.3598  0.0554
 4124SOL    HW123831   0.452   0.438   3.455 -0.0140  1.9460 -0.0848
 4124SOL    HW223832   0.311   0.433   3.502  0.5891 -2.5736 -0.4668
 4125SOL     OW23833   0.721   3.578   5.601  0.9429  0.4192  0.2175
 4125SOL    HW123834   0.674   3.643   5.654 -0.0065 -1.2004  1.3727
 4125SOL    HW223835   0.767   3.639   5.543  0.1337  1.1532  0.3453
 4126SOL     OW23836   1.205   1.301   5.940  0.4123 -0.2339  0.4528
 4126SOL    HW123837   1.215   1.338   6.027  0.8426  1.8411 -0.4761
 4126SOL    HW223838   1.269   1.230   5.939  1.1551  0.3971  4.0240
 4127SOL     OW23839   0.438   0.670   7.408  0.6087  0.1434 -0.5135
 4127SOL    HW123840   0.411   0.580   7.426 -0.2029  0.0084 -2.3551
 4127SOL    HW223841   0.441   0.708   7.496  3.4389  0.0760 -0.6019
 4128SOL     OW23842   0.150   0.362   3.460 -0.6717 -0.5011  0.1839
 4128SOL    HW123843   0.172   0.295   3.395 -1.3832  0.4245 -1.0056
 4128SOL    HW223844   0.081   0.412   3.417 -0.7430  0.7852  1.8010
 4129SOL     OW23845   0.182   4.205   5.778  0.4441 -0.2705  0.1532
 4129SOL    HW123846   0.265   4.227   5.736 -1.3898  2.6541 -1.9165
 4129SOL    HW223847   0.127   4.261   5.723  3.3216  1.9569 -0.4764
 4130SOL     OW23848   1.057   1.910   7.572 -0.2450  0.0106 -0.2793
 4130SOL    HW123849   1.135   1.861   7.547  1.4921  1.8531  1.6040
 4130SOL    HW223850   1.098   1.983   7.619 -1.5909  1.0138 -0.6422
 4131SOL     OW23851   1.392   2.038   7.527  0.6912 -0.1228 -0.4120
 4131SOL    HW123852   1.327   2.094   7.569  1.6317  0.1916  0.6298
 4131SOL    HW223853   1.359   1.955   7.564 -0.0705  0.6834  0.7097
 4132SOL     OW23854   1.854   2.214   8.960  0.0186  0.0776 -0.2509
 4132SOL    HW123855   1.897   2.298   8.973  0.3272 -0.0484 -0.4625
 4132SOL    HW223856   1.918   2.151   8.994  0.9253  2.5021  2.5366
 4133SOL     OW23857   1.811   4.597   7.678  0.2322  0.2654  0.3633
 4133SOL    HW123858   1.813   4.674   7.621 -0.7900 -1.5763 -2.2165
 4133SOL    HW223859   1.725   4.609   7.718 -0.0448 -1.1332  0.2128
 4134SOL     OW23860   0.833   1.841   7.867  0.3630 -0.3794  0.0226
 4134SOL    HW123861   0.740   1.837   7.889  0.3134 -0.9406 -0.3164
 4134SOL    HW223862   0.864   1.862   7.955  1.2239 -1.2107 -0.0952
 4135SOL     OW23863   3.353   3.936   8.928  0.5945 -0.1912 -0.6167
 4135SOL    HW123864   3.387   3.855   8.967  1.3799  0.3064 -0.2754
 4135SOL    HW223865   3.426   3.994   8.946  0.1177  0.9562 -2.3588
 4136SOL     OW23866   3.801   3.292   1.622 -0.1970  0.2596  0.3294
 4136SOL    HW123867   3.757   3.278   1.538  0.5964 -3.4450  0.5287
 4136SOL    HW223868   3.871   3.227   1.616  0.0006  0.4884  0.1598
 4137SOL     OW23869   2.384   0.006   5.520  0.1437  0.3196 -0.2711
 4137SOL    HW123870   2.327   0.081   5.505  0.8628  1.0222  0.4939
 4137SOL    HW223871   2.470   0.048   5.528  0.8309 -0.3527 -4.2423
 4138SOL     OW23872   2.827   1.822   2.568 -0.1656  0.1255  0.3425
 4138SOL    HW123873   2.881   1.877   2.511 -0.2188 -1.8852 -1.6658
 4138SOL    HW223874   2.738   1.831   2.535 -0.0215 -1.1265 -0.3986
 4139SOL     OW23875   2.426   3.841   4.250  0.1389  0.4714  0.1212
 4139SOL    HW123876   2.410   3.763   4.303 -0.4131  1.4159  1.3242
 4139SOL    HW223877   2.443   3.802   4.164 -2.0635  0.1412 -0.1767
 4140SOL     OW23878   4.532   3.828   2.747  0.3585  0.1244 -0.0246
 4140SOL    HW123879   4.509   3.858   2.835  0.2600  0.8635 -0.3055
 4140SOL    HW223880   4.491   3.742   2.732 -1.1980  1.1430 -1.5339
 4141SOL     OW23881   1.359   4.497   5.907  0.2675  0.0214  0.5444
 4141SOL    HW123882   1.429   4.447   5.948 -0.3500 -0.4893  0.9706
 4141SOL    HW223883   1.376   4.512   5.814 -0.5454  1.6934  0.6518
 4142SOL     OW23884   3.369   0.186  13.226 -0.5045 -0.1865 -0.3995
 4142SOL    HW123885   3.291   0.210  13.175 -2.6033  0.8125  3.2364
 4142SOL    HW223886   3.320   0.132  13.287  0.2227 -1.4428 -0.9374
 4143SOL     OW23887   1.941   0.162   6.240 -0.5448 -0.0787 -0.1704
 4143SOL    HW123888   1.949   0.106   6.318 -2.5254 -1.0844 -0.7055
 4143SOL    HW223889   1.936   0.088   6.180  0.9771  0.1232 -0.5558
 4144SOL     OW23890   1.319   4.257   0.932 -0.3128 -0.0981  0.8011
 4144SOL    HW123891   1.414   4.250   0.935 -0.1648  1.5541  0.1504
 4144SOL    HW223892   1.305   4.311   0.853  0.3462 -1.5488 -0.3096
 4145SOL     OW23893   2.855   2.980   8.362 -0.1920  0.1011  0.3357
 4145SOL    HW123894   2.784   3.041   8.378  0.2549  0.6033  0.4124
 4145SOL    HW223895   2.911   3.035   8.307 -0.6452  0.8082  0.5809
 4146SOL     OW23896   2.336   0.401   8.798 -1.0814  0.2850 -0.3543
 4146SOL    HW123897   2.393   0.458   8.848 -1.2258  1.8574 -1.9902
 4146SOL    HW223898   2.386   0.389   8.717 -1.3506  3.1883 -0.9377
 4147SOL     OW23899   2.496   2.203   5.651  0.8865  0.2197  0.3328
 4147SOL    HW123900   2.526   2.232   5.738 -0.3462  2.1210  0.1258
 4147SOL    HW223901   2.530   2.114   5.653 -0.9098 -0.4580  0.0653
 4148SOL     OW23902   0.861   1.002  13.264  0.2244  0.5832 -0.5204
 4148SOL    HW123903   0.863   1.024  13.171  1.4657 -1.4408 -0.9505
 4148SOL    HW223904   0.851   0.907  13.269  1.8407  0.4638  0.5049
 4149SOL     OW23905   4.552   0.701  10.498  0.1433  0.1021 -0.0083
 4149SOL    HW123906   4.627   0.660  10.542 -0.1151  0.8842  1.1875
 4149SOL    HW223907   4.526   0.762  10.567  1.6059 -1.2077  1.7043
 4150SOL     OW23908   1.731   0.424   3.291 -0.3187 -0.6987  0.3833
 4150SOL    HW123909   1.728   0.342   3.340  1.8898 -1.1955 -0.3153
 4150SOL    HW223910   1.657   0.428   3.231 -1.8961  0.8203  2.3903
 4151SOL     OW23911   4.446   1.361  16.010  0.5282 -0.2017 -0.2080
 4151SOL    HW123912   4.490   1.399  15.934  1.6300 -0.1336  0.4646
 4151SOL    HW223913   4.519   1.311  16.048  2.2515  2.5365  0.0783
 4152SOL     OW23914   0.525   2.065   2.602 -1.1229 -0.0940  0.2452
 4152SOL    HW123915   0.555   2.142   2.554  0.3844 -0.3334  0.7909
 4152SOL    HW223916   0.459   2.019   2.549 -0.4356 -0.5708 -0.2074
 4153SOL     OW23917   2.411   3.882   1.749  0.4649  0.6093  0.8544
 4153SOL    HW123918   2.418   3.977   1.737 -0.1626  0.4302 -0.9102
 4153SOL    HW223919   2.502   3.862   1.771  0.2564 -0.0994  1.0538
 4154SOL     OW23920   4.208   1.059   3.565 -0.2443 -0.2866 -0.0998
 4154SOL    HW123921   4.183   1.149   3.586  0.8280 -0.3208  1.3047
 4154SOL    HW223922   4.131   1.005   3.588 -0.2180 -0.2349  0.1142
 4155SOL     OW23923   1.000   0.263   7.230  0.0561  0.0747  0.7969
 4155SOL    HW123924   1.032   0.276   7.319  1.3970  0.3050  0.2832
 4155SOL    HW223925   1.029   0.347   7.196 -0.1463 -0.3591 -0.4476
 4156SOL     OW23926   4.246   1.762   5.603 -0.9857 -0.0639 -0.6997
 4156SOL    HW123927   4.184   1.690   5.608  0.0044 -0.6395  3.7501
 4156SOL    HW223928   4.265   1.776   5.696 -0.8171 -0.3607 -0.6901
 4157SOL     OW23929   0.834   4.037   6.987  0.1214  0.2251 -0.3946
 4157SOL    HW123930   0.853   3.974   6.917 -0.8226  1.3951 -1.7028
 4157SOL    HW223931   0.816   3.981   7.063 -0.3538 -0.8396 -1.2927
 4158SOL     OW23932   1.201   4.655   9.162  0.4219 -0.5934  0.4052
 4158SOL    HW123933   1.181   4.710   9.238  2.0099 -0.1776  0.5290
 4158SOL    HW223934   1.111   4.631   9.140  0.5620 -1.5124  0.8436
 4159SOL     OW23935   2.781   4.203   7.839 -0.0631  0.1987  0.0495
 4159SOL    HW123936   2.819   4.280   7.881  1.1093  0.1848 -0.9838
 4159SOL    HW223937   2.843   4.175   7.771 -1.9700  1.8703 -2.4125
 4160SOL     OW23938   0.529   1.206   7.166 -0.0206  0.2064  0.0160
 4160SOL    HW123939   0.519   1.270   7.096  2.1300  0.5580  0.0580
 4160SOL    HW223940   0.446   1.217   7.214  0.2420 -0.4675  0.6299
 4161SOL     OW23941   4.564   1.386  15.765 -0.2103 -0.3953  0.1659
 4161SOL    HW123942   4.650   1.417  15.736 -1.6040 -0.3962 -3.8724
 4161SOL    HW223943   4.577   1.292  15.755  0.9519 -0.4127  1.9047
 4162SOL     OW23944   1.609   1.660   1.598 -0.5037  0.3705 -0.1097
 4162SOL    HW123945   1.532   1.644   1.543 -0.0287  1.5211 -1.1309
 4162SOL    HW223946   1.663   1.708   1.534  0.4985 -1.4796 -0.6417
 4163SOL     OW23947   0.690   3.844   1.868  0.4364 -0.1382 -0.6071
 4163SOL    HW123948   0.604   3.878   1.893  0.3413 -0.4999 -0.4529
 4163SOL    HW223949   0.667   3.778   1.802  0.4513 -1.5355  0.7908
 4164SOL     OW23950   2.847   4.370   3.579 -0.0401  0.0872  0.1158
 4164SOL    HW123951   2.877   4.279   3.580  0.2220  0.1820  0.7669
 4164SOL    HW223952   2.783   4.357   3.649  0.3733 -0.7545  0.3425
 4165SOL     OW23953   4.306   0.637   7.984  0.4589  0.1800 -0.5474
 4165SOL    HW123954   4.311   0.626   7.889  1.3287  1.2677 -0.6261
 4165SOL    HW223955   4.236   0.575   8.005 -0.2591  1.3224  0.4053
 4166SOL     OW23956   1.944   3.901   9.954 -0.5598  0.1400 -0.4422
 4166SOL    HW123957   1.992   3.833  10.000  1.3318  1.6204 -0.2269
 4166SOL    HW223958   1.885   3.846   9.903 -1.4128  0.1080  0.5967
 4167SOL     OW23959   1.144   1.519   7.254 -0.1573 -0.1146  0.1293
 4167SOL    HW123960   1.066   1.569   7.275 -0.7262 -0.3069 -1.4941
 4167SOL    HW223961   1.125   1.510   7.160 -1.1269  1.2191  0.2082
 4168SOL     OW23962   3.632   0.801  12.999  0.3006  0.5708 -0.0432
 4168SOL    HW123963   3.640   0.712  12.964  0.9639  0.8163 -0.4978
 4168SOL    HW223964   3.721   0.830  12.980  0.4445 -0.5230 -1.0824
 4169SOL     OW23965   0.456   2.951   2.026  0.7214  0.3354  0.2377
 4169SOL    HW123966   0.381   2.902   2.059 -1.9887  4.3978  0.2394
 4169SOL    HW223967   0.478   2.895   1.952 -1.1201  0.7022 -0.6060
 4170SOL     OW23968   1.154   0.572   5.962  0.6752  0.3608 -0.3860
 4170SOL    HW123969   1.166   0.477   5.966 -2.4123 -0.0814 -1.5733
 4170SOL    HW223970   1.062   0.584   5.937  0.0581  1.7886  2.5501
 4171SOL     OW23971   4.502   4.555   2.694  0.5919  0.7249 -0.2506
 4171SOL    HW123972   4.562   4.485   2.722 -1.0015  0.0281  1.4459
 4171SOL    HW223973   4.448   4.499   2.638  1.6447 -0.8702  0.3156
 4172SOL     OW23974   3.266   0.230   7.477 -0.1006 -0.7126 -0.8974
 4172SOL    HW123975   3.352   0.232   7.434  0.4532 -0.1683  0.2264
 4172SOL    HW223976   3.220   0.303   7.437  0.0230 -0.9815 -1.5301
 4173SOL     OW23977   0.939   0.548   4.147 -0.2406 -0.4887 -0.3648
 4173SOL    HW123978   0.940   0.489   4.223 -0.5877  0.1960  0.1709
 4173SOL    HW223979   1.034   0.558   4.153 -0.4226  0.2977  1.1760
 4174SOL     OW23980   3.303   1.661   4.453 -0.2546 -0.2687  0.4395
 4174SOL    HW123981   3.305   1.590   4.517  2.3973  0.3070  0.9801
 4174SOL    HW223982   3.227   1.638   4.399 -0.6140  0.6573  0.5535
 4175SOL     OW23983   1.495   4.052  10.148 -0.2081 -0.2168  0.0939
 4175SOL    HW123984   1.515   4.142  10.123 -0.1340 -0.2046  0.1927
 4175SOL    HW223985   1.584   4.020  10.137 -0.1221  0.2600 -0.5903
 4176SOL     OW23986   2.345   2.592   7.440  0.0374 -0.1577 -0.1605
 4176SOL    HW123987   2.286   2.659   7.405 -1.4355 -2.8884 -2.9051
 4176SOL    HW223988   2.341   2.529   7.369  0.0632  2.5123 -2.5496
 4177SOL     OW23989   1.222   0.139   2.055 -0.6153 -0.2009  0.3146
 4177SOL    HW123990   1.150   0.193   2.023 -1.1982 -1.3669 -0.3437
 4177SOL    HW223991   1.284   0.210   2.071 -0.7254 -0.4255  1.6754
 4178SOL     OW23992   0.881   4.389  14.948  0.9091 -0.1827  0.4122
 4178SOL    HW123993   0.847   4.304  14.920 -0.9679  0.6957  0.0381
 4178SOL    HW223994   0.852   4.451  14.882  0.1411 -1.4731 -0.4738
 4179SOL     OW23995   4.613   0.397   2.731 -0.3080 -0.2545  0.4385
 4179SOL    HW123996   4.549   0.462   2.759  0.6356 -0.0146  2.0711
 4179SOL    HW223997   4.558   0.329   2.692  0.7168 -0.2187 -1.0706
 4180SOL     OW23998   1.902   0.738   6.952  0.2759 -0.0027 -0.2523
 4180SOL    HW123999   1.878   0.826   6.924  0.1829  0.2160  0.5097
 4180SOL    HW224000   1.941   0.758   7.037 -0.7563  0.8599  0.0151
 4181SOL     OW24001   3.348   0.061  11.759  0.4235  0.1172 -0.0030
 4181SOL    HW124002   3.416   0.128  11.750  0.6496 -0.1276 -0.1087
 4181SOL    HW224003   3.394   4.711  11.795  0.6096 -0.1260 -0.7498
 4182SOL     OW24004   0.784   3.320   2.929 -0.6497  0.2083 -0.9624
 4182SOL    HW124005   0.866   3.318   2.980  0.3246  0.6033 -2.5082
 4182SOL    HW224006   0.738   3.392   2.972  1.7120  0.5777  0.9462
 4183SOL     OW24007   4.207   4.241   7.366  0.0190  0.0046  0.3149
 4183SOL    HW124008   4.246   4.271   7.448 -0.0653  2.9782 -0.7253
 4183SOL    HW224009   4.155   4.165   7.393  1.5752 -0.6417  1.4499
 4184SOL     OW24010   0.034   0.436   5.300 -0.6403  0.3948  0.3051
 4184SOL    HW124011   0.024   0.341   5.305 -1.0399  0.4073 -0.3299
 4184SOL    HW224012   4.705   0.461   5.227  1.0350 -0.7928 -1.3461
 4185SOL     OW24013   2.780   0.868   5.808  0.1170  0.0351 -0.4875
 4185SOL    HW124014   2.704   0.811   5.800  0.4012 -0.5641  0.9376
 4185SOL    HW224015   2.849   0.804   5.824 -0.1423  0.3116  1.7830
 4186SOL     OW24016   4.018   1.390   7.614 -0.0463  0.1767 -0.2048
 4186SOL    HW124017   4.018   1.384   7.710  3.3603  0.8866 -0.1413
 4186SOL    HW224018   4.080   1.321   7.591  0.2438  0.9320 -1.6462
 4187SOL     OW24019   0.507   3.815   2.186 -0.1088  0.1511  0.1262
 4187SOL    HW124020   0.503   3.896   2.237 -2.2550  0.5344 -0.6522
 4187SOL    HW224021   0.512   3.856   2.100  2.3404  0.5712  0.4703
 4188SOL     OW24022   3.669   4.602   8.635  0.0206  0.3095  0.0937
 4188SOL    HW124023   3.633   4.684   8.669 -0.7032 -0.2402  0.6601
 4188SOL    HW224024   3.584   4.563   8.612 -0.1180  0.3266  0.5768
 4189SOL     OW24025   0.692   2.551   2.572 -0.0753 -0.1289  0.1352
 4189SOL    HW124026   0.785   2.541   2.551 -0.5952 -1.6744 -1.3893
 4189SOL    HW224027   0.680   2.640   2.540 -1.7033 -0.7345 -0.8869
 4190SOL     OW24028   1.401   4.235   7.621  0.1705 -0.0136 -0.2411
 4190SOL    HW124029   1.489   4.270   7.611  0.6260 -1.2408 -0.6059
 4190SOL    HW224030   1.425   4.149   7.657 -1.9014 -1.1065 -1.4140
 4191SOL     OW24031   4.288   1.547   7.562  1.2693 -0.1245 -0.5793
 4191SOL    HW124032   4.220   1.493   7.602  0.7338 -0.1480 -1.5253
 4191SOL    HW224033   4.294   1.620   7.624 -1.0270  0.3748 -0.9338
 4192SOL     OW24034   2.170   2.979  17.507 -0.1594 -0.3751  0.0128
 4192SOL    HW124035   2.242   2.918  17.523 -0.4645 -1.0307 -1.1676
 4192SOL    HW224036   2.182   3.008  17.417  2.5612 -0.7545  0.2390
 4193SOL     OW24037   2.599   3.734   9.066  0.3074 -0.2545 -0.3068
 4193SOL    HW124038   2.684   3.734   9.023 -0.0084 -1.9529 -0.9057
 4193SOL    HW224039   2.601   3.655   9.120 -1.0401  1.0728  1.6817
 4194SOL     OW24040   4.062   2.415   4.734  0.5186  0.2336  0.1715
 4194SOL    HW124041   4.042   2.325   4.708 -2.4501  1.5785 -2.1747
 4194SOL    HW224042   4.030   2.421   4.824  0.0527  0.8872 -0.0378
 4195SOL     OW24043   0.021   1.665  12.939  0.1963  0.4540  0.3315
 4195SOL    HW124044   0.102   1.699  12.901 -0.0718 -1.4162 -1.9275
 4195SOL    HW224045   4.696   1.745  12.938  0.7375  0.7961  0.2667
 4196SOL     OW24046   0.133   3.459  11.732  0.7141  0.4595 -0.3414
 4196SOL    HW124047   0.176   3.542  11.713 -0.5619  0.3760 -3.7380
 4196SOL    HW224048   0.066   3.481  11.796  1.3698  1.9888 -0.1825
 4197SOL     OW24049   3.620   3.091   2.314 -0.5418 -0.9008 -0.3668
 4197SOL    HW124050   3.532   3.057   2.298 -0.8854 -0.3540  0.3836
 4197SOL    HW224051   3.634   3.060   2.403  0.8748 -0.5502 -0.4712
 4198SOL     OW24052   3.236   0.683   3.044  0.2174  0.6576  0.1484
 4198SOL    HW124053   3.142   0.697   3.032  0.2693  0.9647  0.0857
 4198SOL    HW224054   3.251   0.605   2.991 -1.9726  0.0667  0.4428
 4199SOL     OW24055   2.481   1.782   7.086 -0.3738 -0.5190  0.4270
 4199SOL    HW124056   2.532   1.711   7.047 -0.9408 -0.0966 -1.0709
 4199SOL    HW224057   2.417   1.792   7.016  0.7765 -0.4160 -0.5944
 4200SOL     OW24058   3.905   0.072   3.650  0.1375 -0.7528 -0.4701
 4200SOL    HW124059   3.940   0.160   3.659  0.7043 -1.1882  1.5729
 4200SOL    HW224060   3.829   0.082   3.707 -0.3586  0.2331 -1.3110
 4201SOL     OW24061   1.201   0.894  10.658  0.4214 -0.0651  1.0079
 4201SOL    HW124062   1.220   0.965  10.718 -0.0838  1.3809 -0.5566
 4201SOL    HW224063   1.167   0.828  10.719  0.5871 -1.4197 -0.3478
 4202SOL     OW24064   3.190   2.322  12.407 -0.1466  0.3236 -0.0385
 4202SOL    HW124065   3.244   2.256  12.451 -1.1635 -0.3204  0.2328
 4202SOL    HW224066   3.110   2.269  12.407  0.2625 -0.3090 -3.9646
 4203SOL     OW24067   1.205   1.544   2.154  0.4642 -0.6326  0.3621
 4203SOL    HW124068   1.173   1.569   2.241  1.0398  0.6054  0.2231
 4203SOL    HW224069   1.242   1.627   2.123 -1.0067 -0.3569 -0.6575
 4204SOL     OW24070   3.437   3.909   6.488  0.2469  0.7674 -0.1802
 4204SOL    HW124071   3.483   3.852   6.550 -2.6242 -0.9785  0.3679
 4204SOL    HW224072   3.456   3.995   6.524  1.0985  0.6482 -0.3440
 4205SOL     OW24073   0.961   4.170   4.537 -0.1382  0.4971  0.5327
 4205SOL    HW124074   0.933   4.260   4.551 -0.0823  1.0081 -2.6965
 4205SOL    HW224075   1.020   4.187   4.464  1.5236  0.8063  1.9369
 4206SOL     OW24076   1.269   1.932   1.749  0.1919  0.5269 -0.3488
 4206SOL    HW124077   1.275   1.966   1.839 -1.6142  2.0604 -0.8026
 4206SOL    HW224078   1.203   1.995   1.718 -0.3290  0.4115  0.5169
 4207SOL     OW24079   3.690   0.253   3.262 -0.5651  0.5680  0.3093
 4207SOL    HW124080   3.731   0.339   3.256  0.5790  0.1732  2.4216
 4207SOL    HW224081   3.687   0.226   3.170  2.5004 -0.0206  0.3795
 4208SOL     OW24082   2.120   0.938  14.283  0.1060  0.4595 -0.2049
 4208SOL    HW124083   2.129   0.972  14.372 -1.9523 -1.1239  0.5974
 4208SOL    HW224084   2.057   0.872  14.313  0.5243 -0.1623 -0.6799
 4209SOL     OW24085   0.236   2.864   5.751 -0.0202 -0.1893  0.2205
 4209SOL    HW124086   0.197   2.948   5.773 -0.9477 -0.4635 -0.3720
 4209SOL    HW224087   0.261   2.828   5.836 -0.0771  1.4552  0.9309
 4210SOL     OW24088   4.414   2.379   4.336 -0.0298  0.5229  0.8131
 4210SOL    HW124089   4.363   2.300   4.317  2.0352 -0.6294  0.0576
 4210SOL    HW224090   4.480   2.364   4.269 -0.9691  0.3076 -0.0513
 4211SOL     OW24091   0.769   1.147   6.351  0.1678 -0.6281 -0.6834
 4211SOL    HW124092   0.829   1.214   6.383 -1.5172  1.6772 -2.3382
 4211SOL    HW224093   0.821   1.090   6.296  1.0090  2.3236 -2.9491
 4212SOL     OW24094   1.617   2.012  12.916 -0.1241 -0.3894 -0.1803
 4212SOL    HW124095   1.541   1.982  12.866 -0.1968  1.3543 -1.0891
 4212SOL    HW224096   1.677   1.947  12.880  1.4237  0.1068  1.4883
 4213SOL     OW24097   0.361   4.182   8.773  0.2567 -0.3846  0.3296
 4213SOL    HW124098   0.399   4.261   8.736  0.7029 -0.6200  0.2803
 4213SOL    HW224099   0.304   4.160   8.699 -0.4013 -1.6084  1.2008
 4214SOL     OW24100   1.809   3.964   2.493 -0.0626  0.2969  0.2642
 4214SOL    HW124101   1.757   4.024   2.547  0.0627 -0.4736  1.2358
 4214SOL    HW224102   1.759   3.969   2.411 -0.4845 -1.5949  0.4036
 4215SOL     OW24103   3.858   3.738   4.417 -0.2885 -0.1314 -0.5621
 4215SOL    HW124104   3.856   3.672   4.348 -0.8604 -1.6444  0.8881
 4215SOL    HW224105   3.871   3.826   4.382 -0.3877  0.0374 -0.1711
 4216SOL     OW24106   0.021   0.394   8.593 -0.2747  0.3072 -1.2546
 4216SOL    HW124107   0.049   0.409   8.503  0.8440 -1.7295 -1.2463
 4216SOL    HW224108   4.677   0.457   8.607 -0.5969 -0.3830  0.2435
 4217SOL     OW24109   2.312   3.577  15.238  0.2752  0.7422  0.3325
 4217SOL    HW124110   2.394   3.531  15.258  0.0542 -1.0791 -2.9153
 4217SOL    HW224111   2.334   3.593  15.146 -0.8732  3.2862  0.4967
 4218SOL     OW24112   0.645   4.115   2.751  0.0264 -0.3285 -0.3084
 4218SOL    HW124113   0.621   4.025   2.772  0.1443  0.5768  3.7107
 4218SOL    HW224114   0.675   4.098   2.661  1.1766  0.2400 -0.0252
 4219SOL     OW24115   3.464   4.216   8.822 -0.1200 -0.6564 -0.2734
 4219SOL    HW124116   3.548   4.261   8.834 -1.3634  1.6996 -0.3963
 4219SOL    HW224117   3.466   4.182   8.733 -3.4378 -0.3759 -0.4549
 4220SOL     OW24118   2.032   2.927   4.456  0.7283  0.4913 -0.5439
 4220SOL    HW124119   1.984   2.920   4.539  2.0272 -0.3428  0.1376
 4220SOL    HW224120   1.953   2.961   4.414 -1.5543 -1.0291  2.4689
 4221SOL     OW24121   0.271   4.577   5.535 -0.6163  1.0978  0.4919
 4221SOL    HW124122   0.194   4.617   5.575 -2.5792 -2.2117 -0.0202
 4221SOL    HW224123   0.265   4.595   5.441 -2.5641  3.8176  1.1305
 4222SOL     OW24124   4.011   4.238  17.534 -0.1112 -0.2569  0.3356
 4222SOL    HW124125   3.980   4.156  17.572  0.1033 -0.3452  0.3232
 4222SOL    HW224126   4.005   4.222  17.440  0.9744  0.4382  0.1389
 4223SOL     OW24127   3.066   0.155   0.508 -0.3684 -0.0624  0.4458
 4223SOL    HW124128   3.086   0.221   0.574 -1.1826  0.4642  0.1652
 4223SOL    HW224129   3.111   0.082   0.551 -0.7003 -0.8098 -0.4734
 4224SOL     OW24130   3.988   0.508   4.281  0.3194  0.2231 -1.0192
 4224SOL    HW124131   3.894   0.508   4.296  0.5502  2.2742  0.5761
 4224SOL    HW224132   4.001   0.433   4.224  1.2083 -0.9315  0.7141
 4225SOL     OW24133   1.410   0.790   3.113 -0.0339 -0.0805 -0.5479
 4225SOL    HW124134   1.471   0.843   3.165 -0.0254 -1.4238  0.8234
 4225SOL    HW224135   1.331   0.794   3.167 -0.1636  0.2716 -0.7622
 4226SOL     OW24136   0.490   4.284   4.368  0.1019  0.2286  0.1980
 4226SOL    HW124137   0.419   4.264   4.308  0.1749  0.3154  0.0833
 4226SOL    HW224138   0.526   4.196   4.385 -1.4033 -0.5651 -0.6931
 4227SOL     OW24139   4.211   4.584   6.093  0.0781 -0.0559  0.2047
 4227SOL    HW124140   4.141   4.521   6.111 -0.4000 -0.4435 -2.8481
 4227SOL    HW224141   4.158   4.655   6.055  4.6343  0.9513 -4.3353
 4228SOL     OW24142   2.659   4.453   6.777  0.1429  0.1837  0.0703
 4228SOL    HW124143   2.738   4.454   6.830  0.8081 -0.3610 -0.9060
 4228SOL    HW224144   2.601   4.405   6.837 -1.3585  1.3362 -0.4572
 4229SOL     OW24145   4.607   2.767   1.384  0.3280  0.3093 -0.0816
 4229SOL    HW124146   4.701   2.783   1.375  0.7046  0.1815  3.5179
 4229SOL    HW224147   4.577   2.823   1.455 -0.7450 -0.6825  0.2432
 4230SOL     OW24148   1.014   1.381   9.733 -0.2695 -0.3001 -0.2132
 4230SOL    HW124149   0.997   1.337   9.650  1.1304 -0.3364 -0.4826
 4230SOL    HW224150   0.925   1.394   9.765  0.1713 -0.2946  1.0086
 4231SOL     OW24151   2.144   4.699   7.121 -0.8492  0.1748 -0.6920
 4231SOL    HW124152   2.065   4.651   7.098 -1.4640  0.8532 -0.0137
 4231SOL    HW224153   2.166   4.661   7.207  0.6038  0.3834 -0.9669
 4232SOL     OW24154   3.060   0.616  11.862  0.1350 -0.0642  0.3694
 4232SOL    HW124155   3.052   0.533  11.910 -0.8169 -0.9153 -1.2711
 4232SOL    HW224156   3.064   0.594  11.769  2.2887  2.2696 -0.0843
 4233SOL     OW24157   3.813   0.228   5.404  0.8363  0.1412  0.4293
 4233SOL    HW124158   3.831   0.297   5.340  0.4588  0.1204  0.3038
 4233SOL    HW224159   3.720   0.214   5.390  1.0911 -2.0869  0.9352
 4234SOL     OW24160   1.426   2.126   7.275  0.3384 -0.7692  0.1252
 4234SOL    HW124161   1.519   2.117   7.252  1.2317  1.1402  2.9200
 4234SOL    HW224162   1.434   2.099   7.367  0.1542 -0.1679  0.3160
 4235SOL     OW24163   0.474   3.011   3.083 -0.1104 -0.0231 -0.0250
 4235SOL    HW124164   0.456   2.941   3.146 -0.1498  0.9144  0.9991
 4235SOL    HW224165   0.385   3.017   3.047 -1.2466  2.4665  3.1678
 4236SOL     OW24166   0.911   2.779   7.307  0.7670  0.0735  0.1334
 4236SOL    HW124167   0.942   2.866   7.328 -0.8559  0.4797  0.8635
 4236SOL    HW224168   0.843   2.795   7.241  0.2531  0.7159  0.8177
 4237SOL     OW24169   1.774   2.552  10.885 -0.2465  0.5751  0.4489
 4237SOL    HW124170   1.804   2.594  10.965 -0.9637  1.6607  0.1523
 4237SOL    HW224171   1.857   2.535  10.841 -0.0151 -0.1428  1.1619
 4238SOL     OW24172   2.673   4.318   3.819 -0.1691 -0.0612  0.0985
 4238SOL    HW124173   2.693   4.225   3.822  1.5316  0.2652 -1.4956
 4238SOL    HW224174   2.587   4.316   3.777 -0.4167 -1.6226  0.6831
 4239SOL     OW24175   0.300   4.129   5.144  0.2916  0.0601 -0.3555
 4239SOL    HW124176   0.301   4.223   5.161  2.7948  0.1503 -0.9397
 4239SOL    HW224177   0.288   4.102   5.236 -1.5331 -0.7753 -0.8463
 4240SOL     OW24178   0.952   3.645   9.237  0.2062  0.7394 -0.0455
 4240SOL    HW124179   0.993   3.595   9.167 -0.3666  1.2235 -0.7230
 4240SOL    HW224180   1.023   3.681   9.290  1.4691 -1.1381 -0.4476
 4241SOL     OW24181   4.330   0.635  10.906 -0.2894  0.4272  0.2457
 4241SOL    HW124182   4.248   0.624  10.858  1.6692 -1.1962 -2.7792
 4241SOL    HW224183   4.310   0.706  10.967  0.5067  2.1129 -1.4688
 4242SOL     OW24184   3.327   0.500   7.174 -0.2154 -0.2216  0.7073
 4242SOL    HW124185   3.360   0.489   7.085  1.5939  0.4029  1.2905
 4242SOL    HW224186   3.255   0.439   7.161 -1.4076  1.2223  0.5274
 4243SOL     OW24187   1.270   3.309   3.558  0.0361 -0.2193 -0.4416
 4243SOL    HW124188   1.215   3.231   3.562  0.7649 -0.7208 -0.1245
 4243SOL    HW224189   1.275   3.331   3.651  1.0280 -1.2634 -0.2399
 4244SOL     OW24190   2.217   1.479  17.460 -0.1662 -0.4254  0.1556
 4244SOL    HW124191   2.128   1.494  17.491 -0.0383 -0.5342  0.5728
 4244SOL    HW224192   2.227   1.388  17.490  0.8873 -0.5704 -0.6306
 4245SOL     OW24193   2.844   0.893  11.116 -0.2904  0.0632  0.6401
 4245SOL    HW124194   2.890   0.825  11.165  0.9881  0.4081 -0.0946
 4245SOL    HW224195   2.786   0.844  11.057 -0.0983  0.4659  0.1226
 4246SOL     OW24196   0.843   1.800   9.991 -0.0913  0.8898 -0.6326
 4246SOL    HW124197   0.913   1.856   9.956 -0.1098  1.4468  0.2225
 4246SOL    HW224198   0.811   1.762   9.909 -1.2133 -0.9975  0.6845
 4247SOL     OW24199   1.966   4.407   5.446  0.0350  0.2036 -0.3729
 4247SOL    HW124200   1.957   4.502   5.454  0.5817  0.1836  0.4887
 4247SOL    HW224201   2.041   4.391   5.503 -0.5054  0.7793  0.5034
 4248SOL     OW24202   1.359   2.048   6.076  0.6043 -0.5473  0.4617
 4248SOL    HW124203   1.410   1.997   6.014 -0.5740 -0.3199 -0.6873
 4248SOL    HW224204   1.307   2.103   6.018  2.2691 -1.3652 -1.8178
 4249SOL     OW24205   2.141   2.694   6.920 -0.1131 -0.1088  0.4356
 4249SOL    HW124206   2.211   2.670   6.980  3.1088  1.3252 -2.7677
 4249SOL    HW224207   2.065   2.675   6.974 -1.4357 -0.5759 -1.5819
 4250SOL     OW24208   3.042   2.543   2.035  0.4160  0.3449 -0.0462
 4250SOL    HW124209   3.086   2.502   1.962  0.0128 -0.5462  0.2148
 4250SOL    HW224210   3.039   2.633   2.000 -1.7660  0.4405  0.3498
 4251SOL     OW24211   3.011   1.446   4.092  0.1733 -0.4995 -0.4824
 4251SOL    HW124212   2.956   1.482   4.022 -0.6709 -0.6377  0.1081
 4251SOL    HW224213   2.978   1.362   4.125 -0.8661  0.5175  1.1033
 4252SOL     OW24214   3.217   1.355   6.342 -0.0567  0.1127  0.1907
 4252SOL    HW124215   3.201   1.425   6.405  2.0463 -0.4978  1.4031
 4252SOL    HW224216   3.183   1.398   6.263 -3.1399 -1.1585  0.8454
 4253SOL     OW24217   3.759   3.242  14.066  0.0354 -0.1062 -0.1552
 4253SOL    HW124218   3.729   3.226  14.155 -2.0764  1.1266 -0.6581
 4253SOL    HW224219   3.781   3.150  14.050 -0.5032 -0.2930  0.2012
 4254SOL     OW24220   0.954   3.957   3.091  0.2787 -0.1880 -0.7213
 4254SOL    HW124221   1.029   3.900   3.105 -0.4765 -1.3528 -1.3989
 4254SOL    HW224222   0.953   3.980   2.998  0.3191 -0.7234 -0.8512
 4255SOL     OW24223   4.286   3.555   5.088 -0.5685 -0.2723  0.6391
 4255SOL    HW124224   4.285   3.511   5.174  0.1672  1.3644  1.4881
 4255SOL    HW224225   4.312   3.476   5.041 -1.5088  1.1255 -2.2124
 4256SOL     OW24226   4.477   1.246  12.056  0.2585 -0.0366  0.2989
 4256SOL    HW124227   4.522   1.180  12.110 -1.6894 -1.8805 -0.3260
 4256SOL    HW224228   4.468   1.190  11.980 -0.5187  0.1143  0.2789
 4257SOL     OW24229   0.030   1.740  10.171  0.0639 -0.5120 -0.7260
 4257SOL    HW124230   4.714   1.800  10.232 -0.6723 -3.1210  1.3016
 4257SOL    HW224231   0.028   1.656  10.218 -0.7478 -0.5867 -0.8930
 4258SOL     OW24232   3.718   1.403   0.966 -0.0193  0.4812 -0.2551
 4258SOL    HW124233   3.783   1.337   0.941 -0.7660 -0.2988 -0.1571
 4258SOL    HW224234   3.638   1.358   0.937  1.4112 -1.2606 -1.4717
 4259SOL     OW24235   0.569   3.349   1.295  0.0929  0.1589 -0.2333
 4259SOL    HW124236   0.595   3.441   1.298  0.4641  0.0490 -0.0297
 4259SOL    HW224237   0.648   3.322   1.343  1.1054 -0.5008 -2.2556
 4260SOL     OW24238   1.732   4.692   2.587 -0.0953 -0.4910  0.3148
 4260SOL    HW124239   1.807   4.652   2.632 -0.0639  0.6055  1.2315
 4260SOL    HW224240   1.769   4.700   2.500 -0.7810 -0.6452  0.0115
 4261SOL     OW24241   3.803   2.243  10.744  0.3486 -0.4571  0.0524
 4261SOL    HW124242   3.767   2.156  10.765  2.9239 -1.1317  1.7002
 4261SOL    HW224243   3.777   2.284  10.826  1.7954 -0.1396  0.3463
 4262SOL     OW24244   3.723   4.571   4.477  0.2419 -1.1803  0.1195
 4262SOL    HW124245   3.759   4.621   4.404  0.0606 -0.7500  0.3228
 4262SOL    HW224246   3.769   4.487   4.474  1.2240 -0.6206 -0.3616
 4263SOL     OW24247   2.359   2.663   8.738  0.5477 -0.7386  0.3344
 4263SOL    HW124248   2.333   2.721   8.666 -1.6335 -1.9608  0.1058
 4263SOL    HW224249   2.292   2.672   8.806  1.7201 -0.2392  1.4177
 4264SOL     OW24250   4.108   2.985   2.428 -0.0594  0.1278  1.3749
 4264SOL    HW124251   4.060   3.065   2.450 -1.2254  0.3284 -1.9953
 4264SOL    HW224252   4.186   3.010   2.478  0.8692  2.4377 -1.2272
 4265SOL     OW24253   2.116   3.249   3.887  0.1433 -0.1847  0.3064
 4265SOL    HW124254   2.148   3.213   3.970 -0.1391  0.4579  0.6974
 4265SOL    HW224255   2.184   3.311   3.861 -1.8732  1.7509 -0.3622
 4266SOL     OW24256   3.658   0.436   3.787 -0.3172 -0.0103  0.2988
 4266SOL    HW124257   3.690   0.346   3.781 -1.6872 -0.4356 -0.6468
 4266SOL    HW224258   3.729   0.483   3.832  1.9713 -2.1544 -1.1295
 4267SOL     OW24259   1.046   4.658   9.443 -0.5354  0.2539 -0.1275
 4267SOL    HW124260   1.068   0.019   9.411  0.3259 -0.5837 -1.7977
 4267SOL    HW224261   1.044   4.670   9.538 -2.0466  0.2329 -0.1441
 4268SOL     OW24262   0.848   2.298  12.012 -0.0811  0.7024 -0.4783
 4268SOL    HW124263   0.763   2.335  12.038 -0.6017 -0.1359 -0.9920
 4268SOL    HW224264   0.848   2.223  12.070  2.4207 -0.3496 -1.8420
 4269SOL     OW24265   1.493   1.423   0.766 -0.2070 -0.1081  0.3400
 4269SOL    HW124266   1.539   1.477   0.829 -0.8608 -0.6315  1.2631
 4269SOL    HW224267   1.550   1.346   0.766  0.3556  0.2977 -1.9451
 4270SOL     OW24268   1.655   0.306  10.882  0.1709 -0.6597  0.8485
 4270SOL    HW124269   1.630   0.241  10.817 -0.0405  1.3373 -1.0604
 4270SOL    HW224270   1.641   0.255  10.962  1.5286 -2.2412  0.0789
 4271SOL     OW24271   2.528   3.261   4.428 -0.6137  0.1647 -0.4711
 4271SOL    HW124272   2.443   3.249   4.470 -0.2216 -0.4744  0.1466
 4271SOL    HW224273   2.590   3.247   4.500 -0.1557 -1.9666 -1.2604
 4272SOL     OW24274   3.188   1.063   5.105 -0.4233  0.3124  0.0268
 4272SOL    HW124275   3.176   1.146   5.061 -2.0840  0.0186 -0.0940
 4272SOL    HW224276   3.183   1.005   5.029 -0.2503 -2.5963  2.2198
 4273SOL     OW24277   0.301   3.725  10.530 -0.0821 -0.2974 -0.2736
 4273SOL    HW124278   0.356   3.783  10.477  0.7184 -0.1618  0.6968
 4273SOL    HW224279   0.365   3.655  10.547  0.2584 -0.0860 -0.6846
 4274SOL     OW24280   4.543   1.101   5.133  0.0694  0.2215 -0.5840
 4274SOL    HW124281   4.487   1.167   5.092 -1.3944 -0.3937  0.4470
 4274SOL    HW224282   4.476   1.035   5.148  1.6234 -1.6607 -1.9866
 4275SOL     OW24283   3.353   1.117   1.899  0.0291  0.1590  0.0251
 4275SOL    HW124284   3.347   1.156   1.986 -1.2018  1.7501 -0.7899
 4275SOL    HW224285   3.413   1.044   1.916  0.3332  0.7978  1.7260
 4276SOL     OW24286   1.937   4.520   8.597 -0.1018  0.0256 -0.4332
 4276SOL    HW124287   1.941   4.601   8.648 -3.3184 -1.8095  2.7039
 4276SOL    HW224288   1.976   4.461   8.661  0.4551  0.8616 -0.0044
 4277SOL     OW24289   4.013   4.667   2.196 -0.4175 -0.0780  0.2715
 4277SOL    HW124290   3.990   4.649   2.105 -0.1791 -0.9025  0.3758
 4277SOL    HW224291   3.952   0.007   2.228 -0.8637 -1.7916  2.9553
 4278SOL     OW24292   3.439   0.288  14.772  0.1548  0.6083  0.3849
 4278SOL    HW124293   3.444   0.366  14.717  1.1995  1.4096  1.6285
 4278SOL    HW224294   3.362   0.310  14.824 -1.0561  2.3793 -2.1608
 4279SOL     OW24295   4.125   3.532   4.080  0.4158 -0.0190 -0.4054
 4279SOL    HW124296   4.122   3.470   4.007  1.5714  0.3321 -0.7475
 4279SOL    HW224297   4.071   3.476   4.137 -1.6575  1.0662 -1.3111
 4280SOL     OW24298   4.418   0.445   7.714  0.5343  0.5454 -0.3040
 4280SOL    HW124299   4.368   0.412   7.639  1.5717 -1.3081 -0.1823
 4280SOL    HW224300   4.388   0.536   7.714  1.7938  0.9596 -0.6757
 4281SOL     OW24301   4.174   1.343  15.973 -0.6491  0.4338 -0.0975
 4281SOL    HW124302   4.266   1.345  15.996 -1.3202 -1.4816  2.6766
 4281SOL    HW224303   4.166   1.432  15.938  1.2325  0.4352 -0.5314
 4282SOL     OW24304   0.685   4.524   9.589 -0.3131  0.7758  0.6657
 4282SOL    HW124305   0.726   4.465   9.652  0.7603  2.0791  1.1962
 4282SOL    HW224306   0.592   4.510   9.604 -0.2486  0.2812  0.6048
 4283SOL     OW24307   3.372   3.458   6.952 -0.4651 -0.1687  0.0595
 4283SOL    HW124308   3.333   3.523   7.010  0.2575 -1.0422  1.5123
 4283SOL    HW224309   3.369   3.500   6.866 -1.5071 -2.2971 -0.9597
 4284SOL     OW24310   2.212   3.597  14.257 -0.7424  0.1796 -0.1970
 4284SOL    HW124311   2.289   3.541  14.267  1.6440  3.4157 -0.4665
 4284SOL    HW224312   2.250   3.684  14.254 -0.4717  0.0686 -0.0026
 4285SOL     OW24313   2.777   1.261  10.488  0.1426  0.2084  0.2133
 4285SOL    HW124314   2.853   1.236  10.540 -0.3243 -1.9053 -0.1124
 4285SOL    HW224315   2.716   1.280  10.559  0.6440  0.4819  0.5674
 4286SOL     OW24316   3.248   4.561   2.751 -0.0106  0.1691  0.1401
 4286SOL    HW124317   3.337   4.538   2.776 -1.0395 -1.2801  2.4328
 4286SOL    HW224318   3.225   4.620   2.823  1.3268 -1.4186  1.8591
 4287SOL     OW24319   2.567   3.086  14.701 -0.0606 -0.1018  0.5315
 4287SOL    HW124320   2.662   3.087  14.710 -0.3106  0.8051  2.9590
 4287SOL    HW224321   2.546   3.053  14.788 -1.2692 -0.2106  0.1986
 4288SOL     OW24322   3.281   1.386   8.468  0.1845 -0.6303 -0.1985
 4288SOL    HW124323   3.269   1.458   8.407 -1.3307  0.7906  1.7952
 4288SOL    HW224324   3.262   1.304   8.421 -2.7455  0.5843 -1.0701
 4289SOL     OW24325   3.627   2.949   9.243 -0.1841 -0.3044  0.5682
 4289SOL    HW124326   3.562   3.019   9.252  0.6627  0.3555  1.5908
 4289SOL    HW224327   3.591   2.871   9.284 -0.7174 -0.4649 -0.2167
 4290SOL     OW24328   0.560   2.294  13.261 -0.0673  0.3041 -0.0433
 4290SOL    HW124329   0.501   2.233  13.218 -1.8319  0.8449  1.6173
 4290SOL    HW224330   0.630   2.244  13.304  0.2537 -0.7617 -1.7831
 4291SOL     OW24331   3.456   3.437   0.471  0.4519 -0.5514 -0.7278
 4291SOL    HW124332   3.457   3.348   0.508  0.5638  0.0508  0.7055
 4291SOL    HW224333   3.380   3.473   0.514  1.4970 -0.5188  1.0834
 4292SOL     OW24334   0.960   0.445   5.384  0.4471 -0.1919 -0.0848
 4292SOL    HW124335   1.026   0.377   5.380 -0.7636 -1.2564 -1.8945
 4292SOL    HW224336   0.897   0.403   5.443 -0.8843  0.5861 -0.9482
 4293SOL     OW24337   1.036   0.297   3.745  0.1260 -0.0679 -0.3245
 4293SOL    HW124338   1.080   0.228   3.794  0.1800  0.2481  0.0758
 4293SOL    HW224339   0.964   0.241   3.716 -1.6045  2.6869 -1.3731
 4294SOL     OW24340   3.014   3.533  11.354 -0.0786 -0.0548 -0.3030
 4294SOL    HW124341   3.008   3.601  11.286  1.4306  1.1212  0.7326
 4294SOL    HW224342   3.085   3.562  11.411 -2.2503  1.9163  1.4122
 4295SOL     OW24343   0.286   2.438   4.869 -0.2220  0.3774  0.3622
 4295SOL    HW124344   0.340   2.393   4.933 -1.4483 -1.2695  0.2364
 4295SOL    HW224345   0.332   2.521   4.852  0.3192  0.0779  0.3441
 4296SOL     OW24346   0.190   4.575  16.008 -0.0029 -0.0946  0.0613
 4296SOL    HW124347   0.186   4.501  15.948 -0.6846  0.2302 -0.2885
 4296SOL    HW224348   0.127   4.551  16.075  1.7424 -0.0148  1.7495
 4297SOL     OW24349   3.328   0.584  10.613  0.7912 -0.1572 -0.0757
 4297SOL    HW124350   3.279   0.606  10.533  0.8843  0.1219 -0.0581
 4297SOL    HW224351   3.372   0.506  10.581  1.7325  0.1610  0.4503
 4298SOL     OW24352   2.999   2.608   9.404  0.3500 -0.5813  0.7976
 4298SOL    HW124353   3.080   2.563   9.430  1.1222  0.8575  0.8945
 4298SOL    HW224354   3.013   2.689   9.453  0.0011 -0.6061  0.9386
 4299SOL     OW24355   2.799   1.330  11.481  0.2153  0.6408 -0.5486
 4299SOL    HW124356   2.817   1.247  11.438  0.8219  0.9142 -0.8222
 4299SOL    HW224357   2.737   1.306  11.550 -1.3821  2.1968 -1.4424
 4300SOL     OW24358   1.657   3.965   9.285 -0.3847  0.1206  0.4785
 4300SOL    HW124359   1.563   3.947   9.281 -0.5219  1.0945 -0.6241
 4300SOL    HW224360   1.653   4.009   9.370  0.7668  2.2737 -0.5657
 4301SOL     OW24361   0.092   1.342  15.061  0.2984 -0.0870  0.0078
 4301SOL    HW124362   0.174   1.357  15.016 -0.9616  0.1310 -2.2274
 4301SOL    HW224363   0.047   1.411  15.012  0.9305 -0.7377 -1.5150
 4302SOL     OW24364   3.016   1.398   4.571  0.0883 -0.1765 -0.2501
 4302SOL    HW124365   3.066   1.380   4.492 -0.1810  0.9309 -0.6614
 4302SOL    HW224366   2.980   1.311   4.592  2.2050 -0.5131  1.9946
 4303SOL     OW24367   3.084   3.067   5.389 -0.2808 -0.1457 -0.8709
 4303SOL    HW124368   3.051   3.153   5.363 -0.6999 -0.2614 -0.7269
 4303SOL    HW224369   3.002   3.017   5.381  0.3464 -1.6144  1.9717
 4304SOL     OW24370   3.240   4.081   5.901 -0.3240 -0.0685  0.2115
 4304SOL    HW124371   3.168   4.020   5.885  1.4361 -2.0349 -0.1564
 4304SOL    HW224372   3.302   4.032   5.848  0.5365  0.0898  1.0757
 4305SOL     OW24373   0.701   3.056   0.558 -0.0248 -0.0504 -0.2815
 4305SOL    HW124374   0.673   2.970   0.526  0.4113  0.7342 -2.7373
 4305SOL    HW224375   0.748   3.098   0.486 -1.4807 -0.1630 -1.2980
 4306SOL     OW24376   2.854   3.476   9.796  0.0162 -0.5554 -0.2899
 4306SOL    HW124377   2.896   3.560   9.813 -0.3109 -0.4117 -0.1964
 4306SOL    HW224378   2.909   3.418   9.849  0.6367  1.5200  1.3227
 4307SOL     OW24379   3.432   4.720   8.301  0.2623  0.2150  0.4253
 4307SOL    HW124380   3.346   0.030   8.283 -1.4758 -2.1535  4.0934
 4307SOL    HW224381   3.443   0.018   8.393  0.8859 -0.0578  0.4264
 4308SOL     OW24382   1.795   2.253   5.676  0.1556 -0.2395 -0.1819
 4308SOL    HW124383   1.846   2.177   5.649  0.0754 -0.3743  0.0442
 4308SOL    HW224384   1.743   2.262   5.596  0.8129  3.6630 -0.1916
 4309SOL     OW24385   2.704   3.910   4.213  0.3548 -0.3260 -0.3419
 4309SOL    HW124386   2.616   3.934   4.241  0.9101  0.8841  0.3328
 4309SOL    HW224387   2.719   3.828   4.261 -2.8960 -1.5529 -1.4174
 4310SOL     OW24388   2.914   2.516   8.276 -0.2072 -0.1525  0.0093
 4310SOL    HW124389   2.929   2.592   8.332  0.2200 -0.6878  0.6198
 4310SOL    HW224390   2.821   2.530   8.257 -0.4623 -0.5066  0.9790
 4311SOL     OW24391   2.135   0.362   4.881 -0.1229  0.0141 -0.1462
 4311SOL    HW124392   2.100   0.442   4.920  0.3321  1.4883 -2.7451
 4311SOL    HW224393   2.210   0.401   4.837 -0.2780  0.6314  0.1429
 4312SOL     OW24394   0.187   2.585  12.417  0.0790 -0.4563 -0.6813
 4312SOL    HW124395   0.154   2.630  12.339  1.5353 -1.8307 -2.1136
 4312SOL    HW224396   0.104   2.546  12.444 -1.6452  2.1684 -2.2933
 4313SOL     OW24397   0.929   1.308   5.307 -0.3169 -0.2448  0.7512
 4313SOL    HW124398   0.980   1.256   5.245  0.5036  0.5443  0.7582
 4313SOL    HW224399   0.977   1.391   5.309  1.6610 -1.3679 -0.0726
 4314SOL     OW24400   0.030   0.595   4.718  0.1577 -0.1458  0.3507
 4314SOL    HW124401   0.017   0.690   4.725 -0.2505 -0.1167 -0.7600
 4314SOL    HW224402   4.677   0.577   4.669  1.0743  0.8329 -1.4948
 4315SOL     OW24403   0.849   3.989   7.687 -0.5678  1.0221  0.1635
 4315SOL    HW124404   0.803   3.908   7.707 -2.2061  1.3820 -2.0690
 4315SOL    HW224405   0.926   3.983   7.742 -0.9874 -1.6678  0.4601
 4316SOL     OW24406   3.684   3.059   3.557  0.1759 -0.6543 -0.2857
 4316SOL    HW124407   3.684   3.015   3.642  0.3394  3.3583  1.7846
 4316SOL    HW224408   3.621   3.127   3.579  1.8605  0.9370 -0.3912
 4317SOL     OW24409   2.073   3.191  10.990  0.4963 -0.8008 -0.0986
 4317SOL    HW124410   2.117   3.143  11.060 -0.9607  0.4589  1.6730
 4317SOL    HW224411   2.131   3.265  10.978 -1.5652  0.7920 -0.2084
 4318SOL     OW24412   2.782   0.899   7.691  0.3728 -0.3552  0.1439
 4318SOL    HW124413   2.699   0.944   7.706 -0.6850 -2.7170  1.2082
 4318SOL    HW224414   2.754   0.833   7.628 -1.5727 -0.4318  1.1117
 4319SOL     OW24415   0.967   1.835  10.395  0.1208 -0.6587 -0.1782
 4319SOL    HW124416   0.906   1.854  10.324  1.0890 -0.5167 -0.9655
 4319SOL    HW224417   0.930   1.891  10.462  0.7406  0.5030 -0.8108
 4320SOL     OW24418   3.731   2.498  13.091 -0.0106 -0.2389 -0.4026
 4320SOL    HW124419   3.687   2.530  13.012 -1.1291 -1.0641 -0.1100
 4320SOL    HW224420   3.693   2.555  13.158  3.9015 -0.9222  2.4029
 4321SOL     OW24421   1.785   0.875   8.843 -0.0709 -0.7089 -0.1516
 4321SOL    HW124422   1.841   0.925   8.784 -2.3504  0.4038 -1.3906
 4321SOL    HW224423   1.795   0.930   8.921  0.1875  1.6268 -1.8258
 4322SOL     OW24424   0.672   2.909   0.295 -0.1027  0.5216 -0.3742
 4322SOL    HW124425   0.704   2.847   0.229 -0.6886 -1.3625  1.1378
 4322SOL    HW224426   0.722   2.988   0.273  0.2415 -0.2081 -2.2314
 4323SOL     OW24427   3.779   1.711   8.827 -0.1983  0.5490  0.2811
 4323SOL    HW124428   3.724   1.772   8.877  0.4643 -0.3183  2.0416
 4323SOL    HW224429   3.861   1.760   8.836  1.7148 -2.8022  1.1174
 4324SOL     OW24430   3.322   4.030   8.188 -0.7048  0.9410 -0.3351
 4324SOL    HW124431   3.325   3.935   8.192  2.2226  1.0243 -0.5138
 4324SOL    HW224432   3.232   4.052   8.163 -2.2766 -1.4617  3.1550
 4325SOL     OW24433   4.052   0.303   8.946  0.5493 -0.4068  0.0880
 4325SOL    HW124434   4.138   0.344   8.953 -0.0317  0.9476 -0.6813
 4325SOL    HW224435   3.984   0.368   8.959  0.7067 -0.7287  2.5879
 4326SOL     OW24436   0.637   2.157   8.679 -0.2051  0.2374  0.1651
 4326SOL    HW124437   0.715   2.109   8.650 -1.9645 -2.0783 -0.7908
 4326SOL    HW224438   0.566   2.092   8.678  0.4089 -0.4524  1.7117
 4327SOL     OW24439   0.762   1.392   3.636  0.1617  0.5576  0.0052
 4327SOL    HW124440   0.786   1.312   3.683 -1.6867  0.6666  1.1441
 4327SOL    HW224441   0.750   1.365   3.545  0.5643 -1.2156  0.4810
 4328SOL     OW24442   0.921   1.309   2.540 -0.6482 -0.1153  0.2020
 4328SOL    HW124443   0.953   1.273   2.623  1.4117  1.0672 -0.0694
 4328SOL    HW224444   0.887   1.243   2.480  0.2254  0.2425 -0.6828
 4329SOL     OW24445   1.467   1.876   4.184 -0.1495 -0.0394 -0.0883
 4329SOL    HW124446   1.528   1.878   4.110  0.2578 -0.4192  0.2377
 4329SOL    HW224447   1.429   1.963   4.172  3.9674  1.7517 -0.2846
 4330SOL     OW24448   1.974   2.381   4.100 -0.5593 -0.4114  0.4051
 4330SOL    HW124449   1.977   2.477   4.104 -1.5241 -0.2497 -3.1651
 4330SOL    HW224450   2.066   2.358   4.087 -0.4087 -0.6079  1.7501
 4331SOL     OW24451   2.301   4.379  15.298 -0.7075  0.1434 -0.2782
 4331SOL    HW124452   2.221   4.421  15.331  0.2082  2.6238 -1.2141
 4331SOL    HW224453   2.306   4.300  15.351  0.1276 -0.5123 -1.3426
 4332SOL     OW24454   3.397   2.671   8.045 -0.4397  0.1582  0.2083
 4332SOL    HW124455   3.348   2.732   8.100 -1.2071  0.3770 -0.7164
 4332SOL    HW224456   3.374   2.709   7.960 -0.5540 -0.3320  0.0149
 4333SOL     OW24457   1.666   0.765   1.448 -0.2484  0.2668 -0.8504
 4333SOL    HW124458   1.717   0.697   1.406  1.8749  1.6452 -0.5239
 4333SOL    HW224459   1.625   0.730   1.527  2.2689 -1.0315 -0.1459
 4334SOL     OW24460   3.235   3.122   2.892 -0.2186  0.3416  0.2847
 4334SOL    HW124461   3.319   3.122   2.939 -1.1875  0.7848  1.9899
 4334SOL    HW224462   3.213   3.029   2.899  1.2036 -0.1036 -1.1111
 4335SOL     OW24463   3.212   1.194   3.899 -0.8232  0.1375  0.0307
 4335SOL    HW124464   3.156   1.222   3.972  2.0237  0.2295  2.1833
 4335SOL    HW224465   3.299   1.208   3.937 -1.5016  0.7371  1.3475
 4336SOL     OW24466   2.810   3.404   2.429  0.3136 -0.2148  0.1089
 4336SOL    HW124467   2.867   3.354   2.372 -0.3347 -2.0143  1.0064
 4336SOL    HW224468   2.789   3.340   2.497 -2.3082  0.6864  0.1656
 4337SOL     OW24469   1.052   2.852   5.835  0.1990  0.1821 -0.5145
 4337SOL    HW124470   1.086   2.941   5.844 -0.8751  0.7747 -2.2952
 4337SOL    HW224471   1.068   2.833   5.742  0.9129  1.2533 -0.6015
 4338SOL     OW24472   2.641   1.696   8.577  0.0242 -0.0919 -0.2605
 4338SOL    HW124473   2.615   1.781   8.614  0.2282 -0.1459  0.0122
 4338SOL    HW224474   2.708   1.668   8.640 -1.6914 -1.1190  1.0848
 4339SOL     OW24475   3.882   3.229   7.937 -0.7864 -0.1006 -0.5613
 4339SOL    HW124476   3.807   3.202   7.884 -1.4627 -1.8362  1.3084
 4339SOL    HW224477   3.849   3.189   8.016  0.0484 -2.2283 -1.3005
 4340SOL     OW24478   3.785   0.361   4.487 -0.1747  0.4434 -0.0865
 4340SOL    HW124479   3.874   0.332   4.466 -1.1221 -1.3529 -1.6730
 4340SOL    HW224480   3.740   0.278   4.501  3.4363 -1.4876 -0.0799
 4341SOL     OW24481   4.248   3.242   6.225 -0.4115 -0.0525  0.3921
 4341SOL    HW124482   4.223   3.327   6.189  0.2300 -0.7780 -1.7623
 4341SOL    HW224483   4.290   3.199   6.151 -0.2993  0.4369  0.1674
 4342SOL     OW24484   2.600   1.509   7.317 -0.3958  0.2950 -0.1050
 4342SOL    HW124485   2.661   1.499   7.244 -0.4482  3.0556 -0.5303
 4342SOL    HW224486   2.601   1.418   7.345  0.5165 -0.2039 -1.7304
 4343SOL     OW24487   0.630   4.220   6.062  0.1830  0.0455 -0.0622
 4343SOL    HW124488   0.546   4.209   6.106 -1.3928 -0.3474 -3.0929
 4343SOL    HW224489   0.604   4.297   6.011 -1.4576 -2.2286 -2.6799
 4344SOL     OW24490   3.209   3.236   2.206  0.8769  0.1787 -0.4490
 4344SOL    HW124491   3.194   3.264   2.116  3.1026 -1.1964 -1.2543
 4344SOL    HW224492   3.120   3.221   2.237  1.2424 -0.1733  0.4268
 4345SOL     OW24493   2.293   2.498  14.875 -0.3957  0.1005  0.2154
 4345SOL    HW124494   2.225   2.515  14.810 -0.6084 -0.1688  0.3668
 4345SOL    HW224495   2.272   2.406  14.893 -2.0102  0.5624  0.7071
 4346SOL     OW24496   2.618   1.572   7.726  0.0663 -0.3847 -0.4809
 4346SOL    HW124497   2.566   1.625   7.666  0.8335  2.7090  1.5976
 4346SOL    HW224498   2.555   1.573   7.797  1.0915 -2.0580  0.4484
 4347SOL     OW24499   2.309   1.302  10.815  0.2917  0.1328 -0.3528
 4347SOL    HW124500   2.312   1.301  10.719  0.8662 -0.1455 -0.3321
 4347SOL    HW224501   2.253   1.225  10.829  0.3656 -0.1706 -1.7616
 4348SOL     OW24502   1.879   3.185   0.313 -0.0694  0.2936 -0.1579
 4348SOL    HW124503   1.928   3.136   0.247  0.8135  0.0443  0.6697
 4348SOL    HW224504   1.847   3.259   0.262  2.1839  0.5423 -1.1828
 4349SOL     OW24505   0.601   0.004   6.751  0.3006  0.4106 -0.4576
 4349SOL    HW124506   0.685   4.697   6.782 -0.0690 -0.0052  0.0964
 4349SOL    HW224507   0.579   0.065   6.822  0.8850  1.7171 -1.3989
 4350SOL     OW24508   0.942   2.535  15.265  0.3482 -0.3132 -0.1526
 4350SOL    HW124509   0.945   2.441  15.248 -1.5176 -0.7475  1.9727
 4350SOL    HW224510   0.956   2.531  15.360 -0.3990 -0.3905 -0.0491
 4351SOL     OW24511   3.524   3.005  15.905 -0.6601 -0.1966  0.0973
 4351SOL    HW124512   3.563   3.056  15.976  0.3490 -2.4623  1.1612
 4351SOL    HW224513   3.440   3.049  15.890 -0.4522 -1.0195 -3.4376
 4352SOL     OW24514   1.274   1.565   4.292 -0.3006 -0.0099  0.2957
 4352SOL    HW124515   1.269   1.477   4.255 -0.4218  0.1486 -0.0661
 4352SOL    HW224516   1.327   1.603   4.221  1.1425 -2.2451  0.1529
 4353SOL     OW24517   4.713   0.740   7.226 -0.0403  0.1704 -0.2993
 4353SOL    HW124518   0.079   0.741   7.204 -0.5300  3.4079 -2.2746
 4353SOL    HW224519   4.716   0.773   7.316 -1.3967  0.9754 -0.5388
 4354SOL     OW24520   4.155   2.532  11.692  0.5444  0.5119 -0.0845
 4354SOL    HW124521   4.206   2.597  11.739  1.1904  0.9700 -1.4091
 4354SOL    HW224522   4.065   2.565  11.694  0.0401 -0.5534 -3.8487
 4355SOL     OW24523   0.726   0.318   6.679 -0.4383 -1.1619  0.4129
 4355SOL    HW124524   0.716   0.273   6.595  2.0685  0.4585 -0.7784
 4355SOL    HW224525   0.745   0.407   6.648  0.5086 -2.0433 -1.5213
 4356SOL     OW24526   0.169   0.225   9.685 -0.0942  0.1782  0.2305
 4356SOL    HW124527   0.165   0.279   9.606 -0.1513 -2.2696 -1.4327
 4356SOL    HW224528   0.177   0.297   9.748 -1.8773 -0.6768  1.4490
 4357SOL     OW24529   2.940   0.135   0.792  0.2623 -0.0139  0.2555
 4357SOL    HW124530   2.928   0.042   0.773 -1.3323  0.4060 -0.7633
 4357SOL    HW224531   2.853   0.165   0.766  0.6758  1.2316  0.3198
 4358SOL     OW24532   4.422   0.043   7.763  0.1229  0.0007 -0.5326
 4358SOL    HW124533   4.331   0.058   7.791 -0.3764  0.2488 -2.3178
 4358SOL    HW224534   4.459   0.122   7.802 -1.9139 -0.6613  2.8041
 4359SOL     OW24535   1.197   0.710   0.859 -0.3625  0.0753 -0.6502
 4359SOL    HW124536   1.127   0.773   0.847 -1.7364 -0.7187  3.4154
 4359SOL    HW224537   1.199   0.663   0.775 -2.5135  0.0202 -0.6532
 4360SOL     OW24538   3.426   2.554   0.298 -0.4943  0.2820 -0.1548
 4360SOL    HW124539   3.382   2.477   0.334  0.1544  0.8905  1.9399
 4360SOL    HW224540   3.454   2.515   0.216  2.3737 -0.3108  1.0955
 4361SOL     OW24541   4.060   0.510   8.065 -0.1138  0.1070  0.1362
 4361SOL    HW124542   4.101   0.489   8.149 -1.6958 -0.1656  0.8443
 4361SOL    HW224543   3.983   0.455   8.078 -0.6168  0.7293 -0.2351
 4362SOL     OW24544   3.964   4.347   2.746 -0.2003 -0.2259 -0.3539
 4362SOL    HW124545   4.040   4.329   2.801 -0.6362  1.7553  0.8760
 4362SOL    HW224546   3.961   4.442   2.741 -1.6332 -0.2855 -0.6578
 4363SOL     OW24547   2.095   4.553  11.913  0.1727 -0.1423 -0.2021
 4363SOL    HW124548   2.149   4.481  11.880  1.3136  0.1079  1.0916
 4363SOL    HW224549   2.128   4.612  11.846 -1.7134  2.0585  0.7858
 4364SOL     OW24550   1.526   3.977   7.666 -0.2422  0.0767  0.3564
 4364SOL    HW124551   1.537   3.909   7.598  1.2578  1.8923 -1.2239
 4364SOL    HW224552   1.566   3.934   7.742 -0.1493  2.3307  1.5569
 4365SOL     OW24553   2.675   1.051   8.076 -0.1613  0.4118 -0.2617
 4365SOL    HW124554   2.703   0.968   8.037 -0.0804  0.3714 -0.1156
 4365SOL    HW224555   2.714   1.108   8.009 -0.9525  1.0806 -0.1529
 4366SOL     OW24556   3.577   2.472   6.974 -0.0615  0.4868 -0.3508
 4366SOL    HW124557   3.645   2.426   6.926  1.1885 -1.1551  3.0479
 4366SOL    HW224558   3.602   2.484   7.065 -0.0781 -2.6520  0.0520
 4367SOL     OW24559   0.256   2.697   7.982 -0.2968 -0.4252 -0.0134
 4367SOL    HW124560   0.199   2.621   7.965 -0.0450 -0.4786 -0.6273
 4367SOL    HW224561   0.188   2.760   7.958  1.3662  1.2145 -0.3553
 4368SOL     OW24562   0.541   3.906   4.616 -0.9036  0.3667  0.0725
 4368SOL    HW124563   0.464   3.961   4.600 -0.3788  0.8279 -0.8386
 4368SOL    HW224564   0.564   3.935   4.705 -0.1324 -1.6425  0.5250
 4369SOL     OW24565   3.011   1.539   6.235  0.6809  0.4185 -0.0527
 4369SOL    HW124566   3.012   1.581   6.149  0.8791 -1.7850 -1.1215
 4369SOL    HW224567   2.932   1.486   6.228  0.3578  0.8108  0.6247
 4370SOL     OW24568   4.547   0.721   8.914 -0.1820 -0.1615 -0.1143
 4370SOL    HW124569   4.458   0.699   8.885 -0.1834  1.1063 -1.0542
 4370SOL    HW224570   4.576   0.643   8.962 -0.2118 -0.3425 -0.3915
 4371SOL     OW24571   3.830   3.031  17.686 -0.6007  0.3149 -0.1945
 4371SOL    HW124572   3.787   2.966  17.631 -0.8993 -0.3261  0.7880
 4371SOL    HW224573   3.873   2.968   0.038  0.2510 -1.8118 -3.1266
 4372SOL     OW24574   2.069   3.587   4.231  0.1589 -0.1943 -0.2503
 4372SOL    HW124575   2.033   3.532   4.301  0.2530 -0.1262 -0.1477
 4372SOL    HW224576   2.047   3.527   4.160  1.9172 -0.9625 -0.1429
 4373SOL     OW24577   0.503   2.018  15.442 -0.1075 -0.5518 -0.2297
 4373SOL    HW124578   0.471   2.040  15.354  1.0821 -0.9069 -0.7453
 4373SOL    HW224579   0.568   1.952  15.418 -0.2947 -0.5041 -0.8759
 4374SOL     OW24580   4.142   0.361   6.746  0.2357 -1.0349 -0.1691
 4374SOL    HW124581   4.126   0.308   6.668  3.6278  0.2559 -1.7662
 4374SOL    HW224582   4.055   0.360   6.785  0.6611 -1.2652  0.7745
 4375SOL     OW24583   4.469   0.042   3.578 -0.3311 -0.1653 -0.4816
 4375SOL    HW124584   4.456   0.045   3.483  1.2773 -1.8348 -0.7406
 4375SOL    HW224585   4.504   0.129   3.594  0.7020 -0.5660 -0.5374
 4376SOL     OW24586   1.835   2.580  13.453 -0.2239  0.8248  0.1991
 4376SOL    HW124587   1.809   2.669  13.479  1.2672  1.4394 -0.3514
 4376SOL    HW224588   1.874   2.587  13.366 -0.5318  1.6032  0.1234
 4377SOL     OW24589   3.431   2.594   5.039  0.3744 -0.9004 -0.0308
 4377SOL    HW124590   3.479   2.568   5.118  0.1130  2.2690  1.1875
 4377SOL    HW224591   3.377   2.517   5.021 -0.3985 -0.0219 -1.4676
 4378SOL     OW24592   3.953   1.064  13.980 -0.1018  0.1240  0.3761
 4378SOL    HW124593   3.921   1.140  13.932 -0.3048  1.0209  1.9270
 4378SOL    HW224594   3.908   1.069  14.064 -1.2170  0.8523 -0.2750
 4379SOL     OW24595   4.678   0.049   3.110 -0.2058  0.1684 -0.4320
 4379SOL    HW124596   0.022   4.711   3.118  1.0055  2.0160  3.9045
 4379SOL    HW224597   4.707   0.098   3.034 -0.1750 -0.1889 -0.6480
 4380SOL     OW24598   1.351   0.943   8.145  0.3135 -0.0052 -0.3682
 4380SOL    HW124599   1.404   0.865   8.158 -0.6577 -0.5170  0.5684
 4380SOL    HW224600   1.266   0.900   8.140 -0.0359  0.3824  2.0462
 4381SOL     OW24601   4.299   1.658   4.167  0.2838 -0.1243  0.0075
 4381SOL    HW124602   4.339   1.575   4.191 -0.3528 -0.6766 -0.8735
 4381SOL    HW224603   4.378   1.712   4.160  0.7706 -0.7215  0.9235
 4382SOL     OW24604   0.285   3.841   5.471 -0.3833  0.0226 -0.3829
 4382SOL    HW124605   0.260   3.830   5.380 -0.5351 -0.9967 -0.2213
 4382SOL    HW224606   0.194   3.837   5.502 -0.2946  0.0189 -0.1192
 4383SOL     OW24607   2.230   0.375   6.910 -0.2965  0.0390  0.1177
 4383SOL    HW124608   2.183   0.457   6.892  1.2400  0.7403 -0.7253
 4383SOL    HW224609   2.266   0.366   6.822  0.9643  0.0076  0.6295
 4384SOL     OW24610   0.067   0.052   8.904 -0.5944  0.1047  0.3473
 4384SOL    HW124611   4.699   0.069   8.900 -0.8319 -1.4209 -0.6810
 4384SOL    HW224612   0.099   0.101   8.827 -1.2022 -1.6571 -1.0318
 4385SOL     OW24613   4.214   0.728   2.134 -0.5980  0.3658 -0.2384
 4385SOL    HW124614   4.138   0.710   2.078 -1.6531  1.4667  0.8672
 4385SOL    HW224615   4.225   0.640   2.170 -2.8415 -0.1119 -0.7256
 4386SOL     OW24616   2.476   2.043  11.619 -0.1657 -1.0865  0.1808
 4386SOL    HW124617   2.408   2.096  11.577  1.0037  1.8900  2.0745
 4386SOL    HW224618   2.476   1.964  11.565  2.4166 -1.0059  0.0276
 4387SOL     OW24619   1.541   1.381   6.124  0.1304 -0.3263  0.2878
 4387SOL    HW124620   1.522   1.472   6.104  0.8738 -0.4421 -0.9895
 4387SOL    HW224621   1.451   1.352   6.135  0.3631 -2.9305 -4.7460
 4388SOL     OW24622   3.567   1.504   3.284  0.2641 -0.0405 -0.3209
 4388SOL    HW124623   3.515   1.423   3.287 -1.3789  1.0655  0.9110
 4388SOL    HW224624   3.624   1.481   3.211  0.7748 -1.8839  0.6510
 4389SOL     OW24625   2.991   3.348   5.379 -0.1206 -0.2308  0.2189
 4389SOL    HW124626   2.963   3.439   5.393  1.2034  0.3383 -0.8044
 4389SOL    HW224627   2.910   3.314   5.342 -1.0871  0.0613  2.1152
 4390SOL     OW24628   0.829   0.328   5.600  0.2464 -0.5458 -0.7162
 4390SOL    HW124629   0.754   0.372   5.639  2.1712 -0.5479  2.9864
 4390SOL    HW224630   0.856   0.285   5.681 -0.1503  1.4663  0.4776
 4391SOL     OW24631   2.717   2.182   5.212  0.3369 -0.2759 -0.4414
 4391SOL    HW124632   2.640   2.165   5.158 -1.1051  2.1169  0.8536
 4391SOL    HW224633   2.750   2.095   5.235  1.4530 -0.1440 -1.5592
 4392SOL     OW24634   3.715   2.986   3.819 -0.2306  0.0927  0.4385
 4392SOL    HW124635   3.667   3.035   3.886  1.5413  1.5333  0.6623
 4392SOL    HW224636   3.802   3.022   3.834  0.3877 -1.0755 -0.3706
 4393SOL     OW24637   3.021   2.173   9.419  0.5054  0.9731 -0.1237
 4393SOL    HW124638   3.006   2.089   9.463 -1.1346  0.8269 -0.9570
 4393SOL    HW224639   2.977   2.237   9.475  1.5341  3.2104 -1.8802
 4394SOL     OW24640   1.523   0.150   6.091  0.3688 -0.5451 -0.5430
 4394SOL    HW124641   1.447   0.093   6.102  0.2281  0.0939  1.8358
 4394SOL    HW224642   1.575   0.110   6.161 -1.2091 -3.6831 -1.1631
 4395SOL     OW24643   3.460   1.356   4.986 -0.2183 -0.6721  0.2805
 4395SOL    HW124644   3.504   1.342   4.902  0.8507  1.1068  0.5478
 4395SOL    HW224645   3.377   1.311   4.974 -1.6767  1.9813  0.6239
 4396SOL     OW24646   4.034   2.452   6.410  0.3746 -0.1698  0.4937
 4396SOL    HW124647   4.046   2.360   6.431  2.6582  0.0618  0.2191
 4396SOL    HW224648   3.963   2.438   6.347  1.2763 -2.4209 -0.0136
 4397SOL     OW24649   2.036   3.760   7.537  0.6548 -0.3421 -0.1699
 4397SOL    HW124650   2.039   3.749   7.442 -0.1290 -1.1756 -0.0921
 4397SOL    HW224651   2.022   3.675   7.577 -1.7192  0.0356 -0.2070
 4398SOL     OW24652   3.817   0.646   7.629 -0.8833 -0.6636 -0.5554
 4398SOL    HW124653   3.900   0.636   7.581 -0.4823 -2.0572  0.4411
 4398SOL    HW224654   3.784   0.726   7.588  1.9664  1.4982  1.3572
 4399SOL     OW24655   4.217   2.962  17.418 -0.1976 -0.4855  0.7200
 4399SOL    HW124656   4.152   3.014  17.370  0.0674 -0.7730  0.0486
 4399SOL    HW224657   4.183   2.873  17.418  1.3965 -1.0937 -1.1764
 4400SOL     OW24658   3.879   4.281   6.976  0.0217 -0.2728 -0.1149
 4400SOL    HW124659   3.864   4.277   7.071 -0.0462 -2.3229 -0.2090
 4400SOL    HW224660   3.786   4.271   6.957 -0.2849 -0.8878  1.6672
 4401SOL     OW24661   0.913   1.523  16.740 -0.0766  0.4224 -0.1316
 4401SOL    HW124662   0.853   1.574  16.686  1.4756  0.3405 -1.9482
 4401SOL    HW224663   0.926   1.450  16.679  1.6268  0.0773  0.6317
 4402SOL     OW24664   3.647   0.444   0.261  0.5547 -0.4368  0.4564
 4402SOL    HW124665   3.654   0.528   0.215  0.5281  0.6684  2.4813
 4402SOL    HW224666   3.563   0.455   0.305 -0.1047 -1.2275 -0.6155
 4403SOL     OW24667   2.154   3.047   1.836 -0.5681  0.0799  0.7817
 4403SOL    HW124668   2.118   3.113   1.776 -1.3328  1.3194  2.5947
 4403SOL    HW224669   2.170   2.964   1.792  0.1946  0.1041  1.0139
 4404SOL     OW24670   4.638   0.923  15.550 -0.1544 -0.0643  0.3886
 4404SOL    HW124671   4.565   0.947  15.607 -0.5415 -1.5450  0.5025
 4404SOL    HW224672   4.605   0.958  15.467  1.8499 -2.1869 -1.3037
 4405SOL     OW24673   2.490   4.458   8.853 -0.0516 -0.2767 -0.0694
 4405SOL    HW124674   2.443   4.375   8.842 -1.1132  0.3792 -0.5349
 4405SOL    HW224675   2.473   4.477   8.945  2.9784  1.2691  0.1690
 4406SOL     OW24676   3.899   2.000  14.296 -1.2635  0.3483  0.3076
 4406SOL    HW124677   3.812   1.999  14.258 -1.0431 -0.7292 -0.1692
 4406SOL    HW224678   3.880   2.032  14.384  2.7755  2.1946  0.5273
 4407SOL     OW24679   4.697   1.819  12.678  0.3893  0.1044 -0.0811
 4407SOL    HW124680   0.050   1.834  12.731  0.5598  0.3013 -0.3918
 4407SOL    HW224681   0.013   1.808  12.593  0.4846 -0.3106  0.0212
 4408SOL     OW24682   3.821   4.298  11.798 -0.1042  0.1721 -0.1123
 4408SOL    HW124683   3.793   4.304  11.890 -0.9795  0.5159 -0.4075
 4408SOL    HW224684   3.768   4.226  11.764 -0.3618 -1.2863  3.3520
 4409SOL     OW24685   4.412   0.563   2.840  0.2856  0.3364 -0.3829
 4409SOL    HW124686   4.352   0.595   2.907  1.8472 -0.0780  1.2126
 4409SOL    HW224687   4.348   0.531   2.777  0.6623  0.1351 -0.6595
 4410SOL     OW24688   2.310   1.809   5.937  0.3364 -0.3325 -0.0007
 4410SOL    HW124689   2.287   1.754   5.862 -1.0701 -0.5686  0.5995
 4410SOL    HW224690   2.400   1.832   5.916  1.4222 -1.5729  3.3794
 4411SOL     OW24691   3.174   4.532   8.902  0.0413 -0.4889  0.2488
 4411SOL    HW124692   3.082   4.505   8.899 -0.1516  0.1697  0.2408
 4411SOL    HW224693   3.180   4.520   8.997 -0.3487 -1.5338  0.1440
 4412SOL     OW24694   1.606   1.641  14.050 -0.0622 -0.0419 -0.1078
 4412SOL    HW124695   1.521   1.629  14.093  0.6532 -0.2531  1.2168
 4412SOL    HW224696   1.649   1.556  14.055  1.7177  1.1271  3.7176
 4413SOL     OW24697   3.857   1.684  17.157 -0.1700  0.2424 -0.7758
 4413SOL    HW124698   3.800   1.622  17.203  0.2491  0.7247  0.4015
 4413SOL    HW224699   3.835   1.765  17.202  1.1318  0.0555  0.2211
 4414SOL     OW24700   3.406   1.522   5.812 -0.4625 -0.1164  0.1751
 4414SOL    HW124701   3.395   1.529   5.907 -0.7885 -1.8416  0.2569
 4414SOL    HW224702   3.435   1.431   5.805  1.5775  0.5382  0.0810
 4415SOL     OW24703   0.085   0.774   9.296 -0.0392  0.1965 -0.1660
 4415SOL    HW124704   0.077   0.807   9.385 -2.0313 -0.1879 -0.2055
 4415SOL    HW224705   0.005   0.721   9.294  1.1880 -1.6170 -0.7614
 4416SOL     OW24706   1.805   4.437   1.656  0.6472  0.6962  0.0645
 4416SOL    HW124707   1.748   4.481   1.719 -0.0410 -2.6185  1.7901
 4416SOL    HW224708   1.818   4.353   1.701  0.8997  0.4511 -0.4603
 4417SOL     OW24709   0.543   2.730  10.869  0.4874 -0.2175 -0.3895
 4417SOL    HW124710   0.568   2.671  10.940 -1.6518  0.3877  0.8665
 4417SOL    HW224711   0.548   2.667  10.796  0.7640 -0.1499 -0.4276
 4418SOL     OW24712   2.604   0.845   7.327  0.6128  0.5666 -0.0934
 4418SOL    HW124713   2.660   0.820   7.401  0.4545  0.4952  0.0022
 4418SOL    HW224714   2.539   0.775   7.323 -0.9141  2.0311 -1.4614
 4419SOL     OW24715   0.306   3.348   1.408  0.0796  0.2846  0.4285
 4419SOL    HW124716   0.366   3.369   1.480  1.9230  1.4967 -1.4180
 4419SOL    HW224717   0.363   3.387   1.341  1.1010  0.0087  1.1394
 4420SOL     OW24718   1.524   4.558   6.831  0.5116  0.1590  0.2439
 4420SOL    HW124719   1.540   4.505   6.909 -0.5755  0.1025  0.4243
 4420SOL    HW224720   1.522   4.648   6.863  0.8153  0.1274  0.3544
 4421SOL     OW24721   1.039   2.765  15.199 -0.3125  0.4704 -0.4246
 4421SOL    HW124722   1.004   2.676  15.188  0.3238 -0.0026  1.4959
 4421SOL    HW224723   0.974   2.795  15.262  0.6757 -2.0034  1.7697
 4422SOL     OW24724   3.098   4.382  17.540  0.1852  0.0404  0.5098
 4422SOL    HW124725   3.126   4.383  17.448  0.5625  1.1982  0.6375
 4422SOL    HW224726   3.167   4.436  17.578  2.1105 -0.1118 -2.7660
 4423SOL     OW24727   0.944   1.072   8.206 -0.3127  0.4001 -0.0697
 4423SOL    HW124728   0.941   1.038   8.296 -0.9961  2.5933  0.7394
 4423SOL    HW224729   0.911   0.991   8.169  0.6292 -0.2253  0.4451
 4424SOL     OW24730   2.227   4.104   7.306 -0.0382 -0.2942 -0.0205
 4424SOL    HW124731   2.296   4.100   7.371  0.2174 -0.0592 -0.2786
 4424SOL    HW224732   2.237   4.194   7.273 -3.8285  0.4437  0.7768
 4425SOL     OW24733   0.946   0.554   3.768 -0.0027  0.3918 -0.1290
 4425SOL    HW124734   1.019   0.600   3.727 -0.7593  0.6907 -1.1538
 4425SOL    HW224735   0.983   0.466   3.781 -0.2302  0.3926  0.4945
 4426SOL     OW24736   3.750   3.080  15.084  0.4544 -0.2228 -0.0847
 4426SOL    HW124737   3.721   3.160  15.040  0.3053 -0.8515 -1.1319
 4426SOL    HW224738   3.775   3.018  15.014  2.1590 -0.1356  0.4368
 4427SOL     OW24739   3.769   2.430   3.337  0.1668 -0.0633 -0.1758
 4427SOL    HW124740   3.711   2.496   3.375  0.2970  0.7603 -1.4183
 4427SOL    HW224741   3.756   2.364   3.405 -1.9723  1.2892  0.7364
 4428SOL     OW24742   3.985   2.103   2.833  0.0404  0.1605 -0.3969
 4428SOL    HW124743   4.068   2.149   2.828  0.8577 -1.1675  0.8197
 4428SOL    HW224744   3.973   2.089   2.739 -0.2970 -3.4824  0.1838
 4429SOL     OW24745   1.318   1.268   8.248  0.0085 -0.5249  0.3669
 4429SOL    HW124746   1.228   1.283   8.219  0.4323  3.6640  1.1783
 4429SOL    HW224747   1.346   1.200   8.187  2.3217  1.8117 -1.1876
 4430SOL     OW24748   4.174   1.173   6.902  0.1407  0.0349  0.1959
 4430SOL    HW124749   4.099   1.121   6.871  0.7148 -0.6814  0.0049
 4430SOL    HW224750   4.170   1.255   6.853  1.1674  0.4524  0.8199
 4431SOL     OW24751   3.612   1.574   2.626  0.3359 -0.1637 -0.0588
 4431SOL    HW124752   3.665   1.617   2.693  1.0516 -1.0790 -0.0484
 4431SOL    HW224753   3.664   1.601   2.550  1.4528 -0.8895  0.4526
 4432SOL     OW24754   2.242   1.195   4.716  0.0477 -0.4133  0.0064
 4432SOL    HW124755   2.160   1.225   4.677  0.0350  1.6235  1.5868
 4432SOL    HW224756   2.211   1.112   4.750  2.3009 -0.8833  0.9370
 4433SOL     OW24757   1.339   0.307   7.755  0.0251  0.4316  0.5002
 4433SOL    HW124758   1.375   0.351   7.678 -0.8472 -0.0560 -0.1834
 4433SOL    HW224759   1.321   0.384   7.809 -0.2444  1.4394 -1.0333
 4434SOL     OW24760   2.317   3.295  14.408 -0.1638  0.3290  0.2272
 4434SOL    HW124761   2.326   3.211  14.451  0.4731 -0.2710 -1.0550
 4434SOL    HW224762   2.405   3.331  14.421 -0.8507  0.9649  2.9379
 4435SOL     OW24763   2.646   2.682   2.793 -0.6121  0.6200 -0.3232
 4435SOL    HW124764   2.680   2.617   2.732  0.4067  2.9174 -2.1986
 4435SOL    HW224765   2.611   2.744   2.729  1.4325  3.3716  1.2334
 4436SOL     OW24766   3.685   3.532   8.974 -0.2031  0.2363  0.0094
 4436SOL    HW124767   3.660   3.475   8.902  0.6994  0.5284 -0.5384
 4436SOL    HW224768   3.614   3.505   9.032  2.7287 -2.3834  2.4068
 4437SOL     OW24769   3.515   4.168   3.297  0.4610 -0.2165 -0.0089
 4437SOL    HW124770   3.453   4.165   3.225  0.2823  0.5134  0.1102
 4437SOL    HW224771   3.535   4.076   3.313 -1.1140 -0.9497 -2.2633
 4438SOL     OW24772   3.018   4.301   9.066  0.4674 -0.1026  0.0616
 4438SOL    HW124773   2.958   4.363   9.024  0.9536  1.4772  1.6901
 4438SOL    HW224774   3.051   4.249   8.992  1.2306  1.5721 -0.7806
 4439SOL     OW24775   4.633   4.403  13.956  0.0135  0.2711  0.1690
 4439SOL    HW124776   4.578   4.345  14.009 -0.0552  0.4205  0.2591
 4439SOL    HW224777   4.722   4.405  13.990 -0.2233  1.1367  0.7288
 4440SOL     OW24778   4.396   4.180  14.438 -0.2372 -0.2570 -0.2295
 4440SOL    HW124779   4.324   4.227  14.479  1.2263  1.0368  0.8643
 4440SOL    HW224780   4.360   4.163  14.351  1.6860 -0.8283 -0.9202
 4441SOL     OW24781   2.876   4.509   2.380 -0.5176 -0.1297  0.0460
 4441SOL    HW124782   2.948   4.572   2.381 -1.1353  0.6056 -1.7876
 4441SOL    HW224783   2.920   4.425   2.394  0.6447  0.0597 -2.4061
 4442SOL     OW24784   0.553   4.586   0.956  0.0986  0.2407  0.4771
 4442SOL    HW124785   0.484   4.638   0.996  0.0706 -0.1054  0.8761
 4442SOL    HW224786   0.627   4.647   0.956 -0.1816  0.5782  1.0398
 4443SOL     OW24787   1.364   1.201   5.473  0.4529  0.2384 -0.3696
 4443SOL    HW124788   1.364   1.178   5.380 -0.1788  0.2169 -0.3673
 4443SOL    HW224789   1.428   1.141   5.510 -0.6827 -1.3464 -0.9799
 4444SOL     OW24790   3.540   4.312   1.664  0.9490  0.2818 -0.3060
 4444SOL    HW124791   3.538   4.376   1.593  1.3047  0.3910 -0.2203
 4444SOL    HW224792   3.517   4.368   1.738  0.0026  0.3096 -0.6195
 4445SOL     OW24793   1.587   3.133   2.888 -0.0406 -0.4513 -0.1297
 4445SOL    HW124794   1.556   3.188   2.960 -0.7624 -3.5219  1.9062
 4445SOL    HW224795   1.610   3.195   2.819  1.3324 -1.4117 -0.5405
 4446SOL     OW24796   0.727   1.196  13.823 -0.0004 -0.3446  0.2992
 4446SOL    HW124797   0.688   1.237  13.900  0.3066 -0.9034  0.7600
 4446SOL    HW224798   0.747   1.112  13.866 -0.9185  0.1956  1.7951
 4447SOL     OW24799   2.296   2.337   1.011 -0.2734 -0.1988  0.0867
 4447SOL    HW124800   2.222   2.345   1.071 -0.4819  1.1072 -0.3567
 4447SOL    HW224801   2.294   2.419   0.962 -1.6409  1.2499  2.5648
 4448SOL     OW24802   1.548   2.825   3.214 -0.1948 -0.2058  0.1738
 4448SOL    HW124803   1.586   2.737   3.213  1.3828  0.4553  1.6965
 4448SOL    HW224804   1.456   2.807   3.194  0.2664 -2.5084  0.0712
 4449SOL     OW24805   1.909   2.152  16.416  0.2800  0.6472 -0.3469
 4449SOL    HW124806   1.875   2.090  16.352 -1.6119  0.5064  0.7936
 4449SOL    HW224807   1.958   2.079  16.455  1.1999  2.0269  1.1117
 4450SOL     OW24808   1.191   4.235  11.004 -0.1324  0.2561 -0.1215
 4450SOL    HW124809   1.152   4.223  10.917 -0.3421 -0.5478  0.0830
 4450SOL    HW224810   1.214   4.328  11.008 -1.5601  0.5811  0.3806
 4451SOL     OW24811   1.465   2.948   2.373  0.4113 -0.1558 -0.0144
 4451SOL    HW124812   1.514   2.932   2.453 -0.7587  1.7045  1.0696
 4451SOL    HW224813   1.514   3.025   2.343 -0.5796  0.4234 -0.1538
 4452SOL     OW24814   3.446   0.885   1.473 -0.1933  0.0161  0.0863
 4452SOL    HW124815   3.382   0.886   1.544 -0.7148 -2.2619 -0.3646
 4452SOL    HW224816   3.400   0.937   1.408  1.6939  0.9463 -0.5023
 4453SOL     OW24817   4.403   4.200  10.491  0.4427  0.6478  0.2355
 4453SOL    HW124818   4.425   4.145  10.567 -2.0927 -0.1513  0.3844
 4453SOL    HW224819   4.425   4.282  10.536  0.4602  0.9906 -0.4066
 4454SOL     OW24820   3.225   1.171   1.024 -0.2521 -0.1989 -0.7409
 4454SOL    HW124821   3.166   1.238   1.058 -0.8885 -1.1008 -0.0861
 4454SOL    HW224822   3.258   1.216   0.946  2.0218  1.0816  0.9347
 4455SOL     OW24823   0.577   3.514   4.942  0.5470  0.0801 -0.4788
 4455SOL    HW124824   0.573   3.532   5.036 -0.3577  0.9414 -0.6773
 4455SOL    HW224825   0.573   3.604   4.909 -0.1554 -0.6788 -2.4597
 4456SOL     OW24826   2.507   2.453  12.391  0.2097  0.4023 -0.0241
 4456SOL    HW124827   2.543   2.417  12.311 -0.6465  2.7188 -1.4418
 4456SOL    HW224828   2.447   2.522  12.363  0.5910 -0.0077 -1.8583
 4457SOL     OW24829   2.794   4.685   5.107 -0.1055  0.0991 -0.2046
 4457SOL    HW124830   2.776   4.686   5.013 -1.2340  0.9727  0.0265
 4457SOL    HW224831   2.732   4.621   5.142 -0.5972  0.0884 -1.0901
 4458SOL     OW24832   0.809   3.704   8.991  0.0599  0.5435 -0.0217
 4458SOL    HW124833   0.876   3.658   9.042 -0.1036  1.1013  0.7079
 4458SOL    HW224834   0.765   3.637   8.941  1.4150 -0.3711 -0.0034
 4459SOL     OW24835   0.284   1.076  13.716 -0.0458 -0.2089 -0.2462
 4459SOL    HW124836   0.192   1.074  13.742  0.1527 -1.5693  0.3524
 4459SOL    HW224837   0.277   1.070  13.621 -0.9820 -1.1551 -0.1189
 4460SOL     OW24838   3.654   4.612   4.736 -0.1666 -0.2547  0.1303
 4460SOL    HW124839   3.680   4.576   4.651 -0.2680  0.6935 -0.3080
 4460SOL    HW224840   3.660   4.539   4.798  3.5680  1.0601  1.3226
 4461SOL     OW24841   0.627   3.501   3.075 -0.1833 -0.2820  0.0108
 4461SOL    HW124842   0.653   3.591   3.097 -1.7477  0.3271 -0.6402
 4461SOL    HW224843   0.547   3.489   3.126  1.1488 -0.7115  2.0002
 4462SOL     OW24844   4.536   3.276   7.496 -0.0013  0.2525  0.4723
 4462SOL    HW124845   4.466   3.255   7.434 -0.1479  1.4115  0.2449
 4462SOL    HW224846   4.618   3.275   7.446 -1.6104  0.6324 -2.1833
 4463SOL     OW24847   1.821   3.106   7.510 -0.3215  0.5754  0.6961
 4463SOL    HW124848   1.822   3.070   7.421 -0.9886  0.2101  0.8277
 4463SOL    HW224849   1.902   3.077   7.552  0.7590 -0.6599 -2.2214
 4464SOL     OW24850   4.180   1.712   6.512 -0.1112  0.0213  0.2201
 4464SOL    HW124851   4.237   1.784   6.536  0.1863 -0.4543  0.9416
 4464SOL    HW224852   4.187   1.722   6.417 -0.9737 -1.0309  0.0383
 4465SOL     OW24853   0.548   2.393  15.182 -0.1929 -0.6556  0.0092
 4465SOL    HW124854   0.525   2.387  15.089 -0.4235 -1.7745  0.1422
 4465SOL    HW224855   0.587   2.481  15.179 -0.7161 -0.3285  3.1475
 4466SOL     OW24856   3.300   1.010   8.460 -0.8368  0.6393 -0.3215
 4466SOL    HW124857   3.330   0.926   8.425  0.0135  1.7341 -2.2189
 4466SOL    HW224858   3.373   1.064   8.431 -0.7013  0.1390 -0.9139
 4467SOL     OW24859   2.123   3.592   8.993  0.3524  0.1620  0.0859
 4467SOL    HW124860   2.060   3.658   9.023  0.9954  0.8510 -0.0764
 4467SOL    HW224861   2.103   3.587   8.899 -0.5365  3.8812  0.0879
 4468SOL     OW24862   1.539   2.484  12.154 -0.2056  0.0212  0.3397
 4468SOL    HW124863   1.505   2.397  12.135 -0.5841  0.0709  0.7787
 4468SOL    HW224864   1.632   2.481  12.130 -0.5459 -0.9678 -0.8562
 4469SOL     OW24865   2.109   0.044   5.852  1.0624  0.2155 -0.2742
 4469SOL    HW124866   2.155   0.128   5.854  0.6549  0.4814 -2.1994
 4469SOL    HW224867   2.150   4.724   5.779  1.3699  0.5076 -0.2864
 4470SOL     OW24868   1.597   3.903  13.585  0.2878 -0.8578 -0.3321
 4470SOL    HW124869   1.566   3.992  13.603 -0.1681 -0.6418 -2.0953
 4470SOL    HW224870   1.561   3.851  13.656  1.0122  0.5164  1.0485
 4471SOL     OW24871   0.354   1.398   7.333 -0.4441  0.4369  0.6417
 4471SOL    HW124872   0.422   1.464   7.348  0.0754 -0.2637  1.4000
 4471SOL    HW224873   0.358   1.406   7.238 -0.2371  3.2032  0.8991
 4472SOL     OW24874   2.822   0.143   9.144  0.0629  0.0371 -0.1644
 4472SOL    HW124875   2.859   0.056   9.153 -0.4206 -0.2371 -0.8134
 4472SOL    HW224876   2.737   0.133   9.187  0.4692 -1.7478  0.2042
 4473SOL     OW24877   1.778   2.235   6.702  0.0625  0.7114 -0.6669
 4473SOL    HW124878   1.749   2.324   6.722 -1.0066  0.5751 -1.6365
 4473SOL    HW224879   1.866   2.255   6.672  0.2182 -1.7897 -1.9000
 4474SOL     OW24880   4.246   1.607   1.728 -0.0358  0.4079 -0.1343
 4474SOL    HW124881   4.214   1.594   1.639 -0.0396 -3.3759  0.4471
 4474SOL    HW224882   4.251   1.519   1.764 -1.4183 -0.6376 -2.4704
 4475SOL     OW24883   0.991   4.605  13.794 -0.1130 -0.1933 -0.2454
 4475SOL    HW124884   0.985   4.569  13.706  1.2895 -0.8627 -0.0679
 4475SOL    HW224885   0.953   4.530  13.839 -0.9146  0.5199  0.2681
 4476SOL     OW24886   0.466   2.643   5.822  0.3837  0.0018  0.6256
 4476SOL    HW124887   0.414   2.687   5.889  1.5937 -1.0407  2.2357
 4476SOL    HW224888   0.396   2.619   5.760  2.8191 -3.3572 -0.7899
 4477SOL     OW24889   4.001   3.015   9.022  0.1179  0.0422  0.1368
 4477SOL    HW124890   3.934   3.075   9.052  0.3843  0.4377 -0.0620
 4477SOL    HW224891   3.963   2.928   9.035 -0.6519  0.7287  2.4548
 4478SOL     OW24892   2.863   1.075   0.779  0.0920  0.6861 -0.2974
 4478SOL    HW124893   2.806   1.074   0.856 -0.6413  0.9927 -0.8424
 4478SOL    HW224894   2.893   0.985   0.793  1.2987  1.0080 -0.7616
 4479SOL     OW24895   4.077   3.335   7.606  0.2082 -0.8916 -1.0909
 4479SOL    HW124896   4.095   3.386   7.684 -1.9749  0.2548 -1.3278
 4479SOL    HW224897   3.985   3.317   7.626  0.2482 -1.1282 -1.1168
 4480SOL     OW24898   3.173   3.036   7.182 -0.3378  0.0171  0.3129
 4480SOL    HW124899   3.098   3.049   7.239 -1.8281 -1.6965 -1.2594
 4480SOL    HW224900   3.245   3.059   7.241 -1.4950 -0.9342  2.1227
 4481SOL     OW24901   2.730   3.834   6.413 -0.1804  0.0339  0.3066
 4481SOL    HW124902   2.750   3.747   6.379 -0.2364 -0.9047  2.6481
 4481SOL    HW224903   2.652   3.846   6.359 -0.5824 -0.9265  0.6776
 4482SOL     OW24904   0.032   0.010  15.827 -0.2485 -0.2434 -0.1966
 4482SOL    HW124905   0.067   4.673  15.764  0.0132 -1.7256  1.4237
 4482SOL    HW224906   0.089   4.713  15.901 -0.7595  1.4040  0.7026
 4483SOL     OW24907   2.356   3.300  12.556  0.1748 -0.7059 -0.1852
 4483SOL    HW124908   2.415   3.244  12.505 -0.4515 -1.5110 -0.0254
 4483SOL    HW224909   2.389   3.379  12.514  2.1030 -0.2649  2.1598
 4484SOL     OW24910   1.258   2.985  15.239 -0.1495  0.3754  0.3174
 4484SOL    HW124911   1.327   2.950  15.294 -0.8628  0.6512  1.3952
 4484SOL    HW224912   1.188   2.993  15.304 -1.2708  0.3829 -0.8747
 4485SOL     OW24913   4.206   3.436   6.874  0.1097 -0.3437  0.0782
 4485SOL    HW124914   4.128   3.388   6.900  0.7339 -1.0842  0.5621
 4485SOL    HW224915   4.205   3.444   6.778  0.7147  1.9824  0.2506
 4486SOL     OW24916   3.565   3.531  11.277  0.4513 -0.1944 -1.0160
 4486SOL    HW124917   3.508   3.603  11.248 -0.5395 -0.2851  0.7263
 4486SOL    HW224918   3.618   3.580  11.340 -1.2776  1.6392 -0.9726
 4487SOL     OW24919   0.666   3.031   1.487  0.3940 -0.4375  0.4657
 4487SOL    HW124920   0.700   2.944   1.464 -0.1065  0.1993 -2.6903
 4487SOL    HW224921   0.719   3.087   1.430  0.2779  1.4851  2.2952
 4488SOL     OW24922   3.273   4.157   2.348 -0.3260  0.0948  0.2433
 4488SOL    HW124923   3.265   4.091   2.417 -0.3656  0.9930  1.0941
 4488SOL    HW224924   3.336   4.119   2.287 -1.3180  2.2962 -2.1693
 4489SOL     OW24925   1.989   3.643   7.264  0.0837  0.3198 -0.5622
 4489SOL    HW124926   2.050   3.589   7.213  1.9695  1.1134  0.8430
 4489SOL    HW224927   1.952   3.585   7.330  1.2687 -1.2135 -1.2294
 4490SOL     OW24928   0.624   3.388   6.475  0.0478 -0.5896 -0.0299
 4490SOL    HW124929   0.565   3.341   6.534  0.0550 -0.1895  0.2949
 4490SOL    HW224930   0.694   3.323   6.468  0.3420 -0.5727  2.6731
 4491SOL     OW24931   2.339   1.036   5.058  0.0079 -0.3181  0.0566
 4491SOL    HW124932   2.381   1.113   5.097  0.7420 -0.8212  0.2625
 4491SOL    HW224933   2.420   0.994   5.028  0.3436 -1.3620  2.3390
 4492SOL     OW24934   2.301   2.868   5.141  0.2913  0.4053  0.0335
 4492SOL    HW124935   2.227   2.888   5.084  0.1061  1.9539  0.8282
 4492SOL    HW224936   2.343   2.953   5.155  1.6067 -0.2410 -0.0103
 4493SOL     OW24937   0.591   3.790   5.758  0.6143  0.2139 -0.2477
 4493SOL    HW124938   0.499   3.770   5.773  0.6759  0.6229  0.7064
 4493SOL    HW224939   0.626   3.799   5.847 -1.1748  0.5867  0.4241
 4494SOL     OW24940   2.798   1.135   2.109 -0.3812 -0.5662  0.2835
 4494SOL    HW124941   2.857   1.088   2.168  0.3311  0.8536  0.7085
 4494SOL    HW224942   2.787   1.064   2.046 -2.5475  0.1268 -0.1169
 4495SOL     OW24943   0.143   4.282  15.915 -0.4306 -0.3140 -0.0631
 4495SOL    HW124944   0.075   4.242  15.969 -1.4529  1.0426 -0.3528
 4495SOL    HW224945   0.155   4.212  15.851  0.2265  0.4072 -0.7305
 4496SOL     OW24946   3.374   3.803  13.629 -0.3328 -0.4366  0.0652
 4496SOL    HW124947   3.353   3.816  13.721  1.0436  1.9914  0.0294
 4496SOL    HW224948   3.289   3.796  13.586  0.1616 -4.2124 -0.3076
 4497SOL     OW24949   0.961   4.454  10.537  0.2024 -0.8963  0.3726
 4497SOL    HW124950   0.975   4.360  10.526  0.9289 -1.1610  3.4027
 4497SOL    HW224951   0.992   4.458  10.628  0.7037 -1.7547  0.2476
 4498SOL     OW24952   4.444   2.399  16.754 -0.7119  0.0279  0.3378
 4498SOL    HW124953   4.421   2.314  16.791 -0.7657 -0.2384 -0.3150
 4498SOL    HW224954   4.407   2.466  16.811 -1.9288 -1.7664  1.6731
 4499SOL     OW24955   2.460   4.598   7.460  0.0119  0.5002  0.8034
 4499SOL    HW124956   2.368   4.580   7.442  0.6335 -0.1929 -1.6060
 4499SOL    HW224957   2.500   4.588   7.374  1.2175 -0.6179  1.4945
 4500SOL     OW24958   4.641   3.647   8.355 -0.1564 -0.3703 -0.0531
 4500SOL    HW124959   0.001   3.607   8.341  0.2910  0.0834  1.4130
 4500SOL    HW224960   4.594   3.576   8.311 -0.6899  0.8399 -1.4125
 4501SOL     OW24961   3.219   4.481   7.457  0.3621  0.3560 -0.0140
 4501SOL    HW124962   3.198   4.546   7.523  1.1077  1.7981 -1.2038
 4501SOL    HW224963   3.128   4.457   7.439  0.6184 -0.4053 -0.3173
 4502SOL     OW24964   3.487   4.469   7.609 -0.0862 -0.0421  0.0136
 4502SOL    HW124965   3.440   4.400   7.655 -1.1118 -0.1641 -1.2210
 4502SOL    HW224966   3.421   4.492   7.543  0.1159  1.4667  0.3479
 4503SOL     OW24967   0.775   0.552   7.071  0.0782 -0.0082 -0.2191
 4503SOL    HW124968   0.782   0.628   7.129  0.1870 -1.2471  1.4039
 4503SOL    HW224969   0.751   0.486   7.136  2.8592  0.4559  1.3132
 4504SOL     OW24970   3.702   1.250   1.991 -0.4587 -0.3737 -0.2474
 4504SOL    HW124971   3.632   1.192   1.962 -2.1568  0.6966  1.7170
 4504SOL    HW224972   3.658   1.333   1.970 -1.0731 -0.4338  0.7951
 4505SOL     OW24973   3.626   3.421   5.557 -0.6909 -0.1569  0.1277
 4505SOL    HW124974   3.654   3.410   5.648 -0.0021 -0.2126 -0.0871
 4505SOL    HW224975   3.592   3.332   5.553  0.0080 -0.4402  0.5168
 4506SOL     OW24976   0.522   4.356   3.423  0.0668  0.7576  0.5193
 4506SOL    HW124977   0.581   4.358   3.348 -0.1224 -0.8484  0.3321
 4506SOL    HW224978   0.513   4.450   3.441 -0.3761  0.7931  0.1169
 4507SOL     OW24979   0.426   0.791   8.465 -0.2036  0.1882 -0.3342
 4507SOL    HW124980   0.421   0.733   8.389  0.4856  1.2361 -1.1740
 4507SOL    HW224981   0.513   0.827   8.450 -0.3144  0.8983  0.6916
 4508SOL     OW24982   3.813   0.519   0.908 -0.1572 -0.4345  0.1225
 4508SOL    HW124983   3.858   0.488   0.829 -0.0507  0.9272 -0.3488
 4508SOL    HW224984   3.883   0.558   0.960 -1.0895 -1.4132  2.0642
 4509SOL     OW24985   2.495   0.577   8.553 -0.2798  0.8417 -0.5701
 4509SOL    HW124986   2.550   0.622   8.488 -0.1219  0.9713 -0.3468
 4509SOL    HW224987   2.562   0.545   8.615 -1.3137 -0.2937 -0.0382
 4510SOL     OW24988   1.062   0.495  15.980 -0.2213 -0.1104 -0.5800
 4510SOL    HW124989   1.045   0.525  16.070  3.0353 -1.7606  0.5914
 4510SOL    HW224990   0.999   0.422  15.976  0.9041 -1.0263 -1.6046
 4511SOL     OW24991   2.108   3.997   6.925  0.3161  0.2880 -0.2048
 4511SOL    HW124992   2.119   3.919   6.980  2.4568  0.9430  0.2924
 4511SOL    HW224993   2.050   4.052   6.978 -1.5499 -2.2222  0.3884
 4512SOL     OW24994   3.698   2.488  11.566  0.3656  0.0694  0.5921
 4512SOL    HW124995   3.758   2.530  11.628  1.2723  1.0557 -0.9480
 4512SOL    HW224996   3.626   2.461  11.623  1.0749  2.2864  2.5528
 4513SOL     OW24997   1.883   1.414   2.118 -0.2791 -0.1047 -0.2103
 4513SOL    HW124998   1.820   1.392   2.187  0.6538 -1.2245  0.2829
 4513SOL    HW224999   1.828   1.440   2.043 -1.3633 -0.2926  0.5191
 4514SOL     OW25000   0.256   0.582   5.302  0.1798 -0.2438 -0.8567
 4514SOL    HW125001   0.175   0.533   5.296  0.2898 -0.1000 -3.7100
 4514SOL    HW225002   0.297   0.542   5.379  0.7163  0.9676 -0.5086
 4515SOL     OW25003   2.353   0.939   6.254 -0.1806  0.2958  0.8191
 4515SOL    HW125004   2.335   0.909   6.165  2.1732  0.1978  0.3724
 4515SOL    HW225005   2.363   1.033   6.234  1.1783 -0.2278 -1.0446
 4516SOL     OW25006   0.705   4.419   7.339  0.0256  0.6045  0.7853
 4516SOL    HW125007   0.612   4.442   7.333 -0.4651 -1.4119  0.5732
 4516SOL    HW225008   0.706   4.324   7.350  1.0650  0.5792  0.5031
 4517SOL     OW25009   0.826   4.683   6.433  0.4229 -0.3531  0.5377
 4517SOL    HW125010   0.808   4.598   6.473 -1.1476 -0.8904 -1.3467
 4517SOL    HW225011   0.747   0.007   6.454 -0.4543 -1.1863 -0.7452
 4518SOL     OW25012   0.306   2.415  11.845 -0.6536  0.4261  0.3084
 4518SOL    HW125013   0.359   2.491  11.820  1.0019 -1.0044 -0.5894
 4518SOL    HW225014   0.218   2.445  11.823 -0.6161  0.4869  0.2408
 4519SOL     OW25015   2.494   0.210   7.999 -0.2577  0.1103  0.1809
 4519SOL    HW125016   2.491   0.280   7.934 -1.9988  1.0421  1.2940
 4519SOL    HW225017   2.583   0.226   8.031 -0.7133  2.8514  0.0118
 4520SOL     OW25018   3.298   0.865   6.656  0.4474  0.1123  0.1104
 4520SOL    HW125019   3.236   0.802   6.621  0.2030  0.4469 -0.0605
 4520SOL    HW225020   3.339   0.897   6.575  0.0731 -0.0292 -0.1309
 4521SOL     OW25021   0.476   3.350  10.850  0.6928  0.4434  0.1394
 4521SOL    HW125022   0.508   3.299  10.925 -1.6335 -1.2109  0.0146
 4521SOL    HW225023   0.490   3.438  10.884  0.2057  0.2600  0.8207
 4522SOL     OW25024   2.336   1.819  16.460  0.1837 -0.0023  0.6831
 4522SOL    HW125025   2.424   1.856  16.451  0.6819 -0.9662  1.5591
 4522SOL    HW225026   2.282   1.862  16.394  0.8068  1.8292  1.3609
 4523SOL     OW25027   1.129   4.260   6.016 -0.2647 -0.3271  0.4839
 4523SOL    HW125028   1.042   4.286   5.987 -0.6454 -0.9533  1.0650
 4523SOL    HW225029   1.114   4.265   6.111  1.7573  1.6544  0.7078
 4524SOL     OW25030   3.717   2.195  14.732 -0.4141  0.1194 -0.1187
 4524SOL    HW125031   3.756   2.244  14.660 -0.0683  0.5802  0.3855
 4524SOL    HW225032   3.689   2.113  14.691  0.5577  0.4063 -1.3698
 4525SOL     OW25033   1.324   2.521   8.468 -0.6514 -0.2130  0.3387
 4525SOL    HW125034   1.407   2.475   8.484 -0.2611 -0.6629 -2.8629
 4525SOL    HW225035   1.324   2.582   8.542 -1.9376 -0.9948  0.9704
 4526SOL     OW25036   2.622   1.884   3.012  0.3233  0.4282  0.2081
 4526SOL    HW125037   2.548   1.834   3.047  0.5271 -0.8157 -1.1947
 4526SOL    HW225038   2.617   1.860   2.920  2.3568  3.0451 -0.5853
 4527SOL     OW25039   4.202   3.971  15.480  0.5253 -0.6355  0.3322
 4527SOL    HW125040   4.128   3.998  15.534  0.0581  0.5145 -0.8749
 4527SOL    HW225041   4.151   3.938  15.406 -0.0094  2.8763 -0.8851
 4528SOL     OW25042   0.706   0.313   3.541  0.1105  0.5488  0.1399
 4528SOL    HW125043   0.682   0.383   3.602 -1.2876  0.8668 -0.7783
 4528SOL    HW225044   0.684   0.236   3.594 -0.9750  0.3041 -0.6741
 4529SOL     OW25045   2.113   0.298   7.544  0.1670  0.3534  0.3326
 4529SOL    HW125046   2.208   0.310   7.552  0.0691  0.1439  1.9131
 4529SOL    HW225047   2.104   0.297   7.639  5.0728 -0.5541  0.7928
 4530SOL     OW25048   0.567   3.122   2.339 -0.0737  0.0627 -0.0217
 4530SOL    HW125049   0.615   3.064   2.281  0.9304  0.6290  0.2330
 4530SOL    HW225050   0.480   3.119   2.300  1.3215 -0.7432 -3.0459
 4531SOL     OW25051   3.898   4.475   8.576  0.6769  0.2989  0.8075
 4531SOL    HW125052   3.809   4.506   8.597  0.7882  0.7343  0.6440
 4531SOL    HW225053   3.945   4.558   8.584 -2.0393  1.8147  1.2944
 4532SOL     OW25054   1.223   3.760   2.188 -0.2938  0.0160  0.2148
 4532SOL    HW125055   1.296   3.807   2.228 -1.4924  0.4382  1.8830
 4532SOL    HW225056   1.244   3.757   2.094 -0.3319 -1.6644  0.2543
 4533SOL     OW25057   0.409   1.600  15.499 -0.1720  0.0848  0.2072
 4533SOL    HW125058   0.501   1.614  15.521  0.1650 -1.5329 -0.1856
 4533SOL    HW225059   0.409   1.600  15.404 -2.3145 -3.7348  0.1908
 4534SOL     OW25060   0.105   3.017   5.973  0.2705 -0.1453 -0.7443
 4534SOL    HW125061   0.151   3.100   5.980 -1.4048  0.5191  2.4611
 4534SOL    HW225062   0.122   2.958   6.046  0.1839  1.1868  0.3447
 4535SOL     OW25063   1.198   1.812   3.018 -0.0128 -0.1903  0.1930
 4535SOL    HW125064   1.135   1.873   2.979  0.3375  0.5042  0.7229
 4535SOL    HW225065   1.279   1.843   2.978 -0.4641  0.3484 -0.3079
 4536SOL     OW25066   4.446   0.935   4.701 -0.3402 -0.4514  0.3554
 4536SOL    HW125067   4.502   1.009   4.726 -2.1261  0.0913  2.7062
 4536SOL    HW225068   4.373   0.947   4.762 -0.4862 -0.0969  0.1093
 4537SOL     OW25069   4.254   4.653   6.667  0.1177  0.5515  0.2334
 4537SOL    HW125070   4.238   4.669   6.760 -0.9990  0.2324  0.1048
 4537SOL    HW225071   4.342   4.615   6.669 -0.3366 -0.6379 -2.5437
 4538SOL     OW25072   4.004   2.411   8.193  0.4227  0.2950  0.2919
 4538SOL    HW125073   4.036   2.492   8.151 -1.2431  1.8334  1.9987
 4538SOL    HW225074   3.998   2.429   8.287 -0.5911 -0.1684  0.3096
 4539SOL     OW25075   0.432   2.120  15.190  0.0047 -0.0489  0.0278
 4539SOL    HW125076   0.399   2.130  15.101  1.5021 -1.5824 -0.7128
 4539SOL    HW225077   0.475   2.204  15.205  1.1222 -0.2973 -1.7114
 4540SOL     OW25078   0.149   1.733  14.844 -0.7625  0.3775  0.2955
 4540SOL    HW125079   0.084   1.671  14.812 -0.4158 -0.4081  1.1027
 4540SOL    HW225080   0.114   1.820  14.823  0.2145  1.4449  3.0536
 4541SOL     OW25081   1.075   3.579  13.584 -0.5878  0.0496 -0.3122
 4541SOL    HW125082   1.015   3.651  13.564 -1.9432 -1.0159 -0.1042
 4541SOL    HW225083   1.059   3.512  13.517  2.1540 -0.5151 -0.3980
 4542SOL     OW25084   2.924   1.515   0.428  0.5075  0.8069  0.1766
 4542SOL    HW125085   2.850   1.574   0.413 -0.6267 -0.0815  2.3925
 4542SOL    HW225086   2.915   1.454   0.355  0.3363  1.9359 -0.7465
 4543SOL     OW25087   4.568   2.018   3.842  0.3009 -0.1840 -0.3965
 4543SOL    HW125088   4.499   2.034   3.777 -0.8433  0.4435  0.9722
 4543SOL    HW225089   4.645   2.047   3.793  0.8847 -1.0047  0.0472
 4544SOL     OW25090   1.178   4.018   6.369 -0.0109 -0.2824  0.4197
 4544SOL    HW125091   1.134   4.102   6.374  0.4511 -0.0171  0.0437
 4544SOL    HW225092   1.255   4.043   6.420 -0.0756 -0.0326  0.3961
 4545SOL     OW25093   1.141   0.145   9.323 -0.1731 -0.5554  0.4094
 4545SOL    HW125094   1.152   0.230   9.367  1.0194 -0.5848  0.1531
 4545SOL    HW225095   1.101   0.166   9.239  0.4848 -2.6543 -0.4259
 4546SOL     OW25096   1.684   2.657   7.380 -0.3457 -0.1532  0.0156
 4546SOL    HW125097   1.668   2.565   7.399 -1.6205  0.2946  1.0955
 4546SOL    HW225098   1.621   2.664   7.308 -0.0530 -0.2984 -0.2565
 4547SOL     OW25099   2.406   0.648   6.894 -0.0434  0.2768  0.1910
 4547SOL    HW125100   2.437   0.610   6.812 -1.8217  0.1578 -0.4342
 4547SOL    HW225101   2.361   0.725   6.858 -1.1141 -1.5928 -2.5308
 4548SOL     OW25102   2.831   1.153   9.484  0.3429  0.0055  0.2781
 4548SOL    HW125103   2.823   1.061   9.509 -0.7722 -0.8419 -3.2743
 4548SOL    HW225104   2.867   1.189   9.565 -1.7384  2.4598  0.1160
 4549SOL     OW25105   2.512   1.064  14.553  0.2333 -0.0338  0.1717
 4549SOL    HW125106   2.513   0.969  14.547  1.2522 -0.0923  1.3862
 4549SOL    HW225107   2.539   1.070  14.645  1.0976  1.4833 -0.1811
 4550SOL     OW25108   1.468   4.698  11.890  0.8765  0.2255  0.3088
 4550SOL    HW125109   1.562   4.711  11.880  0.3969  1.2163 -2.7394
 4550SOL    HW225110   1.432   0.053  11.854 -1.8309  0.0115  2.4799
 4551SOL     OW25111   4.370   2.278   1.574 -0.1461 -0.0139 -0.4522
 4551SOL    HW125112   4.290   2.285   1.624 -0.2212 -1.8546 -0.3157
 4551SOL    HW225113   4.404   2.189   1.585 -0.4234 -0.1841 -0.9783
 4552SOL     OW25114   1.350   4.359   8.042  0.8199  0.2523  0.3518
 4552SOL    HW125115   1.420   4.294   8.050  1.2073  0.6861  0.5010
 4552SOL    HW225116   1.278   4.306   8.009  1.5427 -0.5059  0.0092
 4553SOL     OW25117   0.469   4.507   9.071 -0.0180 -0.2433  0.1688
 4553SOL    HW125118   0.543   4.448   9.058 -0.4207 -0.4511 -1.1342
 4553SOL    HW225119   0.427   4.475   9.151 -0.2075  2.8810  1.3066
 4554SOL     OW25120   0.242   0.946   7.877  0.1015  0.5675 -0.2821
 4554SOL    HW125121   0.201   0.891   7.810 -0.4667  0.2517  0.3303
 4554SOL    HW225122   0.299   0.880   7.916 -0.7515  0.3198  0.5306
 4555SOL     OW25123   1.544   4.593   8.934  0.1280 -0.6625  0.2416
 4555SOL    HW125124   1.526   4.558   9.021  0.9563 -2.1107 -0.1740
 4555SOL    HW225125   1.457   4.619   8.904  0.7027  2.4806  1.3312
 4556SOL     OW25126   0.716   3.639   8.260  0.4450  0.2599  0.1115
 4556SOL    HW125127   0.644   3.693   8.226  0.7246  0.9401  0.5987
 4556SOL    HW225128   0.746   3.701   8.326  2.6359 -1.8649  1.0978
 4557SOL     OW25129   0.540   0.296   9.726  0.1969 -0.6251  0.5030
 4557SOL    HW125130   0.633   0.318   9.738  0.6564 -0.6346 -3.2780
 4557SOL    HW225131   0.550   0.208   9.690 -0.2682  0.7960 -3.0934
 4558SOL     OW25132   0.390   2.473   9.140  0.5492 -0.2403  0.3635
 4558SOL    HW125133   0.439   2.423   9.074 -0.7561 -1.4981  0.3469
 4558SOL    HW225134   0.367   2.552   9.091  1.2446 -0.1153  0.2387
 4559SOL     OW25135   0.197   1.827  12.811 -0.6400  0.0842 -0.0045
 4559SOL    HW125136   0.198   1.921  12.828 -2.0156 -0.3432  2.5826
 4559SOL    HW225137   0.291   1.810  12.805 -0.3077  1.6794  0.7609
 4560SOL     OW25138   1.692   3.025   6.239 -0.0458  0.2628 -0.5871
 4560SOL    HW125139   1.733   2.943   6.267 -2.7138 -0.6791  0.5548
 4560SOL    HW225140   1.751   3.069   6.178  2.5483  1.2668  2.6321
 4561SOL     OW25141   1.707   2.200   6.107 -0.1750 -0.1931  0.7115
 4561SOL    HW125142   1.674   2.276   6.155  2.8781  1.3678  0.3757
 4561SOL    HW225143   1.769   2.243   6.047 -0.1642 -0.9595  0.1793
 4562SOL     OW25144   2.857   3.737   2.091 -0.3706  0.2351 -0.5128
 4562SOL    HW125145   2.866   3.742   1.996 -0.3461 -0.5087 -0.5445
 4562SOL    HW225146   2.897   3.652   2.106 -1.2922  0.3827  2.7506
 4563SOL     OW25147   0.799   1.684   5.643 -0.3505  0.6600  0.3033
 4563SOL    HW125148   0.844   1.699   5.560  0.4093  2.7198  1.0945
 4563SOL    HW225149   0.752   1.602   5.629  1.4790 -0.3870  0.2461
 4564SOL     OW25150   2.026   1.426   6.799  0.5616 -0.4731  0.3786
 4564SOL    HW125151   1.972   1.472   6.735  0.0146 -0.5145  0.8098
 4564SOL    HW225152   2.057   1.495   6.858 -0.3655 -0.3523  0.7305
 4565SOL     OW25153   0.948   4.562  16.876  0.3671  0.2058 -0.4156
 4565SOL    HW125154   0.914   4.647  16.848 -1.1752  0.0917  1.1411
 4565SOL    HW225155   0.928   4.573  16.969 -1.4668 -1.4682 -0.6193
 4566SOL     OW25156   1.486   4.461   4.292 -0.1282 -0.0741 -0.2676
 4566SOL    HW125157   1.430   4.409   4.234 -0.7346  0.2729  0.0099
 4566SOL    HW225158   1.424   4.489   4.360  0.6647 -0.0464  0.4458
 4567SOL     OW25159   1.181   4.666   0.671  0.1051 -0.3203  0.3526
 4567SOL    HW125160   1.125   4.707   0.736 -1.3805 -1.0277 -0.4814
 4567SOL    HW225161   1.249   0.006   0.660 -0.0607 -0.5020 -1.8567
 4568SOL     OW25162   0.792   4.267  12.101 -0.3691 -0.0842  0.0456
 4568SOL    HW125163   0.698   4.274  12.083  0.4203  2.8512 -3.1517
 4568SOL    HW225164   0.815   4.186  12.056  2.9213  0.8609  0.0160
 4569SOL     OW25165   1.478   4.088   3.606  0.6759 -0.3251  0.5695
 4569SOL    HW125166   1.501   4.136   3.685 -1.9767 -1.4683  2.0186
 4569SOL    HW225167   1.392   4.123   3.580  0.0031 -0.9379  2.0034
 4570SOL     OW25168   3.808   2.424   0.206 -0.2665 -0.3730  0.3456
 4570SOL    HW125169   3.790   2.449   0.115  2.1589  1.1909  0.3019
 4570SOL    HW225170   3.735   2.365   0.223 -1.5687  1.6896  1.9347
 4571SOL     OW25171   0.453   3.856   7.190  0.2219  0.6833 -0.1435
 4571SOL    HW125172   0.395   3.927   7.161  1.0615  1.3798 -0.0913
 4571SOL    HW225173   0.515   3.902   7.246  0.4413 -0.0588  0.2276
 4572SOL     OW25174   1.913   3.539   9.281  0.3125  0.9351  0.3825
 4572SOL    HW125175   1.835   3.484   9.281  0.1078  1.2407 -0.8798
 4572SOL    HW225176   1.882   3.608   9.223 -1.6513 -0.3258 -0.0765
 4573SOL     OW25177   2.662   2.563   0.753 -0.3735  0.1467  0.0539
 4573SOL    HW125178   2.637   2.611   0.832  0.0724 -0.2271  0.4211
 4573SOL    HW225179   2.577   2.527   0.727 -1.0793 -0.2134  2.8226
 4574SOL     OW25180   2.801   0.182   2.447 -0.1047 -0.3069  0.0693
 4574SOL    HW125181   2.804   0.123   2.522  0.9360  0.2752  0.4853
 4574SOL    HW225182   2.707   0.195   2.434 -0.1880  0.7564  1.7082
 4575SOL     OW25183   3.073   4.520   3.101 -0.5516  0.2170  0.1009
 4575SOL    HW125184   3.152   4.571   3.121 -0.6469  0.6961 -0.7141
 4575SOL    HW225185   3.033   4.517   3.188  0.3100 -0.0288  0.4947
 4576SOL     OW25186   1.414   0.719   3.584  0.4521  0.0342 -0.0450
 4576SOL    HW125187   1.460   0.636   3.573  1.1498  0.3578  0.5149
 4576SOL    HW225188   1.417   0.728   3.679  1.7332  0.0803 -0.0887
 4577SOL     OW25189   0.633   0.010   7.757 -0.2849 -0.4358  0.0508
 4577SOL    HW125190   0.692   0.055   7.817 -1.4097 -0.3258  1.0651
 4577SOL    HW225191   0.695   4.669   7.725 -1.6220 -1.3945 -0.5085
 4578SOL     OW25192   1.507   1.957   5.654 -0.4907 -0.2336  0.2198
 4578SOL    HW125193   1.537   1.871   5.683 -0.0120  0.5351  2.0271
 4578SOL    HW225194   1.507   2.000   5.739  1.9563  2.6375 -1.2323
 4579SOL     OW25195   0.383   2.822   8.501  0.3129  0.3279  0.0516
 4579SOL    HW125196   0.349   2.764   8.434  0.7612 -1.1245  1.0840
 4579SOL    HW225197   0.392   2.758   8.572 -0.2541  0.0569 -0.1242
 4580SOL     OW25198   2.041   3.391   3.089 -0.1138 -0.6244  0.4575
 4580SOL    HW125199   2.080   3.327   3.029 -0.2488 -2.4298  2.3026
 4580SOL    HW225200   1.950   3.363   3.101 -0.3974 -0.9662 -2.4014
 4581SOL     OW25201   4.221   0.432   3.380 -0.2242 -0.0326  0.2678
 4581SOL    HW125202   4.136   0.450   3.420  1.3073  1.8586  2.6846
 4581SOL    HW225203   4.232   0.342   3.409  0.1945  0.2730  1.0481
 4582SOL     OW25204   2.118   2.229   7.821 -0.1674 -0.1003 -0.3320
 4582SOL    HW125205   2.097   2.158   7.760 -1.4826 -0.2757  0.3213
 4582SOL    HW225206   2.129   2.189   7.907 -3.5813 -0.6395 -0.1373
 4583SOL     OW25207   1.087   3.319  15.737 -0.7134 -0.0797 -0.1116
 4583SOL    HW125208   1.055   3.230  15.724 -2.2481  0.7269 -1.7838
 4583SOL    HW225209   1.115   3.341  15.649 -0.4974  0.0583 -0.0081
 4584SOL     OW25210   0.890   2.130  16.492  0.2016  1.0469 -0.3387
 4584SOL    HW125211   0.832   2.082  16.433 -1.5413  0.9434  1.4481
 4584SOL    HW225212   0.846   2.145  16.576 -1.0863  0.6521 -0.9378
 4585SOL     OW25213   1.311   0.206   8.321  0.2984 -0.0954 -0.2994
 4585SOL    HW125214   1.355   0.190   8.404 -0.5983  1.0782  0.3900
 4585SOL    HW225215   1.381   0.219   8.257  0.1862  0.0830 -0.3864
 4586SOL     OW25216   3.462   4.323   5.090 -0.0190  0.3407  0.0282
 4586SOL    HW125217   3.409   4.261   5.039  0.7620  1.4090 -2.0516
 4586SOL    HW225218   3.402   4.385   5.131 -1.5410 -1.3102  0.3345
 4587SOL     OW25219   0.189   3.095   1.315  0.1696  0.1056  0.4978
 4587SOL    HW125220   0.269   3.147   1.308 -0.3005  0.4242 -2.5586
 4587SOL    HW225221   0.158   3.122   1.402  1.6987 -0.6864  1.2898
 4588SOL     OW25222   4.429   0.908   2.176 -0.3594 -0.1173  0.1064
 4588SOL    HW125223   4.386   0.839   2.125  1.3451 -0.6902 -0.5557
 4588SOL    HW225224   4.412   0.875   2.265  1.4358  0.7045  0.7483
 4589SOL     OW25225   0.488   1.986  14.111 -0.2904  0.3000  0.3441
 4589SOL    HW125226   0.514   1.894  14.107 -0.1908  0.2577  1.7755
 4589SOL    HW225227   0.570   2.033  14.096  0.4655 -0.9457  0.5330
 4590SOL     OW25228   4.107   2.610   2.213  0.0807 -0.5401 -0.1305
 4590SOL    HW125229   4.066   2.696   2.200  1.7777  0.8546  3.9064
 4590SOL    HW225230   4.138   2.588   2.125  1.0032 -0.1243  0.0887
 4591SOL     OW25231   0.780   2.719   0.103 -0.6407 -0.3548  0.0725
 4591SOL    HW125232   0.690   2.687   0.104 -0.9622  0.5597  0.6727
 4591SOL    HW225233   0.786   2.734   0.009 -0.8744  2.0401  0.4491
 4592SOL     OW25234   1.136   4.484   6.447  1.1082 -0.7256 -0.4536
 4592SOL    HW125235   1.086   4.494   6.528  0.2183  0.8937 -1.2041
 4592SOL    HW225236   1.200   4.554   6.463 -0.8028  1.1625 -1.0686
 4593SOL     OW25237   2.692   1.403   5.253  0.2162 -0.1168 -0.6972
 4593SOL    HW125238   2.747   1.335   5.214  0.0012 -0.1841 -0.8799
 4593SOL    HW225239   2.751   1.478   5.245  1.1743 -0.5081  2.6011
 4594SOL     OW25240   1.186   1.235   7.054 -0.3051 -0.0389  0.5442
 4594SOL    HW125241   1.243   1.312   7.053 -0.9067  0.4148  1.8447
 4594SOL    HW225242   1.146   1.238   6.967  2.7791  0.7049 -0.8547
 4595SOL     OW25243   1.268   1.531  10.748 -0.4535  0.0338  0.3368
 4595SOL    HW125244   1.340   1.592  10.735 -0.0548 -1.0281 -2.3634
 4595SOL    HW225245   1.201   1.574  10.696  0.0816 -0.2673 -0.5896
 4596SOL     OW25246   0.289   1.597  15.021  0.0509  0.4618 -0.0818
 4596SOL    HW125247   0.226   1.655  14.977 -0.1889 -0.7012 -1.2869
 4596SOL    HW225248   0.335   1.580  14.939  1.4505  1.2124  0.5606
 4597SOL     OW25249   3.031   1.218  13.174  0.3703  0.5277  0.0983
 4597SOL    HW125250   2.996   1.307  13.174  1.1890  0.8550 -2.2266
 4597SOL    HW225251   3.077   1.218  13.258  1.9848 -1.6474 -0.7737
 4598SOL     OW25252   1.001   1.377   5.613 -0.0061  0.5610  0.1787
 4598SOL    HW125253   0.967   1.352   5.699 -0.1633  0.9494  0.2301
 4598SOL    HW225254   1.028   1.292   5.578  2.3443  1.2024  0.3899
 4599SOL     OW25255   4.598   3.235   8.091 -0.0479  0.0901  0.2634
 4599SOL    HW125256   4.508   3.255   8.119  0.4770 -0.0056  2.0168
 4599SOL    HW225257   4.579   3.211   8.001 -0.7931 -1.2758  0.7704
 4600SOL     OW25258   4.160   2.814   4.264 -0.0319 -0.0989 -0.7612
 4600SOL    HW125259   4.123   2.806   4.176  0.1189  1.5921 -0.9622
 4600SOL    HW225260   4.247   2.785   4.238  1.3389  0.6572  2.9676
 4601SOL     OW25261   0.695   4.595   5.761 -0.4042  0.4294  0.0279
 4601SOL    HW125262   0.652   4.527   5.813  1.6284 -2.0193 -1.5123
 4601SOL    HW225263   0.780   4.553   5.750 -1.1662 -1.4497  1.2907
 4602SOL     OW25264   0.046   1.052   4.272  0.1133  0.3105  0.0728
 4602SOL    HW125265   4.679   1.037   4.255  0.1721 -0.2295  0.2472
 4602SOL    HW225266   0.063   1.013   4.357  2.8063  2.1165  0.3710
 4603SOL     OW25267   3.711   2.425   1.536 -0.0481  0.8688 -0.0137
 4603SOL    HW125268   3.761   2.403   1.615  0.5617  1.0420 -0.3498
 4603SOL    HW225269   3.626   2.384   1.553  1.2019 -1.5534  0.3902
 4604SOL     OW25270   1.002   4.425   4.979 -0.4623  0.3489 -0.5677
 4604SOL    HW125271   0.988   4.486   5.051 -1.9635 -3.2688  2.2333
 4604SOL    HW225272   0.955   4.473   4.910 -2.0690  1.4052  1.2554
 4605SOL     OW25273   3.551   0.581   8.595  0.1443 -0.2364 -0.0963
 4605SOL    HW125274   3.484   0.644   8.623 -0.9101 -0.2702 -2.5345
 4605SOL    HW225275   3.528   0.575   8.502  0.2651 -0.8811 -0.0791
 4606SOL     OW25276   0.841   0.066   3.732 -0.2577  0.5870  0.7130
 4606SOL    HW125277   0.782   4.721   3.758 -2.4522  3.0118  2.3918
 4606SOL    HW225278   0.854   0.039   3.641 -2.1921 -0.8479  0.8741
 4607SOL     OW25279   3.415   0.625   5.667  0.2784  0.4985  0.2669
 4607SOL    HW125280   3.391   0.673   5.588  0.3342  0.4014  0.1912
 4607SOL    HW225281   3.507   0.607   5.651  0.2632 -0.0650  0.8043
 4608SOL     OW25282   0.574   0.169   7.082 -0.3463  0.0219 -0.3541
 4608SOL    HW125283   0.535   0.213   7.006 -0.0965  2.2378  0.8007
 4608SOL    HW225284   0.497   0.131   7.124 -0.1824  0.9085  0.7587
 4609SOL     OW25285   2.690   4.365   4.311  0.1617  1.0341  0.1002
 4609SOL    HW125286   2.602   4.392   4.283  0.2024  0.8612 -0.1918
 4609SOL    HW225287   2.725   4.342   4.225 -0.6944  2.6795 -0.6925
 4610SOL     OW25288   2.416   0.105  17.266 -0.4346 -0.1110 -0.0893
 4610SOL    HW125289   2.466   0.024  17.254  0.8591  0.3002  2.6896
 4610SOL    HW225290   2.341   0.080  17.320 -0.8370 -0.0473 -0.6100
 4611SOL     OW25291   3.643   3.607  14.026 -0.6134 -0.4659  0.1032
 4611SOL    HW125292   3.561   3.592  14.073 -0.3217  1.2173  1.1438
 4611SOL    HW225293   3.647   3.702  14.017  0.0927 -0.3418  1.6141
 4612SOL     OW25294   0.939   3.977   1.046 -0.1544  0.2509  0.2023
 4612SOL    HW125295   1.004   4.045   1.029  0.2424 -0.6003 -1.6981
 4612SOL    HW225296   0.861   4.031   1.043  0.2823  0.9367  1.1500
 4613SOL     OW25297   3.411   2.357   8.409 -0.1822 -0.3634 -0.3290
 4613SOL    HW125298   3.335   2.308   8.439  0.0275 -1.2484 -1.2542
 4613SOL    HW225299   3.373   2.438   8.375  1.1132  0.9928  1.4681
 4614SOL     OW25300   0.214   2.404   7.967  0.6601  0.4278  0.2489
 4614SOL    HW125301   0.226   2.357   8.049  2.0140  2.6143  1.3262
 4614SOL    HW225302   0.294   2.376   7.923 -0.5401  1.0242 -2.2790
 4615SOL     OW25303   2.034   3.582   2.546  0.5849  0.2902  0.0605
 4615SOL    HW125304   2.113   3.634   2.559  0.5103  0.1033  1.3022
 4615SOL    HW225305   2.075   3.498   2.522  0.7097  0.5420 -0.6049
 4616SOL     OW25306   0.566   4.212   8.019  0.5413 -0.3055  0.3665
 4616SOL    HW125307   0.563   4.143   8.085 -2.6369 -1.0200 -0.4991
 4616SOL    HW225308   0.632   4.268   8.059  0.6668  0.1668 -0.4931
 4617SOL     OW25309   2.885   2.895  14.828 -0.6652  0.1724  0.2791
 4617SOL    HW125310   2.814   2.860  14.881 -1.9363  1.1963 -0.7306
 4617SOL    HW225311   2.931   2.947  14.894 -0.6502  0.4144  0.0784
 4618SOL     OW25312   0.778   2.477   6.581  0.1293  0.3030 -0.4342
 4618SOL    HW125313   0.700   2.532   6.590 -0.0759 -0.2923  1.2459
 4618SOL    HW225314   0.783   2.458   6.674  0.9557 -0.5486 -0.6575
 4619SOL     OW25315   3.757   1.074   3.536 -0.2783 -0.3022 -0.9007
 4619SOL    HW125316   3.843   1.041   3.564 -0.4326 -0.1507 -0.2624
 4619SOL    HW225317   3.787   1.164   3.525  0.2039 -0.1724  1.4667
 4620SOL     OW25318   3.856   0.648  12.724  0.1344 -0.2590 -0.0403
 4620SOL    HW125319   3.886   0.734  12.755 -0.1225 -0.6446  1.2912
 4620SOL    HW225320   3.809   0.604  12.794  0.1551  0.4192  0.4008
 4621SOL     OW25321   3.823   1.892   7.158 -0.6302  0.5432 -0.5602
 4621SOL    HW125322   3.803   1.798   7.153 -2.2113  0.8774 -0.5416
 4621SOL    HW225323   3.892   1.894   7.092 -0.8468 -1.8005 -0.8657
 4622SOL     OW25324   3.139   3.714   7.874 -0.1136  0.4608  0.4088
 4622SOL    HW125325   3.128   3.801   7.912 -0.5443  0.3549  0.5290
 4622SOL    HW225326   3.233   3.700   7.881 -0.8360 -3.1700  3.0548
 4623SOL     OW25327   0.864   2.974   4.428  0.5925 -0.4899  0.1556
 4623SOL    HW125328   0.797   2.906   4.421  0.0603  0.2127 -1.6724
 4623SOL    HW225329   0.919   2.955   4.504 -0.0758 -1.0381  0.5042
 4624SOL     OW25330   1.367   1.802   3.898  0.1016  0.1409 -0.4864
 4624SOL    HW125331   1.366   1.736   3.967  4.3264 -0.6132 -1.1320
 4624SOL    HW225332   1.452   1.784   3.857 -0.1743 -0.5255 -0.7587
 4625SOL     OW25333   3.035   3.902   7.302  0.0306  0.2604  0.4051
 4625SOL    HW125334   2.987   3.849   7.364 -0.7961 -1.5722 -1.8065
 4625SOL    HW225335   2.994   3.988   7.315  0.0919  0.3204  0.2042
 4626SOL     OW25336   1.200   1.779   5.975  0.3269  0.0604 -0.1547
 4626SOL    HW125337   1.168   1.863   6.009 -2.5060 -0.4447 -1.6178
 4626SOL    HW225338   1.115   1.737   5.982  0.2413  0.5254  1.6182
 4627SOL     OW25339   1.724   2.441  17.173 -0.1492  0.0901 -0.7817
 4627SOL    HW125340   1.771   2.481  17.247 -1.5362  0.4873 -0.1052
 4627SOL    HW225341   1.801   2.398  17.136  0.7471  1.3687 -0.4239
 4628SOL     OW25342   2.437   3.281   4.826 -0.0320  0.4329 -0.2159
 4628SOL    HW125343   2.412   3.286   4.918  3.3686 -1.2964  0.7875
 4628SOL    HW225344   2.530   3.264   4.841 -0.1796  0.4654  0.7627
 4629SOL     OW25345   1.585   4.060   9.554  0.0609  0.1227 -0.3889
 4629SOL    HW125346   1.603   4.128   9.619  0.9794  2.4524 -3.0805
 4629SOL    HW225347   1.530   3.995   9.598  0.4028 -1.4187 -2.2330
 4630SOL     OW25348   2.893   4.201  13.289  0.6389  0.6846  0.1320
 4630SOL    HW125349   2.893   4.115  13.332 -2.0713  0.1668 -0.8802
 4630SOL    HW225350   2.799   4.216  13.275  0.3681  1.9714  3.2858
 4631SOL     OW25351   1.608   3.151  13.693  0.5958 -0.1518 -0.4600
 4631SOL    HW125352   1.702   3.155  13.711  0.5531  1.0309 -0.4351
 4631SOL    HW225353   1.574   3.208  13.763  0.2837 -0.2566 -0.5255
 4632SOL     OW25354   0.058   0.733   2.291 -0.9109  0.2052  0.5172
 4632SOL    HW125355   0.146   0.695   2.282 -1.8414 -1.9154  0.4198
 4632SOL    HW225356   0.014   0.714   2.209 -1.9771  0.1796  1.1016
 4633SOL     OW25357   0.819   0.829  12.771 -0.4946 -0.1947  0.3027
 4633SOL    HW125358   0.803   0.901  12.832 -2.9917 -0.7658  0.3267
 4633SOL    HW225359   0.742   0.837  12.715  0.5597 -0.9401 -1.2567
 4634SOL     OW25360   3.298   1.153  14.671  0.3519 -0.4996  0.0646
 4634SOL    HW125361   3.328   1.113  14.753 -0.2988 -0.6779  0.2164
 4634SOL    HW225362   3.359   1.103  14.618 -0.1287  0.0750 -1.0395
 4635SOL     OW25363   4.170   2.359  10.579  0.2741  0.1563 -0.1043
 4635SOL    HW125364   4.117   2.342  10.657  0.1618 -0.0343 -0.2210
 4635SOL    HW225365   4.207   2.446  10.593  2.1965 -0.6889  0.0574
 4636SOL     OW25366   3.195   1.149   7.871 -0.2374 -0.3758  0.5054
 4636SOL    HW125367   3.136   1.218   7.901 -0.5453 -0.3596 -0.1347
 4636SOL    HW225368   3.137   1.113   7.804  0.2190  0.7061 -0.4615
 4637SOL     OW25369   1.849   1.887  14.668  0.5963 -0.5210  1.2383
 4637SOL    HW125370   1.894   1.954  14.719  0.5229  0.6936 -0.3113
 4637SOL    HW225371   1.802   1.841  14.738 -1.9840  0.5927  0.2300
 4638SOL     OW25372   1.069   0.917  12.722 -0.8428  0.2442  0.6095
 4638SOL    HW125373   0.976   0.893  12.730 -0.7750 -0.3435 -0.4083
 4638SOL    HW225374   1.106   0.830  12.737 -0.0869  1.0064  3.1630
 4639SOL     OW25375   4.383   0.671  16.957 -0.6165  0.1196 -0.2305
 4639SOL    HW125376   4.361   0.610  17.027  1.4286 -0.8458 -0.4241
 4639SOL    HW225377   4.478   0.677  16.970 -0.2887 -2.6993 -1.2518
 4640SOL     OW25378   1.326   1.353  12.838 -0.1228  0.2273 -0.2522
 4640SOL    HW125379   1.283   1.356  12.753  0.2086  1.2800 -0.3822
 4640SOL    HW225380   1.409   1.398  12.821  0.4686  0.6470  3.6467
 4641SOL     OW25381   2.062   2.716   8.304 -0.2324 -0.0102  0.2966
 4641SOL    HW125382   2.033   2.788   8.248  2.0088  1.1032  0.5461
 4641SOL    HW225383   2.021   2.740   8.387 -0.4590  1.2589 -0.1859
 4642SOL     OW25384   0.218   0.796   1.933  0.1561  0.5612 -0.4468
 4642SOL    HW125385   0.257   0.710   1.944 -3.0323 -0.6783  1.3304
 4642SOL    HW225386   0.177   0.784   1.848  0.1542 -1.4479 -0.1453
 4643SOL     OW25387   4.207   4.517   5.317 -0.1074  0.4137  0.3596
 4643SOL    HW125388   4.130   4.573   5.325  0.6094  1.5257 -0.5212
 4643SOL    HW225389   4.173   4.437   5.278 -0.3005 -0.2897  1.9485
 4644SOL     OW25390   2.548   2.662   1.003  0.3375 -0.0684  0.0970
 4644SOL    HW125391   2.471   2.616   1.036 -0.1189  0.8012  0.2359
 4644SOL    HW225392   2.517   2.752   1.007 -0.3854 -0.1987 -2.6529
 4645SOL     OW25393   0.415   4.065  16.306 -0.0604  0.5230 -0.0223
 4645SOL    HW125394   0.457   4.095  16.225 -0.1221 -0.9617 -0.5957
 4645SOL    HW225395   0.449   3.977  16.321  1.7401  1.2625  0.3514
 4646SOL     OW25396   3.391   1.613  16.495 -0.1949  0.2959 -0.4193
 4646SOL    HW125397   3.349   1.527  16.503 -0.7900  0.5345 -1.0050
 4646SOL    HW225398   3.373   1.644  16.584  2.3407 -0.3613  0.3430
 4647SOL     OW25399   2.123   1.187   5.224  0.6413 -0.3222  0.0014
 4647SOL    HW125400   2.198   1.129   5.212  0.7612  0.0555 -1.0401
 4647SOL    HW225401   2.093   1.210   5.136 -1.1035 -0.7086  0.4841
 4648SOL     OW25402   0.317   4.620   3.729  0.6466  0.1717  0.0771
 4648SOL    HW125403   0.375   4.573   3.789 -0.9350 -3.1655 -1.0257
 4648SOL    HW225404   0.240   4.639   3.782  0.3705  3.7399 -1.5689
 4649SOL     OW25405   3.237   4.160  15.003 -0.1534  0.5975 -0.1419
 4649SOL    HW125406   3.290   4.231  14.966 -0.1580 -0.9895 -3.2335
 4649SOL    HW225407   3.304   4.092  15.004 -0.5594  0.1891 -0.4942
 4650SOL     OW25408   0.576   0.279   3.105 -0.0911  0.5132  0.0172
 4650SOL    HW125409   0.563   0.248   3.195  0.6166 -2.3410 -0.8769
 4650SOL    HW225410   0.526   0.212   3.058  0.3811 -1.4440  2.3393
 4651SOL     OW25411   1.723   2.692   2.381 -0.5540  0.4806 -0.1463
 4651SOL    HW125412   1.786   2.728   2.319  2.1851  0.5976  2.6972
 4651SOL    HW225413   1.645   2.665   2.333  0.6298 -1.5017 -0.9457
 4652SOL     OW25414   2.139   3.786  15.214  0.0589 -0.0622  0.1606
 4652SOL    HW125415   2.195   3.720  15.255 -0.6685  0.6081  2.1895
 4652SOL    HW225416   2.068   3.728  15.186 -1.4790  1.8096  0.2017
 4653SOL     OW25417   4.699   1.772  14.585 -0.4690 -0.0786  0.2121
 4653SOL    HW125418   4.622   1.825  14.564 -1.4795 -1.8167 -0.4104
 4653SOL    HW225419   4.699   1.709  14.513  0.7865  0.3609 -0.1739
 4654SOL     OW25420   3.183   2.717   2.674  0.3491  1.0192  0.1141
 4654SOL    HW125421   3.175   2.672   2.589  1.9425 -0.4701  0.7466
 4654SOL    HW225422   3.175   2.808   2.646  2.6900  0.5232 -2.1558
 4655SOL     OW25423   2.551   1.977   9.085  0.1783  0.2984 -0.2830
 4655SOL    HW125424   2.607   2.016   9.018 -2.2749  1.1172 -1.8710
 4655SOL    HW225425   2.463   2.010   9.071 -0.6203 -0.4305  3.0143
 4656SOL     OW25426   2.353   0.598   6.391  0.1349  0.0895 -0.4452
 4656SOL    HW125427   2.387   0.568   6.476  0.0633  1.7549  0.1678
 4656SOL    HW225428   2.312   0.516   6.363  3.6347 -2.3337  1.4030
 4657SOL     OW25429   4.035   0.311   7.755 -0.4348 -0.2871  0.0373
 4657SOL    HW125430   3.939   0.311   7.754 -0.4291  1.4135 -0.2384
 4657SOL    HW225431   4.052   0.359   7.675 -0.0058 -0.4054  0.0587
 4658SOL     OW25432   4.685   0.982  17.142 -0.0560  0.3999  0.6768
 4658SOL    HW125433   4.677   0.969  17.048  2.3040 -0.2008  0.5706
 4658SOL    HW225434   4.626   0.916  17.178  1.1005 -0.6000  0.7320
 4659SOL     OW25435   4.133   2.169   4.943  0.1589  0.5383 -0.0985
 4659SOL    HW125436   4.074   2.113   4.994  0.2124 -0.0326 -0.6783
 4659SOL    HW225437   4.086   2.252   4.937  0.7774  0.8669 -0.3434
 4660SOL     OW25438   3.439   1.363  10.149 -0.2658  0.2896 -0.7496
 4660SOL    HW125439   3.442   1.432  10.083  2.4053  3.2598  2.5075
 4660SOL    HW225440   3.354   1.386  10.185  0.0861  1.5630 -0.7490
 4661SOL     OW25441   0.829   0.146   5.092  0.6393  0.7889 -0.2213
 4661SOL    HW125442   0.858   0.232   5.120  0.9742  0.8809 -0.8306
 4661SOL    HW225443   0.741   0.161   5.125  0.0753 -1.1325 -0.8342
 4662SOL     OW25444   3.000   3.809   3.042 -0.9036 -0.3286 -0.1793
 4662SOL    HW125445   3.051   3.751   3.098  1.7181  0.9037 -1.3061
 4662SOL    HW225446   2.952   3.741   2.995  1.2041 -1.2249 -1.0133
 4663SOL     OW25447   1.650   0.255   9.719 -0.3853 -0.0016 -0.0206
 4663SOL    HW125448   1.559   0.232   9.701  0.0540 -1.3667 -0.5873
 4663SOL    HW225449   1.650   0.296   9.805  0.5255  0.5920 -0.2966
 4664SOL     OW25450   2.910   2.560   6.999  0.0214 -0.1189 -0.3740
 4664SOL    HW125451   2.862   2.596   6.924  1.3922  1.0505 -0.6926
 4664SOL    HW225452   2.998   2.557   6.961  0.7764 -2.5525  1.5616
 4665SOL     OW25453   1.090   0.852   9.640  0.1371  0.0664  0.3486
 4665SOL    HW125454   1.012   0.905   9.627  0.8847  1.8926  3.3100
 4665SOL    HW225455   1.076   0.821   9.730 -0.2399 -1.6004 -0.2817
 4666SOL     OW25456   4.347   4.254   4.058  0.2385 -0.1762  0.3086
 4666SOL    HW125457   4.337   4.343   4.091  1.3959 -1.0453  2.9898
 4666SOL    HW225458   4.443   4.249   4.052  0.3043 -1.0587  2.2063
 4667SOL     OW25459   1.105   1.203   5.136  0.2500 -0.1971 -0.1881
 4667SOL    HW125460   1.084   1.202   5.042 -1.1152 -0.3010  0.1245
 4667SOL    HW225461   1.201   1.208   5.139  0.2187 -0.4285  1.2432
 4668SOL     OW25462   3.943   0.051  16.611 -0.3652 -0.1771  0.0334
 4668SOL    HW125463   4.001   0.115  16.652 -2.3724  2.1827 -0.8238
 4668SOL    HW225464   3.865   0.068  16.664  0.8550 -1.5463  2.2286
 4669SOL     OW25465   4.537   2.708  17.471  0.3500  0.7936 -0.2307
 4669SOL    HW125466   4.554   2.649  17.544 -1.8545  1.5667  0.9316
 4669SOL    HW225467   4.459   2.661  17.441 -0.3047  1.2293  0.7862
 4670SOL     OW25468   1.509   4.182  11.018  0.1059 -0.3457  0.5979
 4670SOL    HW125469   1.589   4.221  10.984 -0.0778  1.4423  2.2001
 4670SOL    HW225470   1.475   4.133  10.943  0.7516 -0.0533  0.1178
 4671SOL     OW25471   0.532   2.082   7.248  0.5415 -0.2087 -0.3741
 4671SOL    HW125472   0.500   2.171   7.261  0.5851 -0.2587  0.0754
 4671SOL    HW225473   0.452   2.037   7.273  0.4025  0.4559  0.3877
 4672SOL     OW25474   2.441   4.362  12.808 -0.3583 -0.0965  0.2079
 4672SOL    HW125475   2.445   4.274  12.771 -2.5570 -0.9542  2.0024
 4672SOL    HW225476   2.464   4.415  12.731 -1.0476 -0.5573 -0.3181
 4673SOL     OW25477   2.680   1.793   5.502  0.1302  0.0616 -0.3566
 4673SOL    HW125478   2.638   1.712   5.474 -1.0847  0.6084 -0.1188
 4673SOL    HW225479   2.754   1.749   5.545  0.9194  2.5502  0.8959
 4674SOL     OW25480   3.799   0.456   8.382  0.2483  0.3327 -0.1976
 4674SOL    HW125481   3.834   0.490   8.464 -1.1854 -0.0257  0.5701
 4674SOL    HW225482   3.744   0.531   8.362  1.9930  0.7831 -3.2869
 4675SOL     OW25483   4.116   1.562   1.487  0.2515  0.6135  0.6136
 4675SOL    HW125484   4.139   1.480   1.444  0.8232  0.7378  0.6884
 4675SOL    HW225485   4.073   1.601   1.410 -0.5783 -2.5855 -0.5781
 4676SOL     OW25486   0.515   1.549  13.286 -0.5969  0.0704 -0.0048
 4676SOL    HW125487   0.565   1.578  13.210  0.2548  0.3100  0.6494
 4676SOL    HW225488   0.429   1.585  13.262 -1.4597 -1.9181  0.0900
 4677SOL     OW25489   0.411   1.752   4.386  0.2431 -0.6019  0.1598
 4677SOL    HW125490   0.393   1.818   4.318  0.0608 -1.0862 -0.2597
 4677SOL    HW225491   0.504   1.762   4.407 -0.0251  0.1249  1.0173
 4678SOL     OW25492   4.002   0.101   2.931  0.0525 -0.8697 -0.3476
 4678SOL    HW125493   4.070   0.149   2.884 -1.7598  1.0062 -1.0634
 4678SOL    HW225494   3.964   0.177   2.975  2.9999 -0.5834  1.7368
 4679SOL     OW25495   1.682   2.144   2.991  0.1922 -0.2220 -0.4426
 4679SOL    HW125496   1.590   2.170   2.986 -0.0153 -0.8122  0.3451
 4679SOL    HW225497   1.695   2.092   3.070 -0.5332 -1.0851 -0.8941
 4680SOL     OW25498   1.847   1.160   5.317 -0.1047  0.0866  0.3012
 4680SOL    HW125499   1.857   1.191   5.407  0.5915 -0.7166  0.4953
 4680SOL    HW225500   1.934   1.126   5.294  0.8678  2.4269  0.4859
 4681SOL     OW25501   3.117   0.371   5.618 -0.1325  0.6085 -0.0823
 4681SOL    HW125502   3.193   0.429   5.613  1.2700 -1.1334  0.9643
 4681SOL    HW225503   3.135   0.321   5.698 -0.0187  0.5104 -0.1677
 4682SOL     OW25504   2.734   0.197   1.379  0.5552 -0.2457  0.1017
 4682SOL    HW125505   2.816   0.246   1.368 -0.4640  1.5007  0.2350
 4682SOL    HW225506   2.752   0.105   1.401 -0.5893 -0.2689  0.9311
 4683SOL     OW25507   3.505   2.497   5.272  0.0613 -0.0949  0.8951
 4683SOL    HW125508   3.431   2.437   5.278 -0.9836  0.9917 -0.9913
 4683SOL    HW225509   3.570   2.428   5.261 -0.5772 -0.5383 -0.0661
 4684SOL     OW25510   1.597   1.279   8.833  0.0982 -0.4867  0.0211
 4684SOL    HW125511   1.620   1.363   8.873 -1.6782  0.0759 -0.1359
 4684SOL    HW225512   1.654   1.219   8.882  3.0235  1.7981 -0.5801
 4685SOL     OW25513   2.765   1.449   8.189  0.2757  0.2410  0.3494
 4685SOL    HW125514   2.725   1.525   8.231 -0.4628 -0.3883  0.7715
 4685SOL    HW225515   2.809   1.500   8.121 -0.4637 -1.9969 -1.7976
 4686SOL     OW25516   0.352   2.652   2.910  0.0289  0.0348  0.4938
 4686SOL    HW125517   0.411   2.681   2.979 -2.3650  0.6573  2.2950
 4686SOL    HW225518   0.284   2.604   2.958 -0.3789  2.5314  2.4201
 4687SOL     OW25519   2.582   4.716  16.958 -0.2706  0.9585  0.4471
 4687SOL    HW125520   2.602   4.674  16.874 -2.6746  1.8005 -0.5464
 4687SOL    HW225521   2.625   0.074  16.947 -1.0417  1.4637  1.3134
 4688SOL     OW25522   2.682   2.356   6.416 -0.4860 -0.0050  0.1855
 4688SOL    HW125523   2.628   2.430   6.387  0.5382 -0.2256 -2.3003
 4688SOL    HW225524   2.641   2.339   6.500 -0.0155 -0.9891  0.2199
 4689SOL     OW25525   0.129   4.616   6.278 -0.0873 -0.6013  0.2769
 4689SOL    HW125526   0.086   4.662   6.350 -2.7213 -3.8160  0.7543
 4689SOL    HW225527   0.078   4.535   6.271  1.6704 -1.5186 -1.9505
 4690SOL     OW25528   2.832   0.241   6.380  0.1135 -0.0873 -0.0435
 4690SOL    HW125529   2.747   0.196   6.379  0.4219 -0.6616 -0.2384
 4690SOL    HW225530   2.880   0.194   6.448  2.8120  1.4869 -0.8558
 4691SOL     OW25531   1.687   1.259   6.322  0.1191 -0.4957  0.3121
 4691SOL    HW125532   1.745   1.333   6.338 -0.1553  0.1554 -1.6790
 4691SOL    HW225533   1.631   1.302   6.257 -0.2501  0.0320  0.9885
 4692SOL     OW25534   4.506   0.683  10.077 -0.2908  0.1944  0.3085
 4692SOL    HW125535   4.461   0.735  10.143 -1.0475 -1.9435  1.4944
 4692SOL    HW225536   4.528   0.745  10.008 -1.2495 -0.4504 -0.5903
 4693SOL     OW25537   4.138   2.469   4.367  0.0788  0.2597  0.1127
 4693SOL    HW125538   4.231   2.492   4.367  0.3321 -0.7880 -1.1455
 4693SOL    HW225539   4.092   2.546   4.401  0.1378 -0.0147  0.8060
 4694SOL     OW25540   4.261   4.007   4.237 -0.7241 -0.0755  0.5390
 4694SOL    HW125541   4.225   3.938   4.182 -1.4014  0.5711  0.1689
 4694SOL    HW225542   4.256   4.082   4.178  1.0969  1.1944  2.0192
 4695SOL     OW25543   3.213   2.078   5.675  0.2541  0.4175 -0.1070
 4695SOL    HW125544   3.289   2.118   5.716  0.8759  1.8208 -2.6272
 4695SOL    HW225545   3.151   2.125   5.731  0.8451  0.6255  0.3685
 4696SOL     OW25546   4.100   1.269   7.897  0.1700 -0.2971  0.0182
 4696SOL    HW125547   4.195   1.280   7.891  0.1581  0.2940  0.8364
 4696SOL    HW225548   4.088   1.175   7.910  0.5225 -0.4858 -1.0449
 4697SOL     OW25549   4.425   2.581   7.662  0.4049 -0.5140 -0.2505
 4697SOL    HW125550   4.482   2.582   7.739  0.9954  1.4807 -0.7072
 4697SOL    HW225551   4.338   2.584   7.701  0.5491  0.2452  0.0105
 4698SOL     OW25552   1.290   0.280   3.265  0.1489 -0.3105 -0.1313
 4698SOL    HW125553   1.225   0.260   3.199 -1.2877  1.6162  0.7126
 4698SOL    HW225554   1.251   0.329   3.337  1.1975  0.6560 -0.2152
 4699SOL     OW25555   2.141   2.296   9.555  0.1432 -0.1111  0.8920
 4699SOL    HW125556   2.107   2.374   9.511 -3.4539 -1.7515  0.7459
 4699SOL    HW225557   2.060   2.244   9.559  0.8244 -1.1778  0.8376
 4700SOL     OW25558   3.830   1.198   8.272  0.0060  0.6090  0.1623
 4700SOL    HW125559   3.884   1.127   8.237 -0.5786 -0.3473  1.2147
 4700SOL    HW225560   3.841   1.273   8.213  3.0462  1.1411  1.3880
 4701SOL     OW25561   2.856   1.611  12.688  0.5333 -0.2264  0.1328
 4701SOL    HW125562   2.840   1.704  12.703  1.5673 -0.0539  0.1888
 4701SOL    HW225563   2.869   1.620  12.593 -0.9601  1.8081  0.1238
 4702SOL     OW25564   2.468   2.003   4.110  0.0180 -0.1463  0.1180
 4702SOL    HW125565   2.407   2.076   4.106 -1.5532 -1.3591  1.8253
 4702SOL    HW225566   2.453   1.943   4.037 -2.2440  0.2323  0.2780
 4703SOL     OW25567   2.014   2.775  16.419 -0.2413 -0.3322  0.5457
 4703SOL    HW125568   1.956   2.846  16.446 -0.5690 -0.1756 -0.5697
 4703SOL    HW225569   1.951   2.716  16.378 -0.5049  0.1618  0.2520
 4704SOL     OW25570   0.341   2.393   1.948  0.3007 -0.3010  0.1456
 4704SOL    HW125571   0.290   2.351   1.878 -0.9877  1.4299  0.0303
 4704SOL    HW225572   0.413   2.425   1.893  0.4117  1.8981  1.5752
 4705SOL     OW25573   3.438   4.063  16.944  0.1714  0.0092  0.4830
 4705SOL    HW125574   3.417   4.154  16.922  0.4402  0.0624  0.4535
 4705SOL    HW225575   3.410   4.018  16.864 -1.4360 -0.6059  1.3729
 4706SOL     OW25576   4.272   2.105   2.227  0.1272 -0.0574 -0.5799
 4706SOL    HW125577   4.349   2.057   2.194 -1.0385 -0.5857 -2.5139
 4706SOL    HW225578   4.201   2.044   2.208 -0.4493 -0.2242  2.0500
 4707SOL     OW25579   2.741   0.324   0.819 -0.0566  0.0776  0.1182
 4707SOL    HW125580   2.785   0.398   0.861  2.5441 -1.2394 -0.3546
 4707SOL    HW225581   2.651   0.331   0.851  0.2711 -0.8745  1.2524
 4708SOL     OW25582   4.201   0.337  11.629 -0.1450  0.0579 -0.1522
 4708SOL    HW125583   4.196   0.299  11.542  0.0058 -0.5259  0.0909
 4708SOL    HW225584   4.199   0.429  11.603  2.2937 -0.0224 -0.6063
 4709SOL     OW25585   4.021   3.280  14.789  0.3024  0.4830 -0.0475
 4709SOL    HW125586   4.092   3.219  14.807  0.3224  0.0300 -1.6699
 4709SOL    HW225587   4.034   3.300  14.696 -0.0883 -0.1287 -0.2290
 4710SOL     OW25588   1.792   4.299   6.830 -0.1495 -0.0537  0.0025
 4710SOL    HW125589   1.807   4.271   6.920  1.9103  0.1059 -0.2810
 4710SOL    HW225590   1.801   4.394   6.840 -1.8948 -0.1448  2.1925
 4711SOL     OW25591   4.726   0.602  14.053  0.3614 -0.3057  0.2097
 4711SOL    HW125592   0.020   0.546  13.978 -0.7497 -2.2930  1.3801
 4711SOL    HW225593   4.725   0.543  14.129  0.8049 -0.4626  0.0948
 4712SOL     OW25594   3.070   3.531  14.435 -0.6777 -0.2816  0.0748
 4712SOL    HW125595   3.115   3.557  14.515  0.0614 -3.0058  0.5407
 4712SOL    HW225596   2.986   3.504  14.473  0.5179 -0.5109  2.5255
 4713SOL     OW25597   2.919   3.224   2.209 -0.0696 -0.3657 -0.6378
 4713SOL    HW125598   2.904   3.251   2.118 -0.7141  0.2558 -0.3379
 4713SOL    HW225599   2.846   3.163   2.221  0.2423 -0.6082  0.0192
 4714SOL     OW25600   1.941   3.934   3.094  0.1320  0.2603  0.5491
 4714SOL    HW125601   1.941   3.840   3.112  1.2773  0.4033  1.2776
 4714SOL    HW225602   1.850   3.953   3.072  0.7862  1.3835 -1.2263
 4715SOL     OW25603   1.150   0.906   7.518  0.4903 -0.5749  0.1244
 4715SOL    HW125604   1.118   0.977   7.463  0.0154 -1.3862 -0.6339
 4715SOL    HW225605   1.229   0.954   7.544  0.3997 -0.0485 -0.5625
 4716SOL     OW25606   1.486   0.949  15.147  0.2910  0.1401  0.2168
 4716SOL    HW125607   1.459   0.873  15.095 -3.6852  1.6211  0.1128
 4716SOL    HW225608   1.511   1.011  15.079 -2.4683  2.7701  1.5935
 4717SOL     OW25609   1.614   2.878  13.797 -0.1791  0.0613  0.3625
 4717SOL    HW125610   1.638   2.970  13.786 -0.8433 -0.1039 -2.4686
 4717SOL    HW225611   1.700   2.840  13.815 -0.5666 -0.8230  0.3444
 4718SOL     OW25612   4.518   1.889   9.305  0.0379  0.7132 -0.2114
 4718SOL    HW125613   4.541   1.829   9.235 -1.1707 -0.1657  0.1464
 4718SOL    HW225614   4.470   1.835   9.368 -0.3010 -0.2681 -1.3192
 4719SOL     OW25615   0.915   0.415   5.103 -0.0202  0.0461 -0.2758
 4719SOL    HW125616   0.882   0.484   5.161  0.7767  1.2873 -1.2855
 4719SOL    HW225617   1.009   0.431   5.114  0.5957 -3.8082 -0.0030
 4720SOL     OW25618   3.561   4.370  11.266  0.1910 -0.6438  0.8259
 4720SOL    HW125619   3.490   4.308  11.246 -0.9974  0.6704  0.9338
 4720SOL    HW225620   3.615   4.332  11.335  0.5884 -4.5120 -1.6338
 4721SOL     OW25621   3.466   4.606   4.141 -0.3515  0.7801  0.3812
 4721SOL    HW125622   3.440   4.566   4.224  0.3334  0.2158  0.3198
 4721SOL    HW225623   3.526   4.537   4.114 -1.8206 -0.3337  0.0076
 4722SOL     OW25624   0.345   4.294   4.012  0.0869 -0.3756  0.3462
 4722SOL    HW125625   0.318   4.279   4.103 -3.5706 -1.0428 -0.8251
 4722SOL    HW225626   0.274   4.346   3.974 -0.2960 -0.9408  0.2848
 4723SOL     OW25627   2.901   4.629   9.201  0.3141 -0.1274 -0.0136
 4723SOL    HW125628   2.961   4.617   9.275  0.4160 -2.0196 -0.3999
 4723SOL    HW225629   2.825   4.576   9.225 -0.7137  1.0359 -0.7278
 4724SOL     OW25630   4.420   1.822  11.395 -0.1087 -0.4125 -0.0425
 4724SOL    HW125631   4.370   1.899  11.369 -2.8785 -1.4132  2.2877
 4724SOL    HW225632   4.471   1.810  11.315 -0.8497  2.6484 -0.9604
 4725SOL     OW25633   3.609   3.348   8.767  0.6216 -0.0118 -0.3810
 4725SOL    HW125634   3.561   3.413   8.716  1.3820 -0.2119 -1.3376
 4725SOL    HW225635   3.665   3.306   8.703 -0.8798  0.0323 -1.7268
 4726SOL     OW25636   3.816   2.313   4.353 -0.1437 -0.4939 -0.0252
 4726SOL    HW125637   3.885   2.379   4.351  1.0443 -1.7812 -0.9092
 4726SOL    HW225638   3.747   2.321   4.287 -0.6756  1.4727  0.7709
 4727SOL     OW25639   3.413   2.665  11.254 -0.2512  0.0310  0.3808
 4727SOL    HW125640   3.395   2.669  11.160  1.5535 -1.2398 -0.0411
 4727SOL    HW225641   3.472   2.589  11.260 -0.1569  0.0985  0.3117
 4728SOL     OW25642   0.951   4.096  13.247  0.2786  0.1272 -0.1213
 4728SOL    HW125643   0.869   4.064  13.209  0.3722 -1.7559  1.2160
 4728SOL    HW225644   0.996   4.145  13.179  2.4189 -1.5439  0.1002
 4729SOL     OW25645   0.703   3.303   1.005 -0.2917 -0.2484  0.8687
 4729SOL    HW125646   0.746   3.359   0.941  1.4123 -1.5874  0.8468
 4729SOL    HW225647   0.710   3.354   1.085  1.1635 -0.0855  0.6259
 4730SOL     OW25648   4.164   2.956   1.091 -0.1696  0.1575  0.2153
 4730SOL    HW125649   4.091   2.895   1.087 -0.4534  0.2616  3.8554
 4730SOL    HW225650   4.214   2.920   1.164  0.4176  0.6004  0.0363
 4731SOL     OW25651   4.681   2.577   4.313 -0.0152  0.3645  0.3627
 4731SOL    HW125652   4.693   2.502   4.371 -0.0924  0.8904  1.0632
 4731SOL    HW225653   0.041   2.584   4.272  1.6084 -0.2903  3.6395
 4732SOL     OW25654   2.360   3.954   6.433  1.0368  0.2915 -0.1736
 4732SOL    HW125655   2.423   4.014   6.472 -2.2464  2.6812  1.4373
 4732SOL    HW225656   2.288   3.972   6.493 -0.9540 -1.7546 -1.9004
 4733SOL     OW25657   0.454   1.746  13.930 -0.2239 -0.0224  0.1324
 4733SOL    HW125658   0.520   1.729  13.997 -1.3498  0.6192  1.4070
 4733SOL    HW225659   0.487   1.685  13.863  0.3526 -0.2111  0.5947
 4734SOL     OW25660   0.163   4.026   0.274 -0.5215  0.0285  0.3116
 4734SOL    HW125661   0.146   4.120   0.275 -0.4118  0.0870 -2.3491
 4734SOL    HW225662   0.089   3.992   0.325 -0.0497 -0.8789  0.3938
 4735SOL     OW25663   4.245   3.413  13.262  0.2618  0.0068 -0.1868
 4735SOL    HW125664   4.227   3.371  13.347 -0.3599 -0.5151 -0.5690
 4735SOL    HW225665   4.253   3.336  13.206 -0.5636  0.6744 -1.2267
 4736SOL     OW25666   0.478   2.740   7.834 -0.2733 -0.0685  0.1097
 4736SOL    HW125667   0.396   2.732   7.884 -0.1364 -0.2298  0.3078
 4736SOL    HW225668   0.539   2.776   7.898 -2.1366  1.5147  1.0063
 4737SOL     OW25669   1.488   1.069   7.138  0.1467 -0.5517  0.1229
 4737SOL    HW125670   1.416   1.103   7.085 -1.0030 -0.6629  1.6122
 4737SOL    HW225671   1.548   1.056   7.065  0.7681 -2.3474  0.9521
 4738SOL     OW25672   4.560   2.325   4.552  0.0393  0.4485 -0.0738
 4738SOL    HW125673   4.496   2.352   4.486  0.3033  2.9032  0.6956
 4738SOL    HW225674   4.511   2.350   4.631 -1.5009  1.5999 -1.3875
 4739SOL     OW25675   2.486   1.196   9.691  0.6029 -0.6305  0.0423
 4739SOL    HW125676   2.544   1.245   9.749  2.9062 -2.6012 -0.6240
 4739SOL    HW225677   2.458   1.115   9.734 -2.6135 -0.6520 -2.0729
 4740SOL     OW25678   0.426   1.620   5.139  0.0156  0.4258  0.0261
 4740SOL    HW125679   0.489   1.561   5.181 -1.4130 -0.6039  0.7281
 4740SOL    HW225680   0.345   1.575   5.162  0.9109 -0.7257  0.9526
 4741SOL     OW25681   0.247   1.029   3.758  0.4419  0.5978  0.9657
 4741SOL    HW125682   0.214   0.949   3.798 -0.3348  0.7229  0.5792
 4741SOL    HW225683   0.174   1.091   3.769  0.0750  0.5795 -1.4632
 4742SOL     OW25684   4.267   1.043   6.640  0.3843  0.3265  0.4040
 4742SOL    HW125685   4.290   1.135   6.658 -2.5897  0.6963  2.3722
 4742SOL    HW225686   4.208   1.030   6.566 -0.9702  3.9483  0.8024
 4743SOL     OW25687   2.260   0.769   8.561 -0.1604  0.1536 -0.7459
 4743SOL    HW125688   2.323   0.698   8.568  0.5814  0.9358  0.5259
 4743SOL    HW225689   2.307   0.835   8.612  0.5333  1.0446 -2.5163
 4744SOL     OW25690   4.716   4.383   6.282 -0.0654 -0.4642 -0.0028
 4744SOL    HW125691   4.626   4.408   6.260 -0.7083  1.1155  4.3813
 4744SOL    HW225692   0.017   4.319   6.216  2.8702  0.5022  0.2490
 4745SOL     OW25693   0.272   1.372   4.812 -0.0946  0.3717  0.3240
 4745SOL    HW125694   0.262   1.332   4.898  0.8110  1.4513  0.9255
 4745SOL    HW225695   0.364   1.397   4.818 -0.1171  0.4917  0.1769
 4746SOL     OW25696   4.001   3.373   2.033 -0.5141 -0.4754  0.6655
 4746SOL    HW125697   4.052   3.294   2.048  0.0018 -0.0395  1.1768
 4746SOL    HW225698   4.059   3.427   2.086 -1.5290 -0.2392  1.5377
 4747SOL     OW25699   0.955   2.283   3.738 -0.1667  0.3014  0.9418
 4747SOL    HW125700   0.958   2.220   3.810  0.4161 -1.3110 -0.4997
 4747SOL    HW225701   0.943   2.364   3.788 -0.7159 -0.3859  1.9120
 4748SOL     OW25702   4.264   0.537   8.587  0.1115  0.2769  0.2225
 4748SOL    HW125703   4.323   0.467   8.615  0.3107  1.0001  1.6092
 4748SOL    HW225704   4.264   0.528   8.492 -2.1425 -0.8106  0.3263
 4749SOL     OW25705   1.769   2.911   0.009  0.4927 -0.0936 -0.3125
 4749SOL    HW125706   1.832   2.911   0.082 -2.4938  1.8387  2.2861
 4749SOL    HW225707   1.832   2.879  17.652 -0.9252  0.6875 -2.1183
 4750SOL     OW25708   4.669   2.699   5.783 -0.2282 -0.6126  0.3080
 4750SOL    HW125709   4.697   2.620   5.830  0.1338 -2.3254 -2.7637
 4750SOL    HW225710   0.019   2.754   5.804 -0.2955  0.4052 -2.0669
 4751SOL     OW25711   0.978   3.769   4.920  0.0299  0.1568  0.3549
 4751SOL    HW125712   0.952   3.687   4.878 -0.5170  0.4815  0.0497
 4751SOL    HW225713   0.909   3.762   4.987  0.9690  0.7888  1.3851
 4752SOL     OW25714   1.084   2.898  17.490 -0.5665  0.0502 -0.2181
 4752SOL    HW125715   1.019   2.836  17.457  0.6054 -1.4041  0.2560
 4752SOL    HW225716   1.080   2.965  17.421 -1.3818 -0.4361 -0.6440
 4753SOL     OW25717   4.105   3.449   2.669 -0.6119 -0.2396  0.5098
 4753SOL    HW125718   4.167   3.494   2.726 -0.4984 -1.1383  1.0901
 4753SOL    HW225719   4.030   3.433   2.727 -0.9944  1.1523  0.3865
 4754SOL     OW25720   1.340   4.435   0.019 -0.8895  0.1028  0.3618
 4754SOL    HW125721   1.401   4.381   0.069 -0.7664 -2.5874 -2.6974
 4754SOL    HW225722   1.288   4.478   0.087 -1.8044  1.2086 -1.0515
 4755SOL     OW25723   1.281   2.345  10.398 -0.3462 -0.2026 -0.0061
 4755SOL    HW125724   1.293   2.256  10.366 -2.0773 -0.9965  1.5856
 4755SOL    HW225725   1.294   2.398  10.319 -3.5458  2.1011  1.0407
 4756SOL     OW25726   1.662   4.036   2.255  0.1999  0.1005 -0.0877
 4756SOL    HW125727   1.575   4.061   2.286  0.1711 -1.9813  1.5035
 4756SOL    HW225728   1.677   4.092   2.179 -2.8350 -0.6790 -1.2642
 4757SOL     OW25729   2.765   1.996  15.539 -0.6093  0.3324 -0.7231
 4757SOL    HW125730   2.678   1.962  15.519 -1.2945 -0.2817  3.3129
 4757SOL    HW225731   2.775   2.067  15.476 -1.2978  1.8476  0.8591
 4758SOL     OW25732   2.073   0.456   0.352 -0.2041  0.3216  0.1169
 4758SOL    HW125733   2.033   0.370   0.361 -0.0405  0.2631  0.2890
 4758SOL    HW225734   2.062   0.472   0.258 -1.8611 -0.2234  0.2120
 4759SOL     OW25735   1.718   0.182   3.428 -0.0444  0.3453  0.3676
 4759SOL    HW125736   1.713   0.087   3.443  2.3704  0.2410  0.4519
 4759SOL    HW225737   1.808   0.199   3.455 -1.1931  0.4716  4.1316
 4760SOL     OW25738   0.377   2.206  12.018  0.5692 -0.1048 -0.5547
 4760SOL    HW125739   0.415   2.206  12.106  0.9520  1.0574 -0.7214
 4760SOL    HW225740   0.361   2.297  11.992  1.7440  0.1596 -0.3659
 4761SOL     OW25741   2.422   3.141   3.896 -0.4326 -0.0181  0.0342
 4761SOL    HW125742   2.478   3.186   3.959 -0.5334 -0.8303  0.7010
 4761SOL    HW225743   2.341   3.141   3.946 -0.0146 -0.4360  0.7078
 4762SOL     OW25744   1.072   0.151   7.709 -0.0536  0.0709  0.2279
 4762SOL    HW125745   1.012   0.165   7.782 -0.7641 -0.9842 -0.1546
 4762SOL    HW225746   1.156   0.195   7.724 -0.4210  0.3553  1.4163
 4763SOL     OW25747   4.508   3.028   0.198  0.3716 -0.4742 -0.5074
 4763SOL    HW125748   4.550   2.942   0.199  1.5885  0.1840  2.6194
 4763SOL    HW225749   4.460   3.020   0.115 -2.2109  2.2201  0.7297
 4764SOL     OW25750   4.203   1.138  16.316  0.1319  0.3570 -0.0743
 4764SOL    HW125751   4.153   1.170  16.391  0.4885  1.5808 -0.3640
 4764SOL    HW225752   4.264   1.210  16.306 -0.3536  0.9881  1.5416
 4765SOL     OW25753   0.586   2.353  14.152  0.4636 -0.0404  0.1795
 4765SOL    HW125754   0.502   2.381  14.115  0.4405 -2.6106 -1.7214
 4765SOL    HW225755   0.631   2.329  14.071 -0.0560 -0.6198  0.0603
 4766SOL     OW25756   4.028   0.733   5.304  0.5113 -0.1190  0.1756
 4766SOL    HW125757   4.060   0.689   5.226 -0.9535 -1.4394  0.3003
 4766SOL    HW225758   4.108   0.744   5.355  0.8265 -1.9886  0.0932
 4767SOL     OW25759   2.758   3.830   8.600  0.4623 -0.0504 -0.1285
 4767SOL    HW125760   2.706   3.772   8.656 -0.4719 -0.7324 -1.6793
 4767SOL    HW225761   2.765   3.907   8.655  0.4851 -0.4278  0.3944
 4768SOL     OW25762   3.707   3.431   0.343 -0.1655 -0.0442  0.4295
 4768SOL    HW125763   3.768   3.361   0.366  0.3860 -0.2280 -1.6443
 4768SOL    HW225764   3.642   3.425   0.413  0.1645 -1.6104  0.5959
 4769SOL     OW25765   3.842   1.314   9.775  0.0048  0.3046 -0.0666
 4769SOL    HW125766   3.816   1.249   9.840 -0.2543  0.5469  0.0722
 4769SOL    HW225767   3.813   1.272   9.694  1.9598 -0.6369 -0.2873
 4770SOL     OW25768   1.854   3.310   5.056  0.1442 -0.5626 -0.4019
 4770SOL    HW125769   1.813   3.348   5.134  2.3985 -0.3314  0.6676
 4770SOL    HW225770   1.885   3.392   5.019  0.0063  0.5834  2.0356
 4771SOL     OW25771   0.408   4.557   1.491 -0.0555  0.5136  0.2564
 4771SOL    HW125772   0.392   4.634   1.546 -0.7709  2.1668 -2.2197
 4771SOL    HW225773   0.428   4.497   1.562  1.4105 -0.9367 -1.3682
 4772SOL     OW25774   0.141   0.689   8.271  0.4670 -0.0439 -0.1041
 4772SOL    HW125775   0.118   0.643   8.191  1.7127 -2.3648  0.8574
 4772SOL    HW225776   0.052   0.708   8.300  0.5053 -1.4788  1.0033
 4773SOL     OW25777   0.525   4.390   5.873  0.5086 -0.6073  0.0119
 4773SOL    HW125778   0.474   4.360   5.798 -1.8317  2.6635  0.3213
 4773SOL    HW225779   0.453   4.432   5.920  0.9925 -1.8943  1.9134
 4774SOL     OW25780   2.858   3.537   1.555 -0.3735 -0.3421  0.0580
 4774SOL    HW125781   2.852   3.492   1.640 -0.7633  2.3496  1.4639
 4774SOL    HW225782   2.951   3.560   1.553  0.0542 -2.2048 -1.1140
 4775SOL     OW25783   1.833   0.231   6.772  0.0169  0.0488  0.0684
 4775SOL    HW125784   1.916   0.199   6.737 -0.1420  0.6974 -0.8971
 4775SOL    HW225785   1.799   0.280   6.697 -2.7406 -0.0523  1.2231
 4776SOL     OW25786   0.430   1.925   8.510 -0.1001 -0.5347  0.1150
 4776SOL    HW125787   0.369   1.851   8.500 -0.2916 -0.4472  0.6747
 4776SOL    HW225788   0.372   1.998   8.489  0.4168 -0.1912 -0.1202
 4777SOL     OW25789   4.610   3.213   3.551 -0.8624  0.6463 -0.2795
 4777SOL    HW125790   4.597   3.199   3.457  2.9088 -1.8381 -0.4136
 4777SOL    HW225791   4.575   3.301   3.566 -1.9805  0.1504 -0.0254
 4778SOL     OW25792   2.534   3.239   2.978 -0.1570 -0.1664 -0.3044
 4778SOL    HW125793   2.479   3.200   3.045  2.0982 -0.3760  1.4305
 4778SOL    HW225794   2.479   3.313   2.950 -1.4612 -1.6325 -1.5779
 4779SOL     OW25795   4.301   1.952   6.952 -0.3352 -0.7655 -0.3488
 4779SOL    HW125796   4.378   1.961   7.008 -0.6009  0.2960 -0.1563
 4779SOL    HW225797   4.253   1.880   6.994  0.5490 -0.2039  1.6096
 4780SOL     OW25798   2.710   0.465   2.699 -0.4758  0.0545  0.6275
 4780SOL    HW125799   2.778   0.398   2.694 -2.5609 -1.9375 -0.8070
 4780SOL    HW225800   2.708   0.477   2.794  0.4777 -1.3079  0.8119
 4781SOL     OW25801   3.094   4.647   3.562  0.8980 -0.2818 -0.1255
 4781SOL    HW125802   3.168   4.608   3.609  0.4818  1.2817  1.7993
 4781SOL    HW225803   3.088   0.010   3.596 -0.8899 -0.1271 -0.8624
 4782SOL     OW25804   4.710   1.117   5.608 -0.1376 -0.2427 -0.7819
 4782SOL    HW125805   4.690   1.046   5.547 -0.5432  0.3061 -1.2901
 4782SOL    HW225806   0.001   1.073   5.691 -0.3752  2.3513  0.6106
 4783SOL     OW25807   3.436   1.864   4.306 -0.4562  0.1653  0.4655
 4783SOL    HW125808   3.363   1.925   4.295  1.1869  1.6429 -2.2247
 4783SOL    HW225809   3.386   1.802   4.359  1.8031 -1.0143  1.2173
 4784SOL     OW25810   0.682   2.493  15.481 -0.1114  0.3057  0.0764
 4784SOL    HW125811   0.594   2.481  15.446  0.4519 -3.6332 -0.0596
 4784SOL    HW225812   0.686   2.418  15.541  1.0034  0.6040  0.3861
 4785SOL     OW25813   2.483   4.376   6.187 -0.4052 -0.4564 -0.1940
 4785SOL    HW125814   2.393   4.386   6.155 -0.3685 -1.9728 -0.7598
 4785SOL    HW225815   2.525   4.321   6.122  1.7223 -1.0973  1.7395
 4786SOL     OW25816   2.138   1.329   1.757 -0.0292  0.4647 -0.0564
 4786SOL    HW125817   2.135   1.245   1.804  0.9335  0.6712  0.3630
 4786SOL    HW225818   2.207   1.312   1.693 -0.8052 -2.5280 -0.1095
 4787SOL     OW25819   0.303   3.111   8.839  0.6025  0.3307 -0.2158
 4787SOL    HW125820   0.269   3.088   8.753  3.6618  2.7347 -2.0258
 4787SOL    HW225821   0.247   3.183   8.868 -1.7375 -0.9697 -1.4605
 4788SOL     OW25822   4.568   2.126   7.059  0.1510 -0.3460  0.3303
 4788SOL    HW125823   4.561   2.193   6.990 -0.3384 -1.1709 -0.4223
 4788SOL    HW225824   4.505   2.159   7.123 -1.9622 -1.0245 -1.3782
 4789SOL     OW25825   1.331   2.084   3.107  0.3289 -0.4910 -0.4302
 4789SOL    HW125826   1.306   2.148   3.040  1.2081  0.3467  0.0403
 4789SOL    HW225827   1.377   2.018   3.054 -1.3612 -3.1974  1.5214
 4790SOL     OW25828   0.925   3.932   5.823 -0.0933  0.1421 -0.3163
 4790SOL    HW125829   1.010   3.967   5.851  0.6839  0.4012 -2.9513
 4790SOL    HW225830   0.925   3.969   5.735  0.9679 -3.7170 -1.9480
 4791SOL     OW25831   2.964   4.629   5.552  0.2094 -0.1274  0.3119
 4791SOL    HW125832   2.897   4.591   5.496  0.9604 -2.2002  0.8512
 4791SOL    HW225833   2.923   4.596   5.632 -1.8480 -2.4424 -1.6973
 4792SOL     OW25834   2.248   1.914  16.174 -0.0963 -0.2132 -0.0145
 4792SOL    HW125835   2.336   1.922  16.139  0.4395 -0.8395  1.2220
 4792SOL    HW225836   2.233   1.983  16.239 -0.9735 -1.9667  1.6605
 4793SOL     OW25837   3.798   2.297   2.867  0.6491  0.3880  0.1091
 4793SOL    HW125838   3.871   2.236   2.860 -1.2471 -1.8366 -0.1835
 4793SOL    HW225839   3.840   2.373   2.908  0.4491 -1.1927  3.2723
 4794SOL     OW25840   0.762   3.567   7.074 -0.0660 -0.2617 -0.0269
 4794SOL    HW125841   0.816   3.539   7.000  0.0502 -1.4008  0.4874
 4794SOL    HW225842   0.824   3.562   7.146  1.2772 -1.6825 -1.2937
 4795SOL     OW25843   3.023   0.268   3.036 -0.4985  0.1931 -0.0009
 4795SOL    HW125844   3.115   0.239   3.035 -0.3742  0.5892 -0.1491
 4795SOL    HW225845   2.991   0.248   3.123  1.4448  1.7454  1.0831
 4796SOL     OW25846   4.468   0.912   6.483  0.2763 -0.3857 -0.1260
 4796SOL    HW125847   4.404   0.967   6.529 -2.2349 -0.7613 -3.1890
 4796SOL    HW225848   4.547   0.957   6.513 -0.1639  0.6477 -0.5010
 4797SOL     OW25849   1.977   3.016   5.336  0.0992 -0.3904  0.2251
 4797SOL    HW125850   2.024   2.957   5.396  0.3635 -0.8268 -0.4036
 4797SOL    HW225851   1.887   2.986   5.348 -0.4546  1.4438  0.6096
 4798SOL     OW25852   0.945   2.723  10.553  0.2096 -0.2202  0.4931
 4798SOL    HW125853   0.897   2.654  10.507 -0.7013  0.2365  0.7450
 4798SOL    HW225854   0.869   2.765  10.593 -0.3183 -0.3849 -0.3232
 4799SOL     OW25855   1.686   0.781  13.688  0.1925 -0.2855  0.3343
 4799SOL    HW125856   1.763   0.725  13.674  1.5447  1.4538  0.8532
 4799SOL    HW225857   1.686   0.815  13.598  0.1218 -0.4140  0.2851
 4800SOL     OW25858   4.417   2.692   6.415  0.0054  0.1776 -0.3881
 4800SOL    HW125859   4.466   2.726   6.341  0.2685  0.6045 -0.0201
 4800SOL    HW225860   4.341   2.656   6.369 -0.1045 -2.6299  1.9468
 4801SOL     OW25861   3.676   2.351   4.750  0.1183 -0.3875  0.1445
 4801SOL    HW125862   3.609   2.326   4.687  0.2173  0.0447 -0.1303
 4801SOL    HW225863   3.747   2.289   4.730 -1.6380 -2.1752 -0.5017
 4802SOL     OW25864   1.961   3.021   3.463  0.2471  0.3403 -0.1910
 4802SOL    HW125865   2.009   3.053   3.387 -0.2735 -3.4926 -2.1136
 4802SOL    HW225866   1.941   3.098   3.517 -1.6050 -0.4674  0.2805
 4803SOL     OW25867   3.453   0.757   5.416  0.1967 -0.0781  0.0602
 4803SOL    HW125868   3.379   0.805   5.379  0.5611 -0.8178 -1.5808
 4803SOL    HW225869   3.468   0.669   5.382  0.5791 -0.3010  0.7927
 4804SOL     OW25870   3.515   0.691   6.705 -0.3584  0.1044  0.0806
 4804SOL    HW125871   3.469   0.772   6.682 -1.3090 -0.3377  0.4410
 4804SOL    HW225872   3.506   0.628   6.633  0.5382 -2.6483  2.4140
 4805SOL     OW25873   3.456   3.426   9.053 -0.0556 -0.3881  0.1166
 4805SOL    HW125874   3.398   3.452   8.982 -0.9722 -0.4426  0.8537
 4805SOL    HW225875   3.405   3.410   9.132 -1.6521 -0.9029 -1.0165
 4806SOL     OW25876   1.260   2.663   8.236 -0.5019  0.6229  0.3483
 4806SOL    HW125877   1.259   2.591   8.174  1.0799  0.1284  0.9010
 4806SOL    HW225878   1.267   2.615   8.318 -0.1457  1.3392  0.7394
 4807SOL     OW25879   4.416   1.414   3.396 -0.6084 -0.3676 -0.1695
 4807SOL    HW125880   4.466   1.467   3.457 -3.8890 -1.1678  3.2158
 4807SOL    HW225881   4.470   1.425   3.318  0.8006 -3.2344  0.3810
 4808SOL     OW25882   4.705   4.318   2.706 -0.2334 -0.4747  0.3397
 4808SOL    HW125883   4.643   4.259   2.749 -0.6264  0.1206  0.5917
 4808SOL    HW225884   4.714   4.276   2.620 -0.5744 -0.6317  0.3790
 4809SOL     OW25885   0.952   3.993  15.787  0.2311  0.0139 -0.4039
 4809SOL    HW125886   0.890   4.058  15.821  0.9304  0.5980 -0.2559
 4809SOL    HW225887   1.037   4.037  15.785  0.3804 -0.3817 -3.3187
 4810SOL     OW25888   4.097   4.647  11.481 -0.3337 -0.3393  0.2917
 4810SOL    HW125889   4.122   4.563  11.442  1.3054 -0.3055  1.2667
 4810SOL    HW225890   4.133   4.637  11.569  1.2942  1.1452 -0.1896
 4811SOL     OW25891   2.139   0.075  17.347 -0.4915  0.5733 -0.4552
 4811SOL    HW125892   2.162   0.026  17.268 -3.1629 -1.5426  0.0563
 4811SOL    HW225893   2.049   0.041  17.358 -1.0959  1.8260 -1.5923
 4812SOL     OW25894   3.324   3.523   5.966  0.4402 -0.2273  0.1456
 4812SOL    HW125895   3.323   3.517   6.062  0.3329  0.9433  0.2259
 4812SOL    HW225896   3.236   3.509   5.932 -0.3327  1.2764  1.5140
 4813SOL     OW25897   1.134   1.742   6.283  0.9715 -0.0585 -0.2942
 4813SOL    HW125898   1.183   1.811   6.329  0.9840  0.4559 -1.0691
 4813SOL    HW225899   1.087   1.791   6.216  0.4445  0.8177  0.7124
 4814SOL     OW25900   0.458   0.858   4.420 -0.1799 -0.0800 -0.2401
 4814SOL    HW125901   0.407   0.854   4.339 -0.6733  3.1033 -0.0951
 4814SOL    HW225902   0.485   0.948   4.402  0.2736 -0.1006  0.3342
 4815SOL     OW25903   3.608   0.426   6.481  0.0283 -0.0965  0.3430
 4815SOL    HW125904   3.513   0.424   6.464 -0.4716  0.4342  3.0950
 4815SOL    HW225905   3.648   0.383   6.405 -1.3344 -2.3988  0.9266
 4816SOL     OW25906   1.845   1.946   6.057 -0.4291  0.1929  0.4017
 4816SOL    HW125907   1.916   1.886   6.034 -0.7679 -0.1990  0.3763
 4816SOL    HW225908   1.862   1.971   6.147 -0.4673 -0.0963  0.4902
 4817SOL     OW25909   1.122   1.973  13.713  0.0984  0.3344  0.2608
 4817SOL    HW125910   1.171   1.895  13.740 -0.4714 -0.1229 -0.0276
 4817SOL    HW225911   1.196   2.032  13.698  0.1438  0.1738 -0.1536
 4818SOL     OW25912   0.565   3.215   2.667 -0.1264 -0.2057 -0.6510
 4818SOL    HW125913   0.593   3.154   2.735 -0.1468 -1.1562 -1.4851
 4818SOL    HW225914   0.505   3.268   2.719  0.5868 -0.0031 -0.0397
 4819SOL     OW25915   0.623   0.960   8.817 -0.2958  0.3915 -0.4583
 4819SOL    HW125916   0.682   0.900   8.771 -1.3343  0.5557 -2.0049
 4819SOL    HW225917   0.671   1.043   8.811  1.3657 -0.6209 -1.3558
 4820SOL     OW25918   2.398   0.125   8.927  0.3377 -0.1257 -0.5794
 4820SOL    HW125919   2.470   0.167   8.975 -0.9569  2.0528 -0.5234
 4820SOL    HW225920   2.346   0.204   8.912  0.3454  0.0464  0.2698
 4821SOL     OW25921   0.336   0.952   8.650  0.4245 -0.0271 -0.1003
 4821SOL    HW125922   0.370   0.879   8.598 -3.8218 -0.8644 -1.7152
 4821SOL    HW225923   0.376   1.014   8.589  0.9727  0.1097  0.4032
 4822SOL     OW25924   4.246   4.574  11.736 -0.1889  0.4173 -0.7052
 4822SOL    HW125925   4.203   4.577  11.822 -1.4074  0.1896 -1.3055
 4822SOL    HW225926   4.327   4.523  11.741 -0.5208 -0.0900 -0.4102
 4823SOL     OW25927   1.999   4.172   4.965 -0.5135 -0.0227 -0.0132
 4823SOL    HW125928   1.969   4.253   4.923 -0.5788  0.7758  1.5499
 4823SOL    HW225929   1.921   4.140   5.010 -1.4135  0.1459 -1.4571
 4824SOL     OW25930   0.670   1.885  13.238  0.7816  0.1606 -0.1079
 4824SOL    HW125931   0.675   1.940  13.160 -1.6269  0.4830 -0.0413
 4824SOL    HW225932   0.672   1.797  13.202  2.0217  0.4426 -0.7230
 4825SOL     OW25933   1.611   4.174   4.797  0.1569  0.4296 -0.0263
 4825SOL    HW125934   1.543   4.190   4.731 -0.5800  1.7789  1.0691
 4825SOL    HW225935   1.652   4.101   4.751  1.1580 -0.0502  1.6481
 4826SOL     OW25936   1.239   1.767  14.413 -0.1666 -0.1078  0.0820
 4826SOL    HW125937   1.280   1.852  14.396  0.9549 -1.5653 -4.5924
 4826SOL    HW225938   1.199   1.769  14.500  1.4858 -0.7484  0.8683
 4827SOL     OW25939   0.939   2.929  15.932  0.0465 -0.3217 -0.5741
 4827SOL    HW125940   0.864   2.920  15.990  1.9753  1.3658  2.1970
 4827SOL    HW225941   1.011   2.968  15.983  0.5490 -1.2200 -0.5879
 4828SOL     OW25942   3.844   1.872   5.253 -0.3120 -0.0121 -0.2983
 4828SOL    HW125943   3.906   1.856   5.324  1.0930  0.1102 -1.4834
 4828SOL    HW225944   3.786   1.935   5.295 -0.7671  0.1819 -1.2110
 4829SOL     OW25945   4.579   4.607   6.091  0.0104  0.0082  0.1210
 4829SOL    HW125946   4.521   4.565   6.154 -1.3177 -0.7325 -1.6075
 4829SOL    HW225947   4.630   4.664   6.149  1.0869  0.9665 -1.7642
 4830SOL     OW25948   2.068   2.916   2.855  0.0597  0.1812  0.1244
 4830SOL    HW125949   2.019   2.997   2.844  0.0045  0.1072 -0.1899
 4830SOL    HW225950   2.008   2.861   2.905 -0.0281 -0.7841 -1.0279
 4831SOL     OW25951   2.503   2.916   8.067 -0.0128 -0.6516  0.4387
 4831SOL    HW125952   2.468   2.908   7.979  1.4322  0.4874 -0.2454
 4831SOL    HW225953   2.463   2.994   8.104 -0.3193 -0.0744 -1.1184
 4832SOL     OW25954   4.588   0.524   1.006 -0.0133  0.0154  0.1329
 4832SOL    HW125955   4.595   0.617   0.985  0.0415 -0.3705 -1.5931
 4832SOL    HW225956   4.568   0.512   1.098 -1.2972 -0.1087 -0.1647
 4833SOL     OW25957   1.487   3.427  17.121 -0.4170 -0.3044 -0.4367
 4833SOL    HW125958   1.445   3.460  17.200 -0.6040  1.5084 -1.3024
 4833SOL    HW225959   1.435   3.472  17.055  2.5843  1.5060 -1.5890
 4834SOL     OW25960   0.584   0.799   3.112  0.2981  0.1456 -0.2747
 4834SOL    HW125961   0.507   0.745   3.095 -0.0387  0.0862  1.3914
 4834SOL    HW225962   0.636   0.755   3.045 -0.4431  0.0299 -0.7765
 4835SOL     OW25963   2.434   1.880   3.859 -0.5612 -0.1021  0.3363
 4835SOL    HW125964   2.500   1.941   3.826  0.6729 -2.0932 -0.9111
 4835SOL    HW225965   2.446   1.806   3.799  2.6258 -1.2735  2.4286
 4836SOL     OW25966   3.608   4.491   2.767 -0.1479 -0.7998 -0.2398
 4836SOL    HW125967   3.613   4.445   2.851  2.4337  1.4311  0.8000
 4836SOL    HW225968   3.601   4.418   2.706 -0.8311 -0.4265 -0.6179
 4837SOL     OW25969   1.978   1.593   6.187  0.4846 -0.5245 -0.8857
 4837SOL    HW125970   2.043   1.524   6.172  2.6730  0.9569  1.9357
 4837SOL    HW225971   2.032   1.671   6.177  1.7926 -1.4635 -1.2782
 4838SOL     OW25972   2.235   3.198  12.750  0.1142 -0.1133  0.3943
 4838SOL    HW125973   2.271   3.236  12.670  0.7584 -1.3065  0.1049
 4838SOL    HW225974   2.197   3.118  12.713 -1.5792  0.6951  0.4120
 4839SOL     OW25975   2.739   0.597  13.100 -0.8795 -0.0751 -0.0897
 4839SOL    HW125976   2.770   0.686  13.086 -0.9948 -0.1732 -0.9575
 4839SOL    HW225977   2.814   0.568  13.152 -0.8416  0.8525  0.3762
 4840SOL     OW25978   2.195   2.716   8.980 -0.1816 -0.0880 -0.2045
 4840SOL    HW125979   2.124   2.759   9.028  1.8014  2.0292  0.8045
 4840SOL    HW225980   2.275   2.742   9.024  0.7003 -3.6033  0.2420
 4841SOL     OW25981   1.973   3.528   8.721  0.2442  0.2708  0.7471
 4841SOL    HW125982   1.882   3.524   8.750 -0.7730 -0.0894 -2.4923
 4841SOL    HW225983   1.973   3.595   8.652  1.3878 -0.5185 -0.0155
 4842SOL     OW25984   3.929   2.203  16.341  0.0287  0.6577  0.1235
 4842SOL    HW125985   3.835   2.204  16.322  0.0974 -2.2826 -0.4590
 4842SOL    HW225986   3.932   2.114  16.378  1.5472  0.7049  0.1100
 4843SOL     OW25987   2.149   4.286   0.720  0.2747  0.0438  0.6917
 4843SOL    HW125988   2.106   4.236   0.789 -1.1388  1.8722  1.1386
 4843SOL    HW225989   2.149   4.229   0.644  2.3069  1.3373 -0.3035
 4844SOL     OW25990   4.636   3.241   4.713 -0.5787  0.3598  0.3703
 4844SOL    HW125991   4.686   3.193   4.646 -1.5064  1.4642 -1.0951
 4844SOL    HW225992   4.551   3.201   4.697  0.0905 -1.2636  0.9080
 4845SOL     OW25993   2.130   3.873   1.747 -0.2818 -0.3354  0.1931
 4845SOL    HW125994   2.113   3.960   1.711  1.1521  0.1329  0.6528
 4845SOL    HW225995   2.220   3.879   1.778 -1.1626  0.9750  2.4694
 4846SOL     OW25996   2.144   2.893  10.004  0.5238 -0.2208  0.3895
 4846SOL    HW125997   2.108   2.919   9.919 -0.5198  3.2495  1.8898
 4846SOL    HW225998   2.066   2.868  10.053  2.0507  0.5676  3.1877
 4847SOL     OW25999   0.061   4.457   5.198 -0.0561 -0.7677  0.2105
 4847SOL    HW126000   0.144   4.503   5.206  0.7575 -2.0757 -0.7066
 4847SOL    HW226001   0.001   4.532   5.206 -0.8806 -1.3353 -0.5363
 4848SOL     OW26002   0.174   0.964  11.006 -0.0086 -0.0013 -0.0990
 4848SOL    HW126003   0.123   0.959  11.087  0.6109 -0.1717  0.2755
 4848SOL    HW226004   0.109   0.939  10.940 -0.9561  0.6638  0.5807
 4849SOL     OW26005   4.202   3.481   6.129  0.4075  0.2119  0.2356
 4849SOL    HW126006   4.201   3.548   6.061 -0.5778  0.3872  0.4158
 4849SOL    HW226007   4.237   3.529   6.204  2.4857  0.6922 -1.0674
 4850SOL     OW26008   1.930   3.584  15.188 -0.9107 -0.0639  0.3757
 4850SOL    HW126009   1.901   3.509  15.135 -0.3276 -0.3731  0.5002
 4850SOL    HW226010   1.856   3.601  15.246 -0.9105 -0.1288  0.3959
 4851SOL     OW26011   3.725   3.821   8.741 -0.0115  0.6763 -0.1624
 4851SOL    HW126012   3.756   3.759   8.675 -0.4905 -1.2859  1.4393
 4851SOL    HW226013   3.658   3.767   8.784 -0.3292  1.0129 -0.2353
 4852SOL     OW26014   2.352   1.964  17.583  0.1904 -0.2776 -0.8095
 4852SOL    HW126015   2.288   1.893  17.587  0.9116 -0.8828 -0.0150
 4852SOL    HW226016   2.341   1.997  17.494  1.6872 -1.6703 -1.5307
 4853SOL     OW26017   0.667   3.523   6.222  0.1661  0.6530 -0.4713
 4853SOL    HW126018   0.684   3.435   6.187 -1.3510  0.4465 -0.6579
 4853SOL    HW226019   0.659   3.502   6.315  1.4229 -0.1732 -0.5405
 4854SOL     OW26020   4.534   1.777  16.896 -0.2481 -0.1853 -0.4345
 4854SOL    HW126021   4.556   1.794  16.804  1.4286 -0.2715 -0.0387
 4854SOL    HW226022   4.451   1.731  16.887 -0.7470  0.6379 -0.0182
 4855SOL     OW26023   3.275   0.998   1.676 -0.1102 -0.2994  0.3908
 4855SOL    HW126024   3.280   1.067   1.610 -1.6670 -0.6652 -0.1104
 4855SOL    HW226025   3.280   1.060   1.749  0.5945 -1.6414  1.4861
 4856SOL     OW26026   4.218   2.327  16.628 -0.4509 -0.1442  0.6442
 4856SOL    HW126027   4.300   2.366  16.658 -0.0502  0.2292 -0.9406
 4856SOL    HW226028   4.223   2.350  16.536  1.9028 -0.9034  0.5858
 4857SOL     OW26029   3.653   2.671   3.418  0.4007  0.1272  0.6846
 4857SOL    HW126030   3.676   2.690   3.509  1.1295 -0.2312  0.5752
 4857SOL    HW226031   3.557   2.671   3.416  0.4278  0.7617 -0.9244
 4858SOL     OW26032   0.193   4.273   8.963 -0.0468 -0.3246 -0.1812
 4858SOL    HW126033   0.153   4.352   8.926 -0.0825 -0.3302 -0.1548
 4858SOL    HW226034   0.255   4.245   8.895 -0.2428 -0.3480 -0.3512
 4859SOL     OW26035   0.011   0.440   2.222 -0.0745  0.0753 -0.1561
 4859SOL    HW126036   0.030   0.351   2.252 -1.4459  0.1760  1.0463
 4859SOL    HW226037   4.642   0.438   2.229 -0.0881 -1.5739 -0.6927
 4860SOL     OW26038   0.467   4.275   6.366  0.1262 -0.3582  0.0557
 4860SOL    HW126039   0.507   4.190   6.383  2.2414  0.9938  1.8359
 4860SOL    HW226040   0.400   4.253   6.301  0.0047  0.8055 -0.2065
 4861SOL     OW26041   0.296   1.591   3.119  0.0115 -0.1398 -0.3750
 4861SOL    HW126042   0.353   1.582   3.043  1.0702 -1.7437  0.6263
 4861SOL    HW226043   0.327   1.676   3.152  0.3792 -0.4032 -0.0468
 4862SOL     OW26044   0.751   4.533   7.579 -0.2265 -0.2337  0.2011
 4862SOL    HW126045   0.750   4.506   7.487  0.0485  1.4164 -0.2736
 4862SOL    HW226046   0.685   4.475   7.617 -0.9035 -0.6213 -1.5580
 4863SOL     OW26047   4.357   3.337   8.291  0.0463  0.0279  0.0315
 4863SOL    HW126048   4.279   3.295   8.327 -0.1740  0.6679  0.3137
 4863SOL    HW226049   4.341   3.334   8.197  1.4118 -1.2007 -0.1629
 4864SOL     OW26050   4.709   4.168   7.169 -0.1193  0.1494 -0.6764
 4864SOL    HW126051   4.652   4.149   7.244 -1.0743  0.8238 -1.2261
 4864SOL    HW226052   4.651   4.129   7.104  0.9879 -3.1076  0.2892
 4865SOL     OW26053   4.386   2.652   1.462  0.0408 -0.0531  0.3493
 4865SOL    HW126054   4.463   2.687   1.419 -0.0095  0.9737  1.1050
 4865SOL    HW226055   4.358   2.580   1.406 -2.5513  2.4714 -1.5985
 4866SOL     OW26056   0.452   0.763   7.665 -0.2404 -0.0063  0.7507
 4866SOL    HW126057   0.437   0.728   7.753  1.3351 -2.0551  0.2055
 4866SOL    HW226058   0.417   0.852   7.674 -0.5798  0.2271 -2.8700
 4867SOL     OW26059   0.887   0.068   6.746 -0.2814 -0.0857  0.0999
 4867SOL    HW126060   0.933   0.097   6.824 -0.7784  2.7856 -0.6737
 4867SOL    HW226061   0.822   0.136   6.731 -1.3722 -1.8511 -3.3474
 4868SOL     OW26062   4.675   2.938  17.090  0.1489  0.2630 -0.0647
 4868SOL    HW126063   4.677   2.957  17.184  2.0147  0.3175 -0.1219
 4868SOL    HW226064   4.605   3.002  17.079  1.4710  1.8564  0.7331
 4869SOL     OW26065   1.917   1.474   8.212 -0.3845 -0.2017 -0.2157
 4869SOL    HW126066   1.860   1.534   8.260 -0.1055 -0.2286  0.1450
 4869SOL    HW226067   1.837   1.428   8.184 -0.5612 -0.1578  0.2166
 4870SOL     OW26068   2.029   4.250  11.907  0.0021 -0.1182 -0.3294
 4870SOL    HW126069   2.104   4.270  11.851  0.3899 -2.4599 -0.6246
 4870SOL    HW226070   2.023   4.335  11.951  0.0998 -0.0369 -0.4738
 4871SOL     OW26071   1.899   1.338   1.566 -0.2975  0.5533  0.5918
 4871SOL    HW126072   1.911   1.248   1.597  2.1238  1.1172  1.2547
 4871SOL    HW226073   1.989   1.368   1.579 -0.0419 -0.2681  0.6999
 4872SOL     OW26074   3.206   3.774   4.733 -0.4120  0.7221  0.0335
 4872SOL    HW126075   3.248   3.692   4.759 -0.7868  0.8080  0.8966
 4872SOL    HW226076   3.197   3.759   4.639 -1.1270 -0.6203  0.3160
 4873SOL     OW26077   2.601   4.362   8.444  0.5240 -0.6624 -0.2519
 4873SOL    HW126078   2.624   4.351   8.536  0.7290  0.9421 -0.1136
 4873SOL    HW226079   2.679   4.326   8.402  0.9661  0.2494 -0.1950
 4874SOL     OW26080   1.967   0.020   6.453 -0.0676 -0.1895  0.5483
 4874SOL    HW126081   1.989   0.055   6.539  0.9087  2.0189 -0.6008
 4874SOL    HW226082   2.042   4.687   6.444 -0.2262 -0.1289 -1.1423
 4875SOL     OW26083   2.434   0.210   0.491  0.2641 -0.1712 -0.4299
 4875SOL    HW126084   2.443   0.117   0.510  0.6077 -0.9484 -4.3511
 4875SOL    HW226085   2.366   0.210   0.424 -1.2704 -2.1776  1.1698
 4876SOL     OW26086   2.536   0.349   3.507  0.1567  0.6840  0.1444
 4876SOL    HW126087   2.459   0.292   3.502 -1.4008  2.9633 -2.1990
 4876SOL    HW226088   2.553   0.342   3.413 -0.5055 -0.6442  0.1206
 4877SOL     OW26089   3.386   3.487  13.072  0.2895  0.4990  0.3579
 4877SOL    HW126090   3.394   3.400  13.111 -0.2592 -0.5082 -1.7461
 4877SOL    HW226091   3.441   3.481  12.994 -2.0922  0.5859 -1.3276
 4878SOL     OW26092   3.454   0.443   5.955  0.5879 -0.2358  0.7138
 4878SOL    HW126093   3.467   0.538   5.958 -2.4973  0.3018 -3.4878
 4878SOL    HW226094   3.534   0.419   5.909  2.4020  3.3898  1.9474
 4879SOL     OW26095   1.909   4.402   7.218 -0.3070  0.0841 -0.1598
 4879SOL    HW126096   1.884   4.488   7.184  2.1000  0.7785 -0.1657
 4879SOL    HW226097   1.834   4.405   7.277  0.9514  1.0977  1.3600
 4880SOL     OW26098   3.902   3.253  12.572 -0.5210  0.4526  0.4249
 4880SOL    HW126099   3.858   3.331  12.539 -1.0073  0.3873  0.9183
 4880SOL    HW226100   3.960   3.292  12.638  0.0668 -1.1230  0.8330
 4881SOL     OW26101   4.096   0.711   2.551  0.4955 -0.2364  0.6216
 4881SOL    HW126102   4.002   0.711   2.531  0.6105  1.2821  0.0805
 4881SOL    HW226103   4.096   0.730   2.645 -1.9939 -1.2269  0.8372
 4882SOL     OW26104   3.848   4.229   6.464  0.3213  0.2585  0.0798
 4882SOL    HW126105   3.823   4.310   6.419 -0.2449 -0.4596 -0.8910
 4882SOL    HW226106   3.922   4.248   6.522  0.3564  1.8157 -0.4891
 4883SOL     OW26107   1.708   3.198   7.765  0.0368 -0.2044  0.1834
 4883SOL    HW126108   1.682   3.109   7.787 -0.9184  0.1501  0.4884
 4883SOL    HW226109   1.742   3.179   7.678 -0.6591  3.2061 -0.8363
 4884SOL     OW26110   3.151   1.891   9.261  0.0679 -0.4555 -0.7035
 4884SOL    HW126111   3.150   1.942   9.180 -0.4766  1.6297  0.6149
 4884SOL    HW226112   3.056   1.879   9.268  0.2720  0.4140  3.2133
 4885SOL     OW26113   4.548   2.266   6.243  0.1706 -0.3969  0.4700
 4885SOL    HW126114   4.575   2.284   6.153 -0.9918 -0.8618  0.0271
 4885SOL    HW226115   4.615   2.303   6.301  0.1462 -2.4309  1.8093
 4886SOL     OW26116   3.582   0.489   4.729 -0.1616 -0.3262 -0.0166
 4886SOL    HW126117   3.558   0.413   4.782 -0.9414  0.5460  0.9064
 4886SOL    HW226118   3.520   0.478   4.657  0.5402 -2.3268 -0.2937
 4887SOL     OW26119   3.723   1.305  10.328  0.2565  0.1979  0.3819
 4887SOL    HW126120   3.687   1.358  10.399  0.9018 -0.9605  1.5854
 4887SOL    HW226121   3.801   1.352  10.298  1.6078 -1.2927  1.5282
 4888SOL     OW26122   3.789   1.457   4.145  0.3036 -0.1479  0.0382
 4888SOL    HW126123   3.770   1.490   4.057 -0.3938 -0.0193  0.2378
 4888SOL    HW226124   3.772   1.536   4.196 -0.7310 -1.4523  1.6796
 4889SOL     OW26125   2.116   0.638   9.092 -0.1015 -0.2088  0.7204
 4889SOL    HW126126   2.110   0.676   9.004  3.2861 -0.8799  0.1742
 4889SOL    HW226127   2.092   0.713   9.145 -0.3133 -0.4638  0.9834
 4890SOL     OW26128   2.009   2.603   3.432  0.1025  0.3661 -0.2784
 4890SOL    HW126129   2.057   2.660   3.371 -0.0619 -0.1011 -0.8407
 4890SOL    HW226130   1.972   2.545   3.366  1.4974 -4.3382  3.1160
 4891SOL     OW26131   3.810   3.293   2.660 -0.0392 -0.4678 -0.0324
 4891SOL    HW126132   3.860   3.289   2.741 -2.6482 -2.7956  1.4558
 4891SOL    HW226133   3.771   3.206   2.669 -1.9360  0.2157 -1.4614
 4892SOL     OW26134   1.427   0.276   2.675  0.0849 -0.0702 -0.7976
 4892SOL    HW126135   1.465   0.212   2.736 -0.9630 -0.7451 -0.8562
 4892SOL    HW226136   1.420   0.222   2.596  3.1087 -0.0713 -1.0707
 4893SOL     OW26137   3.478   4.267   1.204 -0.0903 -0.0751  0.5648
 4893SOL    HW126138   3.416   4.328   1.243  1.4794  3.6252 -2.7319
 4893SOL    HW226139   3.429   4.195   1.165 -1.4227  1.2665 -0.2344
 4894SOL     OW26140   0.339   1.822   5.343 -0.1474  0.5643 -0.1891
 4894SOL    HW126141   0.278   1.770   5.290 -2.0398  1.6924  0.8839
 4894SOL    HW226142   0.345   1.766   5.420  0.4153  1.5001  0.4466
 4895SOL     OW26143   0.463   4.221   6.646  0.6968  0.2449 -0.1986
 4895SOL    HW126144   0.475   4.311   6.676  1.4292 -0.6727  2.2798
 4895SOL    HW226145   0.550   4.199   6.612  0.9053 -1.3202  1.3545
 4896SOL     OW26146   2.704   3.046  10.892 -0.5009 -0.3658 -0.5022
 4896SOL    HW126147   2.622   3.064  10.937 -1.1270 -4.1134 -0.1348
 4896SOL    HW226148   2.673   3.008  10.810 -1.8686 -0.6620  0.1584
 4897SOL     OW26149   4.156   2.553  12.938  0.1496 -0.0084  0.1710
 4897SOL    HW126150   4.193   2.489  12.877  0.5984 -0.8807  1.3549
 4897SOL    HW226151   4.237   2.577  12.984 -0.5255  2.2753  0.1811
 4898SOL     OW26152   1.398   2.511   2.225 -0.4737 -0.2567 -0.0402
 4898SOL    HW126153   1.428   2.569   2.155 -1.0310  2.3461  1.8796
 4898SOL    HW226154   1.483   2.475   2.251  0.2902  0.4453 -1.5458
 4899SOL     OW26155   1.066   0.121   8.335  0.2745 -0.1343 -0.1386
 4899SOL    HW126156   1.078   0.026   8.336 -1.8899 -0.4328 -2.3970
 4899SOL    HW226157   1.157   0.151   8.333  0.1166  0.2931 -0.8395
 4900SOL     OW26158   4.723   3.282   6.553  0.3301 -0.2030  0.1562
 4900SOL    HW126159   4.647   3.284   6.611  0.5897 -0.4900  0.5076
 4900SOL    HW226160   0.038   3.197   6.571 -0.4705 -1.1033 -2.2310
 4901SOL     OW26161   2.776   2.297   3.368 -0.3274 -0.2452  0.4395
 4901SOL    HW126162   2.775   2.379   3.416  2.7307  0.6726 -1.0868
 4901SOL    HW226163   2.798   2.323   3.279 -1.8121  1.2346  0.5009
 4902SOL     OW26164   1.140   3.188   3.823 -0.4018 -0.2861 -0.7515
 4902SOL    HW126165   1.092   3.105   3.815 -1.9197  0.3610  1.8027
 4902SOL    HW226166   1.078   3.240   3.874 -0.4733 -1.4388  0.3429
 4903SOL     OW26167   0.555   1.412   4.861  0.0564  0.2324 -0.1318
 4903SOL    HW126168   0.611   1.379   4.790 -0.3814  0.0734 -0.4093
 4903SOL    HW226169   0.578   1.359   4.938  1.0607  1.4920  0.4201
 4904SOL     OW26170   2.116   3.369   5.603  0.2504 -0.1811 -0.2761
 4904SOL    HW126171   2.070   3.305   5.657  3.7968 -3.4149 -1.1263
 4904SOL    HW226172   2.048   3.436   5.593 -0.9451 -1.4190 -0.4470
 4905SOL     OW26173   2.648   1.448   4.078 -0.1736  0.9308  0.2645
 4905SOL    HW126174   2.617   1.358   4.071 -0.8948  1.1234  1.0018
 4905SOL    HW226175   2.570   1.499   4.055  1.0657  2.5430 -0.4054
 4906SOL     OW26176   2.209   2.739  17.132  0.8339 -0.7892  0.0279
 4906SOL    HW126177   2.167   2.682  17.066 -1.0220 -0.1241  0.6466
 4906SOL    HW226178   2.252   2.810  17.085 -1.4037  0.8107  0.4218
 4907SOL     OW26179   3.569   4.003   7.769 -0.0373 -0.3683  0.0284
 4907SOL    HW126180   3.550   4.036   7.857 -1.4339  1.0825 -0.8152
 4907SOL    HW226181   3.626   4.070   7.730 -0.4292  0.4629  0.8798
 4908SOL     OW26182   3.892   1.946   3.046  0.4579 -0.2530 -0.0664
 4908SOL    HW126183   3.882   1.852   3.030  1.8653 -0.4128  0.0433
 4908SOL    HW226184   3.915   1.985   2.962 -0.6320  0.0491 -0.2355
 4909SOL     OW26185   3.356   3.501  11.987 -0.1251 -0.3905  0.6082
 4909SOL    HW126186   3.266   3.533  11.975 -0.9699 -2.1323  2.3446
 4909SOL    HW226187   3.371   3.472  11.896 -2.2602  0.6120 -0.0585
 4910SOL     OW26188   2.132   4.037  16.840  0.5763  0.3434 -0.3568
 4910SOL    HW126189   2.058   4.097  16.835 -0.6370 -1.2133 -1.0117
 4910SOL    HW226190   2.125   3.987  16.759 -3.1945 -0.0728  0.1998
 4911SOL     OW26191   3.815   2.767   9.864  0.1049 -0.2750  0.0619
 4911SOL    HW126192   3.822   2.674   9.890  0.3626 -0.6388 -1.3311
 4911SOL    HW226193   3.897   2.799   9.901 -0.3415 -0.8780  1.5877
 4912SOL     OW26194   1.890   1.786   6.946  0.9060 -0.5348 -0.1324
 4912SOL    HW126195   1.859   1.718   7.006 -1.9782  1.7136  0.9105
 4912SOL    HW226196   1.926   1.849   7.007 -2.3601 -0.4890  1.7113
 4913SOL     OW26197   0.200   1.584   7.621 -0.0904  0.4898  0.2661
 4913SOL    HW126198   0.236   1.649   7.561 -1.5536  1.0712  0.0190
 4913SOL    HW226199   0.134   1.531   7.577  2.4899 -2.1965 -0.4456
 4914SOL     OW26200   4.377   4.177   3.066 -0.8900 -0.1572  0.3975
 4914SOL    HW126201   4.412   4.263   3.044 -2.9293  0.5684 -0.0336
 4914SOL    HW226202   4.290   4.204   3.096  0.7456  3.0925  2.2028
 4915SOL     OW26203   1.026   3.395   5.863  0.0930 -0.8186 -0.1866
 4915SOL    HW126204   1.023   3.455   5.938 -0.6958  1.5091 -2.1113
 4915SOL    HW226205   0.934   3.389   5.840 -0.5894  0.1968  2.1762
 4916SOL     OW26206   0.084   4.007  10.572  0.0927  0.0843  0.1625
 4916SOL    HW126207   0.090   4.102  10.575  1.8690 -0.0717  1.5201
 4916SOL    HW226208   0.145   3.992  10.499 -1.3731  2.5135 -1.5364
 4917SOL     OW26209   0.765   1.762  13.741 -0.8363  0.3298  0.8187
 4917SOL    HW126210   0.711   1.690  13.773 -0.3882 -0.9646 -1.3251
 4917SOL    HW226211   0.722   1.779  13.657 -1.4350 -0.5713  0.9510
 4918SOL     OW26212   1.792   3.637   3.941 -0.2970  0.1198  0.0019
 4918SOL    HW126213   1.763   3.724   3.914  1.1352  1.0504  1.4602
 4918SOL    HW226214   1.756   3.576   3.876 -0.4389 -0.0568  0.2469
 4919SOL     OW26215   4.653   1.754   9.117  0.0881 -0.3700  0.1249
 4919SOL    HW126216   0.001   1.721   9.168  2.6585  0.8437 -2.8329
 4919SOL    HW226217   4.644   1.679   9.058 -0.0177 -0.5609  0.3810
 4920SOL     OW26218   0.161   2.193   6.758 -0.1037 -0.1132  0.3544
 4920SOL    HW126219   0.119   2.125   6.706  0.1401  2.0098 -2.6073
 4920SOL    HW226220   0.233   2.148   6.803 -0.1222 -0.6902 -0.1986
 4921SOL     OW26221   3.411   1.414   1.203  0.3926 -0.2786  0.0678
 4921SOL    HW126222   3.460   1.344   1.161 -0.9947 -0.8656 -0.5548
 4921SOL    HW226223   3.398   1.372   1.288  0.0730 -0.8265 -0.2520
 4922SOL     OW26224   3.374   0.888  15.067 -0.2382  0.3708 -0.0210
 4922SOL    HW126225   3.375   0.871  14.973  1.8121 -0.1218  0.0834
 4922SOL    HW226226   3.279   0.897  15.075 -0.0897  1.4320  0.5964
 4923SOL     OW26227   1.875   2.441  17.415 -0.7097  0.4400  0.1656
 4923SOL    HW126228   1.804   2.465  17.474 -0.8802  1.3322 -0.4104
 4923SOL    HW226229   1.888   2.349  17.435 -0.6488  0.0378 -1.7723
 4924SOL     OW26230   1.135   3.609  17.356 -0.3513 -0.2638  0.6234
 4924SOL    HW126231   1.062   3.619  17.418 -0.0910  3.5889  0.3435
 4924SOL    HW226232   1.095   3.625  17.270  0.3605  1.8637  0.6845
 4925SOL     OW26233   0.290   1.601  11.130 -0.8749 -0.4585  0.1538
 4925SOL    HW126234   0.290   1.600  11.035  0.3872 -1.7269  0.1576
 4925SOL    HW226235   0.351   1.528  11.146  0.3694  0.1852 -1.6629
 4926SOL     OW26236   2.892   4.083   3.635 -0.0069 -0.1511  0.3030
 4926SOL    HW126237   2.876   3.995   3.602 -0.9903 -0.1072  0.6469
 4926SOL    HW226238   2.905   4.068   3.729 -2.0314  0.4849  0.6921
 4927SOL     OW26239   3.248   2.045   4.311  0.4558  0.0456 -0.1838
 4927SOL    HW126240   3.247   2.126   4.260  1.1779 -0.0899 -0.4145
 4927SOL    HW226241   3.180   2.064   4.376  2.2989 -2.0824  2.3566
 4928SOL     OW26242   0.076   3.771   4.057  0.4100 -0.3390  0.1356
 4928SOL    HW126243   0.076   3.828   3.980 -0.1544  1.2904  1.3369
 4928SOL    HW226244   4.717   3.729   4.044  0.8075 -1.3267  0.7565
 4929SOL     OW26245   1.530   0.449   5.454 -0.0028  0.9391 -0.0899
 4929SOL    HW126246   1.491   0.509   5.518 -0.2946 -1.0669  1.5898
 4929SOL    HW226247   1.508   0.365   5.494  2.2050  0.9508  1.1345
 4930SOL     OW26248   1.452   0.913   6.201 -0.2117 -0.1758 -0.4306
 4930SOL    HW126249   1.476   0.831   6.158 -0.8933  0.3395 -1.8051
 4930SOL    HW226250   1.500   0.904   6.284 -0.7890  0.2198 -0.0513
 4931SOL     OW26251   1.405   2.951   8.452  0.5225 -0.4595 -0.4625
 4931SOL    HW126252   1.387   2.867   8.495  1.6384 -0.4519  0.0416
 4931SOL    HW226253   1.394   2.936   8.358 -0.9721 -0.5348 -0.2719
 4932SOL     OW26254   1.452   3.922  13.338 -0.9876  0.0765  0.0575
 4932SOL    HW126255   1.532   3.901  13.385 -1.3867  0.2455  0.8123
 4932SOL    HW226256   1.384   3.919  13.405 -0.6231 -2.3951  0.2867
 4933SOL     OW26257   1.212   3.753   5.903  0.5866 -0.3903 -0.1351
 4933SOL    HW126258   1.230   3.846   5.891  2.6936 -0.9687 -1.3176
 4933SOL    HW226259   1.155   3.765   5.979  0.8617 -1.0187  0.1624
 4934SOL     OW26260   0.890   0.078  14.862  0.0226  0.0332 -0.2135
 4934SOL    HW126261   0.983   0.096  14.849  0.3376 -0.1222  1.9874
 4934SOL    HW226262   0.891   4.717  14.821  0.1700  0.3453 -0.8763
 4935SOL     OW26263   2.560   1.923   0.691 -0.0316 -0.0758 -0.1391
 4935SOL    HW126264   2.470   1.934   0.719 -0.6088 -1.8604 -1.2642
 4935SOL    HW226265   2.563   1.837   0.648 -0.8906 -0.3671  0.4031
 4936SOL     OW26266   3.583   3.352   4.568 -0.1069  0.3295 -0.3405
 4936SOL    HW126267   3.540   3.330   4.486  0.3451 -1.4246 -0.1012
 4936SOL    HW226268   3.602   3.269   4.611  3.9413  1.6493  0.3989
 4937SOL     OW26269   0.134   2.935  15.345  0.2330  0.2411 -0.2631
 4937SOL    HW126270   0.155   3.008  15.402  1.1949  0.9375 -1.4981
 4937SOL    HW226271   0.145   2.972  15.257 -0.9383  0.2863 -0.3834
 4938SOL     OW26272   1.055   1.873   3.280  0.8087  0.5904  0.3912
 4938SOL    HW126273   1.107   1.929   3.338  0.6774 -1.3637  2.4157
 4938SOL    HW226274   1.126   1.847   3.221  1.0567  1.9025  0.1131
 4939SOL     OW26275   2.457   1.064   0.955 -0.1560 -0.0186  0.2284
 4939SOL    HW126276   2.413   1.053   1.039  1.5282 -2.1209  0.8388
 4939SOL    HW226277   2.552   1.060   0.966  0.0676 -1.6569 -2.1281
 4940SOL     OW26278   0.585   0.411   7.706 -0.2439 -0.0967  0.1574
 4940SOL    HW126279   0.651   0.375   7.647  1.7431  0.4955  2.0299
 4940SOL    HW226280   0.632   0.418   7.789 -0.9071 -2.5959  0.7441
 4941SOL     OW26281   2.656   2.234   3.910  0.0040  0.9712  0.1877
 4941SOL    HW126282   2.592   2.285   3.861  0.1482  0.7271 -0.2570
 4941SOL    HW226283   2.645   2.153   3.860 -2.7741  0.3550  1.8040
 4942SOL     OW26284   0.918   4.687   4.916  0.8019 -0.2849  0.4755
 4942SOL    HW126285   0.834   4.686   4.869  1.2476 -0.9434 -0.3090
 4942SOL    HW226286   0.902   0.039   4.969  0.3406 -0.0680  0.0254
 4943SOL     OW26287   1.889   3.255   3.629 -0.0584  0.6717  0.2559
 4943SOL    HW126288   1.798   3.278   3.649 -0.3492  1.0056 -1.4055
 4943SOL    HW226289   1.928   3.338   3.603  1.2154  0.4223  1.4086
 4944SOL     OW26290   1.160   3.847  17.145 -0.2077  0.8181 -0.6237
 4944SOL    HW126291   1.198   3.783  17.084  0.9005  3.0069 -2.2061
 4944SOL    HW226292   1.069   3.843  17.116  0.0939 -0.3499 -1.4123
 4945SOL     OW26293   3.150   3.213   1.929 -0.1507  0.0750 -1.0760
 4945SOL    HW126294   3.170   3.300   1.894  1.2784  1.5143  3.3999
 4945SOL    HW226295   3.055   3.222   1.940  0.0543  0.6008  0.1842
 4946SOL     OW26296   3.236   2.106  11.511  0.0453  0.4360 -0.7771
 4946SOL    HW126297   3.146   2.074  11.501 -0.4956  1.3041  1.3057
 4946SOL    HW226298   3.213   2.192  11.545  0.3023  1.0216 -2.0752
 4947SOL     OW26299   3.029   1.328   1.152  0.6387 -0.2213 -0.2226
 4947SOL    HW126300   2.949   1.332   1.204 -0.0914 -2.2833 -1.1967
 4947SOL    HW226301   3.011   1.402   1.094 -1.4198  0.0028  0.6764
 4948SOL     OW26302   0.798   3.745   5.109  0.0008  0.5858 -0.0260
 4948SOL    HW126303   0.708   3.771   5.089 -0.0687  1.9369  2.0434
 4948SOL    HW226304   0.768   3.686   5.178  0.2366  0.9542  0.3943
 4949SOL     OW26305   3.323   1.622   0.689 -0.3810 -0.2785 -0.1730
 4949SOL    HW126306   3.275   1.661   0.616  1.6033  2.3960 -0.0539
 4949SOL    HW226307   3.371   1.549   0.650  3.2601  1.4724  1.0194
 4950SOL     OW26308   3.031   0.233  17.354  0.3293  0.2404 -0.7431
 4950SOL    HW126309   3.000   0.193  17.435  0.2506 -3.0946 -2.4517
 4950SOL    HW226310   3.023   0.324  17.384 -0.5296  0.2666 -1.0557
 4951SOL     OW26311   2.060   4.553   9.720 -0.3320  0.0231  0.1580
 4951SOL    HW126312   2.153   4.540   9.738 -0.0306  1.0790 -0.6707
 4951SOL    HW226313   2.035   4.460   9.711 -1.2911  0.3238 -0.2903
 4952SOL     OW26314   2.619   3.187   4.187  0.1118  0.3565  0.1950
 4952SOL    HW126315   2.571   3.204   4.269 -0.6065 -0.9781  0.0404
 4952SOL    HW226316   2.665   3.108   4.216  0.6614  0.6258  0.0643
 4953SOL     OW26317   2.988   2.288   2.131 -0.5157  0.2756 -0.0962
 4953SOL    HW126318   2.983   2.376   2.094  0.9654  0.8156  0.9613
 4953SOL    HW226319   3.057   2.298   2.197 -1.0617 -2.1835  0.8283
 4954SOL     OW26320   1.006   3.217   1.919  0.3951 -0.4231  0.1439
 4954SOL    HW126321   1.029   3.138   1.967 -0.2619  0.9048  2.6303
 4954SOL    HW226322   1.091   3.261   1.908  0.6334 -0.8955  0.0780
 4955SOL     OW26323   2.185   4.255   5.173  0.3272 -0.2700 -0.1138
 4955SOL    HW126324   2.274   4.224   5.190 -0.0669 -2.2429 -1.6440
 4955SOL    HW226325   2.157   4.174   5.131  0.0266 -0.7796  1.0538
 4956SOL     OW26326   0.397   2.330   8.627  0.2964  1.3685 -0.2978
 4956SOL    HW126327   0.486   2.294   8.620  0.4004  1.4198  0.8193
 4956SOL    HW226328   0.339   2.261   8.595  3.4067 -1.3581 -0.0049
 4957SOL     OW26329   4.179   3.186   2.642 -0.0557 -0.0950 -0.0121
 4957SOL    HW126330   4.167   3.158   2.733 -0.4050  0.5942  0.1591
 4957SOL    HW226331   4.135   3.271   2.640  1.2011  0.5566 -0.3844
 4958SOL     OW26332   2.071   2.642   4.393 -0.0041 -0.1110 -0.2118
 4958SOL    HW126333   2.075   2.734   4.418 -2.5370  0.0902 -0.5328
 4958SOL    HW226334   2.046   2.655   4.301 -1.1914  4.1107  0.7094
 4959SOL     OW26335   1.471   4.454  10.958 -0.2060  0.1722  0.4827
 4959SOL    HW126336   1.456   4.359  10.959  0.2347  0.0762 -2.6362
 4959SOL    HW226337   1.547   4.456  10.900  0.8941 -0.7996  1.8874
 4960SOL     OW26338   2.219   0.972   5.796  0.1041  0.1870 -1.0562
 4960SOL    HW126339   2.273   0.990   5.873 -1.5743 -1.9316  0.6190
 4960SOL    HW226340   2.169   1.052   5.781 -1.0930 -0.0056  1.9744
 4961SOL     OW26341   1.195   2.157  12.018  0.3181  0.1644 -0.0916
 4961SOL    HW126342   1.105   2.128  12.006  0.9553 -1.3326 -1.2344
 4961SOL    HW226343   1.180   2.252  12.024  0.9642  0.1209  2.0219
 4962SOL     OW26344   2.920   4.420   7.981 -0.1385 -0.4981 -0.0307
 4962SOL    HW126345   2.999   4.407   8.034 -0.4267 -2.2863 -0.0129
 4962SOL    HW226346   2.867   4.472   8.041 -0.8668 -2.7276  1.2915
 4963SOL     OW26347   0.423   0.581  14.593  0.3934 -0.0389 -0.4649
 4963SOL    HW126348   0.418   0.641  14.518  1.8637 -0.0232 -0.5460
 4963SOL    HW226349   0.438   0.495  14.554  0.4415 -0.5290  0.6453
 4964SOL     OW26350   2.809   2.189   4.452  0.2953 -0.4103 -0.1210
 4964SOL    HW126351   2.892   2.186   4.500  0.9435  0.9299 -1.1760
 4964SOL    HW226352   2.840   2.173   4.363  2.6559 -0.6284  0.7396
 4965SOL     OW26353   1.860   2.779   1.055  0.0387 -0.8820 -0.2728
 4965SOL    HW126354   1.899   2.865   1.039 -1.6156  0.1383  1.1565
 4965SOL    HW226355   1.817   2.757   0.972  0.9336 -2.9827 -0.1741
 4966SOL     OW26356   4.418   2.420   2.571  0.0368 -0.1943 -0.3403
 4966SOL    HW126357   4.391   2.468   2.493  0.1285 -0.3047 -0.4404
 4966SOL    HW226358   4.371   2.451   2.648  2.0250  2.4004 -0.1942
 4967SOL     OW26359   2.683   2.707   7.873 -0.4656 -0.1751 -0.0539
 4967SOL    HW126360   2.705   2.620   7.840  1.5208  0.6611 -0.9296
 4967SOL    HW226361   2.767   2.732   7.911  1.0609 -1.2129 -2.7956
 4968SOL     OW26362   0.554   2.290  17.684 -0.1827  0.1199 -0.0924
 4968SOL    HW126363   0.475   2.319   0.024 -0.1048 -0.6612  0.5241
 4968SOL    HW226364   0.617   2.345   0.025  1.4593 -0.6749 -1.3691
 4969SOL     OW26365   1.184   4.019   5.888 -0.0943  0.2795 -0.3325
 4969SOL    HW126366   1.203   4.092   5.947 -0.8051  0.4997 -0.3756
 4969SOL    HW226367   1.237   4.042   5.812  0.5786 -0.2410 -0.0234
 4970SOL     OW26368   0.855   1.702   6.311 -0.2663  0.0287 -0.8908
 4970SOL    HW126369   0.940   1.722   6.350 -0.3934 -1.0461 -0.0884
 4970SOL    HW226370   0.839   1.787   6.268 -0.4162  1.2782  1.6166
 4971SOL     OW26371   1.518   0.907  10.057 -0.4885  0.1426  0.4770
 4971SOL    HW126372   1.438   0.959  10.057 -0.2518  0.5155 -0.7332
 4971SOL    HW226373   1.542   0.894  10.149 -0.4977 -1.2775  0.2893
 4972SOL     OW26374   3.784   4.274  10.218  0.1230  1.0547  0.6313
 4972SOL    HW126375   3.757   4.350  10.167  0.4663  1.0038  0.3745
 4972SOL    HW226376   3.875   4.264  10.192 -0.1059  0.8489 -0.0884
 4973SOL     OW26377   3.221   0.299   8.975 -0.1770 -0.2889  0.2844
 4973SOL    HW126378   3.258   0.211   8.979 -2.0350 -1.0867 -0.2804
 4973SOL    HW226379   3.132   0.288   8.942  0.1168 -1.9537  0.0600
 4974SOL     OW26380   1.792   1.373   4.242  0.2581  0.3412 -0.2331
 4974SOL    HW126381   1.713   1.323   4.265  0.2627 -0.3564 -1.7269
 4974SOL    HW226382   1.794   1.350   4.149 -1.2723  0.2963 -0.2650
 4975SOL     OW26383   1.828   0.243   5.518  0.2420  0.5414 -0.0169
 4975SOL    HW126384   1.816   0.279   5.430 -0.9847 -0.5201 -0.2765
 4975SOL    HW226385   1.846   0.317   5.576 -1.9292  0.7105  0.4469
 4976SOL     OW26386   3.668   1.928  11.168 -0.2724 -0.5812  0.1550
 4976SOL    HW126387   3.729   1.855  11.173 -1.0320 -1.1374  1.1974
 4976SOL    HW226388   3.631   1.940  11.255 -1.5203 -0.0350 -0.4499
 4977SOL     OW26389   4.343   1.087   4.502  0.4905 -0.4616 -0.2065
 4977SOL    HW126390   4.247   1.084   4.505  0.4988  1.8009  2.2935
 4977SOL    HW226391   4.371   1.017   4.559  2.4530 -0.3949 -1.1056
 4978SOL     OW26392   0.249   2.093   4.989 -0.7921  0.4190 -0.6884
 4978SOL    HW126393   0.198   2.133   4.918  0.1984  5.1181  1.2483
 4978SOL    HW226394   0.276   2.008   4.954  1.3235  0.4984  0.7848
 4979SOL     OW26395   4.395   4.441   0.138 -0.2987  0.1282  0.2417
 4979SOL    HW126396   4.416   4.518   0.085 -3.0063  1.7489  1.5000
 4979SOL    HW226397   4.438   4.456   0.223 -1.4443  3.1729  0.3086
 4980SOL     OW26398   1.213   3.833  13.834 -0.7659  0.1615  0.1774
 4980SOL    HW126399   1.167   3.910  13.868 -1.6863  0.2850 -1.3668
 4980SOL    HW226400   1.281   3.798  13.892  0.6626  2.1048 -0.3594
 4981SOL     OW26401   0.651   3.074   2.904 -0.4106 -0.2246 -0.2649
 4981SOL    HW126402   0.702   3.149   2.934 -0.6279 -0.3511  0.4146
 4981SOL    HW226403   0.599   3.058   2.982 -0.2073  1.1634  0.1556
 4982SOL     OW26404   3.932   1.346   3.254 -0.0324 -0.5063 -0.1558
 4982SOL    HW126405   3.996   1.279   3.232 -0.2979 -0.1172 -2.1111
 4982SOL    HW226406   3.983   1.424   3.276 -1.0471  0.5027 -1.3984
 4983SOL     OW26407   1.164   3.233   9.039 -0.0059  0.0433  0.2224
 4983SOL    HW126408   1.133   3.143   9.048  0.0799 -0.1109 -1.0359
 4983SOL    HW226409   1.235   3.218   8.977  0.3903 -0.4849  0.8007
 4984SOL     OW26410   3.267   1.457   4.643  0.0702 -0.6704 -0.6538
 4984SOL    HW126411   3.178   1.451   4.677  0.6574  0.7854  1.1381
 4984SOL    HW226412   3.279   1.367   4.616 -1.0396 -1.2232  0.6911
 4985SOL     OW26413   1.013   4.397   8.159  0.0480 -0.1964 -0.2315
 4985SOL    HW126414   1.017   4.310   8.118 -0.2243 -0.8771  1.1640
 4985SOL    HW226415   0.931   4.425   8.118 -0.0847 -1.0195 -0.5260
 4986SOL     OW26416   3.728   4.260   3.442  0.6836 -0.1444  0.7605
 4986SOL    HW126417   3.655   4.214   3.402  1.8106 -1.4322  0.2024
 4986SOL    HW226418   3.785   4.184   3.436 -0.6786 -0.9588 -1.8328
 4987SOL     OW26419   3.214   2.423   0.100 -0.2299 -0.2784 -0.0822
 4987SOL    HW126420   3.159   2.400   0.175 -1.1884  0.8986 -0.4338
 4987SOL    HW226421   3.281   2.355   0.109  0.4966  0.3057 -1.0437
 4988SOL     OW26422   1.391   1.222   4.417  0.3678 -0.1716  0.2874
 4988SOL    HW126423   1.320   1.213   4.354  2.2135 -1.7822 -1.5960
 4988SOL    HW226424   1.379   1.315   4.433  0.1463  0.2556 -2.3048
 4989SOL     OW26425   3.301   1.706  16.742  0.2636 -0.0402 -0.2245
 4989SOL    HW126426   3.332   1.774  16.803 -2.1651  0.0748  0.8541
 4989SOL    HW226427   3.217   1.685  16.782 -0.4346  3.6875  0.2477
 4990SOL     OW26428   0.411   1.453   2.391  0.2126 -0.2738 -0.3680
 4990SOL    HW126429   0.381   1.395   2.321 -0.1269  0.3531 -0.7311
 4990SOL    HW226430   0.506   1.438   2.394 -0.1283 -2.6537 -0.9579
 4991SOL     OW26431   1.694   4.157   5.921  0.1297 -0.1702  0.3325
 4991SOL    HW126432   1.678   4.224   5.855  2.6733  0.4996  0.4085
 4991SOL    HW226433   1.606   4.152   5.960  1.2336  1.4720  3.0092
 4992SOL     OW26434   1.606   2.889   4.793 -0.7869  0.3009  0.1943
 4992SOL    HW126435   1.685   2.944   4.796  0.3178 -1.4118  2.2214
 4992SOL    HW226436   1.632   2.798   4.803  1.4251  0.9081  0.0284
 4993SOL     OW26437   4.629   0.362   5.846  0.1006 -0.2051 -0.8494
 4993SOL    HW126438   4.632   0.272   5.813 -1.0339 -0.0713 -1.3225
 4993SOL    HW226439   4.647   0.408   5.764 -1.0113 -1.0538 -1.5810
 4994SOL     OW26440   1.719   0.068   9.180 -0.5338  0.1472  0.0444
 4994SOL    HW126441   1.628   0.052   9.155 -0.8476 -1.3798  2.2299
 4994SOL    HW226442   1.725   0.162   9.192 -0.9025  0.0612  0.8963
 4995SOL     OW26443   0.332   0.472   7.021  0.0562 -0.2421 -0.0609
 4995SOL    HW126444   0.376   0.399   6.979 -0.0321  1.4572 -3.0971
 4995SOL    HW226445   0.291   0.419   7.089  1.0074 -1.2716 -0.2944
 4996SOL     OW26446   3.546   2.741   0.003  0.1599 -0.2604 -0.3537
 4996SOL    HW126447   3.610   2.784  17.652 -1.9083  0.6092 -2.0488
 4996SOL    HW226448   3.571   2.649  17.704 -0.6162 -0.6039  1.8542
 4997SOL     OW26449   1.559   1.539  17.239  0.5231  0.1401  0.6611
 4997SOL    HW126450   1.496   1.495  17.294  2.5678 -1.6878  1.5544
 4997SOL    HW226451   1.596   1.611  17.291  2.5345  0.2154 -0.8392
 4998SOL     OW26452   2.998   4.484   3.366  0.0570 -0.2160  0.2302
 4998SOL    HW126453   3.033   4.561   3.411  0.5369 -1.1776  1.5147
 4998SOL    HW226454   2.945   4.449   3.438 -2.2805 -1.5498 -2.1549
 4999SOL     OW26455   3.165   3.099   0.876 -0.1319  0.7230 -0.0487
 4999SOL    HW126456   3.098   3.164   0.854 -1.1394 -0.2581  0.1160
 4999SOL    HW226457   3.246   3.142   0.850 -0.9808  1.1576 -1.9854
 5000SOL     OW26458   3.864   3.547  11.284  0.0033  0.2822 -0.1638
 5000SOL    HW126459   3.817   3.600  11.348  0.6855 -0.6179  1.0745
 5000SOL    HW226460   3.806   3.475  11.259  0.1483  0.0743  0.1035
 5001SOL     OW26461   3.128   1.229   7.301  0.0292 -0.1817 -0.7199
 5001SOL    HW126462   3.146   1.200   7.390  0.2745 -0.5357 -0.8860
 5001SOL    HW226463   3.048   1.177   7.295 -0.2759  0.1029  1.1044
 5002SOL     OW26464   4.182   4.519   7.017  0.3715  0.0833  0.4264
 5002SOL    HW126465   4.164   4.503   7.109 -2.1386  0.6885  0.0531
 5002SOL    HW226466   4.266   4.563   7.021 -0.0808  0.8530  1.3215
 5003SOL     OW26467   0.231   3.631   2.584  0.3679  0.2823 -0.3938
 5003SOL    HW126468   0.273   3.706   2.541  1.8053 -1.7854 -2.6127
 5003SOL    HW226469   0.157   3.687   2.608  0.4447  0.0028  0.4689
 5004SOL     OW26470   2.734   3.991  12.588 -0.5208 -0.3815  0.1174
 5004SOL    HW126471   2.745   3.998  12.683  1.5448 -0.9978 -0.0761
 5004SOL    HW226472   2.657   4.048  12.577  0.2250  0.8162  1.1476
 5005SOL     OW26473   1.434   1.631   5.492 -1.0964  0.2513 -0.2714
 5005SOL    HW126474   1.446   1.541   5.523  1.4289  0.5748 -0.2961
 5005SOL    HW226475   1.395   1.671   5.570 -0.7411  0.0815 -0.0082
 5006SOL     OW26476   1.634   2.717   1.208 -0.1452  0.8587 -0.8868
 5006SOL    HW126477   1.691   2.739   1.281 -0.3782  0.2662 -0.5305
 5006SOL    HW226478   1.692   2.733   1.134  2.9208  1.1328  1.5848
 5007SOL     OW26479   4.389   1.761  10.190 -0.1770  0.1342  0.4672
 5007SOL    HW126480   4.374   1.846  10.149  0.4942  0.8031  1.5848
 5007SOL    HW226481   4.456   1.720  10.136 -0.4717  0.4309 -0.1199
 5008SOL     OW26482   1.597   4.515   6.069  0.8364  0.3507  0.1491
 5008SOL    HW126483   1.653   4.537   5.994  0.6919  2.7612  0.7640
 5008SOL    HW226484   1.575   4.604   6.096  0.4365 -0.1843  1.5911
 5009SOL     OW26485   1.923   2.484   4.586 -0.3515 -0.3533 -0.2333
 5009SOL    HW126486   1.998   2.470   4.644  0.4355 -0.6367 -1.3116
 5009SOL    HW226487   1.967   2.508   4.504  2.3308 -1.8762  0.7647
 5010SOL     OW26488   1.860   0.697  12.549 -0.2564 -0.2090 -0.1392
 5010SOL    HW126489   1.866   0.606  12.518 -0.5368 -0.0958 -0.5190
 5010SOL    HW226490   1.899   0.740  12.473 -0.0730 -1.2747 -0.6559
 5011SOL     OW26491   4.348   0.379   6.998  0.0155  0.1201  0.2221
 5011SOL    HW126492   4.320   0.361   7.088  0.8734 -2.4888 -0.0181
 5011SOL    HW226493   4.263   0.402   6.961  0.1663  0.3830  0.0369
 5012SOL     OW26494   1.229   3.937   2.897 -0.4452 -0.0012 -0.0187
 5012SOL    HW126495   1.198   3.954   2.987 -0.5556 -1.8780  0.3006
 5012SOL    HW226496   1.322   3.960   2.897  0.1328 -2.3356  3.1736
 5013SOL     OW26497   1.113   2.103   2.853  0.1766 -0.3695 -0.3408
 5013SOL    HW126498   1.175   2.176   2.846  2.6109 -2.0849  3.6149
 5013SOL    HW226499   1.070   2.121   2.937  0.3865 -1.5500  0.0087
 5014SOL     OW26500   4.354   4.289   7.588 -0.0480  0.0633  0.1980
 5014SOL    HW126501   4.393   4.292   7.675  0.0122  1.5350  0.1190
 5014SOL    HW226502   4.263   4.280   7.619  0.0959 -0.0906  0.5724
 5015SOL     OW26503   0.438   0.451   8.020 -0.1368 -0.0679 -0.3934
 5015SOL    HW126504   0.528   0.421   8.005 -0.0018 -0.0880  0.4596
 5015SOL    HW226505   0.381   0.386   7.979  0.3725 -0.6002 -0.2527
 5016SOL     OW26506   3.699   1.955  14.624 -0.3085 -0.1996 -0.1561
 5016SOL    HW126507   3.775   1.906  14.655  0.3140  1.6373  1.1929
 5016SOL    HW226508   3.678   1.894  14.554  1.9635 -0.8995 -0.2123
 5017SOL     OW26509   0.189   1.091   8.977 -1.0064  0.5825  0.4992
 5017SOL    HW126510   0.198   1.013   8.923 -2.4856  1.8946 -1.6566
 5017SOL    HW226511   0.098   1.114   8.959 -0.6291  0.8317 -1.1347
 5018SOL     OW26512   2.540   3.732  12.356 -0.3472 -0.0426 -0.1353
 5018SOL    HW126513   2.483   3.775  12.420  0.0811  0.2750  0.0280
 5018SOL    HW226514   2.503   3.644  12.361  0.0343 -0.3149 -2.1086
 5019SOL     OW26515   3.392   3.044   1.892 -0.8033 -0.4939  0.1287
 5019SOL    HW126516   3.327   3.106   1.927  1.0297  1.3826  0.2248
 5019SOL    HW226517   3.386   3.075   1.801 -2.5390  2.4529  1.2476
 5020SOL     OW26518   2.901   4.453   1.332  0.5792  0.0441 -0.1062
 5020SOL    HW126519   2.931   4.527   1.279  1.9631 -1.2202 -1.0661
 5020SOL    HW226520   2.841   4.495   1.393 -0.1540 -0.3175 -0.5814
 5021SOL     OW26521   4.464   3.023  15.388 -0.4158  0.3873 -0.7917
 5021SOL    HW126522   4.370   3.014  15.377 -0.4701 -0.7516  0.7529
 5021SOL    HW226523   4.474   3.033  15.483 -1.4960  0.1327 -0.6523
 5022SOL     OW26524   2.537   0.434  10.988  0.2645 -0.3873  0.1766
 5022SOL    HW126525   2.613   0.411  10.935 -0.0869  0.3751 -0.6594
 5022SOL    HW226526   2.468   0.413  10.926  0.2103 -1.1932  0.5116
 5023SOL     OW26527   0.421   0.163   9.416 -0.1995 -0.5921  0.5857
 5023SOL    HW126528   0.352   0.098   9.427  1.0084 -2.5092 -3.1492
 5023SOL    HW226529   0.444   0.156   9.323  0.1052 -1.4846  0.7271
 5024SOL     OW26530   4.018   1.773   1.788 -0.4729 -0.5129 -0.1949
 5024SOL    HW126531   4.090   1.717   1.757 -1.3397 -1.4787 -0.4705
 5024SOL    HW226532   3.992   1.810   1.704  3.3124 -0.7012 -1.4801
 5025SOL     OW26533   0.222   0.437  12.933 -0.5248 -0.0556  0.3127
 5025SOL    HW126534   0.296   0.447  12.993 -0.5424  1.0741  0.1469
 5025SOL    HW226535   0.191   0.527  12.935  2.2146  0.9386 -1.4977
 5026SOL     OW26536   2.185   0.170   0.645  0.2413  0.3351 -0.6532
 5026SOL    HW126537   2.157   0.241   0.703  3.6887  0.4380  0.8686
 5026SOL    HW226538   2.269   0.203   0.616  0.3754 -0.4798 -1.1683
 5027SOL     OW26539   2.773   3.416  15.304 -0.1437 -0.3233  0.1331
 5027SOL    HW126540   2.853   3.392  15.258 -0.1645  0.2335 -0.1914
 5027SOL    HW226541   2.771   3.511  15.289 -0.9083  0.0806  2.7640
 5028SOL     OW26542   3.133   2.170   8.090  0.0006 -0.1760  0.1050
 5028SOL    HW126543   3.069   2.224   8.136 -0.1511 -1.0476  0.9019
 5028SOL    HW226544   3.098   2.149   8.003  0.5282 -0.7093  0.0196
 5029SOL     OW26545   4.289   3.316   3.365 -0.1143 -0.1431  0.4370
 5029SOL    HW126546   4.337   3.305   3.283  0.6399  1.0624  0.7149
 5029SOL    HW226547   4.275   3.225   3.391  0.9905  0.4311  3.1112
 5030SOL     OW26548   2.300   3.883   1.035  0.0433 -0.1941 -0.1919
 5030SOL    HW126549   2.289   3.927   1.120 -2.6270  2.0561 -1.6919
 5030SOL    HW226550   2.214   3.842   1.026 -0.2863  0.4785 -0.1475
 5031SOL     OW26551   1.066   3.261   8.597 -0.4751 -0.1127  0.6331
 5031SOL    HW126552   0.975   3.277   8.621 -1.8953 -1.6227 -3.7347
 5031SOL    HW226553   1.062   3.179   8.547  0.4290  0.2290 -0.0053
 5032SOL     OW26554   1.137   4.114  10.748  0.0403  0.1357 -0.3759
 5032SOL    HW126555   1.174   4.079  10.667 -1.5383 -2.2717 -0.0747
 5032SOL    HW226556   1.045   4.112  10.719 -0.1219 -0.3322  0.1867
 5033SOL     OW26557   4.449   1.052   8.346 -0.2801 -0.6065 -0.0830
 5033SOL    HW126558   4.502   1.092   8.415  2.5190 -1.8463 -1.4973
 5033SOL    HW226559   4.514   1.035   8.278  0.6462 -0.9306  0.8771
 5034SOL     OW26560   3.538   4.500   1.493 -0.2178 -0.0092  0.3998
 5034SOL    HW126561   3.462   4.557   1.481 -1.2757 -1.6333 -0.6316
 5034SOL    HW226562   3.578   4.556   1.560  2.6265 -0.2913 -1.0492
 5035SOL     OW26563   4.354   1.590   9.187 -0.2026  0.4699  0.3864
 5035SOL    HW126564   4.301   1.661   9.223  1.6997  1.8683  0.4296
 5035SOL    HW226565   4.407   1.569   9.264  0.6469 -0.7210 -0.5252
 5036SOL     OW26566   0.352   1.299  12.201 -0.1924  0.3332 -0.4896
 5036SOL    HW126567   0.392   1.212  12.197  2.7994  1.6430  1.0811
 5036SOL    HW226568   0.260   1.276  12.216  0.2221 -2.3361 -1.9800
 5037SOL     OW26569   2.997   4.244   6.227 -0.3218  0.1005 -0.1443
 5037SOL    HW126570   2.980   4.176   6.291 -1.5430 -0.6425 -1.2457
 5037SOL    HW226571   3.080   4.219   6.186 -0.3902 -0.1693 -0.1157
 5038SOL     OW26572   0.528   2.741   1.821  0.3353 -0.1404  0.4628
 5038SOL    HW126573   0.551   2.648   1.828 -0.7292 -0.4831 -0.4117
 5038SOL    HW226574   0.455   2.730   1.759 -0.9701  2.1768  1.6015
 5039SOL     OW26575   4.258   4.275   1.078  0.2035  0.2099  0.1170
 5039SOL    HW126576   4.326   4.330   1.039  0.0749  0.1245 -0.2264
 5039SOL    HW226577   4.264   4.301   1.170 -0.0818  0.4910  0.0595
 5040SOL     OW26578   2.198   0.943   4.398  0.0035  0.2168 -0.5102
 5040SOL    HW126579   2.118   0.972   4.441 -0.2381  0.5983 -1.2191
 5040SOL    HW226580   2.244   1.026   4.386 -0.3977  0.5324  0.1511
 5041SOL     OW26581   3.223   3.733  14.223  0.0934 -0.4094  0.7640
 5041SOL    HW126582   3.267   3.785  14.291  0.3435  0.2226  0.1187
 5041SOL    HW226583   3.148   3.698  14.270  0.0899 -2.3955 -0.7259
 5042SOL     OW26584   3.754   2.846   6.278  0.7569 -0.5586 -0.2443
 5042SOL    HW126585   3.763   2.933   6.240  1.3157 -1.4789 -2.1745
 5042SOL    HW226586   3.845   2.821   6.262  0.9076 -1.7938  2.5004
 5043SOL     OW26587   3.811   1.866   0.587 -0.5782 -0.6508 -0.3452
 5043SOL    HW126588   3.766   1.785   0.565  2.6010 -1.9943 -1.8914
 5043SOL    HW226589   3.793   1.872   0.681  0.5984  1.5523 -0.2430
 5044SOL     OW26590   1.433   1.208   6.454 -0.4120  0.0482  0.0976
 5044SOL    HW126591   1.525   1.200   6.428 -0.8205 -1.5313 -0.8720
 5044SOL    HW226592   1.447   1.246   6.541  0.4184 -0.0680  0.0106
 5045SOL     OW26593   3.802   0.723  15.931 -0.1254 -0.3635 -0.1084
 5045SOL    HW126594   3.827   0.815  15.935  0.6438 -0.4980 -2.0047
 5045SOL    HW226595   3.847   0.702  15.849 -0.5316 -1.9628  0.0672
 5046SOL     OW26596   2.720   3.458   4.338 -0.2493 -0.0455  0.0493
 5046SOL    HW126597   2.714   3.444   4.432  1.6269 -0.8831  0.0329
 5046SOL    HW226598   2.676   3.384   4.295 -0.9877  0.0092  0.7161
 5047SOL     OW26599   3.098   0.475   2.617 -0.8403 -0.0049  0.4899
 5047SOL    HW126600   3.116   0.405   2.679 -0.5492  1.3043  1.8944
 5047SOL    HW226601   3.004   0.460   2.604 -0.9424  1.5748 -0.6155
 5048SOL     OW26602   0.734   2.907  16.121 -0.0256 -0.2640 -0.2000
 5048SOL    HW126603   0.762   2.827  16.167 -2.7869  0.2240  2.3272
 5048SOL    HW226604   0.658   2.867  16.079 -0.7409 -0.1483  0.9978
 5049SOL     OW26605   4.282   2.538   2.773 -0.1067 -0.8079 -0.0253
 5049SOL    HW126606   4.332   2.619   2.784 -0.4269 -0.8113  1.5728
 5049SOL    HW226607   4.203   2.562   2.822 -0.3533  0.5297 -1.1131
 5050SOL     OW26608   4.308   0.975   3.834  0.4395 -0.0107  0.2913
 5050SOL    HW126609   4.375   0.918   3.797  0.3707 -1.1202  1.8857
 5050SOL    HW226610   4.253   0.984   3.756  3.6143  1.0468 -1.8495
 5051SOL     OW26611   0.341   2.127   0.208  0.2499 -0.8299 -0.3705
 5051SOL    HW126612   0.289   2.198   0.244  1.4594  0.1962 -0.6436
 5051SOL    HW226613   0.279   2.056   0.225  0.1329 -0.1495  2.0813
 5052SOL     OW26614   3.011   4.694   6.832 -0.4234 -0.0864  0.0869
 5052SOL    HW126615   3.007   4.663   6.923 -0.1260  1.1721  0.5158
 5052SOL    HW226616   2.989   4.615   6.781 -0.0698  0.0177 -0.2263
 5053SOL     OW26617   3.001   2.111   3.899 -0.0169  0.2254  0.3906
 5053SOL    HW126618   3.075   2.055   3.922 -1.4879 -1.1185  1.8544
 5053SOL    HW226619   2.948   2.037   3.871  1.5523 -0.5336 -0.5673
 5054SOL     OW26620   1.831   2.548  10.453  0.1876  0.0129 -0.1323
 5054SOL    HW126621   1.898   2.499  10.501 -0.1221 -1.0747 -0.8050
 5054SOL    HW226622   1.840   2.636  10.488 -0.7139  0.2630 -0.5377
 5055SOL     OW26623   3.862   3.396   6.769  0.0978 -0.2766 -0.3582
 5055SOL    HW126624   3.918   3.374   6.843  0.5872 -0.7860 -0.8810
 5055SOL    HW226625   3.781   3.411   6.818  0.1028 -0.4251 -0.3031
 5056SOL     OW26626   4.448   0.031   0.280  0.1179  0.1749  0.0130
 5056SOL    HW126627   4.457   0.018   0.185 -2.6986 -0.3191 -0.1706
 5056SOL    HW226628   4.454   4.666   0.310  0.2105 -0.1118 -0.8580
 5057SOL     OW26629   1.080   3.429  13.341 -0.3641 -0.2211 -0.3633
 5057SOL    HW126630   1.157   3.480  13.315  0.6225 -1.7478 -0.4203
 5057SOL    HW226631   1.012   3.464  13.283 -0.4142 -0.6523 -0.5696
 5058SOL     OW26632   0.546   4.377   7.716 -0.2617  0.0979  0.7131
 5058SOL    HW126633   0.500   4.293   7.728  3.2463 -2.1939 -1.9260
 5058SOL    HW226634   0.472   4.434   7.696  0.3668  0.2107 -1.3368
 5059SOL     OW26635   2.640   4.204  13.194  0.4062  0.1702  0.3211
 5059SOL    HW126636   2.581   4.279  13.186 -0.5651 -0.7010 -0.5861
 5059SOL    HW226637   2.688   4.218  13.112  1.1961 -2.8316  0.2654
 5060SOL     OW26638   2.971   0.498   7.062  0.0488 -0.3417 -0.1299
 5060SOL    HW126639   2.975   0.565   7.130  0.2973 -2.4069  1.8914
 5060SOL    HW226640   2.927   0.541   6.989  3.4150 -3.1667 -3.8465
 5061SOL     OW26641   1.382   4.034   6.548 -0.0237  0.7420  0.8593
 5061SOL    HW126642   1.393   4.122   6.584  1.5142  0.4966  0.9836
 5061SOL    HW226643   1.464   4.001   6.585  0.5218  0.2054 -0.8422
 5062SOL     OW26644   0.079   3.945   5.784  0.0018  0.2511 -0.0076
 5062SOL    HW126645   0.038   3.918   5.702 -1.1898 -3.2738  1.7624
 5062SOL    HW226646   0.107   4.033   5.758 -0.8656  0.7926  0.8890
 5063SOL     OW26647   1.206   0.972   2.497 -0.1892  0.0980  0.2158
 5063SOL    HW126648   1.135   1.002   2.553  0.4226  0.9840  0.5058
 5063SOL    HW226649   1.211   0.878   2.518  0.3210 -0.0514 -0.5505
 5064SOL     OW26650   2.199   0.308   5.943  0.7280  0.2055  0.2285
 5064SOL    HW126651   2.166   0.355   6.020 -1.0103 -0.7685  0.0790
 5064SOL    HW226652   2.257   0.373   5.903 -0.6228  1.6734  0.6381
 5065SOL     OW26653   4.232   2.323   6.217  0.0435 -0.5000  0.1482
 5065SOL    HW126654   4.174   2.264   6.266  0.9738 -2.2628 -0.8728
 5065SOL    HW226655   4.315   2.289   6.250 -0.8344 -0.7858  2.1088
 5066SOL     OW26656   2.343   0.427   4.709  0.1344 -0.4283 -0.3373
 5066SOL    HW126657   2.368   0.377   4.632  0.6255  1.5193 -1.4446
 5066SOL    HW226658   2.421   0.427   4.765 -0.2558  0.8753  0.2144
 5067SOL     OW26659   2.414   2.315   6.164 -0.9551  0.0447 -0.5283
 5067SOL    HW126660   2.476   2.348   6.229 -0.7691 -0.3566 -0.5036
 5067SOL    HW226661   2.380   2.242   6.216 -0.0289 -0.8229 -1.1438
 5068SOL     OW26662   2.248   3.071   8.823 -0.0258  0.0293 -0.7600
 5068SOL    HW126663   2.253   3.074   8.919 -0.0113 -1.3589 -0.7262
 5068SOL    HW226664   2.205   3.154   8.801 -1.4524 -0.0569  1.7026
 5069SOL     OW26665   3.788   4.113   2.728  0.0092  0.0766  0.1031
 5069SOL    HW126666   3.835   4.155   2.656 -2.2550  0.6184 -1.0647
 5069SOL    HW226667   3.847   4.046   2.763 -0.3825 -0.0690  0.4775
 5070SOL     OW26668   4.350   2.072  11.316 -0.1694 -0.4280 -0.2379
 5070SOL    HW126669   4.255   2.084  11.314 -0.0314  0.8565  0.9944
 5070SOL    HW226670   4.382   2.114  11.237  1.4385  0.5202  0.9156
 5071SOL     OW26671   3.151   3.859  16.502 -0.1732  0.5821 -0.0581
 5071SOL    HW126672   3.121   3.919  16.434 -2.6880 -2.2338 -1.4305
 5071SOL    HW226673   3.111   3.780  16.466 -0.7204  1.5387 -1.5365
 5072SOL     OW26674   4.131   1.176   3.149  0.2198 -0.0857 -0.3843
 5072SOL    HW126675   4.170   1.184   3.062  0.7647 -0.8292 -0.2122
 5072SOL    HW226676   4.197   1.157   3.216 -1.1068 -0.1124  0.9141
 5073SOL     OW26677   0.187   0.902   6.261 -0.1234 -0.1843  0.0748
 5073SOL    HW126678   0.238   0.927   6.184  2.0501 -3.4590  0.4396
 5073SOL    HW226679   0.186   0.977   6.320 -0.7639  1.4036 -1.9707
 5074SOL     OW26680   0.632   1.842   5.229  0.4964  0.1653  0.5536
 5074SOL    HW126681   0.689   1.768   5.210  3.2332  3.0838 -2.7299
 5074SOL    HW226682   0.545   1.804   5.219 -0.6867  3.4751 -1.9038
 5075SOL     OW26683   1.287   4.087   3.305  0.1575  0.1845  0.2418
 5075SOL    HW126684   1.258   4.008   3.259 -2.2547  1.5110 -0.5493
 5075SOL    HW226685   1.293   4.054   3.394 -0.1306  1.3589  0.6946
 5076SOL     OW26686   3.347   3.922   4.396 -0.4249  0.2508  0.5300
 5076SOL    HW126687   3.311   4.010   4.397 -0.1968  0.3795 -1.7989
 5076SOL    HW226688   3.437   3.954   4.384  0.8424 -3.2332  0.6064
 5077SOL     OW26689   4.118   1.752   7.746 -0.1282  0.3418 -0.4615
 5077SOL    HW126690   4.145   1.688   7.812  2.2754 -0.1192 -1.9021
 5077SOL    HW226691   4.146   1.838   7.777  0.6587 -0.1297  0.1426
 5078SOL     OW26692   0.288   1.840  13.612  0.2388 -0.1746 -0.5890
 5078SOL    HW126693   0.300   1.748  13.590 -1.6988 -0.9070  1.3293
 5078SOL    HW226694   0.210   1.837  13.669  0.7163 -1.9316 -0.0458
 5079SOL     OW26695   0.151   4.010   3.165  0.0403 -0.2635  0.0596
 5079SOL    HW126696   0.104   4.048   3.239  2.2173  1.9643  0.3045
 5079SOL    HW226697   0.235   4.053   3.182  0.2042 -1.2612  1.7068
 5080SOL     OW26698   2.050   2.593  17.572  0.0916 -0.2675 -0.4797
 5080SOL    HW126699   1.991   2.561  17.503 -1.1582  1.0961 -0.0389
 5080SOL    HW226700   2.122   2.631  17.522  0.5807  0.8055  1.0701
 5081SOL     OW26701   1.507   4.400   2.012  0.8560  0.3876  0.2583
 5081SOL    HW126702   1.541   4.456   1.942  0.2735  0.7003  0.2245
 5081SOL    HW226703   1.419   4.434   2.025  1.4010  0.9746  2.3071
 5082SOL     OW26704   2.621   0.544  11.220 -0.3935  0.4022 -0.3165
 5082SOL    HW126705   2.618   0.534  11.125 -2.8773  0.1911 -0.2236
 5082SOL    HW226706   2.543   0.597  11.235 -1.2902 -1.3861  1.3084
 5083SOL     OW26707   4.020   1.906   7.400 -0.3255  0.4863  0.2853
 5083SOL    HW126708   4.062   1.948   7.474 -1.2184  1.0485  0.4814
 5083SOL    HW226709   4.031   1.973   7.332  0.3314  0.9069  0.8063
 5084SOL     OW26710   1.101   1.988   0.069  0.6437 -0.5866 -0.0115
 5084SOL    HW126711   1.006   1.992   0.065  0.6578 -0.9460 -0.6981
 5084SOL    HW226712   1.109   1.905   0.023  2.0633 -1.4503  1.7781
 5085SOL     OW26713   4.110   4.141   7.010 -0.1397 -0.2689  0.4031
 5085SOL    HW126714   4.140   4.078   6.945  1.1956 -0.7013  1.4343
 5085SOL    HW226715   4.042   4.190   6.966 -1.4587  0.3407  3.0930
 5086SOL     OW26716   2.534   2.614   1.283  0.1563 -0.2299  0.3128
 5086SOL    HW126717   2.453   2.638   1.236 -0.1921  0.3553  1.2124
 5086SOL    HW226718   2.536   2.679   1.353  1.9406  0.5779 -0.5015
 5087SOL     OW26719   3.310   4.632   1.468 -0.4479 -0.3016 -0.2951
 5087SOL    HW126720   3.229   4.654   1.513  0.1140  2.3791 -0.6019
 5087SOL    HW226721   3.295   4.673   1.382 -1.5530  2.3009  1.1270
 5088SOL     OW26722   1.911   1.087   1.681 -0.9056 -0.3760 -0.0147
 5088SOL    HW126723   1.897   1.007   1.631  0.5346 -1.0025  0.5675
 5088SOL    HW226724   1.991   1.060   1.726  0.1249 -1.3264 -2.4149
 5089SOL     OW26725   1.401   0.938  10.479  0.2727 -0.6489  0.0037
 5089SOL    HW126726   1.435   0.853  10.453  1.0367  0.2276 -1.8998
 5089SOL    HW226727   1.324   0.910  10.528 -1.0777  2.1423 -0.4611
 5090SOL     OW26728   3.970   1.523  15.090  0.0266 -0.0975 -0.6924
 5090SOL    HW126729   4.038   1.489  15.032  3.2221  0.9747  2.4155
 5090SOL    HW226730   4.032   1.546  15.159  0.1080 -0.9711 -0.4700
 5091SOL     OW26731   4.175   1.176   7.551  0.3974  0.2225 -0.1037
 5091SOL    HW126732   4.257   1.142   7.515  0.5728  0.3431  0.1822
 5091SOL    HW226733   4.210   1.181   7.639 -2.9267  2.5456  1.0701
 5092SOL     OW26734   0.130   3.555  15.714  0.2580  0.2280  0.6629
 5092SOL    HW126735   0.131   3.461  15.733 -1.1671  0.3410  1.3326
 5092SOL    HW226736   0.221   3.574  15.735  0.0354  2.6176 -0.4880
 5093SOL     OW26737   4.526   1.165   2.324  0.2339  0.2372  0.3253
 5093SOL    HW126738   4.530   1.082   2.277 -1.6541 -0.7266  1.8756
 5093SOL    HW226739   4.583   1.141   2.397  0.9560 -2.5498 -1.1548
 5094SOL     OW26740   3.335   3.204  10.163 -0.2244  0.1059  0.1446
 5094SOL    HW126741   3.285   3.286  10.162 -0.2742  0.0634 -0.8699
 5094SOL    HW226742   3.264   3.154  10.205  0.9121  0.6078  2.6248
 5095SOL     OW26743   2.685   0.994   5.003  0.3035 -0.3211  0.6190
 5095SOL    HW126744   2.699   1.089   5.009  1.9874 -0.4155 -1.7877
 5095SOL    HW226745   2.659   0.987   4.911  1.5588 -0.0815  0.2309
 5096SOL     OW26746   3.983   1.448   4.514 -0.4948 -0.0156 -0.1010
 5096SOL    HW126747   4.064   1.468   4.560 -0.6414  1.8143 -0.6691
 5096SOL    HW226748   3.977   1.508   4.440 -2.6174 -1.3484 -1.0336
 5097SOL     OW26749   1.909   1.874   8.095  0.1303 -0.3476  0.2043
 5097SOL    HW126750   1.970   1.838   8.031  1.5557 -0.9792  1.8951
 5097SOL    HW226751   1.830   1.868   8.042  0.0419  2.1861  0.0666
 5098SOL     OW26752   1.949   4.663  17.474 -0.6950  0.1214 -0.2150
 5098SOL    HW126753   2.019   4.599  17.465 -2.4619 -1.5265 -2.2761
 5098SOL    HW226754   1.876   4.602  17.466 -1.3502  1.1353 -1.9430
 5099SOL     OW26755   0.172   4.584   4.829  0.0604  0.7988 -0.0798
 5099SOL    HW126756   0.171   4.624   4.916 -0.3970  0.1734  0.1948
 5099SOL    HW226757   0.200   4.657   4.773 -1.0623  0.8718 -0.5264
 5100SOL     OW26758   1.980   3.709   5.860  0.3007  0.6290 -0.0036
 5100SOL    HW126759   1.968   3.643   5.791  0.4518  2.2233 -1.5742
 5100SOL    HW226760   1.953   3.788   5.812  0.0181  1.1294  0.9743
 5101SOL     OW26761   0.872   2.080   6.493 -0.3675 -0.0162 -0.3526
 5101SOL    HW126762   0.923   2.096   6.572  0.1362  0.1444 -0.7062
 5101SOL    HW226763   0.883   2.160   6.442 -0.9435  0.0817 -0.3273
 5102SOL     OW26764   2.129   1.040   3.950 -0.9979  0.0428 -0.2624
 5102SOL    HW126765   2.173   1.034   3.866 -0.4602  0.0885  0.0193
 5102SOL    HW226766   2.095   1.130   3.947  1.9706  1.1649 -0.5206
 5103SOL     OW26767   2.449   2.933   1.441  0.8887  0.4334 -0.4105
 5103SOL    HW126768   2.530   2.900   1.479 -0.7874 -2.3626  0.7241
 5103SOL    HW226769   2.493   2.999   1.386 -2.7276  2.9242 -0.3338
 5104SOL     OW26770   2.342   0.916   9.758 -0.3495  0.5104  0.4068
 5104SOL    HW126771   2.360   0.827   9.788  0.8456  0.0019 -1.7852
 5104SOL    HW226772   2.316   0.972   9.831 -0.9379 -1.1062  1.4515
 5105SOL     OW26773   0.007   3.658  10.417  0.2333 -0.3397 -0.0065
 5105SOL    HW126774   0.099   3.634  10.428  0.4183 -0.4354 -1.8115
 5105SOL    HW226775   4.702   3.668  10.507  2.8963  2.6958  0.5585
 5106SOL     OW26776   1.228   1.361  13.229  0.5049 -0.0693  0.0407
 5106SOL    HW126777   1.306   1.318  13.194  1.0112  1.0800 -0.2246
 5106SOL    HW226778   1.244   1.445  13.188  0.6820  0.3095  0.8777
 5107SOL     OW26779   1.177   0.487   7.151 -0.7716  0.3764 -0.5426
 5107SOL    HW126780   1.174   0.576   7.188 -2.1511  0.3753 -0.6629
 5107SOL    HW226781   1.263   0.473   7.190 -2.0674 -0.1901  2.1222
 5108SOL     OW26782   0.889   0.584  10.835  0.2087 -0.0176 -0.4671
 5108SOL    HW126783   0.899   0.490  10.852  0.0532  0.1378  0.5231
 5108SOL    HW226784   0.802   0.585  10.795 -0.7482 -1.5737  1.5302
 5109SOL     OW26785   3.650   4.581  12.626  0.6249  0.1640 -0.1648
 5109SOL    HW126786   3.593   4.627  12.687  1.4530 -0.1020  0.7986
 5109SOL    HW226787   3.668   4.633  12.547  1.4948  1.2849  0.7783
 5110SOL     OW26788   0.416   0.421   9.516  0.4714 -0.4926  0.1110
 5110SOL    HW126789   0.453   0.398   9.602  1.4632  2.5358  0.4711
 5110SOL    HW226790   0.419   0.335   9.474  1.1803 -0.1025 -0.6247
 5111SOL     OW26791   0.529   1.980   6.232  0.3119  0.0460  0.4546
 5111SOL    HW126792   0.548   1.978   6.326  0.9176  2.4044  0.3717
 5111SOL    HW226793   0.553   2.070   6.209  0.8446 -0.3071 -0.4133
 5112SOL     OW26794   0.149   2.631   0.195 -0.3130  0.3562  0.3977
 5112SOL    HW126795   0.175   2.591   0.112  0.9292  1.2967  0.3463
 5112SOL    HW226796   0.131   2.553   0.247  2.1521  1.3213  2.6732
 5113SOL     OW26797   3.729   2.125   1.693 -0.3566 -0.2782  0.1000
 5113SOL    HW126798   3.734   2.219   1.710 -0.4576 -0.4579  1.1046
 5113SOL    HW226799   3.776   2.083   1.765 -0.3995  0.4976  0.5787
 5114SOL     OW26800   2.033   3.458  11.888  0.0295  0.1737  0.1693
 5114SOL    HW126801   2.128   3.451  11.893 -0.0884 -1.2796  0.3427
 5114SOL    HW226802   2.025   3.550  11.912  2.3300  0.4345 -0.1461
 5115SOL     OW26803   4.399   2.989  17.644  1.1029 -0.4089 -0.0320
 5115SOL    HW126804   4.375   2.904  17.606  0.3304  0.3527 -1.2542
 5115SOL    HW226805   4.323   3.033  17.607  1.4151  0.2729  0.1437
 5116SOL     OW26806   2.457   2.370   3.783 -0.2189 -0.2673 -0.0160
 5116SOL    HW126807   2.530   2.394   3.724 -0.2644  1.8741  0.8077
 5116SOL    HW226808   2.395   2.376   3.710 -2.0421 -0.7983  1.5107
 5117SOL     OW26809   2.113   0.722   5.795  0.0306 -0.0087  0.2532
 5117SOL    HW126810   2.049   0.752   5.730  1.7537 -0.8929 -1.8407
 5117SOL    HW226811   2.139   0.811   5.821  1.5982 -0.8438  1.4563
 5118SOL     OW26812   0.213   1.515  14.007 -0.2373 -0.7962 -0.7917
 5118SOL    HW126813   0.142   1.489  14.065  1.6880  1.3614  2.4665
 5118SOL    HW226814   0.198   1.448  13.940  0.3134 -0.4595 -1.2547
 5119SOL     OW26815   1.790   1.279   2.409 -0.0790  0.4115  0.5230
 5119SOL    HW126816   1.797   1.185   2.398 -0.7637  0.4392 -0.1568
 5119SOL    HW226817   1.877   1.302   2.442 -0.6923  1.2615  1.5372
 5120SOL     OW26818   1.535   0.462  13.664  0.2870  0.1195 -0.3073
 5120SOL    HW126819   1.463   0.525  13.655  0.6639  0.5928 -0.0172
 5120SOL    HW226820   1.521   0.396  13.596  0.7603  1.9964 -2.2254
 5121SOL     OW26821   3.305   1.560   6.082 -0.5742  0.0577 -0.3226
 5121SOL    HW126822   3.347   1.616   6.148  1.2299 -0.0324 -1.3985
 5121SOL    HW226823   3.214   1.590   6.083 -0.8225 -0.6665 -1.2106
 5122SOL     OW26824   2.592   2.327   6.964  0.1680  0.0743  0.0467
 5122SOL    HW126825   2.679   2.291   6.943 -0.4533 -0.6826 -1.1846
 5122SOL    HW226826   2.610   2.374   7.046  0.2624 -0.4873  0.3516
 5123SOL     OW26827   3.826   0.373  11.185 -0.5753 -0.8541  0.5428
 5123SOL    HW126828   3.742   0.396  11.224 -0.8086  2.9352 -2.2574
 5123SOL    HW226829   3.900   0.410  11.234 -1.2113 -0.3269  1.0935
 5124SOL     OW26830   0.610   2.200   6.110  0.0764 -0.5279 -0.4161
 5124SOL    HW126831   0.681   2.237   6.162 -0.9692 -0.0149  0.6695
 5124SOL    HW226832   0.595   2.270   6.047  0.1722 -0.8902 -0.8423
 5125SOL     OW26833   3.572   3.605   8.240  0.0321 -0.7410  0.4706
 5125SOL    HW126834   3.633   3.662   8.193 -2.3315  2.2994  1.1105
 5125SOL    HW226835   3.625   3.578   8.315 -0.9712 -0.1227  1.4090
 5126SOL     OW26836   4.329   1.226   4.993 -0.4097  0.2258  0.0472
 5126SOL    HW126837   4.301   1.314   5.015 -0.1443 -0.4537  3.0279
 5126SOL    HW226838   4.240   1.202   4.964  0.1176 -0.3556 -1.1217
 5127SOL     OW26839   4.480   4.548   5.624 -0.4129  0.0544  0.0048
 5127SOL    HW126840   4.440   4.613   5.683 -1.5685 -0.1853 -0.5133
 5127SOL    HW226841   4.568   4.585   5.614 -0.6281  0.7164  0.5549
 5128SOL     OW26842   2.231   2.293  15.030  0.1860 -0.2115  0.0100
 5128SOL    HW126843   2.249   2.254  15.116 -1.7336 -2.5042 -0.6252
 5128SOL    HW226844   2.216   2.220  14.970  0.3588 -0.6385  0.4857
 5129SOL     OW26845   2.604   4.051   9.455 -0.3553 -0.0075  0.0910
 5129SOL    HW126846   2.631   4.061   9.364 -1.5266  0.7471 -0.1742
 5129SOL    HW226847   2.509   4.038   9.449  0.0884 -2.7319 -0.7678
 5130SOL     OW26848   4.214   2.133   1.282  0.0420  0.2048 -0.1643
 5130SOL    HW126849   4.243   2.158   1.195  0.6029  1.7655  0.4793
 5130SOL    HW226850   4.118   2.139   1.282 -0.0879 -1.6078 -0.1495
 5131SOL     OW26851   1.711   2.386   6.301  0.2602 -0.4084 -0.2978
 5131SOL    HW126852   1.804   2.369   6.284  0.2732  1.6536 -2.2055
 5131SOL    HW226853   1.717   2.469   6.347 -0.7490 -1.1019  1.0947
 5132SOL     OW26854   3.635   2.692   1.250 -0.0964  0.3976  0.0452
 5132SOL    HW126855   3.664   2.705   1.160  0.0639  1.8512  0.3090
 5132SOL    HW226856   3.583   2.772   1.247 -0.2153  0.3073 -0.3004
 5133SOL     OW26857   1.301   3.430   0.371 -0.6729 -0.0348  0.7161
 5133SOL    HW126858   1.301   3.452   0.277 -2.1267  0.2525  0.7778
 5133SOL    HW226859   1.396   3.427   0.377 -0.6365  0.3829  0.4139
 5134SOL     OW26860   1.284   3.469   7.588  0.4139  0.7063  0.3599
 5134SOL    HW126861   1.316   3.517   7.512 -1.6447  1.3576 -0.0817
 5134SOL    HW226862   1.191   3.472   7.567  0.9133  0.5191 -1.9050
 5135SOL     OW26863   1.858   1.557  16.239  0.3428  0.0024 -0.2691
 5135SOL    HW126864   1.835   1.465  16.222 -0.1679  0.2130 -0.6748
 5135SOL    HW226865   1.773   1.590  16.212  0.2267 -0.6060 -0.6373
 5136SOL     OW26866   3.555   4.459   3.581  0.3333  0.1266  0.1609
 5136SOL    HW126867   3.535   4.405   3.657  1.2438 -2.9811 -1.7861
 5136SOL    HW226868   3.565   4.402   3.505 -1.3545 -0.6086  0.4993
 5137SOL     OW26869   2.934   0.348  15.296  0.0604  0.5824 -0.3505
 5137SOL    HW126870   2.995   0.420  15.278  0.8875 -0.2555 -0.9030
 5137SOL    HW226871   2.897   0.385  15.376 -0.2846  3.0144 -1.6334
 5138SOL     OW26872   2.891   2.052   9.164 -0.2277  0.1971  0.4443
 5138SOL    HW126873   2.826   2.116   9.194  1.8086  1.2113  2.7035
 5138SOL    HW226874   2.909   1.989   9.234 -0.9645  1.1481  1.4874
 5139SOL     OW26875   1.329   3.235   5.701 -0.1958  0.0655  0.2056
 5139SOL    HW126876   1.391   3.179   5.655  0.3891  0.7656  0.1480
 5139SOL    HW226877   1.286   3.278   5.628 -0.4372 -0.7513 -0.1315
 5140SOL     OW26878   4.167   0.605   4.017  0.2822 -0.7598 -0.3698
 5140SOL    HW126879   4.240   0.668   4.010 -0.1261 -0.1144  1.2239
 5140SOL    HW226880   4.133   0.622   4.105  0.2807 -0.3532 -0.4451
 5141SOL     OW26881   1.539   1.659  13.799  0.1390 -0.0278 -0.1603
 5141SOL    HW126882   1.611   1.603  13.769 -0.4919 -0.4146 -0.9594
 5141SOL    HW226883   1.576   1.689  13.882 -0.4867  1.8450 -0.5409
 5142SOL     OW26884   2.209   0.419   3.892  0.4867 -0.1548  0.0290
 5142SOL    HW126885   2.195   0.483   3.822 -0.7075  1.4793  1.7549
 5142SOL    HW226886   2.169   0.463   3.967  0.2064  1.0905 -0.8510
 5143SOL     OW26887   3.184   1.469  10.202  0.3159  0.1595  0.0042
 5143SOL    HW126888   3.191   1.495  10.294  1.5985  0.3868 -0.1585
 5143SOL    HW226889   3.114   1.404  10.200 -0.7784  1.3199  1.1631
 5144SOL     OW26890   2.189   3.174   6.854  0.1604 -0.1981  0.0633
 5144SOL    HW126891   2.185   3.246   6.791  1.2739 -0.3679 -0.2001
 5144SOL    HW226892   2.234   3.212   6.929  0.0890  0.1471 -0.0674
 5145SOL     OW26893   1.732   0.280   7.506 -0.3497  0.9120  0.2547
 5145SOL    HW126894   1.693   0.366   7.491  0.8321  1.8076  2.3156
 5145SOL    HW226895   1.727   0.290   7.601  0.1965  0.1899  0.3582
 5146SOL     OW26896   4.521   2.821   8.273 -0.0873  0.3638  0.0055
 5146SOL    HW126897   4.572   2.902   8.275  2.5781 -1.3176 -0.1186
 5146SOL    HW226898   4.467   2.840   8.350  0.7739  1.5571  0.3091
 5147SOL     OW26899   3.953   2.247  10.095 -0.0764  0.1115  0.2479
 5147SOL    HW126900   3.926   2.328  10.139  0.4242  0.3937  0.0423
 5147SOL    HW226901   4.020   2.216  10.157  0.3462 -2.6900 -1.6351
 5148SOL     OW26902   1.417   1.727  12.674 -0.1024 -0.5308 -0.6260
 5148SOL    HW126903   1.324   1.730  12.654 -0.5426  0.4269  1.5847
 5148SOL    HW226904   1.414   1.817  12.708  1.6977 -0.4250 -0.7553
 5149SOL     OW26905   1.995   4.479   1.428 -0.2406 -0.7017 -0.3536
 5149SOL    HW126906   1.988   4.549   1.493 -1.3743 -1.1380 -0.0067
 5149SOL    HW226907   1.949   4.403   1.462  1.4259 -1.1043  0.9768
 5150SOL     OW26908   2.742   3.511   6.040  0.2948  0.0820  0.4763
 5150SOL    HW126909   2.658   3.521   5.996  0.8858  2.2538 -0.1342
 5150SOL    HW226910   2.812   3.514   5.975  0.3612  1.0004  0.5901
 5151SOL     OW26911   4.647   2.381   0.178 -0.5671  0.1552  0.0701
 5151SOL    HW126912   4.561   2.343   0.162  0.0304 -1.3892  0.5108
 5151SOL    HW226913   4.690   2.296   0.183 -0.9277 -0.0527 -0.3872
 5152SOL     OW26914   2.150   1.342   5.901 -0.1940 -0.0658 -0.4761
 5152SOL    HW126915   2.055   1.345   5.895 -0.1782 -0.8305 -1.1545
 5152SOL    HW226916   2.176   1.354   5.992  0.6560 -1.4988 -0.5252
 5153SOL     OW26917   3.258   4.165   6.242  0.2195  0.7032  0.5105
 5153SOL    HW126918   3.278   4.075   6.215  1.5307  1.6172 -1.6069
 5153SOL    HW226919   3.327   4.180   6.307  0.4500  1.2232  0.1494
 5154SOL     OW26920   3.142   1.649   6.498  0.1033 -0.5641  0.0615
 5154SOL    HW126921   3.122   1.741   6.513 -0.6065 -0.6589 -0.3183
 5154SOL    HW226922   3.119   1.640   6.405 -0.7289 -0.7041  0.2801
 5155SOL     OW26923   1.094   0.211  16.091 -0.3111  0.5677 -0.2252
 5155SOL    HW126924   1.065   0.120  16.097 -1.1188  0.5689 -4.5040
 5155SOL    HW226925   1.029   0.255  16.037  0.4746  0.0397 -1.6051
 5156SOL     OW26926   2.440   1.561   0.175  1.3107  0.0164  0.2676
 5156SOL    HW126927   2.361   1.578   0.227  1.0333  0.0747 -0.1754
 5156SOL    HW226928   2.418   1.591   0.087  0.8479 -0.2438  0.2981
 5157SOL     OW26929   0.525   3.490   5.804 -0.8509 -0.0353  0.2394
 5157SOL    HW126930   0.465   3.501   5.730  0.4431 -0.9944 -0.9483
 5157SOL    HW226931   0.490   3.562   5.857 -2.2271  0.7330 -1.7229
 5158SOL     OW26932   2.005   0.092   8.405  0.4442 -0.4478  0.7439
 5158SOL    HW126933   2.032   0.123   8.319 -1.7211  0.0247  0.2543
 5158SOL    HW226934   1.975   0.174   8.444 -2.0028 -1.0029 -0.0137
 5159SOL     OW26935   0.828   1.495   7.363  0.3230  0.5568  0.4203
 5159SOL    HW126936   0.868   1.421   7.317 -0.7882 -0.4294  1.0474
 5159SOL    HW226937   0.877   1.570   7.327  0.9065 -0.6386 -1.2546
 5160SOL     OW26938   3.712   3.714   6.960  0.4236 -0.1036  0.1390
 5160SOL    HW126939   3.675   3.800   6.943  0.0288 -0.2067  0.4928
 5160SOL    HW226940   3.800   3.721   6.922  0.8448 -1.9873  0.7306
 5161SOL     OW26941   4.314   3.094   9.484  0.0012 -0.4775  0.3639
 5161SOL    HW126942   4.344   3.008   9.512  0.0887 -0.9214 -1.0584
 5161SOL    HW226943   4.376   3.105   9.411 -1.6435  1.4100 -0.7840
 5162SOL     OW26944   1.366   4.030  10.856  0.0603 -0.3201  0.4660
 5162SOL    HW126945   1.386   4.031  10.763  1.3157 -2.7093  0.7041
 5162SOL    HW226946   1.284   4.078  10.855 -0.3703 -1.0317  0.8319
 5163SOL     OW26947   2.359   1.273   7.885 -0.1366  0.3343  0.1137
 5163SOL    HW126948   2.388   1.239   7.970 -0.3484  1.7821  0.7644
 5163SOL    HW226949   2.375   1.367   7.883  1.7806  0.0049 -0.2294
 5164SOL     OW26950   4.277   0.682   6.193  0.7844  0.1486  0.1553
 5164SOL    HW126951   4.290   0.719   6.105  1.9218  0.0123  0.2642
 5164SOL    HW226952   4.259   0.589   6.185 -1.0442  0.6037 -0.9024
 5165SOL     OW26953   1.509   1.920   7.005  0.4695  0.2684 -0.2459
 5165SOL    HW126954   1.548   1.972   7.075  1.5815 -0.4018 -0.3676
 5165SOL    HW226955   1.525   1.974   6.928 -1.2893  1.4884  0.2471
 5166SOL     OW26956   1.026   4.265  17.567 -0.2169  0.2404  0.4186
 5166SOL    HW126957   1.016   4.263  17.662 -0.6111 -0.0551  0.3741
 5166SOL    HW226958   0.963   4.206  17.525  1.7745 -1.1561 -0.6167
 5167SOL     OW26959   0.465   3.546  13.942 -0.0904  0.3163 -0.1480
 5167SOL    HW126960   0.445   3.591  14.024 -0.8147  1.3936 -0.9140
 5167SOL    HW226961   0.416   3.596  13.876  3.1957  3.7175 -0.0064
 5168SOL     OW26962   0.631   1.936  13.501 -0.6744 -0.3983  1.0411
 5168SOL    HW126963   0.658   1.918  13.411  0.5164 -0.7453  1.4731
 5168SOL    HW226964   0.711   1.972  13.538 -1.7983  1.5955  1.5065
 5169SOL     OW26965   3.044   2.328  10.402  0.0971 -0.4306 -0.6726
 5169SOL    HW126966   3.054   2.270  10.477 -2.0001  0.1766  0.0666
 5169SOL    HW226967   3.129   2.314  10.361  1.5126  0.7563  1.8553
 5170SOL     OW26968   0.011   1.637  11.482 -0.2310 -0.0587 -0.5523
 5170SOL    HW126969   0.040   1.574  11.417  0.8596 -0.7793  0.6265
 5170SOL    HW226970   0.076   1.707  11.474 -0.8061  0.4595 -0.6914
 5171SOL     OW26971   4.495   1.764   1.858 -0.1960  0.3746  0.0198
 5171SOL    HW126972   4.430   1.707   1.818  1.5005 -1.7486  0.2690
 5171SOL    HW226973   4.537   1.700   1.916 -2.2657  0.3912  1.5399
 5172SOL     OW26974   0.288   0.964   5.748 -0.2749 -0.0741  0.4774
 5172SOL    HW126975   0.344   1.040   5.732 -0.2428 -0.5746 -1.7644
 5172SOL    HW226976   0.276   0.924   5.662  1.1822 -0.3159  0.3904
 5173SOL     OW26977   2.135   4.582   6.776 -0.3902 -0.2454 -0.3351
 5173SOL    HW126978   2.158   4.501   6.822 -2.3104 -0.1364  0.8122
 5173SOL    HW226979   2.170   4.558   6.690  1.3906  0.3895  0.2162
 5174SOL     OW26980   2.838   0.169  17.146 -0.3137 -0.1293 -0.0440
 5174SOL    HW126981   2.860   0.081  17.116 -0.0994 -0.3876  0.8680
 5174SOL    HW226982   2.915   0.195  17.197 -0.5505  0.8038 -0.1667
 5175SOL     OW26983   3.709   2.505   2.252 -0.2317  0.5425  0.3587
 5175SOL    HW126984   3.704   2.422   2.298 -0.4758  0.4633  0.1897
 5175SOL    HW226985   3.798   2.533   2.273 -0.7332  2.7347 -0.3980
 5176SOL     OW26986   3.321   2.049   9.060  0.4247  0.3355  0.6067
 5176SOL    HW126987   3.404   2.096   9.052 -0.8827  2.2237 -1.8009
 5176SOL    HW226988   3.275   2.074   8.981 -0.0395  0.4624  0.9149
 5177SOL     OW26989   0.493   3.626   6.615  0.2175  0.3331 -0.7114
 5177SOL    HW126990   0.442   3.614   6.696  3.5562 -0.1207  1.2974
 5177SOL    HW226991   0.414   3.621   6.561  1.5191  0.2605 -2.5696
 5178SOL     OW26992   2.265   3.244   3.414  0.0159 -0.0150 -0.4964
 5178SOL    HW126993   2.296   3.164   3.371 -3.0869 -0.5825 -1.7140
 5178SOL    HW226994   2.259   3.215   3.505  0.5605  0.7128 -0.2268
 5179SOL     OW26995   1.855   0.183  17.543  0.0362 -0.5189 -0.1317
 5179SOL    HW126996   1.893   0.101  17.511  0.2947  0.1485 -1.4933
 5179SOL    HW226997   1.764   0.152  17.539 -0.2351 -0.1808  2.9393
 5180SOL     OW26998   3.402   0.784   8.074 -0.3344  0.2029  0.8344
 5180SOL    HW126999   3.471   0.718   8.076  0.2166  0.7995  1.4056
 5180SOL    HW227000   3.441   0.853   8.021  1.5781 -1.5712 -0.0725
 5181SOL     OW27001   2.798   1.226   7.910 -0.5314  0.5268 -0.4082
 5181SOL    HW127002   2.885   1.265   7.912  0.3604 -1.4974 -0.2429
 5181SOL    HW227003   2.769   1.272   7.831 -1.2669 -0.2746 -0.6019
 5182SOL     OW27004   0.104   4.578  14.199 -0.1162 -0.0822  0.4467
 5182SOL    HW127005   0.123   4.487  14.219  3.3304  0.4629 -0.3494
 5182SOL    HW227006   0.013   4.580  14.229 -0.5201  1.7695 -0.8662
 5183SOL     OW27007   4.544   0.917   5.837  0.0590  0.6714  0.1789
 5183SOL    HW127008   4.613   0.907   5.903  1.0055  2.4678 -0.5351
 5183SOL    HW227009   4.523   0.826   5.818  3.3563 -0.0587  0.0485
 5184SOL     OW27010   4.220   1.733   4.876 -0.2321  0.0547  0.0365
 5184SOL    HW127011   4.216   1.753   4.970  0.4654  0.8717 -0.1043
 5184SOL    HW227012   4.209   1.822   4.841 -0.3018 -0.3931 -1.0615
 5185SOL     OW27013   2.013   2.898   9.058 -0.2495  0.4021 -0.5127
 5185SOL    HW127014   1.931   2.930   9.020 -1.0025 -0.7209  0.1851
 5185SOL    HW227015   2.064   2.974   9.087 -0.1317  0.0705  0.1475
 5186SOL     OW27016   2.504   2.819   2.629  0.0873  0.7116 -0.5285
 5186SOL    HW127017   2.501   2.762   2.551  1.2911  0.7672 -0.6152
 5186SOL    HW227018   2.429   2.872   2.600  0.0836  0.2309 -1.4044
 5187SOL     OW27019   2.472   0.709   4.048  0.1874 -0.6575 -0.4081
 5187SOL    HW127020   2.420   0.768   4.103 -0.1957 -1.7811  0.4236
 5187SOL    HW227021   2.486   0.768   3.973 -0.1105 -0.1484 -0.0601
 5188SOL     OW27022   3.934   2.145   5.908 -0.4376  0.1731 -0.9270
 5188SOL    HW127023   3.961   2.094   5.984  0.1888 -0.4643 -1.5695
 5188SOL    HW227024   3.974   2.230   5.924 -1.2187  0.4281 -0.3563
 5189SOL     OW27025   0.368   0.022  14.121 -0.1138  0.7373 -0.5279
 5189SOL    HW127026   0.428   0.049  14.191 -0.5444  0.4795 -0.0639
 5189SOL    HW227027   0.427   0.049  14.050 -0.5426  1.2005 -0.7036
 5190SOL     OW27028   4.345   2.301   4.767  0.2784  0.9222  0.0962
 5190SOL    HW127029   4.406   2.229   4.788 -1.4027 -0.2777  0.8719
 5190SOL    HW227030   4.271   2.299   4.827 -1.1093 -2.7205 -1.7508
 5191SOL     OW27031   0.116   4.247   6.045  0.5123  0.3580  0.1393
 5191SOL    HW127032   0.141   4.238   5.953  0.1163 -0.6310  0.1263
 5191SOL    HW227033   0.036   4.196   6.031 -0.5444  2.5717 -1.8268
 5192SOL     OW27034   4.230   2.598   1.681 -0.5154 -0.1440  0.6667
 5192SOL    HW127035   4.280   2.582   1.600 -0.3503  0.3175  0.6794
 5192SOL    HW227036   4.141   2.587   1.648  0.5825 -0.3546 -2.2147
 5193SOL     OW27037   4.600   0.460   9.078  0.2367  0.1775  0.6128
 5193SOL    HW127038   4.655   0.383   9.090 -1.0763 -0.8542  0.0557
 5193SOL    HW227039   4.608   0.509   9.160  2.7060 -1.3270  1.2450
 5194SOL     OW27040   3.206   2.712   8.522 -0.0593  0.0433 -0.5781
 5194SOL    HW127041   3.199   2.688   8.615  1.4924 -0.0164 -0.4817
 5194SOL    HW227042   3.115   2.723   8.496 -1.0481 -1.9999  1.9766
 5195SOL     OW27043   2.282   2.609   1.155  0.3948 -0.1218  0.7532
 5195SOL    HW127044   2.243   2.675   1.098  2.5883  2.8372  2.6976
 5195SOL    HW227045   2.214   2.542   1.150 -0.5533  0.7164  2.4496
 5196SOL     OW27046   0.288   1.894   6.096 -0.2009 -0.0100 -0.5672
 5196SOL    HW127047   0.288   1.975   6.045 -2.4693 -0.4190 -1.2398
 5196SOL    HW227048   0.378   1.906   6.125 -0.0156  1.6536 -1.8492
 5197SOL     OW27049   0.333   1.981  14.327 -0.5579 -0.4598  0.2516
 5197SOL    HW127050   0.422   1.989  14.292 -1.0094  1.6047 -0.3695
 5197SOL    HW227051   0.338   2.059  14.382  0.9882 -0.9801  0.8612
 5198SOL     OW27052   4.064   0.654   1.902 -0.1265  0.6710 -0.4769
 5198SOL    HW127053   4.136   0.597   1.873 -0.6305  0.2187 -0.8339
 5198SOL    HW227054   4.000   0.583   1.908  1.9790 -1.2944 -0.8910
 5199SOL     OW27055   4.099   2.426   0.276 -0.0092  0.2378 -0.2244
 5199SOL    HW127056   4.099   2.411   0.370 -0.4256 -1.6924 -0.5280
 5199SOL    HW227057   4.005   2.420   0.261 -0.0417  1.9751 -0.7708
 5200SOL     OW27058   4.559   1.283   3.721 -0.5757  0.4463  0.5627
 5200SOL    HW127059   4.488   1.272   3.659  0.0165 -0.2399  0.0153
 5200SOL    HW227060   4.503   1.302   3.797  1.0044  0.7024  1.6641
 5201SOL     OW27061   2.575   1.097   4.130 -0.3836 -0.1835  0.2584
 5201SOL    HW127062   2.628   1.019   4.144  0.0060 -0.0752 -0.6780
 5201SOL    HW227063   2.488   1.070   4.100  0.1091 -0.5753 -0.7907
 5202SOL     OW27064   3.190   4.171   3.313 -0.9260  0.1478  0.4715
 5202SOL    HW127065   3.122   4.152   3.249 -2.6798  1.5692  1.8852
 5202SOL    HW227066   3.242   4.220   3.251  1.8276 -1.2000  1.7288
 5203SOL     OW27067   3.109   4.501  12.929  0.7020 -0.2359  0.1661
 5203SOL    HW127068   3.014   4.509  12.929  0.5761 -1.8946 -1.1482
 5203SOL    HW227069   3.137   4.550  13.007 -1.2501  0.9003  0.1679
 5204SOL     OW27070   4.383   4.104   0.906  0.1339  0.0446 -0.4878
 5204SOL    HW127071   4.339   4.153   0.976  2.5276  0.8220  0.4700
 5204SOL    HW227072   4.338   4.020   0.917  0.6984 -0.1688  0.1821
 5205SOL     OW27073   3.541   1.315   8.223  0.0706 -0.0186  0.3769
 5205SOL    HW127074   3.505   1.248   8.165  0.0510  0.8407 -0.6180
 5205SOL    HW227075   3.595   1.355   8.155 -0.5084  3.3998  1.8909
 5206SOL     OW27076   2.416   0.390  14.884 -0.6421 -0.0336  0.0596
 5206SOL    HW127077   2.446   0.310  14.926 -0.5637  0.1064  0.2688
 5206SOL    HW227078   2.322   0.399  14.897 -1.1482 -0.7228 -3.0904
 5207SOL     OW27079   4.030   3.715   7.056  0.5146 -0.3301 -0.0907
 5207SOL    HW127080   4.050   3.731   6.963  0.7181 -0.2771 -0.0380
 5207SOL    HW227081   3.978   3.794   7.071 -0.8651 -1.1000 -0.8149
 5208SOL     OW27082   3.909   0.490  16.846  0.4505  0.4653  0.2708
 5208SOL    HW127083   3.976   0.459  16.906  0.3674  2.0587  1.1777
 5208SOL    HW227084   3.889   0.574  16.888  1.9331  1.5474 -1.1715
 5209SOL     OW27085   1.624   0.709   8.482 -0.0075  0.2559  0.3239
 5209SOL    HW127086   1.541   0.713   8.434 -0.2384  0.0586  0.7095
 5209SOL    HW227087   1.689   0.718   8.412 -0.0458 -0.4478  0.1949
 5210SOL     OW27088   0.227   4.666   9.588  0.0081 -0.1728  0.4728
 5210SOL    HW127089   0.214   0.024   9.631 -0.3716  0.3786 -0.7173
 5210SOL    HW227090   0.163   4.672   9.517  0.1770 -0.0416  0.3320
 5211SOL     OW27091   3.736   1.643   7.200  0.2489 -0.0975  0.4648
 5211SOL    HW127092   3.706   1.612   7.114 -0.8900 -0.6605  1.0598
 5211SOL    HW227093   3.781   1.564   7.231  0.0142 -0.8057 -1.0016
 5212SOL     OW27094   0.715   0.326   2.077  0.1446 -0.3244 -0.0288
 5212SOL    HW127095   0.753   0.389   2.137 -0.9702 -0.7330  1.1242
 5212SOL    HW227096   0.636   0.296   2.122 -0.4159 -0.1060 -0.8648
 5213SOL     OW27097   4.541   2.493   6.608 -0.3721 -0.2250 -0.0749
 5213SOL    HW127098   4.514   2.561   6.546  1.0798  0.4539  0.0325
 5213SOL    HW227099   4.489   2.501   6.688  0.0190  1.1515  0.0550
 5214SOL     OW27100   4.463   2.439   1.932  0.2111  0.0693  0.5062
 5214SOL    HW127101   4.411   2.358   1.930  0.3072  0.0063  0.5779
 5214SOL    HW227102   4.399   2.504   1.902  0.1286 -0.2535 -0.0240
 5215SOL     OW27103   3.102   1.102   8.601  0.0726 -0.3661 -0.2947
 5215SOL    HW127104   3.172   1.049   8.562  1.0018  2.0374 -1.9280
 5215SOL    HW227105   3.024   1.047   8.610  0.9086 -1.4627  0.2358
 5216SOL     OW27106   1.219   3.218   6.620 -0.6162  0.5849  0.3454
 5216SOL    HW127107   1.202   3.125   6.603 -0.5736  0.6438 -0.0195
 5216SOL    HW227108   1.252   3.252   6.537 -1.9370 -0.4820 -0.6302
 5217SOL     OW27109   1.187   2.416   9.075 -0.0831 -0.4143  0.4145
 5217SOL    HW127110   1.278   2.417   9.103  1.0977 -3.4018 -3.2867
 5217SOL    HW227111   1.181   2.338   9.020 -0.2123 -0.1430  0.0454
 5218SOL     OW27112   0.225   2.852   2.131 -0.0709  0.5074  0.1231
 5218SOL    HW127113   0.190   2.803   2.056  0.8463  1.6983 -1.0871
 5218SOL    HW227114   0.162   2.831   2.200  0.1646  0.0327  0.1976
 5219SOL     OW27115   1.816   1.277   8.445 -0.1717 -0.4066 -0.5120
 5219SOL    HW127116   1.845   1.251   8.358 -0.4555  0.9498 -1.0069
 5219SOL    HW227117   1.736   1.227   8.464  0.0891 -0.6645 -0.0799
 5220SOL     OW27118   4.277   1.828   0.153  0.3023 -0.2807  0.2678
 5220SOL    HW127119   4.194   1.812   0.197  0.7001  0.6091  1.3511
 5220SOL    HW227120   4.236   1.799   0.072  2.8414  0.7274 -1.3770
 5221SOL     OW27121   3.973   1.054  10.621  0.5408 -0.1347  0.8768
 5221SOL    HW127122   3.923   0.988  10.573  1.8733 -1.7314  1.6857
 5221SOL    HW227123   4.056   1.007  10.625  0.0828 -1.0508 -0.2181
 5222SOL     OW27124   1.870   1.542   0.559 -0.9816  0.3081  0.0478
 5222SOL    HW127125   1.805   1.610   0.578 -2.4504 -0.6609 -1.5751
 5222SOL    HW227126   1.927   1.544   0.637 -1.7021  0.5729  0.5651
 5223SOL     OW27127   0.304   3.589  16.516 -0.6506  0.4063  0.1897
 5223SOL    HW127128   0.355   3.548  16.586  2.1033  1.5298 -1.1618
 5223SOL    HW227129   0.363   3.652  16.476 -1.6438  0.1970 -1.5752
 5224SOL     OW27130   3.590   2.353   4.179 -0.3705 -0.0747 -0.2097
 5224SOL    HW127131   3.518   2.402   4.220 -0.8870 -3.1258  2.5882
 5224SOL    HW227132   3.607   2.408   4.103 -0.4514  2.4079  1.5789
 5225SOL     OW27133   1.828   4.330   4.829  0.7049 -0.1557 -0.1543
 5225SOL    HW127134   1.746   4.283   4.815  0.6164  1.0648 -3.7367
 5225SOL    HW227135   1.867   4.289   4.752  0.9699 -0.9401  0.3978
 5226SOL     OW27136   4.172   4.243   6.170 -0.5640  0.1146 -0.4242
 5226SOL    HW127137   4.262   4.260   6.141 -0.2123 -0.7395  0.1457
 5226SOL    HW227138   4.124   4.240   6.087 -1.3334 -0.0059  0.0231
 5227SOL     OW27139   3.909   3.398   8.276  0.2080 -0.4598  0.1044
 5227SOL    HW127140   3.852   3.407   8.352  2.5569  0.2241  1.7893
 5227SOL    HW227141   3.861   3.344   8.213  1.6348  0.1427 -1.4802
 5228SOL     OW27142   1.652   2.823   8.047  0.0637 -0.3606 -0.2198
 5228SOL    HW127143   1.570   2.804   8.094  0.0749 -2.6085 -1.1497
 5228SOL    HW227144   1.700   2.742   8.061 -1.5747 -0.7414  3.2756
 5229SOL     OW27145   4.502   3.798   7.289  0.1490 -0.2279 -0.0161
 5229SOL    HW127146   4.519   3.776   7.197 -0.3776  0.2809 -0.2354
 5229SOL    HW227147   4.583   3.787   7.338 -1.6235  0.4119  3.0496
 5230SOL     OW27148   4.422   3.864   9.498 -0.2534  0.0725 -0.6616
 5230SOL    HW127149   4.340   3.817   9.514  0.5750 -0.6651  1.4963
 5230SOL    HW227150   4.461   3.848   9.584 -1.6830 -0.7447 -0.1720
 5231SOL     OW27151   2.313   1.093   6.828 -0.4388 -0.0484 -0.5175
 5231SOL    HW127152   2.395   1.093   6.778  1.7650 -2.1373  3.1003
 5231SOL    HW227153   2.344   1.135   6.908  1.1908  1.3179 -1.8897
 5232SOL     OW27154   4.308   0.039  12.999 -0.0362 -0.3048  0.1603
 5232SOL    HW127155   4.328   4.674  12.978 -1.6068 -0.5018 -0.4720
 5232SOL    HW227156   4.382   0.089  12.967 -1.6859  1.8288 -0.2689
 5233SOL     OW27157   0.446   3.163   6.886  0.3684 -0.0708  0.0234
 5233SOL    HW127158   0.444   3.248   6.930 -0.4085  0.4495 -1.0346
 5233SOL    HW227159   0.524   3.121   6.923  0.9595  1.1091  0.1106
 5234SOL     OW27160   1.498   4.310  10.180  0.1931 -0.1888  0.3664
 5234SOL    HW127161   1.574   4.366  10.166 -0.9479  1.6171  1.3633
 5234SOL    HW227162   1.429   4.375  10.172 -0.7259 -0.9349  2.0520
 5235SOL     OW27163   3.243   3.072   8.273  0.0852  0.2343  0.2563
 5235SOL    HW127164   3.336   3.091   8.290 -0.1006  0.5476  0.9292
 5235SOL    HW227165   3.242   3.099   8.181  0.0017  1.9902  0.7659
 5236SOL     OW27166   3.059   0.865   0.792 -0.4833  0.3894 -0.1499
 5236SOL    HW127167   3.114   0.933   0.753 -0.6002  0.5798  0.0135
 5236SOL    HW227168   3.080   0.800   0.726  0.3279  0.2717  0.2235
 5237SOL     OW27169   4.235   3.952   6.346 -0.3706 -0.0461 -0.3733
 5237SOL    HW127170   4.257   4.044   6.356 -2.1073 -0.1141  4.5624
 5237SOL    HW227171   4.299   3.933   6.278  0.1402  2.8547 -0.6978
 5238SOL     OW27172   4.542   0.617   3.970  0.0953  0.2124 -0.0224
 5238SOL    HW127173   4.609   0.559   4.006  1.6480  1.9358 -0.1682
 5238SOL    HW227174   4.516   0.675   4.041 -2.0741 -0.8031  0.0146
 5239SOL     OW27175   1.893   2.685  16.826 -0.1453  0.0963 -0.5064
 5239SOL    HW127176   1.844   2.678  16.908  0.6713  0.2599 -0.0065
 5239SOL    HW227177   1.831   2.670  16.754 -0.1573 -0.5716 -0.3576
 5240SOL     OW27178   4.511   0.590   5.514  0.1166 -0.2839  0.0842
 5240SOL    HW127179   4.601   0.616   5.494 -0.7165  0.5413 -2.5871
 5240SOL    HW227180   4.496   0.544   5.431 -0.2372 -2.8374  1.5783
 5241SOL     OW27181   1.559   4.553  13.160 -0.0036  0.7385  0.6113
 5241SOL    HW127182   1.485   4.575  13.103  0.3583 -0.5014 -0.3319
 5241SOL    HW227183   1.609   4.487  13.113  1.9724  2.4444  0.3412
 5242SOL     OW27184   1.214   0.885   2.170 -0.1815 -0.3460  0.0993
 5242SOL    HW127185   1.207   0.789   2.170  2.4332 -0.5370 -0.4556
 5242SOL    HW227186   1.288   0.892   2.109  1.1692  3.1437  2.1262
 5243SOL     OW27187   0.925   1.373   4.496 -0.1361 -0.6361 -0.0336
 5243SOL    HW127188   0.864   1.417   4.437  0.8954  2.5207  1.1935
 5243SOL    HW227189   0.882   1.370   4.581  1.1386 -1.4206  0.5745
 5244SOL     OW27190   0.448   3.259   6.643 -0.4676  0.2083 -0.5059
 5244SOL    HW127191   0.480   3.219   6.723  1.3679 -0.6095 -1.6344
 5244SOL    HW227192   0.374   3.310   6.675  0.7712  0.1829  2.3628
 5245SOL     OW27193   3.220   3.797  10.936 -0.0026  0.0322 -0.0834
 5245SOL    HW127194   3.251   3.873  10.985 -0.3355  0.4958 -0.5976
 5245SOL    HW227195   3.230   3.828  10.847  0.2306  0.3797  0.0670
 5246SOL     OW27196   3.873   4.081   7.500  0.4601 -0.1037 -0.1478
 5246SOL    HW127197   3.935   4.013   7.474  3.3317  1.5373  2.2710
 5246SOL    HW227198   3.791   4.050   7.463 -0.3121  0.8904  0.7586
 5247SOL     OW27199   0.848   4.054  11.967  0.0012 -0.3309 -0.4562
 5247SOL    HW127200   0.865   3.965  11.998 -1.3621 -0.4686 -0.0695
 5247SOL    HW227201   0.917   4.062  11.902 -1.1355  1.0215 -1.4994
 5248SOL     OW27202   4.678   1.958  13.703 -0.1806  0.7167  0.3772
 5248SOL    HW127203   0.045   1.978  13.717  0.7152 -2.5439 -0.9106
 5248SOL    HW227204   4.647   2.040  13.666 -0.1958 -0.4522 -2.1788
 5249SOL     OW27205   3.879   0.021   4.300  0.2544 -0.4014 -0.3978
 5249SOL    HW127206   3.891   0.085   4.230 -0.4303  2.1056  1.7862
 5249SOL    HW227207   3.944   0.055   4.361 -0.4895 -2.4464  1.5493
 5250SOL     OW27208   3.940   1.902   2.583 -0.3099 -0.6605  0.2365
 5250SOL    HW127209   3.982   1.823   2.550  0.9298  0.1730 -0.1939
 5250SOL    HW227210   3.997   1.971   2.549 -1.1889 -0.5770 -1.0823
 5251SOL     OW27211   0.843   3.235   6.479  0.5782  0.1773  0.0139
 5251SOL    HW127212   0.890   3.244   6.396  1.3645  2.3904  0.7013
 5251SOL    HW227213   0.886   3.304   6.529 -2.7499 -0.0630  3.2641
 5252SOL     OW27214   4.079   2.412  16.100 -0.6072  0.1171  0.2113
 5252SOL    HW127215   4.135   2.476  16.055 -0.0161 -1.2701 -1.0143
 5252SOL    HW227216   4.037   2.373  16.023  2.0865  1.0216 -1.7425
 5253SOL     OW27217   3.778   3.745   8.020  0.0935 -0.1841 -0.5084
 5253SOL    HW127218   3.758   3.836   8.042 -0.0103 -0.1494 -0.7479
 5253SOL    HW227219   3.753   3.750   7.928 -0.7793 -2.8774 -0.4367
 5254SOL     OW27220   0.333   3.535   8.422  0.3403  0.3649  0.4844
 5254SOL    HW127221   0.312   3.451   8.463  1.5267  0.2016  0.7478
 5254SOL    HW227222   0.282   3.585   8.486  0.6451  0.9264  0.2902
 5255SOL     OW27223   1.273   0.856   5.855  0.6206 -0.0400  0.0342
 5255SOL    HW127224   1.335   0.783   5.850  0.7510  0.1559 -1.2936
 5255SOL    HW227225   1.198   0.823   5.805 -0.7056  2.6367  0.2639
 5256SOL     OW27226   1.561   1.494   4.958  0.6313 -0.1933  0.0478
 5256SOL    HW127227   1.560   1.586   4.930 -0.8953  0.4442  2.2216
 5256SOL    HW227228   1.536   1.510   5.049  1.2619 -0.9399  0.3529
 5257SOL     OW27229   1.023   3.313   6.280  0.1175  0.3536 -0.3607
 5257SOL    HW127230   1.022   3.372   6.204  1.8337 -1.4220 -1.7676
 5257SOL    HW227231   1.099   3.335   6.334 -1.3478  1.1751  1.3540
 5258SOL     OW27232   2.102   0.593   6.799  0.0590 -1.0125  0.0494
 5258SOL    HW127233   2.178   0.645   6.771 -0.7535 -0.4988 -1.1646
 5258SOL    HW227234   2.052   0.649   6.859  0.4864 -1.4833  0.8474
 5259SOL     OW27235   4.482   1.923   5.260  0.0264  0.2131 -0.0774
 5259SOL    HW127236   4.565   1.959   5.230  0.9300 -0.5480  1.5407
 5259SOL    HW227237   4.453   1.896   5.172  1.8093  1.0555 -0.9182
 5260SOL     OW27238   1.487   1.314   1.889  0.2079 -0.6467  0.3118
 5260SOL    HW127239   1.402   1.357   1.897 -0.4763 -1.9320 -0.0164
 5260SOL    HW227240   1.532   1.382   1.839 -0.6092  0.1271  0.6156
 5261SOL     OW27241   3.349   1.736   7.263 -0.1302  1.0208  0.2560
 5261SOL    HW127242   3.388   1.761   7.347 -1.9964  0.1517  1.3828
 5261SOL    HW227243   3.303   1.816   7.237  0.6399  0.5524 -2.5735
 5262SOL     OW27244   0.176   0.078   9.297 -0.0830  0.1554  0.5885
 5262SOL    HW127245   0.190   0.002   9.241 -0.3869 -0.0034  0.7279
 5262SOL    HW227246   0.109   0.041   9.355 -0.1819 -1.2572 -0.4267
 5263SOL     OW27247   3.319   0.073   2.942 -0.1264  0.4892 -0.1589
 5263SOL    HW127248   3.325   0.137   3.013  0.7714 -1.6077  1.6568
 5263SOL    HW227249   3.312   4.714   2.984  1.2212  1.2297  1.5933
 5264SOL     OW27250   1.181   4.102  15.100  0.0597 -0.7039 -0.4304
 5264SOL    HW127251   1.148   4.192  15.106  1.1442 -0.3586  0.2151
 5264SOL    HW227252   1.101   4.050  15.104 -2.1881  2.7666  0.2429
 5265SOL     OW27253   2.326   2.436   8.585  0.3489  0.2841  0.2699
 5265SOL    HW127254   2.298   2.498   8.652 -2.7440 -0.0372 -0.7322
 5265SOL    HW227255   2.369   2.488   8.517 -0.9085  0.5735 -0.3215
 5266SOL     OW27256   2.266   0.538  11.484 -0.0524  0.2353 -0.0198
 5266SOL    HW127257   2.179   0.511  11.453  1.1277 -1.3132 -1.9717
 5266SOL    HW227258   2.301   0.450  11.498 -2.6997 -0.2351  3.7597
 5267SOL     OW27259   1.218   1.318   4.218 -0.3427  0.0544  0.5501
 5267SOL    HW127260   1.130   1.281   4.215 -0.1825 -0.1527 -1.7655
 5267SOL    HW227261   1.229   1.324   4.123  1.4689 -3.0872  0.5684
 5268SOL     OW27262   0.666   2.009  12.417  0.4866  0.5074 -0.2804
 5268SOL    HW127263   0.621   1.938  12.463 -1.9328  1.2976 -1.4765
 5268SOL    HW227264   0.664   2.071  12.489  0.9453  2.1103 -1.6637
 5269SOL     OW27265   3.021   3.609  16.460 -0.2191  0.1065 -0.4733
 5269SOL    HW127266   2.940   3.564  16.483 -0.6356  0.9423 -0.2962
 5269SOL    HW227267   3.079   3.539  16.428 -2.2482 -1.8347  0.1086
 5270SOL     OW27268   2.003   3.561   6.080 -0.1773  0.1656  0.2738
 5270SOL    HW127269   2.007   3.634   6.018  0.5912 -2.5028 -2.8467
 5270SOL    HW227270   1.975   3.491   6.021 -1.1228  1.1325 -0.4091
 5271SOL     OW27271   1.650   0.897   9.626 -0.0142  0.1441 -0.0867
 5271SOL    HW127272   1.629   0.805   9.643 -0.5627  0.2263 -0.3247
 5271SOL    HW227273   1.609   0.941   9.701  0.3728 -0.0841  0.2596
 5272SOL     OW27274   1.413   0.093   2.469 -0.5559  0.1479  0.0031
 5272SOL    HW127275   1.345   0.059   2.410 -0.9834 -1.6336  1.5130
 5272SOL    HW227276   1.483   0.083   2.405  0.8025  0.5814  1.4198
 5273SOL     OW27277   2.736   2.309   6.022 -0.0364 -0.1074 -0.0396
 5273SOL    HW127278   2.713   2.397   6.053  2.5550  0.7706 -0.5633
 5273SOL    HW227279   2.667   2.283   5.962  0.2625 -3.2651  0.9924
 5274SOL     OW27280   3.261   2.370   5.294 -0.0607  0.4416  0.1711
 5274SOL    HW127281   3.171   2.391   5.318 -0.3848 -1.0233  0.2371
 5274SOL    HW227282   3.296   2.365   5.383 -0.4411  0.2318  0.3068
 5275SOL     OW27283   0.299   2.804   6.013  0.2624  0.2506  0.1942
 5275SOL    HW127284   0.377   2.857   6.032  0.2537  0.3087  0.0662
 5275SOL    HW227285   0.296   2.743   6.087 -0.5760  1.6658  1.3224
 5276SOL     OW27286   0.398   0.959   6.029 -1.0529 -0.7849  0.2532
 5276SOL    HW127287   0.493   0.942   6.033 -0.9182 -0.9938 -3.9257
 5276SOL    HW227288   0.378   0.895   5.961  0.5560 -0.8570 -0.1688
 5277SOL     OW27289   2.284   1.171   2.475 -0.7674  0.1420 -0.4988
 5277SOL    HW127290   2.318   1.092   2.516  2.9380  1.2634 -1.3552
 5277SOL    HW227291   2.339   1.167   2.396 -3.1710  1.5041 -2.2594
 5278SOL     OW27292   2.397   1.266   2.851  0.7214 -1.0099  0.3159
 5278SOL    HW127293   2.384   1.254   2.945  3.2453  2.5642  1.1033
 5278SOL    HW227294   2.455   1.190   2.849  0.0117 -1.5373 -0.3375
 5279SOL     OW27295   0.682   2.293   9.661  0.4766 -0.1573  0.3355
 5279SOL    HW127296   0.726   2.304   9.746  0.5832 -4.1239  0.8323
 5279SOL    HW227297   0.706   2.371   9.611  0.7443  0.1250  0.9026
 5280SOL     OW27298   1.998   0.833   5.569  0.1404 -0.8305 -0.2347
 5280SOL    HW127299   2.033   0.920   5.588  0.3569 -0.9388 -0.1336
 5280SOL    HW227300   2.064   0.805   5.505  0.5916 -0.7311  0.1820
 5281SOL     OW27301   3.233   3.515   7.195  0.9915 -0.0338  0.2787
 5281SOL    HW127302   3.292   3.501   7.269  0.5651  0.0140  0.6225
 5281SOL    HW227303   3.155   3.465   7.217  0.3822  1.1700  0.8780
 5282SOL     OW27304   2.014   4.298   9.771  0.3213 -0.4654  0.8396
 5282SOL    HW127305   2.028   4.204   9.760 -0.6251 -0.7990  2.4799
 5282SOL    HW227306   2.101   4.319   9.806  0.1499  1.2108  0.2672
 5283SOL     OW27307   1.485   0.446  17.519 -0.4784 -0.1813 -0.2428
 5283SOL    HW127308   1.532   0.523  17.488 -2.1992  1.0050  0.0690
 5283SOL    HW227309   1.540   0.407  17.586  3.1136  0.0767 -3.0576
 5284SOL     OW27310   1.400   0.739   9.640 -0.5451  0.0337 -0.5500
 5284SOL    HW127311   1.473   0.683   9.612 -1.5400 -1.0562 -0.9809
 5284SOL    HW227312   1.327   0.696   9.595 -0.3995  0.0855 -0.8379
 5285SOL     OW27313   3.689   3.255   0.067 -0.0903  0.0632 -0.0758
 5285SOL    HW127314   3.649   3.208   0.140 -2.3218  3.9781  1.2374
 5285SOL    HW227315   3.757   3.195   0.037 -0.7263  0.5442 -2.4585
 5286SOL     OW27316   1.587   0.968   3.273  0.7069 -0.3222  0.0152
 5286SOL    HW127317   1.680   0.973   3.295  0.8926 -1.2164 -0.5674
 5286SOL    HW227318   1.586   1.001   3.183  1.4653 -0.5173 -0.0659
 5287SOL     OW27319   0.240   4.630   8.560 -0.2293  0.4250 -0.0076
 5287SOL    HW127320   0.167   4.635   8.622 -0.7604 -3.0566 -0.3448
 5287SOL    HW227321   0.315   4.647   8.616  0.4318  0.2248 -0.8366
 5288SOL     OW27322   3.011   1.631   2.319  0.4191  0.5518  0.0320
 5288SOL    HW127323   2.980   1.662   2.234  0.7420 -0.3217 -0.4113
 5288SOL    HW227324   2.993   1.704   2.378 -2.9532  0.2491 -0.6291
 5289SOL     OW27325   3.223   4.173  12.552  0.3043  0.1708 -0.1824
 5289SOL    HW127326   3.160   4.103  12.535  0.2019 -0.6370  3.5359
 5289SOL    HW227327   3.185   4.229  12.620  0.0333  1.3194 -1.2757
 5290SOL     OW27328   2.501   0.276   6.331  0.5700 -0.0705  0.6694
 5290SOL    HW127329   2.461   0.325   6.259  0.6175  0.9919  1.3743
 5290SOL    HW227330   2.426   0.255   6.387  0.5481  2.5134  1.5911
 5291SOL     OW27331   3.545   3.089   8.834  0.1932 -0.2865  0.0361
 5291SOL    HW127332   3.481   3.100   8.904 -1.0200 -1.2575 -0.9135
 5291SOL    HW227333   3.578   3.177   8.821 -0.8433  0.2762  1.2683
 5292SOL     OW27334   3.820   0.082   4.737  0.2796 -0.3826  0.2510
 5292SOL    HW127335   3.820   0.093   4.832 -1.4035 -2.9214  0.5464
 5292SOL    HW227336   3.768   0.003   4.728  2.5025 -2.0927  2.4065
 5293SOL     OW27337   4.515   1.756  14.347  0.5563  0.2984 -0.1683
 5293SOL    HW127338   4.420   1.748  14.344  0.4407  1.1342  1.3156
 5293SOL    HW227339   4.538   1.669  14.380  0.9653  0.3847 -0.2211
 5294SOL     OW27340   4.379   0.006   8.116  0.4342 -0.1438 -1.0703
 5294SOL    HW127341   4.314   0.040   8.054 -1.6327 -1.3125  0.4790
 5294SOL    HW227342   4.406   4.651   8.072  1.5578 -0.8929  1.0095
 5295SOL     OW27343   1.365   2.898   8.125  0.3730 -0.3128  0.0423
 5295SOL    HW127344   1.324   2.814   8.148 -0.4651  0.5950  1.8572
 5295SOL    HW227345   1.343   2.919   8.034 -0.7674 -1.1281  0.1316
 5296SOL     OW27346   4.224   0.170   3.105 -0.7431  0.5390 -0.2089
 5296SOL    HW127347   4.139   0.158   3.064  0.6964  0.3399 -3.1823
 5296SOL    HW227348   4.234   0.262   3.081 -0.1921 -0.2153 -2.8359
 5297SOL     OW27349   3.495   2.595  11.789  0.4797  0.4555 -0.2110
 5297SOL    HW127350   3.475   2.675  11.837  0.5760  0.9708 -1.0181
 5297SOL    HW227351   3.447   2.522  11.828  0.1172  1.0313  0.4125
 5298SOL     OW27352   0.824   3.800   5.469  0.1475 -1.0697 -0.0436
 5298SOL    HW127353   0.865   3.835   5.548 -0.9526 -1.7039  0.7863
 5298SOL    HW227354   0.895   3.801   5.404 -0.7213 -2.0919 -1.0178
 5299SOL     OW27355   4.670   0.105  14.139  0.2420 -0.0554  0.4596
 5299SOL    HW127356   4.619   0.181  14.163 -1.0095 -0.0822 -2.1021
 5299SOL    HW227357   4.624   0.030  14.177 -0.9465  1.2267  1.5127
 5300SOL     OW27358   2.946   4.098   0.911  0.3582  0.0469 -0.4829
 5300SOL    HW127359   2.938   4.016   0.960 -0.7359  1.0135  0.9375
 5300SOL    HW227360   2.878   4.084   0.845  0.3922  1.4413 -0.8069
 5301SOL     OW27361   1.168   0.053   4.943  0.2661 -0.1124  0.3702
 5301SOL    HW127362   1.100   0.003   4.897  0.2970  0.6151 -0.4517
 5301SOL    HW227363   1.184   0.128   4.887  0.9691  0.2896  1.1176
 5302SOL     OW27364   1.860   3.991  14.735 -0.6695 -0.9582 -0.8102
 5302SOL    HW127365   1.790   4.044  14.774  1.6938  0.6076  1.3086
 5302SOL    HW227366   1.941   4.035  14.761 -0.8614  0.2258 -2.2103
 5303SOL     OW27367   2.571   0.121   9.271 -0.2286  0.1414 -0.4015
 5303SOL    HW127368   2.494   0.069   9.249 -1.3290  1.1544  0.9541
 5303SOL    HW227369   2.545   0.138   9.362  3.3221 -1.8689  0.9656
 5304SOL     OW27370   1.373   2.629   4.764 -0.3553 -0.4092 -0.0507
 5304SOL    HW127371   1.445   2.581   4.721 -0.6351 -1.2361  0.4038
 5304SOL    HW227372   1.314   2.562   4.730 -0.0323 -0.4606 -0.5155
 5305SOL     OW27373   4.006   4.027   5.661  0.3126 -0.0207  0.3629
 5305SOL    HW127374   3.967   3.939   5.656  0.1607 -0.0281  1.6094
 5305SOL    HW227375   3.959   4.055   5.582 -1.8407 -2.2078  0.8504
 5306SOL     OW27376   2.672   3.912   2.878  0.3500  0.4044 -0.1520
 5306SOL    HW127377   2.614   3.839   2.858 -0.3752  1.4129 -1.7519
 5306SOL    HW227378   2.695   3.922   2.786  1.5591 -0.0523  0.0998
 5307SOL     OW27379   0.264   3.373   5.395  0.3595  0.1491 -0.6322
 5307SOL    HW127380   0.348   3.393   5.354  1.6265 -0.6809  1.5552
 5307SOL    HW227381   0.251   3.280   5.376  0.7369 -0.1121  0.4000
 5308SOL     OW27382   3.527   4.067  16.059 -0.0802 -0.0106 -0.8039
 5308SOL    HW127383   3.588   4.088  16.130  0.6973 -0.9893 -1.1784
 5308SOL    HW227384   3.577   4.011  15.999  2.0762  0.2984  0.7262
 5309SOL     OW27385   0.045   3.859  15.682  0.0773 -0.6547 -0.3229
 5309SOL    HW127386   0.013   3.796  15.746 -0.4632 -0.0975 -0.0532
 5309SOL    HW227387   0.088   3.797  15.623  0.6730 -1.3449  0.8435
 5310SOL     OW27388   4.457   4.500  11.954 -0.4824 -0.1273 -0.2763
 5310SOL    HW127389   4.551   4.508  11.969 -0.6124  1.8491 -0.5293
 5310SOL    HW227390   4.423   4.583  11.988  1.5694  0.8290 -0.5579
 5311SOL     OW27391   3.119   1.224  15.759 -0.4221 -1.0029  0.3836
 5311SOL    HW127392   3.189   1.212  15.695  2.0446 -1.4865  3.1813
 5311SOL    HW227393   3.083   1.312  15.750 -0.4690 -1.0383  0.2161
 5312SOL     OW27394   1.559   2.486   2.794 -0.5139 -0.1265  0.1185
 5312SOL    HW127395   1.487   2.449   2.743  0.0392  0.5270 -1.1231
 5312SOL    HW227396   1.625   2.500   2.727  0.4491 -0.7052  0.9347
 5313SOL     OW27397   1.301   3.623  15.243 -0.1618  0.1729 -0.4110
 5313SOL    HW127398   1.336   3.605  15.330 -1.7798  2.4820  0.7106
 5313SOL    HW227399   1.207   3.615  15.259 -0.4519  0.1544 -2.1475
 5314SOL     OW27400   1.153   1.391   4.799  0.1379 -0.2077 -0.7291
 5314SOL    HW127401   1.219   1.431   4.856 -0.9939  0.6519 -0.0169
 5314SOL    HW227402   1.201   1.399   4.717 -1.7927  0.0041 -1.8161
 5315SOL     OW27403   4.483   1.615   4.791 -0.1994 -0.5511 -0.5878
 5315SOL    HW127404   4.461   1.634   4.699 -1.1352  0.0316 -0.2419
 5315SOL    HW227405   4.398   1.597   4.831 -1.1557  1.6494 -1.6389
 5316SOL     OW27406   0.467   4.129  10.109  0.4058 -0.1681  0.3213
 5316SOL    HW127407   0.448   4.068  10.038 -0.2672  0.4986 -0.0714
 5316SOL    HW227408   0.561   4.137  10.095  0.5418 -1.0779  0.7180
 5317SOL     OW27409   1.906   0.630   1.736  0.2955 -0.7798  0.8282
 5317SOL    HW127410   1.939   0.541   1.722  0.5486 -0.6186  0.3803
 5317SOL    HW227411   1.832   0.616   1.794  0.4166 -0.5372  1.0423
 5318SOL     OW27412   0.502   2.370   4.995 -0.2450  0.0648  0.0313
 5318SOL    HW127413   0.514   2.278   4.974  0.7770  0.2308 -0.1342
 5318SOL    HW227414   0.579   2.396   4.943  1.1923 -2.1132  1.0956
 5319SOL     OW27415   1.849   3.930   5.766 -0.0847 -0.1863 -0.6056
 5319SOL    HW127416   1.882   4.011   5.728  1.7079 -0.5401  0.2118
 5319SOL    HW227417   1.818   3.961   5.851  0.5582  1.4537 -0.9672
 5320SOL     OW27418   1.111   4.526  17.208  0.0074  0.4544  0.2738
 5320SOL    HW127419   1.024   4.498  17.180  0.4196  0.7768 -1.3328
 5320SOL    HW227420   1.127   4.478  17.289 -0.5272 -1.5480 -0.8023
 5321SOL     OW27421   0.291   1.232   4.199 -0.3283  0.0418 -0.6061
 5321SOL    HW127422   0.238   1.154   4.187 -1.3471  1.1638 -3.3103
 5321SOL    HW227423   0.335   1.233   4.114 -0.9193  1.0023 -0.8904
 5322SOL     OW27424   2.132   3.187  10.052 -0.3338  0.1766  0.0285
 5322SOL    HW127425   2.142   3.097  10.023  0.0137  0.1685  0.1722
 5322SOL    HW227426   2.177   3.178  10.137  0.9665 -0.8476 -0.7666
 5323SOL     OW27427   1.999   1.942  16.634  0.3690 -0.2264 -0.2193
 5323SOL    HW127428   1.989   1.895  16.551 -0.8243  0.2486 -0.3440
 5323SOL    HW227429   2.035   1.875  16.691  0.0981 -0.0411  0.1680
 5324SOL     OW27430   1.415   1.899   7.943  0.4728 -0.0180 -0.8212
 5324SOL    HW127431   1.407   1.994   7.953  3.3264  0.1174  0.1709
 5324SOL    HW227432   1.323   1.871   7.939  0.6967 -0.8776  0.2524
 5325SOL     OW27433   0.895   1.320  13.665  0.0298  0.3258 -0.0933
 5325SOL    HW127434   0.949   1.243  13.647  1.0718  1.5756 -2.3611
 5325SOL    HW227435   0.825   1.275  13.712  0.0719 -0.6312 -0.9513
 5326SOL     OW27436   3.096   1.770  15.096 -0.0155 -0.6555 -0.4120
 5326SOL    HW127437   3.087   1.802  15.007  1.5675 -0.5195 -0.5102
 5326SOL    HW227438   3.005   1.741  15.104  0.1684 -0.5951  2.1877
 5327SOL     OW27439   3.501   2.871   1.552  0.1300 -0.2589 -0.1905
 5327SOL    HW127440   3.499   2.967   1.548 -1.0804 -0.2677  0.4089
 5327SOL    HW227441   3.410   2.855   1.527 -1.3624  1.0730  4.3584
 5328SOL     OW27442   3.679   0.814  14.866 -0.1699 -0.2610  0.2289
 5328SOL    HW127443   3.663   0.780  14.777 -0.3731 -0.3527  0.3004
 5328SOL    HW227444   3.618   0.761  14.917 -2.5008  0.2587 -2.0571
 5329SOL     OW27445   4.623   0.106   8.538  0.6694  0.6878 -0.1508
 5329SOL    HW127446   4.711   0.144   8.544  1.2507 -0.7197  0.2212
 5329SOL    HW227447   4.599   0.123   8.447  2.7605  0.7658 -0.6919
 5330SOL     OW27448   0.210   0.956  15.332  0.6758 -0.4872  0.0288
 5330SOL    HW127449   0.296   0.928  15.363  0.5158  1.1693  1.9630
 5330SOL    HW227450   0.181   1.026  15.391 -1.0688  0.5835 -2.1007
 5331SOL     OW27451   3.074   2.791   7.238 -0.6034  0.1347  0.7085
 5331SOL    HW127452   3.014   2.771   7.166  0.6382  1.9678 -0.8311
 5331SOL    HW227453   3.128   2.865   7.209  1.4511 -1.4272  0.5512
 5332SOL     OW27454   3.881   3.003   6.544 -0.3751 -0.6131 -0.4082
 5332SOL    HW127455   3.948   3.006   6.477  0.4434 -0.4714  0.4154
 5332SOL    HW227456   3.841   2.917   6.528  0.2820 -0.8874 -0.5482
 5333SOL     OW27457   0.999   1.984  11.971  0.6662 -0.1173  0.2463
 5333SOL    HW127458   0.936   1.998  12.042  1.1407 -2.6550  1.1422
 5333SOL    HW227459   0.952   1.922  11.915  0.6440  1.8366 -1.9374
 5334SOL     OW27460   2.015   1.307   8.669  0.0284 -0.0625 -0.0513
 5334SOL    HW127461   1.964   1.332   8.592  1.7772  4.5659  0.3154
 5334SOL    HW227462   2.024   1.395   8.706 -1.9479  0.4444 -0.8099
 5335SOL     OW27463   2.718   1.951   7.588 -0.0395  0.1918 -0.3091
 5335SOL    HW127464   2.677   1.896   7.520  0.2149 -2.1062  1.3877
 5335SOL    HW227465   2.806   1.933   7.555  0.7876  2.0176  0.9012
 5336SOL     OW27466   3.106   3.958  10.288  0.1948 -0.4423 -0.4802
 5336SOL    HW127467   3.175   4.024  10.292 -0.4806  0.1220  1.9484
 5336SOL    HW227468   3.104   3.913  10.372  0.5696 -2.3849 -1.5071
 5337SOL     OW27469   0.809   4.619   3.528  0.1431  0.7265  0.0125
 5337SOL    HW127470   0.837   4.538   3.571 -0.6076  0.9531  0.9284
 5337SOL    HW227471   0.825   4.595   3.437 -2.1664  0.2322 -0.2723
 5338SOL     OW27472   1.541   1.951  11.821  0.1164 -0.2620  0.4854
 5338SOL    HW127473   1.578   2.012  11.885 -1.0840  1.3340 -0.3340
 5338SOL    HW227474   1.610   1.886  11.810  0.2615  0.2778 -1.7815
 5339SOL     OW27475   2.050   4.719   2.879  0.2351  1.0934 -0.3313
 5339SOL    HW127476   2.108   0.066   2.861  2.2337 -0.1992  0.8290
 5339SOL    HW227477   2.042   4.695   2.786 -1.7276  0.2645  0.0665
 5340SOL     OW27478   1.761   4.354   2.693 -0.2963  0.3240 -0.1573
 5340SOL    HW127479   1.853   4.345   2.669 -0.2727 -0.0471  0.0748
 5340SOL    HW227480   1.724   4.372   2.606 -0.5842  1.9991  0.2926
 5341SOL     OW27481   2.368   4.617   6.969 -0.4545  0.0637  0.0474
 5341SOL    HW127482   2.300   4.672   7.007  0.9882  1.6993  0.2490
 5341SOL    HW227483   2.315   4.537   6.962 -2.0435  1.3420 -2.4060
 5342SOL     OW27484   3.657   0.822   7.514  0.1164 -0.1731 -0.7205
 5342SOL    HW127485   3.704   0.845   7.434 -0.1122 -2.6976 -1.5528
 5342SOL    HW227486   3.567   0.805   7.486 -0.0699  0.7213 -0.6644
 5343SOL     OW27487   3.251   4.689   3.965 -0.1717 -0.5952 -0.3282
 5343SOL    HW127488   3.245   4.646   3.880  2.5191 -0.2523 -0.7008
 5343SOL    HW227489   3.339   4.659   3.989 -0.5359 -0.7856  0.7679
 5344SOL     OW27490   1.247   2.700  13.093 -0.4800  0.3641 -0.2766
 5344SOL    HW127491   1.154   2.687  13.111 -0.1012 -0.4457  1.1186
 5344SOL    HW227492   1.241   2.791  13.064  2.4738  0.6528  0.0489
 5345SOL     OW27493   1.508   1.782   2.529  0.6196 -0.0580 -0.0656
 5345SOL    HW127494   1.559   1.861   2.545  1.5800 -0.6082 -0.4255
 5345SOL    HW227495   1.430   1.786   2.585  0.3164 -1.6685 -0.3544
 5346SOL     OW27496   1.202   3.837   7.404 -0.1228 -0.4444  0.0127
 5346SOL    HW127497   1.140   3.775   7.441 -0.9143 -0.5723 -1.5382
 5346SOL    HW227498   1.282   3.804   7.444  0.0189 -0.1936 -0.0594
 5347SOL     OW27499   3.651   1.882  11.950  0.1556  0.4724  0.2183
 5347SOL    HW127500   3.744   1.866  11.961  0.4957  2.3357  0.0513
 5347SOL    HW227501   3.628   1.901  12.041 -0.4634  0.4713  0.0672
 5348SOL     OW27502   3.067   4.562   9.394  0.6451  0.7583  0.0115
 5348SOL    HW127503   3.140   4.614   9.427  0.7121  0.5230  0.2339
 5348SOL    HW227504   3.045   4.513   9.474  0.2165 -0.5489 -0.8957
 5349SOL     OW27505   1.535   1.909   6.325  0.7448 -0.3051  0.7336
 5349SOL    HW127506   1.586   1.986   6.347 -0.3549  0.9682 -1.1670
 5349SOL    HW227507   1.443   1.933   6.335  0.3928 -1.7188  0.9593
 5350SOL     OW27508   1.704   4.359   2.420 -0.2079 -0.0684 -0.4790
 5350SOL    HW127509   1.620   4.318   2.443 -1.6032  0.1644 -5.0724
 5350SOL    HW227510   1.667   4.422   2.358  1.0797  0.6918 -0.4562
 5351SOL     OW27511   0.242   0.081   4.700 -0.0267  0.4224 -0.0299
 5351SOL    HW127512   0.207   0.136   4.630  0.4583 -1.7666 -2.0288
 5351SOL    HW227513   0.314   0.134   4.734 -0.7013  0.7616  0.8502
 5352SOL     OW27514   1.082   3.718   4.399 -0.3690  0.1434  0.6879
 5352SOL    HW127515   1.139   3.658   4.446 -0.4469  0.0519  0.6636
 5352SOL    HW227516   1.006   3.725   4.456  0.1379  1.9366  1.1670
 5353SOL     OW27517   2.883   4.488   6.341 -0.0273 -0.1021 -0.3897
 5353SOL    HW127518   2.919   4.406   6.307 -0.4449 -0.8522  0.9550
 5353SOL    HW227519   2.831   4.460   6.416 -0.6110 -0.9551 -1.1097
 5354SOL     OW27520   0.461   3.481  16.135  0.0260 -0.6234  0.2014
 5354SOL    HW127521   0.407   3.425  16.191 -1.8220  1.5251  0.5665
 5354SOL    HW227522   0.548   3.481  16.174  1.0984 -2.6098 -2.1695
 5355SOL     OW27523   0.522   0.646   2.714 -0.1471  0.3029  0.0847
 5355SOL    HW127524   0.507   0.616   2.625  1.4938 -3.8475  1.2240
 5355SOL    HW227525   0.442   0.699   2.722 -1.0456 -1.2384  1.2230
 5356SOL     OW27526   3.269   0.099   6.887  0.2692  0.3950  0.2976
 5356SOL    HW127527   3.285   0.005   6.895  2.4031  0.5247 -2.4028
 5356SOL    HW227528   3.184   0.085   6.844  0.2270  1.2686  0.0989
 5357SOL     OW27529   3.658   0.551   5.536 -0.0952 -0.1630 -0.0036
 5357SOL    HW127530   3.687   0.628   5.487 -1.2627 -0.8486 -1.7454
 5357SOL    HW227531   3.737   0.537   5.588 -0.3519 -0.3772  0.3313
 5358SOL     OW27532   3.656   0.294   2.200  0.5609 -0.0976 -0.1866
 5358SOL    HW127533   3.636   0.388   2.210  1.5482 -0.0916  1.7945
 5358SOL    HW227534   3.567   0.266   2.180  0.6041 -0.8544  0.6891
 5359SOL     OW27535   2.154   3.506   6.291  0.3257 -0.0055 -0.2352
 5359SOL    HW127536   2.110   3.433   6.335  0.1114 -0.5048 -1.2920
 5359SOL    HW227537   2.091   3.530   6.223  1.8559  1.8115 -1.0276
 5360SOL     OW27538   1.663   0.016   6.298  0.0454 -0.8508  0.1147
 5360SOL    HW127539   1.632   4.707   6.382 -0.6219  0.2069  0.3153
 5360SOL    HW227540   1.750   4.703   6.293  0.6904  0.7083 -0.8345
 5361SOL     OW27541   2.432   4.186   2.645 -0.2547  0.7606  0.2054
 5361SOL    HW127542   2.346   4.171   2.605  0.4447 -1.3352 -0.5093
 5361SOL    HW227543   2.408   4.181   2.738 -0.0608  0.1791  0.2229
 5362SOL     OW27544   0.011   1.889   5.879 -0.3667  0.2557 -0.4737
 5362SOL    HW127545   0.102   1.898   5.851 -0.3359  0.3482 -0.3443
 5362SOL    HW227546   0.014   1.800   5.913  0.0130  0.4092 -0.1049
 5363SOL     OW27547   2.651   1.179  11.106  0.1708  0.2357 -0.3483
 5363SOL    HW127548   2.584   1.240  11.077  0.3115 -0.0763 -1.3418
 5363SOL    HW227549   2.603   1.115  11.158  0.7092  1.2630  1.4207
 5364SOL     OW27550   2.471   1.894   4.349 -0.2816 -0.5826 -0.1950
 5364SOL    HW127551   2.490   1.952   4.275  1.3167 -0.8368  0.0229
 5364SOL    HW227552   2.394   1.847   4.316 -0.9026 -0.5752  1.2195
 5365SOL     OW27553   2.627   0.400  13.981  0.3890  1.0673 -0.0720
 5365SOL    HW127554   2.573   0.474  14.009 -1.1886  0.3400 -1.1459
 5365SOL    HW227555   2.591   0.320  14.021  0.8332  1.4337  1.0749
 5366SOL     OW27556   1.120   0.229   8.873 -0.0148  0.5109  0.1126
 5366SOL    HW127557   1.091   0.249   8.962 -0.4452  0.1043  0.0594
 5366SOL    HW227558   1.037   0.216   8.828  0.6955 -1.5435 -0.6088
 5367SOL     OW27559   2.668   1.606  10.814 -0.0420  0.1299  0.5898
 5367SOL    HW127560   2.632   1.686  10.774  0.5876  0.4022  0.5742
 5367SOL    HW227561   2.601   1.583  10.878 -0.4299 -0.0354  0.1286
 5368SOL     OW27562   3.507   3.302   8.341  0.4759 -0.0462 -0.2984
 5368SOL    HW127563   3.583   3.292   8.284  0.7854 -0.3571  0.1685
 5368SOL    HW227564   3.431   3.337   8.294 -1.2535 -2.1865  0.8924
 5369SOL     OW27565   2.596   3.594   9.856  0.4769 -0.7460 -0.1982
 5369SOL    HW127566   2.592   3.689   9.844  1.2722 -0.6634  0.1701
 5369SOL    HW227567   2.685   3.578   9.824  0.3222  1.3288 -1.6741
 5370SOL     OW27568   3.016   1.424   3.453 -0.3527  0.0233 -0.3971
 5370SOL    HW127569   3.104   1.430   3.415 -0.6444  1.3401 -0.9075
 5370SOL    HW227570   2.976   1.506   3.421  0.1984  0.6907  0.6225
 5371SOL     OW27571   3.816   4.289   9.642  0.5984  0.1755  0.3643
 5371SOL    HW127572   3.846   4.318   9.728 -1.1719  0.0993  1.0005
 5371SOL    HW227573   3.893   4.320   9.593  0.4621  0.2956  0.2297
 5372SOL     OW27574   1.822   2.339   7.819 -0.5147  0.0112  0.6829
 5372SOL    HW127575   1.734   2.358   7.786  0.0331  1.4859  0.0318
 5372SOL    HW227576   1.833   2.254   7.776 -0.8335  0.1666  0.2842
 5373SOL     OW27577   1.327   4.147   8.743 -0.1855 -0.0766 -0.1693
 5373SOL    HW127578   1.402   4.187   8.699  0.4333  0.4340  1.3462
 5373SOL    HW227579   1.350   4.055   8.728  1.2871  0.1537  0.6735
 5374SOL     OW27580   3.750   1.939   0.330 -0.0468  0.0300 -0.1641
 5374SOL    HW127581   3.663   1.953   0.368  0.4046  0.5999  0.6612
 5374SOL    HW227582   3.792   1.906   0.410  0.4419  1.2068  0.0640
 5375SOL     OW27583   2.302   2.740   9.834  0.4380 -0.5238 -0.2426
 5375SOL    HW127584   2.233   2.772   9.893 -3.1454 -2.8430 -3.1267
 5375SOL    HW227585   2.285   2.647   9.843 -1.1429 -0.2006  0.2764
 5376SOL     OW27586   0.683   2.321   7.537  0.2290  0.2275  0.2705
 5376SOL    HW127587   0.763   2.274   7.563 -0.6386 -2.2546 -1.5696
 5376SOL    HW227588   0.728   2.397   7.499 -1.9923  1.2529 -0.2507
 5377SOL     OW27589   4.125   1.190   5.379  0.2584  0.9006  0.2359
 5377SOL    HW127590   4.198   1.253   5.378  0.6153  0.4714 -3.5927
 5377SOL    HW227591   4.053   1.232   5.332 -1.5185 -0.3721  1.8593
 5378SOL     OW27592   0.405   1.820   3.195 -0.0346 -0.1582  0.1329
 5378SOL    HW127593   0.469   1.857   3.135 -0.4637 -0.5182 -0.5479
 5378SOL    HW227594   0.442   1.855   3.276 -2.5239  0.1300  1.1706
 5379SOL     OW27595   2.681   2.493  14.581  0.2534  0.0822 -0.8204
 5379SOL    HW127596   2.687   2.471  14.674  1.8787  0.9585 -0.7239
 5379SOL    HW227597   2.607   2.552  14.595  1.6644  1.3636  1.2053
 5380SOL     OW27598   2.613   1.712   1.728  0.1626 -0.8192  0.0063
 5380SOL    HW127599   2.573   1.783   1.678  0.3332 -0.1970  0.7611
 5380SOL    HW227600   2.705   1.738   1.721 -0.2821  0.2169 -1.9928
 5381SOL     OW27601   1.819   2.954  16.483  0.1465  0.0142 -0.2912
 5381SOL    HW127602   1.798   3.020  16.416 -0.7422 -1.6220 -1.6309
 5381SOL    HW227603   1.780   2.997  16.559  1.1108 -2.2802  1.4568
 5382SOL     OW27604   3.897   2.578   3.713 -1.0497 -0.6408 -0.0329
 5382SOL    HW127605   3.802   2.577   3.703 -1.1838 -0.8913  1.2306
 5382SOL    HW227606   3.916   2.495   3.758  0.7837 -0.5434 -0.6360
 5383SOL     OW27607   0.848   1.765   5.961 -0.2690  0.6245  0.1932
 5383SOL    HW127608   0.835   1.719   5.879  0.1057  2.7346 -1.0487
 5383SOL    HW227609   0.836   1.855   5.931 -0.4923  0.3327 -0.5895
 5384SOL     OW27610   2.539   4.232   3.557 -0.2884  0.3922  0.0116
 5384SOL    HW127611   2.592   4.194   3.488  0.7705  1.0424  0.4647
 5384SOL    HW227612   2.454   4.219   3.515  0.0308 -1.6006  0.0041
 5385SOL     OW27613   1.931   4.339  10.843 -0.2306 -0.0508 -0.1115
 5385SOL    HW127614   1.993   4.335  10.770 -0.1941 -1.5396  0.0159
 5385SOL    HW227615   1.939   4.250  10.877 -1.0353  0.0201  0.2836
 5386SOL     OW27616   4.703   2.461  14.763  0.0991 -0.2600 -0.2499
 5386SOL    HW127617   4.711   2.450  14.858 -0.1695  1.0625 -0.0668
 5386SOL    HW227618   4.679   2.553  14.753 -0.1357 -0.4573 -1.4205
 5387SOL     OW27619   4.050   1.736  14.488 -0.1379  0.4239 -0.1968
 5387SOL    HW127620   3.959   1.705  14.487 -0.2789  0.8250  0.0793
 5387SOL    HW227621   4.048   1.807  14.553  0.4652 -0.0716  0.3658
 5388SOL     OW27622   4.459   3.534   7.464  0.0960  0.0086  0.2490
 5388SOL    HW127623   4.552   3.546   7.441  0.0812 -1.5896 -0.6393
 5388SOL    HW227624   4.466   3.443   7.491 -0.7128 -0.2757 -0.4995
 5389SOL     OW27625   0.053   4.233   3.820 -0.2140 -0.5726 -0.1739
 5389SOL    HW127626   0.134   4.182   3.823 -1.4261 -2.4102  1.3131
 5389SOL    HW227627   0.068   4.290   3.744  0.1403  0.5610  0.7448
 5390SOL     OW27628   2.515   0.120   1.580 -0.0598  0.0483  0.1841
 5390SOL    HW127629   2.550   0.148   1.664  0.7125  0.0903 -0.1451
 5390SOL    HW227630   2.579   0.148   1.514 -0.7191  0.1334 -0.4119
 5391SOL     OW27631   0.070   0.166   5.414 -0.1898 -0.1321 -0.0028
 5391SOL    HW127632   0.153   0.119   5.424  0.0125  1.1474  4.2900
 5391SOL    HW227633   0.012   0.100   5.377 -1.2865  1.6787 -1.5057
 5392SOL     OW27634   3.640   2.496   3.065 -0.0011  0.7740  0.0093
 5392SOL    HW127635   3.595   2.458   3.140 -1.3255  1.4974 -0.4330
 5392SOL    HW227636   3.636   2.430   2.996 -0.7045 -1.0402  1.7882
 5393SOL     OW27637   0.846   4.568   3.997 -0.7602  0.4755  0.2327
 5393SOL    HW127638   0.805   4.644   4.038  2.6388  1.5003  1.7300
 5393SOL    HW227639   0.795   4.550   3.917  0.6658  1.3277 -0.8637
 5394SOL     OW27640   1.963   0.530   7.432 -0.2578  0.2037  0.0811
 5394SOL    HW127641   2.029   0.466   7.458 -0.7251 -0.4044 -0.2418
 5394SOL    HW227642   1.965   0.600   7.497 -1.0198 -2.2465  2.7667
 5395SOL     OW27643   1.470   2.487   6.038 -0.6113  0.3608  0.2881
 5395SOL    HW127644   1.523   2.503   5.960  2.0948 -1.3424  1.7833
 5395SOL    HW227645   1.503   2.558   6.092 -1.5316  2.0651 -1.3944
 5396SOL     OW27646   0.467   4.236   0.351  0.0695 -0.3182 -0.1010
 5396SOL    HW127647   0.456   4.303   0.419  0.6439  0.4108 -0.7224
 5396SOL    HW227648   0.533   4.284   0.301 -0.5499 -0.1554 -0.7538
 5397SOL     OW27649   0.469   0.047   4.953  0.5850  0.5024  0.4692
 5397SOL    HW127650   0.481   0.123   4.895 -1.3840  0.8928  0.5749
 5397SOL    HW227651   0.437   0.087   5.034 -2.3049  1.0401 -0.9649
 5398SOL     OW27652   4.473   4.089   5.652 -0.1830 -0.2851  0.1124
 5398SOL    HW127653   4.422   4.169   5.665  1.3936  0.7059  0.2049
 5398SOL    HW227654   4.513   4.091   5.565  1.3669  0.3685  0.8364
 5399SOL     OW27655   3.528   3.434   5.136  0.4583 -0.3196 -0.3307
 5399SOL    HW127656   3.472   3.464   5.208 -0.7804 -0.4506 -1.2484
 5399SOL    HW227657   3.498   3.501   5.075  3.7081  1.2933 -0.1663
 5400SOL     OW27658   3.967   0.537   0.698 -0.2852 -0.5675  0.1991
 5400SOL    HW127659   3.967   0.546   0.603 -3.0403 -1.6606  0.1074
 5400SOL    HW227660   3.986   0.628   0.719 -0.6236 -0.8446  1.7282
 5401SOL     OW27661   3.044   0.711   6.557 -0.3536  0.3259 -0.0934
 5401SOL    HW127662   3.049   0.713   6.461  0.9860  1.7631 -0.0002
 5401SOL    HW227663   3.030   0.619   6.577 -1.6885  0.8164  1.2790
 5402SOL     OW27664   2.303   0.412   8.420  0.4966  0.0160  0.4225
 5402SOL    HW127665   2.238   0.398   8.489  1.4493  0.0747  1.3294
 5402SOL    HW227666   2.370   0.466   8.463  0.8460  0.6777 -0.9709
 5403SOL     OW27667   2.238   0.598   7.784 -0.0987  0.3366 -0.0952
 5403SOL    HW127668   2.279   0.593   7.697  0.2628  1.0440  0.0349
 5403SOL    HW227669   2.212   0.507   7.798 -1.7635  0.5165 -1.9992
 5404SOL     OW27670   2.438   2.585  13.069  0.1870 -1.3305 -0.3975
 5404SOL    HW127671   2.348   2.582  13.103 -0.4354 -1.3177 -2.0430
 5404SOL    HW227672   2.457   2.679  13.066  2.5632 -1.7368  2.3519
 5405SOL     OW27673   2.842   4.446   7.006  0.0767 -0.3990  0.4701
 5405SOL    HW127674   2.914   4.500   7.037  0.6393 -0.2286 -1.1105
 5405SOL    HW227675   2.872   4.366   7.048  0.4498 -0.0576  0.8483
 5406SOL     OW27676   1.412   1.945  17.333  0.2541 -0.3219 -0.5193
 5406SOL    HW127677   1.398   1.853  17.310 -0.5735 -0.3389  0.0735
 5406SOL    HW227678   1.326   1.970  17.302  0.0430 -0.1381  0.2097
 5407SOL     OW27679   1.475   3.704   1.922  0.3588  0.1854  0.1805
 5407SOL    HW127680   1.483   3.675   1.831 -0.3639 -0.5366  0.3511
 5407SOL    HW227681   1.431   3.785   1.898 -0.8480 -0.7282 -0.6528
 5408SOL     OW27682   1.656   3.688  13.115  0.1748  0.4396 -0.2063
 5408SOL    HW127683   1.737   3.735  13.097  0.3777  0.7512  1.6079
 5408SOL    HW227684   1.634   3.704  13.206 -1.9383 -1.3168 -0.3782
 5409SOL     OW27685   1.412   3.656   1.145  0.1169  0.3442  0.0869
 5409SOL    HW127686   1.379   3.610   1.069  1.9123 -2.9172  1.2886
 5409SOL    HW227687   1.421   3.745   1.110  0.3841  1.1308  2.1081
 5410SOL     OW27688   2.173   4.394   1.247 -0.2112 -0.7108 -0.4914
 5410SOL    HW127689   2.103   4.412   1.310  0.2056  0.6148 -0.3984
 5410SOL    HW227690   2.225   4.326   1.289  0.6909  0.9600  1.0938
 5411SOL     OW27691   1.431   2.231   6.521  0.4126 -0.2120  0.0624
 5411SOL    HW127692   1.432   2.233   6.426 -0.9109 -1.8070  0.0074
 5411SOL    HW227693   1.470   2.146   6.542 -0.5347 -0.7550 -0.3912
 5412SOL     OW27694   2.999   3.031   4.697 -0.0479 -0.2650  0.5710
 5412SOL    HW127695   3.057   2.960   4.670 -1.1389 -0.3731 -1.4404
 5412SOL    HW227696   3.057   3.107   4.690 -0.2356  0.0301  2.1643
 5413SOL     OW27697   3.411   0.216  15.369 -0.5594  0.1521 -0.2424
 5413SOL    HW127698   3.440   0.307  15.373 -0.7202  0.1887  0.1267
 5413SOL    HW227699   3.472   0.178  15.306  0.5692  0.1493  0.8272
 5414SOL     OW27700   1.992   0.015   9.202 -0.1931 -0.5484  0.0472
 5414SOL    HW127701   2.013   0.032   9.110 -0.4101  1.1400  0.3114
 5414SOL    HW227702   1.898   0.028   9.212  0.0489  0.9337  0.4218
 5415SOL     OW27703   0.879   3.430   4.415 -0.4600 -0.2483 -0.0267
 5415SOL    HW127704   0.802   3.430   4.358  0.6606  0.0615 -1.5394
 5415SOL    HW227705   0.896   3.524   4.422 -1.5533  0.0780 -1.7255
 5416SOL     OW27706   4.044   2.529   7.542  0.6309  0.4177  0.0847
 5416SOL    HW127707   4.082   2.580   7.614  1.3402  0.8914 -0.6300
 5416SOL    HW227708   4.069   2.589   7.472 -0.6446 -1.4391 -1.9337
 5417SOL     OW27709   0.311   0.516   4.995 -0.4280 -0.3822  0.2205
 5417SOL    HW127710   0.388   0.509   4.939 -0.2279 -1.4536  0.6323
 5417SOL    HW227711   0.318   0.607   5.024 -1.0898 -0.2929  0.0868
 5418SOL     OW27712   4.215   2.603   5.806 -0.4836 -0.0329 -0.0215
 5418SOL    HW127713   4.191   2.510   5.803 -0.2837 -0.1483  1.7047
 5418SOL    HW227714   4.295   2.602   5.755 -1.1284  0.7886 -1.0321
 5419SOL     OW27715   2.940   3.923   6.577  0.6559  0.0337  0.0657
 5419SOL    HW127716   2.995   3.844   6.584  0.8383 -0.0325 -2.1122
 5419SOL    HW227717   2.870   3.889   6.522 -0.7451  1.5559  0.9266
 5420SOL     OW27718   1.390   1.704  11.667  0.0498 -0.0150 -0.4754
 5420SOL    HW127719   1.312   1.697  11.613  1.3084 -1.8346 -2.0656
 5420SOL    HW227720   1.351   1.747  11.743  1.2385  2.1461 -1.0874
 5421SOL     OW27721   4.167   2.181   8.191  0.3369 -0.0997 -0.3390
 5421SOL    HW127722   4.192   2.185   8.283  1.2609 -1.7711 -0.5155
 5421SOL    HW227723   4.128   2.268   8.191 -0.2924 -0.3849 -0.7629
 5422SOL     OW27724   1.311   0.225   1.717  0.0615  0.6668 -0.6359
 5422SOL    HW127725   1.294   0.317   1.696 -0.4427  1.0406  1.4800
 5422SOL    HW227726   1.224   0.197   1.687 -0.3691  2.4789 -1.1117
 5423SOL     OW27727   0.246   2.149   8.523  0.2636 -0.0404  0.6511
 5423SOL    HW127728   0.180   2.155   8.592  0.4264  0.3577  0.7678
 5423SOL    HW227729   0.189   2.127   8.450 -0.5741 -0.8018  1.5282
 5424SOL     OW27730   3.282   1.970   8.218  0.4171  0.1013  0.1316
 5424SOL    HW127731   3.368   2.008   8.199  0.2302 -0.3892 -1.7259
 5424SOL    HW227732   3.230   2.045   8.189  0.8769  0.5014  0.3304
 5425SOL     OW27733   1.292   3.343   6.386  0.2402  0.4406 -0.5891
 5425SOL    HW127734   1.317   3.423   6.338  1.7211  0.7927  0.7768
 5425SOL    HW227735   1.372   3.294   6.368  1.4629  2.3927 -0.5413
 5426SOL     OW27736   2.860   1.236   8.800 -0.7875 -0.5600 -0.3923
 5426SOL    HW127737   2.838   1.234   8.707  2.8804 -1.0526 -1.2458
 5426SOL    HW227738   2.950   1.203   8.789 -0.3326  0.1252  1.2840
 5427SOL     OW27739   2.137   2.262   3.713  0.2754 -0.0498 -0.1299
 5427SOL    HW127740   2.049   2.274   3.676  0.2851  1.8612  0.4692
 5427SOL    HW227741   2.183   2.260   3.629 -1.0062  1.8405 -0.8657
 5428SOL     OW27742   2.159   2.623  11.098 -0.6422  0.1446  0.3435
 5428SOL    HW127743   2.218   2.548  11.096 -1.1831 -0.2736  0.2730
 5428SOL    HW227744   2.075   2.581  11.113  0.1720 -0.4380  3.2536
 5429SOL     OW27745   1.012   2.796   4.570 -0.1450 -0.1772 -0.0662
 5429SOL    HW127746   0.981   2.717   4.525 -0.6420  0.6304 -1.1357
 5429SOL    HW227747   1.028   2.766   4.659  1.0429 -1.3319 -0.6615
 5430SOL     OW27748   3.296   1.764   8.904 -0.3148 -0.4477  0.2391
 5430SOL    HW127749   3.219   1.790   8.954  1.8530  0.8688  2.8935
 5430SOL    HW227750   3.290   1.820   8.826 -1.8294 -0.6416  0.2159
 5431SOL     OW27751   3.641   0.817   3.634  0.4425 -0.3776  0.2275
 5431SOL    HW127752   3.712   0.823   3.569 -1.0018  0.1768 -1.3047
 5431SOL    HW227753   3.635   0.912   3.642  1.2225 -0.1732 -1.5263
 5432SOL     OW27754   2.878   3.833   0.988 -0.0150 -0.6712 -0.2629
 5432SOL    HW127755   2.822   3.830   1.066  0.7966 -0.1896  0.3415
 5432SOL    HW227756   2.817   3.826   0.915  0.5904 -0.4945 -0.7888
 5433SOL     OW27757   4.284   3.419  14.044 -0.4866  0.4726 -0.1086
 5433SOL    HW127758   4.265   3.503  14.086 -0.6115  0.1842  0.4180
 5433SOL    HW227759   4.272   3.443  13.953  2.5548  0.3913 -0.5282
 5434SOL     OW27760   3.301   0.656  11.538 -0.0941  0.3707 -0.0891
 5434SOL    HW127761   3.212   0.633  11.514 -0.3953  0.2381  1.1671
 5434SOL    HW227762   3.319   0.607  11.618  2.4969 -1.4963 -1.8321
 5435SOL     OW27763   2.492   2.348  14.288 -0.1938 -0.0096 -0.4916
 5435SOL    HW127764   2.414   2.311  14.246  1.5812  0.5363 -4.2703
 5435SOL    HW227765   2.495   2.434  14.248 -0.8313  0.7535  1.0947
 5436SOL     OW27766   2.717   1.341   6.937  0.3910  0.3607  0.3578
 5436SOL    HW127767   2.770   1.401   6.989  0.1724  2.2764 -1.6755
 5436SOL    HW227768   2.783   1.303   6.880 -0.2026  2.8472 -1.9591
 5437SOL     OW27769   4.530   1.463   4.300 -0.5288 -1.0264  0.3025
 5437SOL    HW127770   4.572   1.419   4.225  1.2234 -2.9542  2.4234
 5437SOL    HW227771   4.563   1.413   4.374 -1.1674 -0.3581  1.0375
 5438SOL     OW27772   0.056   4.400   7.287  0.3305 -0.1692  0.2545
 5438SOL    HW127773   4.701   4.425   7.332 -0.3419 -0.7179 -0.6624
 5438SOL    HW227774   0.031   4.323   7.236 -0.1304 -0.4343  0.8813
 5439SOL     OW27775   4.019   2.298   2.222  0.2341 -0.0685  0.2733
 5439SOL    HW127776   4.040   2.373   2.277  0.8125 -0.4144  0.5205
 5439SOL    HW227777   4.031   2.225   2.282 -0.2913  0.8303  1.4636
 5440SOL     OW27778   0.554   0.085   2.679  0.0360 -0.1600 -0.2293
 5440SOL    HW127779   0.585   0.007   2.725 -1.6551  2.0265  4.6910
 5440SOL    HW227780   0.591   0.159   2.728 -0.3677  1.1658 -1.9470
 5441SOL     OW27781   4.504   3.406   5.941  0.0096  0.6261 -0.7076
 5441SOL    HW127782   4.558   3.344   5.989 -1.6322 -1.6510 -1.7929
 5441SOL    HW227783   4.416   3.368   5.935  0.1724  0.3387 -1.2280
 5442SOL     OW27784   2.956   1.940   5.860 -0.0620  0.2723  0.3933
 5442SOL    HW127785   2.938   2.022   5.815  2.0548  0.1672 -0.6367
 5442SOL    HW227786   3.033   1.908   5.813 -1.2208 -0.3141 -1.1240
 5443SOL     OW27787   0.332   3.351   7.752  0.0846  0.1411  0.3084
 5443SOL    HW127788   0.421   3.332   7.780  0.9799  1.9463 -1.2641
 5443SOL    HW227789   0.288   3.267   7.740 -0.5567  0.6387 -0.9169
 5444SOL     OW27790   4.494   1.352  10.236  0.1200 -0.4517  0.2470
 5444SOL    HW127791   4.523   1.288  10.302  0.2075  0.1493  0.7897
 5444SOL    HW227792   4.488   1.295  10.159  0.8036 -0.9866  0.5913
 5445SOL     OW27793   0.995   2.231   4.787  0.6297  0.5557  0.7416
 5445SOL    HW127794   0.917   2.208   4.837  1.1933  3.8227  3.1282
 5445SOL    HW227795   0.981   2.195   4.699 -0.9199  4.9881 -0.8075
 5446SOL     OW27796   0.075   4.331   7.992 -0.0719 -1.1303 -0.7376
 5446SOL    HW127797   0.009   4.265   8.012  0.3243 -1.8737 -1.8683
 5446SOL    HW227798   0.164   4.296   8.005  0.3860  0.6591  0.8580
 5447SOL     OW27799   2.781   1.895   3.386  0.4550  0.2226 -0.4737
 5447SOL    HW127800   2.770   1.974   3.332 -1.3475 -0.8975 -1.7322
 5447SOL    HW227801   2.688   1.879   3.398  0.1625  1.7889 -0.5705
 5448SOL     OW27802   0.522   3.921  15.012  0.3377  0.2706  0.2994
 5448SOL    HW127803   0.536   3.839  14.965  0.0065 -0.3865  1.3490
 5448SOL    HW227804   0.524   3.887  15.102  0.2584 -1.0957 -0.2105
 5449SOL     OW27805   4.159   3.558   4.786 -0.3669 -0.0148  0.1162
 5449SOL    HW127806   4.174   3.542   4.693 -0.5256  0.8572 -0.0568
 5449SOL    HW227807   4.122   3.474   4.815  0.9829 -1.2168 -1.6057
 5450SOL     OW27808   2.125   0.232   1.807  0.0103 -0.0530 -0.1133
 5450SOL    HW127809   2.127   0.161   1.743 -1.6608 -0.9523  0.8075
 5450SOL    HW227810   2.032   0.258   1.807  0.6875  2.3308 -0.1832
 5451SOL     OW27811   0.536   2.268  10.789  0.0613  0.2049 -0.4055
 5451SOL    HW127812   0.579   2.264  10.875 -0.4453  0.2399 -0.1520
 5451SOL    HW227813   0.496   2.181  10.791  0.9563 -0.1991  0.3742
 5452SOL     OW27814   3.878   0.994   4.651 -0.2452  0.4325  0.7870
 5452SOL    HW127815   3.817   0.940   4.701 -1.1970  0.4447 -0.3637
 5452SOL    HW227816   3.812   1.034   4.595  1.2427 -2.4082 -2.9664
 5453SOL     OW27817   4.253   2.597   6.215 -0.5320  0.3781 -0.3847
 5453SOL    HW127818   4.299   2.609   6.132 -1.6129  2.5398 -0.6571
 5453SOL    HW227819   4.259   2.502   6.224 -0.2910  0.3035 -1.3867
 5454SOL     OW27820   1.411   1.547   5.237  0.0026 -0.1730  0.2882
 5454SOL    HW127821   1.423   1.593   5.321  0.9497  0.6132 -0.2827
 5454SOL    HW227822   1.466   1.469   5.242 -1.6342 -1.4214 -1.5539
 5455SOL     OW27823   0.794   4.303   3.541 -0.3526  0.3615  0.0969
 5455SOL    HW127824   0.704   4.278   3.561  0.4036  0.7379  3.8222
 5455SOL    HW227825   0.808   4.266   3.454 -1.3186 -1.9465  0.9188
 5456SOL     OW27826   2.441   1.945   2.271 -0.4284 -0.2959 -0.6983
 5456SOL    HW127827   2.358   1.897   2.271 -0.3920 -0.3660  0.0921
 5456SOL    HW227828   2.471   1.916   2.185 -0.0081 -3.0493  0.3717
 5457SOL     OW27829   4.511   3.108   2.062 -0.2101  0.3790 -0.0664
 5457SOL    HW127830   4.582   3.169   2.039  0.9672 -0.5297  1.1052
 5457SOL    HW227831   4.569   3.044   2.103  0.0683  1.0987  0.6681
 5458SOL     OW27832   0.986   2.923   1.015  0.0486  0.1741  0.7527
 5458SOL    HW127833   0.971   2.946   0.923 -0.3479  0.1386  0.8057
 5458SOL    HW227834   1.015   2.834   0.996  0.0524  0.7291 -1.8016
 5459SOL     OW27835   1.204   1.519   3.637 -0.1727 -0.4333 -0.0477
 5459SOL    HW127836   1.115   1.485   3.637 -0.7874  1.1130  2.3248
 5459SOL    HW227837   1.263   1.453   3.673 -1.9335 -1.9792 -0.0060
 5460SOL     OW27838   3.076   3.138  14.274 -0.0154  0.9648  0.1405
 5460SOL    HW127839   3.096   3.231  14.261 -1.1551  1.2603  0.5538
 5460SOL    HW227840   2.998   3.148  14.328  0.6137 -0.2341  1.2708
 5461SOL     OW27841   2.314   3.337   5.397  0.3538 -0.2666 -0.1920
 5461SOL    HW127842   2.243   3.309   5.339  0.6358 -1.6970  0.1500
 5461SOL    HW227843   2.267   3.331   5.480  0.5585 -0.3533 -0.0821
 5462SOL     OW27844   1.130   2.193   0.248  0.1448 -0.3629 -0.2728
 5462SOL    HW127845   1.214   2.230   0.220 -1.0521  0.3816 -2.9243
 5462SOL    HW227846   1.116   2.133   0.174  0.8243  1.3534 -1.7714
 5463SOL     OW27847   1.359   3.594   3.077  0.0578  0.1757 -0.3630
 5463SOL    HW127848   1.394   3.637   3.154  0.4484 -0.4281 -0.2064
 5463SOL    HW227849   1.304   3.522   3.108  1.6509 -0.3609  1.1715
 5464SOL     OW27850   2.952   1.187   9.246  0.1283 -0.0341  0.2632
 5464SOL    HW127851   3.042   1.198   9.277  0.6978 -0.3989 -1.2359
 5464SOL    HW227852   2.914   1.149   9.325  1.1476  1.6997  1.5713
 5465SOL     OW27853   3.954   3.753   2.329 -0.6394 -0.1125 -0.7090
 5465SOL    HW127854   3.870   3.776   2.290 -0.6330  1.4270  0.1779
 5465SOL    HW227855   3.923   3.755   2.420  0.4935 -1.4796 -0.2947
 5466SOL     OW27856   1.912   4.708   6.059  0.0505  0.9210 -0.2993
 5466SOL    HW127857   1.965   0.005   5.983 -0.3665  0.2142 -0.8080
 5466SOL    HW227858   1.857   4.649   6.008 -1.8916  0.2602  2.5191
 5467SOL     OW27859   2.377   0.404   9.599  0.0285 -0.0023 -0.1795
 5467SOL    HW127860   2.300   0.426   9.652 -0.7472  2.5664 -2.4151
 5467SOL    HW227861   2.370   0.309   9.586  2.6809 -0.3446  0.7797
 5468SOL     OW27862   1.913   0.154   3.098  0.2852  0.3954  0.0942
 5468SOL    HW127863   1.976   0.181   3.164 -1.2569  0.7494  1.4078
 5468SOL    HW227864   1.967   0.108   3.033  0.2325  1.4841 -0.7222
 5469SOL     OW27865   3.801   0.520  13.697  0.6242 -0.8755 -0.6583
 5469SOL    HW127866   3.890   0.519  13.733  0.6674 -3.2860 -0.8273
 5469SOL    HW227867   3.762   0.585  13.755  0.8624 -0.4105 -1.0236
 5470SOL     OW27868   1.273   0.132   7.046  0.0236 -0.1227  0.3003
 5470SOL    HW127869   1.246   0.059   7.102  1.3214 -0.1684  0.8708
 5470SOL    HW227870   1.237   0.211   7.087 -1.6676  0.0046 -1.4659
 5471SOL     OW27871   4.445   0.373  16.911  0.2886 -0.5874  0.5356
 5471SOL    HW127872   4.540   0.361  16.913  0.4599  0.3847 -1.6401
 5471SOL    HW227873   4.420   0.421  16.990  0.5557 -0.8806  0.7940
 5472SOL     OW27874   0.654   2.587  14.298 -0.2456  0.0683 -0.5846
 5472SOL    HW127875   0.727   2.633  14.257 -1.4536  2.0047 -0.5704
 5472SOL    HW227876   0.648   2.512  14.238 -0.3211  0.0025 -0.4937
 5473SOL     OW27877   3.005   0.594   5.092  0.4787 -0.1945  0.0598
 5473SOL    HW127878   3.076   0.556   5.041  0.4649  0.9167 -0.7787
 5473SOL    HW227879   3.044   0.614   5.177 -0.8634  0.2737  0.5740
 5474SOL     OW27880   3.387   3.154   1.582  1.2161  0.1107 -0.0084
 5474SOL    HW127881   3.388   3.167   1.487 -1.0082  1.3652  0.1543
 5474SOL    HW227882   3.428   3.228   1.627  0.4605  0.8102 -0.4640
 5475SOL     OW27883   2.583   1.827   2.475  0.5533  0.1359 -0.1481
 5475SOL    HW127884   2.543   1.880   2.407 -1.1304  0.0872  0.8039
 5475SOL    HW227885   2.587   1.744   2.427  1.1244 -0.8603  1.6160
 5476SOL     OW27886   0.835   1.882   6.863  0.2701 -0.2795  0.2755
 5476SOL    HW127887   0.837   1.831   6.944 -0.9277  0.9348  1.0816
 5476SOL    HW227888   0.927   1.898   6.841  0.3239  1.0465  1.3920
 5477SOL     OW27889   0.795   1.764  16.559  0.4571 -0.5268  0.4644
 5477SOL    HW127890   0.887   1.780  16.536  0.1176  1.5971  0.5946
 5477SOL    HW227891   0.773   1.848  16.600  0.3064  0.1152 -0.9393
 5478SOL     OW27892   4.681   4.517  15.565 -0.2575 -0.1889 -0.7486
 5478SOL    HW127893   4.718   4.429  15.575 -1.7721 -0.6817  0.5805
 5478SOL    HW227894   4.603   4.510  15.620 -0.3442  0.6742 -0.7649
 5479SOL     OW27895   1.379   2.247   5.622 -0.0295  0.2358 -0.5579
 5479SOL    HW127896   1.440   2.187   5.579 -1.8286 -1.5148 -0.6556
 5479SOL    HW227897   1.295   2.215   5.590  1.0819 -1.9295 -1.2890
 5480SOL     OW27898   3.147   2.308   4.769  0.5844  0.1147  0.3772
 5480SOL    HW127899   3.109   2.339   4.851 -0.6565 -2.8892  0.9430
 5480SOL    HW227900   3.184   2.227   4.805  1.0068  0.1603  0.0405
 5481SOL     OW27901   4.490   2.804  14.998  0.0023  0.5800  0.1937
 5481SOL    HW127902   4.573   2.758  15.004 -0.4164 -0.2467 -0.3674
 5481SOL    HW227903   4.513   2.887  15.040  0.0685  0.5617  0.1935
 5482SOL     OW27904   3.291   3.800  12.727 -0.1744  0.0434  0.6531
 5482SOL    HW127905   3.316   3.804  12.634 -0.2556 -0.1096  0.6251
 5482SOL    HW227906   3.356   3.858  12.764 -0.7608  1.3595 -0.3676
 5483SOL     OW27907   2.200   3.394  17.597  0.8398  0.3489 -0.2538
 5483SOL    HW127908   2.205   3.305  17.633  1.4583  0.3890 -0.2387
 5483SOL    HW227909   2.114   3.420  17.630  0.2869  0.5585 -1.8850
 5484SOL     OW27910   0.788   2.984   7.808  0.2892  0.2348  0.0858
 5484SOL    HW127911   0.694   2.969   7.817  0.3172 -0.1865 -0.3025
 5484SOL    HW227912   0.812   3.005   7.898 -0.5342 -1.4039  0.6967
 5485SOL     OW27913   3.061   1.995   2.170  0.4835  0.2256 -0.2199
 5485SOL    HW127914   3.067   2.082   2.132  0.5304  1.4194  2.5282
 5485SOL    HW227915   2.987   1.959   2.121  0.2354 -0.3670  0.5841
 5486SOL     OW27916   3.871   2.793   9.213 -0.0506  0.0365 -0.1703
 5486SOL    HW127917   3.829   2.718   9.255 -2.2303  1.6658  0.5041
 5486SOL    HW227918   3.804   2.860   9.220 -0.5920 -0.4517 -0.6705
 5487SOL     OW27919   4.075   3.758   5.071  0.0344  0.3533  0.5403
 5487SOL    HW127920   4.068   3.739   5.165 -0.1427 -1.8194  0.0982
 5487SOL    HW227921   4.149   3.701   5.048  1.3819  2.0610  0.6884
 5488SOL     OW27922   1.690   1.794  16.105  0.6533  0.3084 -0.8406
 5488SOL    HW127923   1.697   1.720  16.045  2.1495  0.3586 -0.7398
 5488SOL    HW227924   1.601   1.815  16.078  0.3334  2.2435  1.6494
 5489SOL     OW27925   4.587   0.772   3.203  0.2235  0.0853  0.2818
 5489SOL    HW127926   4.677   0.799   3.222  0.4012  1.0809 -1.9538
 5489SOL    HW227927   4.528   0.805   3.271  1.0143  0.0701  0.9704
 5490SOL     OW27928   1.617   4.245  16.717  0.1238 -0.6989  0.7815
 5490SOL    HW127929   1.521   4.248  16.715  0.0848 -0.9567  2.2257
 5490SOL    HW227930   1.637   4.293  16.798 -1.2956  2.5427 -0.7928
 5491SOL     OW27931   3.446   1.272   3.995  0.3897 -0.0357  0.2701
 5491SOL    HW127932   3.505   1.255   3.922  0.1343  0.4396 -0.0421
 5491SOL    HW227933   3.440   1.367   3.993  0.1925 -0.0242  1.2950
 5492SOL     OW27934   3.446   1.448   6.670  0.0641  0.1379 -0.3213
 5492SOL    HW127935   3.470   1.535   6.637 -1.1900  1.1586  1.4478
 5492SOL    HW227936   3.365   1.470   6.717 -0.6913  1.6992 -2.3690
 5493SOL     OW27937   0.583   1.419  10.652 -0.2301  0.2270  0.1454
 5493SOL    HW127938   0.654   1.417  10.715 -0.8771  0.9958  0.9050
 5493SOL    HW227939   0.520   1.471  10.703  0.8245  0.8313  0.8184
 5494SOL     OW27940   0.596   1.951   3.977  0.0590  0.0315 -0.7532
 5494SOL    HW127941   0.691   1.936   3.972  0.4394  2.6853 -1.5182
 5494SOL    HW227942   0.557   1.868   4.003 -0.7674  1.2786  2.0113
 5495SOL     OW27943   4.272   0.658   7.066  0.3954 -0.7040 -0.1331
 5495SOL    HW127944   4.185   0.632   7.035 -0.9383  1.1979  2.0155
 5495SOL    HW227945   4.303   0.696   6.983  0.6972  0.3372  0.4627
 5496SOL     OW27946   4.551   3.394   6.349  0.3261 -0.3764 -0.7153
 5496SOL    HW127947   4.619   3.349   6.399  3.2949  4.8802 -0.0226
 5496SOL    HW227948   4.562   3.373   6.257  0.5261  0.8256 -0.9651
 5497SOL     OW27949   0.384   4.024   5.630  0.1105 -0.4762  0.3991
 5497SOL    HW127950   0.472   4.043   5.597 -0.1990  0.3749  0.0667
 5497SOL    HW227951   0.348   3.953   5.577  0.9920  0.1327 -1.0227
 5498SOL     OW27952   1.606   3.191   4.307  0.2420 -0.5946  0.4193
 5498SOL    HW127953   1.595   3.178   4.213  1.1945  0.5514  0.1416
 5498SOL    HW227954   1.671   3.125   4.332  0.4914  0.3701  2.3251
 5499SOL     OW27955   1.384   1.567   9.520 -0.7149  0.1033 -0.4782
 5499SOL    HW127956   1.436   1.499   9.476  2.4651  1.3176  1.3813
 5499SOL    HW227957   1.345   1.506   9.583 -0.4037 -1.6143 -1.9518
 5500SOL     OW27958   3.089   2.780   0.440  0.4979 -0.4321  0.4354
 5500SOL    HW127959   3.097   2.869   0.407  1.6235 -0.7048 -0.0024
 5500SOL    HW227960   3.077   2.738   0.355  0.1427  1.1703 -0.3067
 5501SOL     OW27961   0.622   0.362  13.576 -0.4007  0.3126  0.0899
 5501SOL    HW127962   0.619   0.442  13.524 -0.9068  0.3950  0.2508
 5501SOL    HW227963   0.704   0.326  13.541 -1.3225 -0.8691 -0.8618
 5502SOL     OW27964   2.970   2.518   7.390  0.6331  0.0482  0.2887
 5502SOL    HW127965   2.885   2.553   7.416  1.9491  1.7643  2.3139
 5502SOL    HW227966   2.991   2.574   7.315  0.2732 -1.7993 -1.1763
 5503SOL     OW27967   1.012   3.451   6.635 -0.0163 -0.3220 -0.4222
 5503SOL    HW127968   1.093   3.400   6.634  0.1130 -0.1413  1.6757
 5503SOL    HW227969   1.023   3.509   6.711 -2.5626 -1.1647  0.5983
 5504SOL     OW27970   1.139   0.109  11.120 -0.0828 -0.0878  0.0356
 5504SOL    HW127971   1.200   0.052  11.073 -1.1162 -0.8122 -0.4178
 5504SOL    HW227972   1.136   0.059  11.201  0.2170 -1.3951 -0.7605
 5505SOL     OW27973   4.617   1.342  11.106 -0.1045  0.0526 -0.1089
 5505SOL    HW127974   4.561   1.410  11.069 -0.9513 -0.1166  0.8605
 5505SOL    HW227975   4.564   1.266  11.083  0.2066  0.0596 -0.8706
 5506SOL     OW27976   4.689   3.284   6.109 -0.0730 -0.2308  0.0606
 5506SOL    HW127977   0.022   3.238   6.050  0.4915  0.7449 -0.1298
 5506SOL    HW227978   4.643   3.218   6.162  0.9304  0.1147  1.3665
 5507SOL     OW27979   1.501   3.809   2.671 -0.6075  0.3008  0.5384
 5507SOL    HW127980   1.516   3.893   2.627 -1.4749  0.7803  1.1530
 5507SOL    HW227981   1.589   3.788   2.703 -0.3908  0.9251  0.3557
 5508SOL     OW27982   2.400   3.124   9.244 -0.0676 -0.2535 -0.3996
 5508SOL    HW127983   2.481   3.134   9.293  0.0306 -0.3743 -0.5379
 5508SOL    HW227984   2.330   3.132   9.310 -0.8182  0.1204 -1.2376
 5509SOL     OW27985   1.995   1.593   1.732  0.0506  0.1042 -0.1387
 5509SOL    HW127986   2.011   1.499   1.743 -2.9344 -0.2130  1.4320
 5509SOL    HW227987   2.051   1.605   1.656 -2.7676  0.0010 -2.2083
 5510SOL     OW27988   2.293   3.898  17.530 -0.1040  0.8076 -0.2735
 5510SOL    HW127989   2.291   3.985  17.491 -1.3871  2.2412  3.0298
 5510SOL    HW227990   2.363   3.912  17.594 -2.7604  2.2726  2.2950
 5511SOL     OW27991   0.017   0.807   6.021  0.1561 -0.0887  0.2034
 5511SOL    HW127992   4.669   0.764   6.063  0.5658  1.3788  2.4425
 5511SOL    HW227993   0.059   0.853   6.094 -0.7188  0.9876  0.0242
 5512SOL     OW27994   0.707   1.401   4.297  0.6257 -0.4807 -0.2188
 5512SOL    HW127995   0.631   1.448   4.331  0.6926 -0.6980  0.2359
 5512SOL    HW227996   0.700   1.414   4.203 -3.3193 -0.7766  0.0500
 5513SOL     OW27997   4.680   0.984   8.167  0.0718  0.5123 -0.1008
 5513SOL    HW127998   0.021   1.050   8.149 -1.4686  2.0766 -0.0613
 5513SOL    HW227999   4.654   0.959   8.078 -0.4699  0.2243  0.1400
 5514SOL     OW28000   4.269   0.549   4.636 -0.3409  0.6264 -0.4628
 5514SOL    HW128001   4.357   0.587   4.635  0.5532 -1.4188 -0.5482
 5514SOL    HW228002   4.242   0.570   4.546 -1.7697 -1.1744 -0.4484
 5515SOL     OW28003   0.426   2.715   7.577  0.2812  0.0394  0.3337
 5515SOL    HW128004   0.463   2.726   7.665  0.5818 -0.9035  0.3242
 5515SOL    HW228005   0.494   2.763   7.530  0.8001 -0.5731  0.4575
 5516SOL     OW28006   3.682   1.983   7.631 -0.1362  0.2115  0.2463
 5516SOL    HW128007   3.632   2.060   7.657 -0.1359  0.3457 -0.1483
 5516SOL    HW228008   3.750   2.019   7.573 -0.5162  0.9816  0.2776
 5517SOL     OW28009   0.114   0.065   7.279  0.2460 -0.1026  0.0877
 5517SOL    HW128010   0.111   4.718   7.217  2.8685  0.7577 -1.0536
 5517SOL    HW228011   0.101   0.015   7.360  0.7719  0.1684  0.3390
 5518SOL     OW28012   3.767   1.452   6.441  0.7720  0.2899 -0.4487
 5518SOL    HW128013   3.835   1.384   6.433  0.1145 -0.3206 -0.8863
 5518SOL    HW228014   3.694   1.408   6.396 -0.6545 -0.6927  2.7893
 5519SOL     OW28015   0.493   0.084  10.851 -0.1825  0.1198 -0.3551
 5519SOL    HW128016   0.415   0.132  10.881 -1.1366  0.0656 -2.7198
 5519SOL    HW228017   0.543   0.151  10.805 -0.2050  0.5706  0.2769
 5520SOL     OW28018   2.878   3.541   5.787  0.2077 -0.5915  0.1562
 5520SOL    HW128019   2.923   3.585   5.715  0.1679 -0.1025  0.4283
 5520SOL    HW228020   2.937   3.467   5.800 -0.0358 -0.7940  0.1246
 5521SOL     OW28021   4.694   0.367   5.596 -0.4318  0.1572 -0.4232
 5521SOL    HW128022   4.683   0.307   5.522 -0.7690  0.2414 -0.4414
 5521SOL    HW228023   0.011   0.437   5.547 -1.7874  1.0018 -0.4168
 5522SOL     OW28024   2.309   4.488   5.317 -0.3539 -0.2035 -0.2865
 5522SOL    HW128025   2.279   4.579   5.325 -0.5022 -0.1311 -1.5792
 5522SOL    HW228026   2.234   4.452   5.269 -0.8997 -0.3396  0.6739
 5523SOL     OW28027   1.806   1.324   7.748 -0.5055 -0.2760 -0.0265
 5523SOL    HW128028   1.757   1.394   7.706  0.6517  1.8946  2.2194
 5523SOL    HW228029   1.889   1.370   7.752 -0.0157 -1.1493 -0.1592
 5524SOL     OW28030   4.323   0.956   1.312 -0.1604 -0.6767  0.1611
 5524SOL    HW128031   4.289   0.946   1.401  1.7353 -0.0452  0.9554
 5524SOL    HW228032   4.289   1.043   1.289  1.4392 -0.2271 -0.4841
 5525SOL     OW28033   0.105   3.779   1.393  0.4058  0.3635 -0.4353
 5525SOL    HW128034   0.124   3.719   1.320  1.6845 -1.5905  1.4991
 5525SOL    HW228035   0.129   3.716   1.461 -0.4833 -1.0607 -1.4508
 5526SOL     OW28036   2.150   0.481  15.517  0.3333 -0.7028 -0.5137
 5526SOL    HW128037   2.199   0.561  15.540 -0.4427 -0.6988  1.0906
 5526SOL    HW228038   2.146   0.499  15.423 -0.8399  2.9823  0.2253
 5527SOL     OW28039   1.996   1.127   5.714 -0.7244  0.0477 -0.0479
 5527SOL    HW128040   1.912   1.101   5.676 -0.2783 -2.0573  0.3957
 5527SOL    HW228041   1.983   1.220   5.733 -0.8445  0.5424 -2.6209
 5528SOL     OW28042   3.270   3.493   2.072  0.4534 -0.0502  0.1655
 5528SOL    HW128043   3.328   3.478   2.146 -2.4636 -0.9670  2.3030
 5528SOL    HW228044   3.338   3.482   2.006 -0.1074  2.0120 -0.7820
 5529SOL     OW28045   4.015   4.276   5.941 -0.5694  0.2454  0.1135
 5529SOL    HW128046   4.067   4.275   5.861 -1.0786 -2.9459 -0.2093
 5529SOL    HW228047   3.977   4.188   5.933  0.1899 -0.0674  0.0253
 5530SOL     OW28048   4.434   4.191   5.010  0.3649 -0.2336 -0.0954
 5530SOL    HW128049   4.450   4.125   4.943 -0.0445  0.9848 -1.3809
 5530SOL    HW228050   4.358   4.155   5.055 -0.5814 -0.8659 -2.2000
 5531SOL     OW28051   3.825   3.000   5.179 -0.4420  0.5107  0.1683
 5531SOL    HW128052   3.744   2.964   5.144 -0.5558 -1.4771  2.4471
 5531SOL    HW228053   3.792   3.038   5.261 -0.1014 -2.0187  1.4749
 5532SOL     OW28054   4.657   2.331   5.107  0.9112 -0.0426  0.3785
 5532SOL    HW128055   4.689   2.242   5.123 -0.4787 -0.5097  0.5765
 5532SOL    HW228056   0.004   2.392   5.111  0.8076  0.0565  0.7045
 5533SOL     OW28057   2.892   4.503   8.938 -0.6542 -0.1539  0.2944
 5533SOL    HW128058   2.832   4.569   8.902  0.6814  1.2004  0.5816
 5533SOL    HW228059   2.896   4.530   9.029 -0.2471  1.5683 -0.2250
 5534SOL     OW28060   2.813   2.097   2.045  0.5299 -0.2395 -0.5841
 5534SOL    HW128061   2.749   2.130   2.108  0.5135 -0.3151 -0.5610
 5534SOL    HW228062   2.876   2.168   2.054 -0.2777  0.1770  1.8491
 5535SOL     OW28063   4.551   4.455   4.849  0.1531 -0.4978 -0.4624
 5535SOL    HW128064   4.557   4.399   4.926  0.0359 -0.7574 -0.6417
 5535SOL    HW228065   4.618   4.422   4.789  0.4180  1.4947 -1.2473
 5536SOL     OW28066   1.292   0.907  17.660  0.2370 -0.6321 -0.3275
 5536SOL    HW128067   1.248   0.951  17.588 -1.2880 -1.1168  0.3084
 5536SOL    HW228068   1.261   0.955   0.031  1.6395 -0.7206  0.3063
 5537SOL     OW28069   4.669   1.646   2.981  0.4885 -0.2430 -0.0647
 5537SOL    HW128070   0.017   1.670   2.925 -0.5061  0.1386 -1.2179
 5537SOL    HW228071   4.603   1.615   2.919  0.0157 -0.1895  0.4145
 5538SOL     OW28072   0.837   0.075  16.842  0.0002 -0.8321 -0.5080
 5538SOL    HW128073   0.868   0.159  16.875  1.2810 -1.5849  0.1826
 5538SOL    HW228074   0.762   0.098  16.787 -1.0296 -2.8600  0.0545
 5539SOL     OW28075   0.071   0.900   3.297  0.2697 -0.2250 -0.1644
 5539SOL    HW128076   0.034   0.953   3.367  0.7164  0.2051 -0.2505
 5539SOL    HW228077   0.108   0.968   3.240  2.8578  1.2292  3.2360
 5540SOL     OW28078   4.272   2.565  10.130  0.3450 -0.2678 -0.3947
 5540SOL    HW128079   4.189   2.596  10.095 -0.6092  0.6615  2.7112
 5540SOL    HW228080   4.333   2.629  10.094 -1.4526  1.5526 -0.2125
 5541SOL     OW28081   2.647   0.560  14.547 -0.1503  0.0563  0.6538
 5541SOL    HW128082   2.628   0.554  14.641  0.3422  1.3987  0.8289
 5541SOL    HW228083   2.598   0.489  14.504 -1.8313  1.8231 -0.3388
 5542SOL     OW28084   1.132   0.964  16.504  0.1200  0.4112 -0.1731
 5542SOL    HW128085   1.110   0.959  16.597  0.0224  0.0427 -0.2183
 5542SOL    HW228086   1.089   1.044  16.473  0.7462  1.1004  0.7403
 5543SOL     OW28087   0.454   1.135   8.486  0.1073  0.0369  0.1413
 5543SOL    HW128088   0.509   1.160   8.560 -1.0268 -0.0901  1.0332
 5543SOL    HW228089   0.530   1.125   8.429 -0.4520  1.3689 -0.8338
 5544SOL     OW28090   3.943   2.379  12.998  0.2779 -0.0711 -0.5343
 5544SOL    HW128091   3.871   2.432  13.034 -0.4078 -1.0077 -0.5193
 5544SOL    HW228092   4.003   2.452  13.007 -1.9767  1.7885 -0.4128
 5545SOL     OW28093   1.175   2.517   2.038 -0.1598  0.2999  0.1499
 5545SOL    HW128094   1.151   2.446   1.978  2.1351 -0.1387 -0.2201
 5545SOL    HW228095   1.243   2.476   2.092 -0.1488  0.2947  0.1320
 5546SOL     OW28096   2.417   1.168   6.126  0.1114  0.2250 -0.0537
 5546SOL    HW128097   2.352   1.238   6.125  0.2336  0.3426  0.2863
 5546SOL    HW228098   2.474   1.195   6.054  2.1308 -2.5835  0.4593
 5547SOL     OW28099   0.071   1.822   8.694 -0.0709  0.4913  0.0369
 5547SOL    HW128100   0.063   1.874   8.774 -1.2620  0.4794 -0.0824
 5547SOL    HW228101   4.713   1.777   8.698  0.4125 -0.3924  0.4683
 5548SOL     OW28102   1.945   1.106  16.819  0.2184 -0.5884  0.4133
 5548SOL    HW128103   1.872   1.089  16.879 -0.7323  0.7051 -0.3936
 5548SOL    HW228104   1.929   1.199  16.803 -0.2126 -1.1525 -2.3296
 5549SOL     OW28105   3.388   3.262   3.433  0.2341 -0.0809 -0.1250
 5549SOL    HW128106   3.316   3.207   3.403 -0.3385  0.9461 -0.6463
 5549SOL    HW228107   3.360   3.350   3.405  3.8770  0.3103 -2.5856
 5550SOL     OW28108   0.874   3.586  13.169  0.6175 -0.7703  0.1493
 5550SOL    HW128109   0.882   3.494  13.143 -0.4766 -0.2419 -2.0675
 5550SOL    HW228110   0.840   3.567  13.257 -2.4136 -3.3786 -1.5902
 5551SOL     OW28111   2.512   4.554   3.249  0.1364  0.3841  0.0535
 5551SOL    HW128112   2.427   4.526   3.213 -0.3203  2.6233 -0.6175
 5551SOL    HW228113   2.498   4.648   3.237  2.3299  0.6583 -0.2252
 5552SOL     OW28114   2.360   3.618   6.155  0.1337  0.4743  0.8841
 5552SOL    HW128115   2.426   3.553   6.177  0.6028 -0.2073 -2.4862
 5552SOL    HW228116   2.287   3.571   6.195 -1.3284  1.2341 -0.8705
 5553SOL     OW28117   3.577   0.961   2.331  0.2415 -0.1062 -0.3101
 5553SOL    HW128118   3.591   0.958   2.425 -1.9100 -0.3559  0.0168
 5553SOL    HW228119   3.482   0.969   2.320 -0.3013 -3.7278  1.9311
 5554SOL     OW28120   3.768   3.981   7.154 -0.7250  0.4751  0.2523
 5554SOL    HW128121   3.859   4.000   7.179 -1.2885 -0.4498  3.0484
 5554SOL    HW228122   3.729   3.949   7.236  0.5254  2.4748  1.6087
 5555SOL     OW28123   1.647   0.498   3.572  0.2246 -0.2478  0.1696
 5555SOL    HW128124   1.666   0.481   3.480  0.5620  1.9566 -0.1712
 5555SOL    HW228125   1.727   0.472   3.618 -1.2796 -2.5668  1.4464
 5556SOL     OW28126   2.986   2.535   8.746 -0.5659 -0.1694 -0.4869
 5556SOL    HW128127   2.937   2.614   8.722 -1.3626 -0.9490 -1.4272
 5556SOL    HW228128   3.021   2.560   8.831  2.1680  0.6173 -1.8482
 5557SOL     OW28129   4.688   4.444   2.029  0.8599 -0.3949 -0.5900
 5557SOL    HW128130   4.612   4.386   2.041  0.9855 -0.0388  1.9968
 5557SOL    HW228131   0.028   4.381   2.000  1.3136 -0.1170 -0.1560
 5558SOL     OW28132   1.989   4.307   2.453  0.1859  0.3687 -0.1663
 5558SOL    HW128133   1.897   4.309   2.427  0.0475 -1.9620  0.1136
 5558SOL    HW228134   2.029   4.357   2.382 -0.3770 -0.5482 -1.1226
 5559SOL     OW28135   3.924   3.803   5.515 -0.1845  0.1162 -0.1894
 5559SOL    HW128136   3.831   3.781   5.509 -0.0992 -0.5943  1.1464
 5559SOL    HW228137   3.954   3.769   5.431  0.0255 -0.5039  0.1360
 5560SOL     OW28138   2.246   0.816   6.756 -0.3371 -0.3030  0.0890
 5560SOL    HW128139   2.280   0.894   6.799 -2.1736  1.0214 -0.8631
 5560SOL    HW228140   2.241   0.841   6.664  1.3040  0.1111  0.1050
 5561SOL     OW28141   1.444   2.645   7.903  0.0959  0.0550 -0.1604
 5561SOL    HW128142   1.536   2.630   7.922 -0.0011  0.6666  0.7829
 5561SOL    HW228143   1.436   2.675   7.812 -2.0898 -0.1246 -0.0331
 5562SOL     OW28144   3.243   1.815   1.400 -0.2414  0.3526 -0.0780
 5562SOL    HW128145   3.238   1.744   1.336  0.1964  1.0489 -0.8917
 5562SOL    HW228146   3.158   1.859   1.390 -0.3093  0.0756 -0.7927
 5563SOL     OW28147   1.593   0.213  10.128 -0.2453  0.5456  0.0561
 5563SOL    HW128148   1.519   0.231  10.069 -0.6380  2.6044  1.1537
 5563SOL    HW228149   1.624   0.127  10.101 -2.3856 -0.2236 -0.0101
 5564SOL     OW28150   0.936   4.135   8.067  0.2383 -0.4422  0.2451
 5564SOL    HW128151   0.942   4.040   8.062  1.5669 -0.3834  0.9046
 5564SOL    HW228152   0.908   4.159   7.978  1.0093  0.1994  0.1685
 5565SOL     OW28153   1.290   2.308   2.965  0.5634 -0.4624  0.2374
 5565SOL    HW128154   1.253   2.394   2.947 -0.2664 -0.3560  2.3791
 5565SOL    HW228155   1.383   2.328   2.955  0.2041 -0.6977 -3.2946
 5566SOL     OW28156   2.486   3.990   4.881 -0.0437  0.3358 -0.4339
 5566SOL    HW128157   2.471   3.968   4.789 -2.2668  0.2224 -0.0556
 5566SOL    HW228158   2.543   4.067   4.884  1.9912 -1.2272  1.2330
 5567SOL     OW28159   2.148   2.861  14.602  0.7259 -0.3909  0.0158
 5567SOL    HW128160   2.106   2.880  14.686  3.6349  2.2799  0.8877
 5567SOL    HW228161   2.098   2.918  14.543 -0.3864 -2.5767 -1.1681
 5568SOL     OW28162   3.863   2.190   4.070 -0.1802  0.3256  0.4125
 5568SOL    HW128163   3.950   2.158   4.095 -0.2037  0.8792  1.2205
 5568SOL    HW228164   3.885   2.284   4.076  0.3277  0.3535 -1.9405
 5569SOL     OW28165   3.898   3.545  13.921  0.0717  0.0929 -0.0317
 5569SOL    HW128166   3.806   3.535  13.946 -0.0410  2.4611  0.5639
 5569SOL    HW228167   3.944   3.539  14.004  1.2952  1.0148 -0.6529
 5570SOL     OW28168   0.493   0.316   6.868 -0.6941 -0.3064 -0.1500
 5570SOL    HW128169   0.566   0.338   6.810  0.3912 -1.1030  0.9171
 5570SOL    HW228170   0.436   0.269   6.807  0.7987 -2.4686  0.1472
 5571SOL     OW28171   1.430   0.972   3.497  0.1987  0.0882  0.1828
 5571SOL    HW128172   1.418   0.879   3.519  0.5957  0.3346  1.4314
 5571SOL    HW228173   1.481   0.965   3.417  1.6910  0.2529  1.1147
 5572SOL     OW28174   3.980   1.002   3.690 -0.0180  0.2098  0.3852
 5572SOL    HW128175   4.010   0.917   3.721 -0.4175 -0.1178 -0.1242
 5572SOL    HW228176   3.978   1.057   3.768  0.6817 -0.0821  0.5967
 5573SOL     OW28177   2.975   2.786   1.899  0.7961 -0.1195  0.2818
 5573SOL    HW128178   3.067   2.763   1.912  0.2269 -1.9392  1.2104
 5573SOL    HW228179   2.962   2.847   1.971  0.5772  0.9000 -0.6143
 5574SOL     OW28180   4.354   2.103   1.016 -0.3496  0.0661 -0.4514
 5574SOL    HW128181   4.316   2.181   1.055  0.3160 -0.3768  1.0766
 5574SOL    HW228182   4.311   2.107   0.930 -0.3621 -1.7285 -0.5332
 5575SOL     OW28183   2.267   0.164   6.429 -0.4424  0.3786  0.0881
 5575SOL    HW128184   2.274   0.132   6.519 -0.9650  1.5272  0.5387
 5575SOL    HW228185   2.272   0.084   6.377 -0.5675  0.5419 -0.1752
 5576SOL     OW28186   1.421   1.229  13.054  0.2436 -0.3879 -0.4355
 5576SOL    HW128187   1.397   1.138  13.041 -2.1270 -0.0181  1.3151
 5576SOL    HW228188   1.406   1.267  12.967  0.5603  1.3292  0.2450
 5577SOL     OW28189   1.994   0.139   9.792  0.1324  0.4907  0.5957
 5577SOL    HW128190   1.939   0.185   9.855 -0.3407 -2.2030  2.1469
 5577SOL    HW228191   2.052   0.095   9.853  1.5922  0.4358 -0.8276
 5578SOL     OW28192   2.075   0.732   8.233 -0.0606  0.7653  0.1386
 5578SOL    HW128193   2.117   0.763   8.314 -0.2021  0.6501  0.2581
 5578SOL    HW228194   2.121   0.650   8.216  0.3512  0.8061  1.0500
 5579SOL     OW28195   4.702   2.834   7.464 -0.4356  0.1830 -0.2916
 5579SOL    HW128196   4.623   2.781   7.474 -0.5315  0.5469  0.8248
 5579SOL    HW228197   4.709   2.841   7.369 -1.9719  2.1830 -0.2453
 5580SOL     OW28198   3.304   0.519   2.837 -0.0168  0.0105 -0.3631
 5580SOL    HW128199   3.285   0.427   2.820 -3.0409  0.2676  1.5422
 5580SOL    HW228200   3.306   0.549   2.746  2.0703  3.5683  0.8551
 5581SOL     OW28201   2.161   0.572   3.098  0.0539  0.4756 -0.3305
 5581SOL    HW128202   2.151   0.537   3.010 -1.1337  2.8847 -1.1589
 5581SOL    HW228203   2.085   0.630   3.106  0.4924  0.8988  0.8338
 5582SOL     OW28204   3.186   1.553  10.466 -0.3946  0.1154 -0.1164
 5582SOL    HW128205   3.100   1.522  10.494 -0.7194  0.2498 -0.9601
 5582SOL    HW228206   3.202   1.631  10.519  0.5970  0.8305 -1.4661
 5583SOL     OW28207   0.010   1.538  11.748  0.9663  0.0441 -0.0735
 5583SOL    HW128208   0.022   1.589  11.668 -0.9069 -1.2909 -1.2152
 5583SOL    HW228209   4.682   1.467  11.712 -1.1690  1.5338  0.1997
 5584SOL     OW28210   1.329   0.563  11.046  0.2163  0.1698  0.6340
 5584SOL    HW128211   1.278   0.482  11.056 -0.2981  0.1136 -2.3294
 5584SOL    HW228212   1.272   0.614  10.988 -0.9125 -1.2087  0.5187
 5585SOL     OW28213   3.434   3.135  11.809  0.1298  0.0954 -0.2074
 5585SOL    HW128214   3.420   3.115  11.717  0.8607  4.5878 -1.3101
 5585SOL    HW228215   3.426   3.230  11.800 -0.0412 -0.0130 -1.1400
 5586SOL     OW28216   2.800   2.409   4.055 -0.3210  0.1168 -0.1601
 5586SOL    HW128217   2.773   2.493   4.020  1.5686  0.2728 -1.2729
 5586SOL    HW228218   2.740   2.349   4.011 -0.0570 -0.1947 -0.1017
 5587SOL     OW28219   2.022   1.658   4.099  0.7136  0.2304 -0.3395
 5587SOL    HW128220   2.084   1.694   4.035  2.3777  1.2864  1.8863
 5587SOL    HW228221   2.003   1.729   4.160  0.8345  1.0602 -1.2740
 5588SOL     OW28222   0.862   3.036   4.784 -0.3357 -0.0063 -0.0345
 5588SOL    HW128223   0.955   3.054   4.779 -0.1360 -1.0792 -0.2266
 5588SOL    HW228224   0.843   3.108   4.843 -0.8812  0.6759 -1.0510
 5589SOL     OW28225   4.614   1.428  12.972 -0.0985  0.2855  0.0208
 5589SOL    HW128226   4.652   1.513  12.949 -1.5720  0.5526 -1.4182
 5589SOL    HW228227   4.535   1.437  12.918  0.2222 -1.3883 -0.7323
 5590SOL     OW28228   3.545   0.707  15.189 -0.5671 -0.3736  0.1147
 5590SOL    HW128229   3.592   0.691  15.107 -1.3342 -1.5228 -0.0906
 5590SOL    HW228230   3.477   0.769  15.161  0.0579  0.3395  0.1549
 5591SOL     OW28231   1.130   2.218   6.373  0.3436  0.1076  0.7544
 5591SOL    HW128232   1.089   2.305   6.378  0.9467  0.4655 -0.6234
 5591SOL    HW228233   1.215   2.252   6.401  1.4310 -1.1906 -0.9765
 5592SOL     OW28234   2.396   1.690   5.245  0.2479 -0.8718  0.1301
 5592SOL    HW128235   2.317   1.637   5.238  0.1940 -0.8806  0.7538
 5592SOL    HW228236   2.452   1.627   5.290 -1.5084 -1.8460  0.9312
 5593SOL     OW28237   1.035   3.067   8.419 -0.7325  0.3854  0.3873
 5593SOL    HW128238   1.055   2.975   8.433  2.2819  0.9401 -0.4050
 5593SOL    HW228239   0.950   3.060   8.375 -0.5429  0.5552 -0.0069
 5594SOL     OW28240   3.765   3.538   7.185 -0.3596 -0.4525  0.2401
 5594SOL    HW128241   3.858   3.519   7.196 -0.5593 -2.0925 -0.8866
 5594SOL    HW228242   3.754   3.602   7.114 -1.3123 -0.1404  0.6628
 5595SOL     OW28243   2.501   3.705   2.881 -0.1929  0.3259  0.1183
 5595SOL    HW128244   2.432   3.729   2.942  1.3930  2.7841  0.9464
 5595SOL    HW228245   2.451   3.648   2.824  0.3707 -0.3202  0.2722
 5596SOL     OW28246   0.721   4.409   4.315 -0.2270  0.7297 -0.5959
 5596SOL    HW128247   0.647   4.351   4.330  0.8097 -0.0303  1.6898
 5596SOL    HW228248   0.669   4.488   4.306  0.6486  1.4557  0.6612
 5597SOL     OW28249   2.621   4.641  16.675 -0.2934 -0.5133 -0.2816
 5597SOL    HW128250   2.586   4.560  16.637 -0.5654 -0.4023 -0.2622
 5597SOL    HW228251   2.716   4.631  16.685 -0.2880 -1.0860 -0.9013
 5598SOL     OW28252   3.819   2.252   8.403 -0.5275  0.0864  0.0669
 5598SOL    HW128253   3.790   2.163   8.385  0.6178 -0.1451 -0.6424
 5598SOL    HW228254   3.780   2.298   8.329  0.1357  1.7454  0.7425
 5599SOL     OW28255   0.920   2.111   2.456  0.3942  0.1765  0.0990
 5599SOL    HW128256   1.006   2.100   2.497 -1.1272  0.1689  3.3246
 5599SOL    HW228257   0.936   2.170   2.383  1.6639 -1.9960 -1.3747
 5600SOL     OW28258   2.447   3.088   5.203 -0.3122 -0.0048 -0.3446
 5600SOL    HW128259   2.542   3.079   5.204 -0.0967  2.7297  2.7936
 5600SOL    HW228260   2.425   3.054   5.290  0.8859 -1.7078 -0.7007
 5601SOL     OW28261   3.340   2.190  17.498 -0.7676  0.1553 -0.5728
 5601SOL    HW128262   3.375   2.184  17.587 -0.5825 -0.6372 -0.6936
 5601SOL    HW228263   3.263   2.133  17.507  0.4367 -1.3613  0.0890
 5602SOL     OW28264   2.282   2.505   3.284 -0.1390  0.1591 -0.8094
 5602SOL    HW128265   2.258   2.476   3.196  1.2402 -0.2585 -1.0504
 5602SOL    HW228266   2.221   2.579   3.280 -1.6860 -1.1031 -0.5344
 5603SOL     OW28267   1.622   1.757  11.519  0.2177 -0.1167 -0.1093
 5603SOL    HW128268   1.541   1.730  11.562 -0.2265  0.1458 -0.7866
 5603SOL    HW228269   1.583   1.837  11.485 -1.6343  0.1354  2.5611
 5604SOL     OW28270   2.865   2.215   7.603  0.8018  0.3218 -0.0112
 5604SOL    HW128271   2.951   2.222   7.560 -0.0578  0.0820 -1.7818
 5604SOL    HW228272   2.818   2.151   7.549  1.2197  0.5948 -0.6988
 5605SOL     OW28273   2.939   0.213   8.690 -0.1272 -0.0197  0.5890
 5605SOL    HW128274   2.971   0.275   8.625 -3.2682  0.0751 -0.8729
 5605SOL    HW228275   2.985   0.131   8.673 -1.5693 -0.2332 -2.3002
 5606SOL     OW28276   4.591   3.368   1.825 -0.1998  0.7484  0.2662
 5606SOL    HW128277   4.637   3.334   1.901  0.0711 -1.2836 -0.8205
 5606SOL    HW228278   4.581   3.461   1.848  0.1032  0.7800  0.2692
 5607SOL     OW28279   1.420   2.560   1.300 -0.2782 -0.9104  0.2961
 5607SOL    HW128280   1.485   2.594   1.238 -1.3845 -1.4120 -1.1374
 5607SOL    HW228281   1.466   2.486   1.339 -0.1882  0.6244  3.0963
 5608SOL     OW28282   1.989   0.721  12.092 -0.0831 -0.3575 -0.1465
 5608SOL    HW128283   2.050   0.650  12.072  0.1679 -0.5129  1.1852
 5608SOL    HW228284   1.918   0.663  12.119 -0.9144  0.5397 -0.3977
 5609SOL     OW28285   4.653   1.883   3.185  0.5284 -0.2315  0.0900
 5609SOL    HW128286   4.563   1.899   3.156  1.4222  2.5119 -1.1399
 5609SOL    HW228287   4.656   1.788   3.193 -1.2384  0.1021  4.6589
 5610SOL     OW28288   2.200   0.268  11.702  0.5019  0.3043  0.0334
 5610SOL    HW128289   2.290   0.293  11.722  0.7046  0.8174 -1.5289
 5610SOL    HW228290   2.178   0.320  11.625 -1.8799  0.6601  0.9408
 5611SOL     OW28291   4.100   0.579   4.842  0.2855  0.0841 -0.1568
 5611SOL    HW128292   4.016   0.537   4.822  1.4872 -1.7708 -1.2192
 5611SOL    HW228293   4.157   0.549   4.772 -0.7364 -1.4032 -0.3474
 5612SOL     OW28294   0.979   4.134   0.331 -0.7417 -0.7719 -0.1932
 5612SOL    HW128295   1.040   4.189   0.380  0.7941 -1.0514 -1.7819
 5612SOL    HW228296   0.984   4.179   0.247  0.1341  2.0979  1.4244
 5613SOL     OW28297   1.781   2.923   4.071 -0.0191  0.3736 -0.7069
 5613SOL    HW128298   1.693   2.958   4.060  0.1143  1.5511  1.9299
 5613SOL    HW228299   1.821   2.960   3.992 -0.0899  0.7768 -0.5547
 5614SOL     OW28300   4.332   1.455  11.079 -0.0991 -0.3359  0.5220
 5614SOL    HW128301   4.261   1.416  11.030  1.8308 -2.1199 -0.8662
 5614SOL    HW228302   4.367   1.521  11.019 -0.6247  1.1206  1.8199
 5615SOL     OW28303   2.016   2.248   6.601  0.0277 -0.1655 -0.3932
 5615SOL    HW128304   2.084   2.316   6.604  1.2633 -1.4241  0.2072
 5615SOL    HW228305   1.995   2.251   6.508 -1.8985  0.8493  0.0634
 5616SOL     OW28306   1.657   4.066   4.072  0.3377  0.1281 -0.4551
 5616SOL    HW128307   1.641   4.117   4.151  0.4867 -1.0645  0.3362
 5616SOL    HW228308   1.723   4.004   4.102  0.9212  0.7846 -0.3880
 5617SOL     OW28309   1.646   0.223   7.915 -0.0453  0.3337 -0.0511
 5617SOL    HW128310   1.733   0.189   7.933  0.2563  0.9066 -0.4325
 5617SOL    HW228311   1.611   0.167   7.845  0.1247 -0.3882  0.4445
 5618SOL     OW28312   2.453   1.513   9.358 -0.3977 -0.0612 -0.2081
 5618SOL    HW128313   2.491   1.426   9.372  0.9386  0.4281 -0.7936
 5618SOL    HW228314   2.368   1.490   9.320  0.1400 -1.7037 -0.4270
 5619SOL     OW28315   2.393   0.775   3.521 -0.1517  0.6332 -0.2359
 5619SOL    HW128316   2.343   0.738   3.448  0.6708 -0.6740 -0.1303
 5619SOL    HW228317   2.482   0.778   3.487  0.2763  0.7811  0.8741
 5620SOL     OW28318   2.292   2.748   0.355 -0.0211 -0.4690  0.6843
 5620SOL    HW128319   2.353   2.752   0.281 -1.5679 -1.7675 -0.6501
 5620SOL    HW228320   2.224   2.695   0.313  0.2870  1.6742 -2.4836
 5621SOL     OW28321   0.825   2.374  12.683 -0.3593  0.5156 -0.4531
 5621SOL    HW128322   0.901   2.360  12.625  0.8393  1.5533  0.8620
 5621SOL    HW228323   0.824   2.470  12.691  2.0683  0.5386 -0.3909
 5622SOL     OW28324   1.870   2.248   4.292 -0.2231 -0.0701 -0.4573
 5622SOL    HW128325   1.950   2.250   4.345 -0.8358  0.6901  0.4240
 5622SOL    HW228326   1.909   2.273   4.208 -0.4000 -1.0589 -0.8342
 5623SOL     OW28327   0.067   1.786   6.202  0.4052 -0.4956  0.1738
 5623SOL    HW128328   0.131   1.738   6.254  1.3493  1.6079  0.9855
 5623SOL    HW228329   0.128   1.828   6.140  2.4654  0.0325  2.5658
 5624SOL     OW28330   3.954   0.158   9.605  0.3443  0.0200 -0.3941
 5624SOL    HW128331   3.995   0.075   9.629  0.2027 -0.7207 -2.6606
 5624SOL    HW228332   3.881   0.162   9.666  0.8637 -1.7785  0.3385
 5625SOL     OW28333   4.053   2.625   8.024  0.0029  0.3040 -0.2523
 5625SOL    HW128334   4.070   2.700   8.080  0.5545  1.9327 -2.6266
 5625SOL    HW228335   3.959   2.626   8.044  0.4287  0.6453  1.7256
 5626SOL     OW28336   1.539   1.747   4.924  0.2839  0.0030  0.7304
 5626SOL    HW128337   1.517   1.818   4.985 -0.2396  0.3999  0.0759
 5626SOL    HW228338   1.553   1.790   4.840 -0.7570 -0.1423  0.4855
 5627SOL     OW28339   1.852   2.781   0.538 -0.0057 -0.0221  0.1346
 5627SOL    HW128340   1.797   2.703   0.530 -1.0188  0.9137 -1.9377
 5627SOL    HW228341   1.787   2.852   0.546  2.1880  1.8208  1.6049
 5628SOL     OW28342   1.219   2.539   2.841  0.0448  0.2981  0.4672
 5628SOL    HW128343   1.278   2.582   2.779  1.4042 -0.9699  0.8694
 5628SOL    HW228344   1.134   2.580   2.827 -0.6916 -1.1345  0.7088
 5629SOL     OW28345   2.611   4.590   2.688  0.3300  0.1793 -0.1396
 5629SOL    HW128346   2.647   4.542   2.762  5.3592  2.9401 -0.7972
 5629SOL    HW228347   2.545   4.645   2.730  1.3872  0.8266  0.6712
 5630SOL     OW28348   1.949   3.015   5.956 -0.5014 -0.1532 -0.0379
 5630SOL    HW128349   1.912   2.964   5.884 -2.7225  0.2959  0.7949
 5630SOL    HW228350   2.027   3.054   5.918  0.0547 -0.8091  0.4220
 5631SOL     OW28351   4.359   1.343  10.758  0.2127 -0.3708  0.3455
 5631SOL    HW128352   4.268   1.316  10.762  0.1492 -0.2426 -0.2551
 5631SOL    HW228353   4.353   1.427  10.711  1.0116  0.7213  2.1709
 5632SOL     OW28354   0.011   1.501   5.436  0.5826 -0.9387 -0.1324
 5632SOL    HW128355   4.720   1.511   5.530 -1.0497  0.3960 -0.5781
 5632SOL    HW228356   4.677   1.433   5.407 -0.2845 -0.2517  0.0535
 5633SOL     OW28357   1.963   1.884   0.493 -0.2325  0.4543 -0.0889
 5633SOL    HW128358   2.035   1.822   0.507  0.2256  1.2723  1.1297
 5633SOL    HW228359   1.887   1.841   0.531 -0.3870  1.1314  0.3578
 5634SOL     OW28360   4.629   2.503  13.445  0.0620 -0.0474  0.0693
 5634SOL    HW128361   4.609   2.518  13.537 -0.2491 -0.1384  0.0165
 5634SOL    HW228362   4.562   2.558  13.405 -1.8625 -3.1013 -0.8791
 5635SOL     OW28363   4.264   1.963   7.836  0.0721  0.1098  0.3053
 5635SOL    HW128364   4.320   2.007   7.772 -1.9759  0.0448 -1.5287
 5635SOL    HW228365   4.275   2.030   7.903  0.3233  1.8271 -1.4487
 5636SOL     OW28366   2.015   2.552   3.724  0.2427 -0.8142 -0.3738
 5636SOL    HW128367   1.979   2.537   3.636  0.0378 -1.0200 -0.2541
 5636SOL    HW228368   1.941   2.605   3.755  0.2797 -0.6154 -0.6191
 5637SOL     OW28369   3.642   1.989   4.555  0.6050 -0.5764  0.5648
 5637SOL    HW128370   3.556   1.948   4.564  1.1068 -1.5244  1.0758
 5637SOL    HW228371   3.616   2.081   4.557  1.0763 -0.3645 -2.3280
 5638SOL     OW28372   3.259   1.202   4.530  0.8269 -0.7126 -0.0648
 5638SOL    HW128373   3.265   1.214   4.435 -0.0083  0.6160  0.0407
 5638SOL    HW228374   3.182   1.146   4.539  0.6213 -0.9634 -3.2450
 5639SOL     OW28375   1.926   3.346   6.977  0.0693  0.2559  0.5284
 5639SOL    HW128376   1.988   3.411   6.946  1.2604 -1.7860 -1.3640
 5639SOL    HW228377   1.978   3.317   7.051 -1.5264 -1.5591  0.9546
 5640SOL     OW28378   3.708   3.349   2.046  0.1193  0.3523  0.3228
 5640SOL    HW128379   3.802   3.353   2.033 -0.1921 -0.4875 -2.2074
 5640SOL    HW228380   3.690   3.443   2.056  0.5274  0.6086 -1.3477
 5641SOL     OW28381   0.069   3.310   2.661 -0.3382  0.1079  0.2842
 5641SOL    HW128382   0.125   3.236   2.637  1.3925  1.5175 -0.0955
 5641SOL    HW228383   0.063   3.369   2.586 -1.9212  0.2631  0.5381
 5642SOL     OW28384   2.115   1.731   7.947  0.3678  0.2725  0.2445
 5642SOL    HW128385   2.209   1.737   7.965  0.3774 -0.1273  0.3226
 5642SOL    HW228386   2.111   1.636   7.933 -0.3470  0.1492  1.2772
 5643SOL     OW28387   0.995   3.289  15.188  0.6063 -0.3842 -0.0079
 5643SOL    HW128388   1.000   3.219  15.253 -2.4434  0.7163  1.4128
 5643SOL    HW228389   1.076   3.332  15.213  0.6567 -0.5736  0.1561
 5644SOL     OW28390   1.788   0.100   9.485  0.1231 -0.2357 -0.0016
 5644SOL    HW128391   1.695   0.098   9.507  0.1601  0.5219  0.2273
 5644SOL    HW228392   1.776   0.079   9.392 -0.0450  0.4098 -0.1287
 5645SOL     OW28393   3.878   1.617   6.700  0.0566 -0.4825 -0.0457
 5645SOL    HW128394   3.949   1.561   6.668 -1.1722 -1.1845 -1.5495
 5645SOL    HW228395   3.827   1.639   6.623 -0.8382  1.3459  1.0787
 5646SOL     OW28396   4.554   1.329   8.039  0.0905  0.3562  0.1406
 5646SOL    HW128397   4.563   1.267   8.112 -0.4377  1.2501  0.9684
 5646SOL    HW228398   4.572   1.414   8.080 -1.1174  0.6883 -0.0327
 5647SOL     OW28399   2.328   3.332  16.678  0.2063  0.1775 -0.3841
 5647SOL    HW128400   2.281   3.403  16.722  2.5589  0.6922  1.3498
 5647SOL    HW228401   2.292   3.256  16.723  0.4934 -0.3633 -1.0716
 5648SOL     OW28402   0.136   0.684  16.367  0.4807 -0.3660  0.4591
 5648SOL    HW128403   0.179   0.717  16.445  1.2730 -0.6870  0.1548
 5648SOL    HW228404   0.098   0.763  16.328  0.6421  0.1052  1.2549
 5649SOL     OW28405   0.524   3.750  15.209 -0.3073  0.3384 -0.0822
 5649SOL    HW128406   0.532   3.664  15.251 -2.9275  1.5210  2.7543
 5649SOL    HW228407   0.587   3.801  15.259  0.6947 -0.0237 -0.9621
 5650SOL     OW28408   2.494   4.480   8.228 -0.0487  0.0275 -0.0019
 5650SOL    HW128409   2.507   4.434   8.311  0.8569  1.7393  0.8057
 5650SOL    HW228410   2.581   4.478   8.189  0.2258  0.7172  0.5713
 5651SOL     OW28411   1.840   3.187   4.607  0.1225  0.0337 -0.3371
 5651SOL    HW128412   1.802   3.159   4.691  2.6553 -2.3701 -0.0056
 5651SOL    HW228413   1.788   3.125   4.557  0.5446 -0.5797 -0.0149
 5652SOL     OW28414   2.913   1.801   4.281  0.7787 -0.5258 -0.0874
 5652SOL    HW128415   2.853   1.784   4.353  1.0219  1.7671  0.6631
 5652SOL    HW228416   2.878   1.879   4.238  0.9091 -0.6040 -0.3377
 5653SOL     OW28417   1.565   1.087   8.338 -0.0752  0.4329  0.9461
 5653SOL    HW128418   1.471   1.087   8.319 -0.0403 -0.1228  0.7515
 5653SOL    HW228419   1.576   1.055   8.428  0.3706 -0.5228  0.5527
 5654SOL     OW28420   1.417   1.062  15.394  0.3541 -0.7066 -0.2262
 5654SOL    HW128421   1.499   1.097  15.431 -0.6468 -0.3663  1.6549
 5654SOL    HW228422   1.449   1.028  15.311 -1.1553 -0.1718 -1.0221
 5655SOL     OW28423   3.784   1.911  17.307 -0.0126  0.0158  0.4814
 5655SOL    HW128424   3.834   1.993  17.305 -2.9394  1.7611 -1.3019
 5655SOL    HW228425   3.731   1.934  17.383  0.2205  1.7925  0.1185
 5656SOL     OW28426   4.687   2.528  12.524 -0.2685  0.2299  0.3264
 5656SOL    HW128427   4.693   2.446  12.572  2.9444 -1.3155 -2.7612
 5656SOL    HW228428   4.597   2.506  12.498 -0.1616 -0.4584  0.5355
 5657SOL     OW28429   2.037   3.926   4.829  0.3028  0.1177  0.1088
 5657SOL    HW128430   2.006   4.011   4.862 -0.4370 -0.3447  0.5970
 5657SOL    HW228431   2.096   3.893   4.896 -2.1408 -2.4324  0.9925
 5658SOL     OW28432   3.257   2.536   9.458 -0.1494  0.4660 -0.2649
 5658SOL    HW128433   3.313   2.459   9.460 -2.7977 -1.3939  2.1461
 5658SOL    HW228434   3.225   2.530   9.548 -1.3464  0.6084 -0.6798
 5659SOL     OW28435   4.564   3.954   0.318 -0.1571 -0.4655  0.7562
 5659SOL    HW128436   4.616   3.877   0.341 -0.5456 -0.1104  2.7997
 5659SOL    HW228437   4.567   3.947   0.222 -0.8679  0.5668  0.6601
 5660SOL     OW28438   2.059   1.163   6.773  0.0019 -0.4047  0.1172
 5660SOL    HW128439   2.053   1.258   6.786  0.3288 -0.8801  3.8796
 5660SOL    HW228440   2.152   1.143   6.783 -0.0246 -1.3161 -1.4435
 5661SOL     OW28441   3.129   2.750   6.916  0.3952  0.1511  0.7539
 5661SOL    HW128442   3.205   2.705   6.954 -0.7045 -1.8671  0.5319
 5661SOL    HW228443   3.132   2.732   6.822  1.0821 -3.6690  1.5017
 5662SOL     OW28444   4.402   0.217   4.727  0.1686 -0.0111 -0.1500
 5662SOL    HW128445   4.484   0.178   4.756 -0.8825 -1.0446  1.4491
 5662SOL    HW228446   4.401   0.295   4.782  0.6356  0.5510 -0.9361
 5663SOL     OW28447   2.636   2.040   7.831 -0.5770 -0.0802 -0.1314
 5663SOL    HW128448   2.693   2.015   7.758 -0.7489 -1.1639  0.1024
 5663SOL    HW228449   2.570   2.093   7.788  0.5067  1.1515 -0.2890
 5664SOL     OW28450   4.330   2.268  13.091  0.1340 -0.2034  0.2440
 5664SOL    HW128451   4.418   2.304  13.084 -0.5972  1.3501 -1.0057
 5664SOL    HW228452   4.299   2.305  13.174  0.6249  0.3736  0.1679
 5665SOL     OW28453   0.952   2.297   8.321  0.3229 -0.2243  0.2811
 5665SOL    HW128454   0.945   2.203   8.334 -0.5302  0.0263  1.7772
 5665SOL    HW228455   0.904   2.305   8.239 -1.5243  0.0465  1.3812
 5666SOL     OW28456   1.026   2.392   1.563 -0.5038  0.2018  0.1661
 5666SOL    HW128457   1.061   2.431   1.483  0.4069 -0.4591  0.2382
 5666SOL    HW228458   1.065   2.451   1.628 -1.7807 -0.2024  1.3001
 5667SOL     OW28459   3.194   4.369  13.427 -0.4328 -0.0279 -0.3107
 5667SOL    HW128460   3.259   4.400  13.490  0.8899 -0.3743 -1.4775
 5667SOL    HW228461   3.230   4.283  13.404  0.7886  0.7766 -1.4559
 5668SOL     OW28462   3.828   3.170   1.190  0.6190 -0.4973  0.3445
 5668SOL    HW128463   3.898   3.232   1.208 -0.1308 -0.0675  1.7629
 5668SOL    HW228464   3.792   3.159   1.278 -2.5283 -0.3443 -0.9269
 5669SOL     OW28465   0.058   2.487   1.982  0.1027  0.1070  0.3627
 5669SOL    HW128466   0.147   2.498   2.015  0.1176  1.2446 -0.0618
 5669SOL    HW228467   0.050   2.568   1.932  0.7788  0.1533  0.3296
 5670SOL     OW28468   3.628   2.435   5.950  0.0312 -0.1259  0.2658
 5670SOL    HW128469   3.590   2.507   6.000 -1.1394 -1.0706  0.7379
 5670SOL    HW228470   3.664   2.376   6.017  1.1866 -0.6477 -0.8130
 5671SOL     OW28471   2.992   1.171   2.325 -0.2429  0.8831 -0.6280
 5671SOL    HW128472   2.951   1.222   2.395  0.7278  0.7850 -0.0042
 5671SOL    HW228473   3.055   1.232   2.288 -0.4500  0.5893 -1.4670
 5672SOL     OW28474   4.019   2.244   1.946  0.0026  0.3306 -0.1750
 5672SOL    HW128475   4.089   2.257   1.883 -0.3280 -0.1972 -0.6467
 5672SOL    HW228476   4.053   2.290   2.023 -0.4085  0.0391  0.1800
 5673SOL     OW28477   3.190   3.164   3.245  0.8164  0.0586 -0.1821
 5673SOL    HW128478   3.150   3.244   3.211  1.5242  0.5492  0.1470
 5673SOL    HW228479   3.271   3.158   3.193  0.8418 -2.8104  0.1462
 5674SOL     OW28480   0.227   0.979   7.054 -0.2573  0.1496 -0.0516
 5674SOL    HW128481   0.310   0.931   7.062 -0.8853 -0.8244  0.7038
 5674SOL    HW228482   0.254   1.068   7.030  0.9433  0.6302  2.9986
 5675SOL     OW28483   1.688   0.867   3.739  0.0199 -0.1499 -0.1684
 5675SOL    HW128484   1.732   0.862   3.654 -1.8281  0.7253 -1.1721
 5675SOL    HW228485   1.730   0.785   3.765  1.5141  0.9273  0.8195
 5676SOL     OW28486   1.485   1.166   6.860 -0.0647  0.1394 -0.4873
 5676SOL    HW128487   1.555   1.174   6.795  1.6488  1.5060  1.5427
 5676SOL    HW228488   1.409   1.205   6.817 -0.9466 -0.0584  0.9051
 5677SOL     OW28489   1.983   2.458   7.626 -0.0304  0.1691 -0.2050
 5677SOL    HW128490   1.952   2.388   7.570 -0.4255  2.4998 -2.8822
 5677SOL    HW228491   1.951   2.435   7.713  0.9826  0.1101  0.1588
 5678SOL     OW28492   3.197   0.651   3.334 -0.0058  0.0116 -0.7667
 5678SOL    HW128493   3.209   0.686   3.245  1.0404  0.4832 -0.4435
 5678SOL    HW228494   3.249   0.714   3.384 -1.3139 -0.0281  0.6230
 5679SOL     OW28495   2.548   1.112   6.718 -0.1088  0.1088 -0.0640
 5679SOL    HW128496   2.621   1.171   6.738 -0.9420  0.6627  1.2581
 5679SOL    HW228497   2.553   1.114   6.622 -2.6796 -3.2234 -0.2599
 5680SOL     OW28498   1.440   1.592   6.018 -0.2946  0.5337 -0.1842
 5680SOL    HW128499   1.383   1.664   6.045 -0.4355 -0.8491  3.3351
 5680SOL    HW228500   1.422   1.584   5.925 -1.5329 -0.4568  0.1285
 5681SOL     OW28501   0.409   2.805   3.565 -0.2209  0.4177 -0.0394
 5681SOL    HW128502   0.458   2.791   3.646  0.5145 -1.6749 -0.8384
 5681SOL    HW228503   0.356   2.880   3.594  1.1934  1.2856  0.3105
 5682SOL     OW28504   1.051   3.120  15.409 -0.0324 -0.1654  0.4173
 5682SOL    HW128505   1.070   3.207  15.445 -3.1430  0.2553  1.0007
 5682SOL    HW228506   1.003   3.079  15.480  2.2986  1.7520  3.1167
 5683SOL     OW28507   0.753   1.974  16.758  0.1310  0.0462  0.3590
 5683SOL    HW128508   0.744   2.069  16.761  0.0475  0.0103  1.0647
 5683SOL    HW228509   0.717   1.955  16.844 -1.2355 -0.9463 -0.4491
 5684SOL     OW28510   1.891   4.437   3.335  0.3586 -0.2320 -0.3483
 5684SOL    HW128511   1.941   4.427   3.254 -1.3944 -1.9015 -1.2332
 5684SOL    HW228512   1.884   4.532   3.344  1.3602 -0.3062  1.2660
 5685SOL     OW28513   2.308   2.677   5.802  0.4972 -0.1812 -0.4558
 5685SOL    HW128514   2.325   2.705   5.712 -1.9782  0.3655 -0.7486
 5685SOL    HW228515   2.317   2.582   5.792  0.5610 -0.4256  1.9755
 5686SOL     OW28516   2.055   3.262   8.746  0.4506 -0.5415 -0.1262
 5686SOL    HW128517   1.990   3.244   8.814 -0.1668 -1.0106 -0.8331
 5686SOL    HW228518   2.034   3.351   8.719 -0.7271 -1.2146 -1.4724
 5687SOL     OW28519   4.294   0.703   3.054  0.0134  0.3911  0.4505
 5687SOL    HW128520   4.266   0.781   3.007 -0.5742  0.8655  1.5785
 5687SOL    HW228521   4.370   0.751   3.088 -0.2822  0.2048  1.3660
 5688SOL     OW28522   4.695   3.794   7.805  0.1300 -0.3584  0.3861
 5688SOL    HW128523   0.034   3.724   7.798  1.4089  0.8483  0.1980
 5688SOL    HW228524   4.657   3.782   7.892 -1.3410  0.7390 -0.1047
 5689SOL     OW28525   3.045   3.425  17.528 -0.0728  0.5534 -0.0337
 5689SOL    HW128526   3.062   3.496  17.589 -1.0249 -0.4113  1.3406
 5689SOL    HW228527   3.098   3.462  17.457  0.7045 -0.0823  0.2206
 5690SOL     OW28528   0.631   2.754   3.113 -0.4408  0.4758 -0.0426
 5690SOL    HW128529   0.697   2.747   3.182 -0.6938  1.1609  0.2689
 5690SOL    HW228530   0.689   2.777   3.041  2.0102 -2.8711  0.8785
 5691SOL     OW28531   2.107   0.695   4.935 -0.1452  0.2556 -0.0420
 5691SOL    HW128532   2.181   0.637   4.949 -0.9388 -1.1816 -1.8631
 5691SOL    HW228533   2.036   0.660   4.989  0.2544 -0.4064  0.0541
 5692SOL     OW28534   0.839   4.023   3.500 -0.1936  0.0695 -0.3848
 5692SOL    HW128535   0.783   4.013   3.577  2.7141  1.1075  1.8612
 5692SOL    HW228536   0.914   4.065   3.541 -0.8776  1.3520 -0.4394
 5693SOL     OW28537   3.767   3.857   3.608  0.0786 -0.4196  0.6337
 5693SOL    HW128538   3.721   3.831   3.688  1.3246 -0.7984  1.2180
 5693SOL    HW228539   3.801   3.770   3.587 -0.7986 -1.0842  1.9513
 5694SOL     OW28540   1.945   4.660  14.435 -0.3843 -0.3946  0.1474
 5694SOL    HW128541   2.026   4.667  14.385 -0.5841  0.0124 -0.1156
 5694SOL    HW228542   1.929   0.022  14.468 -2.7600 -0.7293 -0.1399
 5695SOL     OW28543   3.229   4.334   8.726 -0.2077 -0.4645 -0.3586
 5695SOL    HW128544   3.293   4.276   8.766  0.4966 -0.6539 -1.7863
 5695SOL    HW228545   3.209   4.394   8.798  0.8024 -1.6410  0.8797
 5696SOL     OW28546   4.168   4.221  15.592  0.3173  0.1199 -0.0641
 5696SOL    HW128547   4.097   4.159  15.608  1.4775 -1.4805 -1.1854
 5696SOL    HW228548   4.124   4.305  15.574  1.2271  0.7131  0.4692
 5697SOL     OW28549   4.544   3.634   4.042 -0.2263  0.3390 -0.8580
 5697SOL    HW128550   4.500   3.558   4.005  0.4940 -0.4916 -0.0056
 5697SOL    HW228551   4.519   3.697   3.974 -0.1757  2.1999  0.8277
 5698SOL     OW28552   0.225   3.371  11.487  0.0763  0.1159  0.1670
 5698SOL    HW128553   0.258   3.451  11.446 -1.0753  1.2443  1.4407
 5698SOL    HW228554   0.203   3.391  11.578  1.6607 -2.5517  1.1185
 5699SOL     OW28555   0.070   1.720   4.452 -0.4790 -0.5206  0.4063
 5699SOL    HW128556   0.106   1.712   4.540 -0.5627 -1.0490  0.3914
 5699SOL    HW228557   0.114   1.654   4.398  0.0399  1.3679 -1.4732
 5700SOL     OW28558   3.563   2.281   0.326  0.0698  0.0437 -0.1098
 5700SOL    HW128559   3.617   2.272   0.405  0.7644  0.4885 -0.5353
 5700SOL    HW228560   3.481   2.275   0.375 -0.0288 -0.8214 -0.3805
 5701SOL     OW28561   1.485   0.094   6.877  0.1325  0.1495  0.1433
 5701SOL    HW128562   1.484   0.167   6.815  0.3383  0.5705  0.6388
 5701SOL    HW228563   1.416   0.131   6.932  0.2922  0.3304  0.2220
 5702SOL     OW28564   1.352   1.651  14.188  0.5633 -0.3722 -0.0406
 5702SOL    HW128565   1.275   1.689  14.146  0.4402 -2.2641 -1.5468
 5702SOL    HW228566   1.322   1.665  14.278  1.4367  0.2740  0.1451
 5703SOL     OW28567   1.522   1.671   6.885 -0.2749  0.1808 -0.0160
 5703SOL    HW128568   1.557   1.736   6.946  0.4421  0.0397 -0.2731
 5703SOL    HW228569   1.525   1.719   6.801  0.4799 -1.5045 -0.9617
 5704SOL     OW28570   3.188   3.697   2.399 -0.0610  0.1063  0.4825
 5704SOL    HW128571   3.155   3.613   2.433  1.7721  0.2440  2.6113
 5704SOL    HW228572   3.255   3.657   2.343 -1.5154 -0.3479 -0.9372
 5705SOL     OW28573   3.383   0.332   4.532  0.4462  0.1687  0.5987
 5705SOL    HW128574   3.414   0.362   4.447  0.2009 -2.0090 -0.2368
 5705SOL    HW228575   3.449   0.265   4.551 -0.9129 -1.1313  0.6296
 5706SOL     OW28576   4.218   0.484   7.260 -0.0902 -0.1800  0.0058
 5706SOL    HW128577   4.245   0.558   7.206  0.9509 -1.8484 -1.7929
 5706SOL    HW228578   4.153   0.448   7.199 -1.2760  1.3234  0.4001
 5707SOL     OW28579   1.664   4.052   6.278  0.1490 -0.4273  0.1014
 5707SOL    HW128580   1.644   4.144   6.262  1.7380  0.0331  0.7926
 5707SOL    HW228581   1.756   4.068   6.300 -0.9460  0.8852  3.8349
 5708SOL     OW28582   0.802   1.953   3.284  0.2624  0.1954  0.4645
 5708SOL    HW128583   0.775   1.919   3.369 -1.2983  2.0302  0.7008
 5708SOL    HW228584   0.894   1.930   3.298  0.3499  0.8219  0.9279
 5709SOL     OW28585   2.431   3.688   7.633  0.4500  0.3763  0.1862
 5709SOL    HW128586   2.406   3.676   7.724 -0.6787  0.5055 -0.1112
 5709SOL    HW228587   2.491   3.760   7.649  0.8458  0.0976 -0.0248
 5710SOL     OW28588   2.033   0.587   3.564 -0.1027 -0.0852 -0.6115
 5710SOL    HW128589   2.069   0.605   3.477 -1.7295  0.6211 -1.1478
 5710SOL    HW228590   1.959   0.647   3.553 -0.1147  0.2281  1.3131
 5711SOL     OW28591   1.269   3.050   7.042  0.1364 -0.5336 -0.0332
 5711SOL    HW128592   1.233   3.056   7.131 -0.5137  0.9786 -0.4004
 5711SOL    HW228593   1.276   3.142   7.017 -0.9724 -0.3972  0.1906
 5712SOL     OW28594   3.943   1.398  10.740 -0.1060  0.1836  0.0551
 5712SOL    HW128595   4.003   1.350  10.797  1.3178  2.0886  0.1727
 5712SOL    HW228596   3.893   1.449  10.805  1.1413  2.3446 -0.6616
 5713SOL     OW28597   1.659   1.263   5.901 -0.1979  0.0795 -0.3520
 5713SOL    HW128598   1.638   1.285   5.991 -0.6580  0.1864 -0.4869
 5713SOL    HW228599   1.579   1.212   5.887 -0.6774  0.6622  0.2936
 5714SOL     OW28600   0.742   1.199   8.404 -0.3489  0.2316  0.2114
 5714SOL    HW128601   0.813   1.222   8.464 -0.0941  1.9250 -0.7359
 5714SOL    HW228602   0.752   1.260   8.331 -1.1364  0.8334  0.6141
 5715SOL     OW28603   3.334   1.254   2.151 -0.3924  0.7348 -0.6742
 5715SOL    HW128604   3.338   1.218   2.239 -0.5092 -0.6405 -1.2291
 5715SOL    HW228605   3.361   1.341   2.180 -0.5206  0.0518  1.4967
 5716SOL     OW28606   1.033   4.067  13.513  0.0882  0.5118 -0.3894
 5716SOL    HW128607   0.974   4.130  13.554  2.2028  1.6016  0.9637
 5716SOL    HW228608   1.010   4.073  13.420 -0.1627 -1.6078 -0.4632
 5717SOL     OW28609   4.527   0.697   4.602  0.2271 -0.4148  0.4051
 5717SOL    HW128610   4.522   0.780   4.649  0.4968  0.6161 -1.4297
 5717SOL    HW228611   4.502   0.726   4.515 -0.2248  0.6250  0.8903
 5718SOL     OW28612   4.411   3.717   4.827 -0.0704  0.3171 -1.1432
 5718SOL    HW128613   4.432   3.669   4.747  1.1989 -0.1961 -0.4946
 5718SOL    HW228614   4.316   3.701   4.826  0.3470 -2.1645 -0.0286
 5719SOL     OW28615   3.231   1.151  12.955  0.8962 -0.5227 -0.0744
 5719SOL    HW128616   3.321   1.182  12.952  0.5079  0.7602  1.1123
 5719SOL    HW228617   3.194   1.183  13.038  1.2182 -0.6684  0.1255
 5720SOL     OW28618   0.095   0.811  13.247 -0.2043 -0.1364 -0.0271
 5720SOL    HW128619   0.108   0.877  13.178  0.7083 -1.6197 -1.2948
 5720SOL    HW228620   0.157   0.843  13.312 -1.8732  1.0866  0.9623
 5721SOL     OW28621   2.005   1.176   8.953  0.1637 -0.6719  0.1529
 5721SOL    HW128622   1.978   1.198   8.863 -0.6566 -2.1150  0.0398
 5721SOL    HW228623   2.098   1.156   8.942  0.5092  0.5011  1.1235
 5722SOL     OW28624   4.559   1.443   6.515 -0.1613  0.2323 -0.1815
 5722SOL    HW128625   4.510   1.396   6.448  2.4435 -2.2516 -0.3577
 5722SOL    HW228626   4.509   1.401   6.584 -2.2615  0.3947 -1.6165
 5723SOL     OW28627   0.595   2.001   4.376  0.1018  0.1944  0.0920
 5723SOL    HW128628   0.675   1.999   4.324  0.7654  0.0166  1.1151
 5723SOL    HW228629   0.632   1.974   4.460 -2.0345 -1.5586  0.4810
 5724SOL     OW28630   4.643   2.577   0.001 -0.0784  0.0206 -0.2190
 5724SOL    HW128631   4.648   2.516   0.073 -1.8598 -0.3868 -0.4197
 5724SOL    HW228632   4.707   2.545  17.643  0.7927 -0.2663  0.8157
 5725SOL     OW28633   1.294   0.603   2.235 -0.6277  0.0655 -0.3894
 5725SOL    HW128634   1.257   0.522   2.271 -0.9575 -0.4461 -1.8916
 5725SOL    HW228635   1.329   0.565   2.155  2.1688 -1.5396  1.5866
 5726SOL     OW28636   0.594   1.979   9.169  0.3441  0.0408  0.5242
 5726SOL    HW128637   0.505   1.968   9.203  0.3590  0.4119  0.6860
 5726SOL    HW228638   0.642   2.025   9.238  1.4484  0.2252 -0.3800
 5727SOL     OW28639   3.395   3.828   8.555  0.0909 -0.3528 -0.2657
 5727SOL    HW128640   3.311   3.870   8.536 -0.1371 -0.1667  1.1542
 5727SOL    HW228641   3.434   3.908   8.590 -1.0674  0.8282 -1.6724
 5728SOL     OW28642   0.146   2.388   3.027  0.6209 -0.2764 -0.0969
 5728SOL    HW128643   0.085   2.326   3.067  0.8224  0.7835  1.8813
 5728SOL    HW228644   0.210   2.408   3.096 -0.0964  0.2458  0.4187
 5729SOL     OW28645   2.992   1.446  15.693  0.0552 -0.3069 -0.0401
 5729SOL    HW128646   2.922   1.407  15.746  0.1800 -0.7620 -0.2096
 5729SOL    HW228647   2.940   1.476  15.618  0.8420 -0.5041 -0.6617
 5730SOL     OW28648   2.180   4.484  12.538  0.2227 -0.2788 -0.4145
 5730SOL    HW128649   2.170   4.503  12.631  1.2391  1.9126 -0.7533
 5730SOL    HW228650   2.223   4.565  12.511  1.8826 -1.1260 -0.3122
 5731SOL     OW28651   3.538   0.261   8.258 -0.2342 -0.1129  0.7808
 5731SOL    HW128652   3.578   0.221   8.181  0.3254  0.5696  0.7183
 5731SOL    HW228653   3.560   0.200   8.328 -1.4875 -1.0934  0.3178
 5732SOL     OW28654   2.641   2.627   3.987  0.0919 -0.3205 -0.0149
 5732SOL    HW128655   2.579   2.602   4.056 -2.4490  1.7549 -1.5581
 5732SOL    HW228656   2.580   2.650   3.917 -0.1878  0.0688  0.3506
 5733SOL     OW28657   2.683   1.637   9.354 -0.1135 -0.3081  0.6264
 5733SOL    HW128658   2.729   1.598   9.280  2.7927  0.8371  1.7938
 5733SOL    HW228659   2.598   1.594   9.356 -1.1519  1.6464 -1.5231
 5734SOL     OW28660   3.945   3.137   4.327  0.2914  0.4010  0.2664
 5734SOL    HW128661   3.912   3.050   4.352  0.0766 -0.2383 -2.1819
 5734SOL    HW228662   3.864   3.188   4.336 -0.1556 -0.1027 -0.8295
 5735SOL     OW28663   2.559   1.064   3.617  0.2153 -0.4363  0.1599
 5735SOL    HW128664   2.645   1.103   3.636 -0.0624  0.2967 -0.0708
 5735SOL    HW228665   2.581   0.971   3.619 -1.6499 -0.8903 -0.5180
 5736SOL     OW28666   4.547   4.598  14.258 -0.5286  0.0234 -0.1633
 5736SOL    HW128667   4.547   4.506  14.287  2.9424  0.4757  1.3862
 5736SOL    HW228668   4.462   4.625  14.292 -1.8371 -2.4302 -1.5181
 5737SOL     OW28669   2.524   1.910   8.703 -0.4544  0.2508 -0.3564
 5737SOL    HW128670   2.512   1.953   8.787 -2.0366 -2.0973  0.6168
 5737SOL    HW228671   2.568   1.984   8.662 -0.6612  0.4857 -0.1481
 5738SOL     OW28672   3.317   3.609   5.103 -0.1346  0.4102  0.1916
 5738SOL    HW128673   3.230   3.648   5.110  1.9197  5.3209 -1.4674
 5738SOL    HW228674   3.329   3.577   5.193  2.5753  0.9194  0.0088
 5739SOL     OW28675   0.992   2.749   2.270 -0.4601  0.6532 -0.7482
 5739SOL    HW128676   1.024   2.833   2.302 -1.7028  0.3261  1.3392
 5739SOL    HW228677   1.070   2.699   2.296 -2.4313 -1.8761  0.3758
 5740SOL     OW28678   0.484   0.820   2.175  0.2966  0.6477 -0.5440
 5740SOL    HW128679   0.481   0.846   2.267  0.8228 -2.5644  0.3782
 5740SOL    HW228680   0.421   0.878   2.131 -1.7660 -0.7421  0.5975
 5741SOL     OW28681   0.360   1.217  15.754 -0.1156  0.1766 -0.0985
 5741SOL    HW128682   0.407   1.135  15.740 -0.0200  0.5072 -1.7536
 5741SOL    HW228683   0.334   1.255  15.670  1.9705 -0.9730 -1.2615
 5742SOL     OW28684   2.565   3.873   9.761 -0.0638  0.1781  0.3237
 5742SOL    HW128685   2.579   3.854   9.668  0.1109  2.7636 -0.1618
 5742SOL    HW228686   2.481   3.918   9.762  0.2454  0.7657 -1.2787
 5743SOL     OW28687   0.286   1.575  13.572  0.2138 -0.0331  0.0558
 5743SOL    HW128688   0.324   1.544  13.490 -2.6101 -0.6391 -1.0241
 5743SOL    HW228689   0.236   1.498  13.600 -2.3502  1.3845 -0.6929
 5744SOL     OW28690   1.133   0.622   3.588 -0.0713  0.0413  0.5782
 5744SOL    HW128691   1.100   0.691   3.530  0.3635 -0.1866  0.0675
 5744SOL    HW228692   1.227   0.637   3.595  0.1146  0.4765 -2.8847
 5745SOL     OW28693   0.193   3.874   8.461 -0.1562  0.1042  0.2085
 5745SOL    HW128694   0.172   3.786   8.493 -0.3245  0.4738  1.1055
 5745SOL    HW228695   0.171   3.927   8.538 -1.6341 -0.0905 -0.0777
 5746SOL     OW28696   1.547   0.478   4.244 -0.0158 -0.1036 -0.6593
 5746SOL    HW128697   1.556   0.386   4.220 -0.9267 -1.1696  3.1262
 5746SOL    HW228698   1.577   0.463   4.334 -2.1377 -1.5753 -0.2093
 5747SOL     OW28699   3.726   1.061   8.042  0.6655  0.1363 -0.0133
 5747SOL    HW128700   3.775   1.091   8.118  0.8235  0.2496 -0.1605
 5747SOL    HW228701   3.762   1.123   7.979  0.3377 -0.4455 -0.7789
 5748SOL     OW28702   2.601   4.185  10.751 -0.5356  0.1293 -0.2110
 5748SOL    HW128703   2.592   4.213  10.660  0.1326 -1.2115 -0.6874
 5748SOL    HW228704   2.534   4.243  10.788 -0.7141 -0.3984  0.2977
 5749SOL     OW28705   0.709   3.418   4.098  0.4824  0.5796 -0.9124
 5749SOL    HW128706   0.630   3.432   4.151 -0.7028  1.1111 -2.8425
 5749SOL    HW228707   0.746   3.505   4.116  0.6097  0.1961  0.7287
 5750SOL     OW28708   0.705   1.432   5.589 -0.0772 -0.1134  0.1612
 5750SOL    HW128709   0.798   1.420   5.570 -0.0077  1.9147 -0.8454
 5750SOL    HW228710   0.700   1.444   5.683  1.8986 -0.5622  0.3193
 5751SOL     OW28711   2.283   2.469  17.158 -0.7413  0.3498  0.2848
 5751SOL    HW128712   2.339   2.445  17.084 -0.1976  1.6672  0.2778
 5751SOL    HW228713   2.241   2.553  17.140 -2.3271 -0.5483 -0.1687
 5752SOL     OW28714   0.530   4.274   8.343  0.0916  0.7830  0.5094
 5752SOL    HW128715   0.500   4.301   8.429  0.5266  0.7099  0.6843
 5752SOL    HW228716   0.603   4.213   8.352  0.3203  0.8355 -0.9934
 5753SOL     OW28717   0.330   4.588   1.859  0.0995 -0.5539  0.3804
 5753SOL    HW128718   0.244   4.589   1.817  0.3083 -0.6728 -0.0582
 5753SOL    HW228719   0.349   4.495   1.852 -0.6712 -0.9242  3.5515
 5754SOL     OW28720   2.961   0.181  14.016 -0.2415  0.5049  0.4101
 5754SOL    HW128721   3.056   0.174  14.020 -0.2526  0.0552 -0.0725
 5754SOL    HW228722   2.943   0.248  14.081  1.0325  1.1157  0.1327
 5755SOL     OW28723   4.050   2.618   8.646  0.5818 -0.0555 -0.1645
 5755SOL    HW128724   4.145   2.630   8.657  0.4453  0.8549  0.0466
 5755SOL    HW228725   4.058   2.525   8.627 -1.2779 -0.3709  0.6548
 5756SOL     OW28726   1.503   3.459   3.308 -0.2083  0.1412  0.0344
 5756SOL    HW128727   1.544   3.520   3.247  2.2281 -1.3569  0.1843
 5756SOL    HW228728   1.549   3.479   3.389 -0.7500 -0.7304  0.5543
 5757SOL     OW28729   2.453   2.699   2.986 -0.0822 -0.2756 -0.0896
 5757SOL    HW128730   2.511   2.681   2.912 -1.9673  1.8143 -2.1033
 5757SOL    HW228731   2.417   2.612   3.005  0.4907 -1.0575 -2.5387
 5758SOL     OW28732   0.245   0.098  16.598  0.1611 -0.1735  0.4466
 5758SOL    HW128733   0.156   0.103  16.564  0.6260  0.6549 -0.6474
 5758SOL    HW228734   0.241   0.029  16.664 -3.1052  1.6943  2.2048
 5759SOL     OW28735   1.030   3.963   5.535 -0.1545 -0.2169 -0.0043
 5759SOL    HW128736   1.074   4.048   5.534  0.1763 -0.3618  2.4049
 5759SOL    HW228737   1.048   3.937   5.445  0.1885  0.6927 -0.2034
 5760SOL     OW28738   2.645   4.035   2.200 -0.3862  0.2961 -0.2916
 5760SOL    HW128739   2.590   4.049   2.277  1.5735 -0.4489  1.2467
 5760SOL    HW228740   2.720   4.075   2.243  0.1143  0.2617 -1.1386
 5761SOL     OW28741   4.058   2.029   4.170 -0.1246 -0.1220  0.5829
 5761SOL    HW128742   4.005   2.028   4.250  0.3414 -0.1576  0.8908
 5761SOL    HW228743   4.078   1.938   4.149 -1.5172 -0.8166  2.3091
 5762SOL     OW28744   1.093   3.495   9.075  0.6912 -0.5262  0.3927
 5762SOL    HW128745   1.092   3.399   9.082  2.2943 -0.4830  1.1897
 5762SOL    HW228746   1.090   3.492   8.979  0.7016 -0.8718  0.4014
 5763SOL     OW28747   4.385   1.182   5.607  0.1973  0.1952 -0.5330
 5763SOL    HW128748   4.465   1.229   5.631 -0.8001  1.2836  0.6536
 5763SOL    HW228749   4.347   1.250   5.551 -2.3174 -0.1644  0.7422
 5764SOL     OW28750   4.231   1.157  10.411 -0.3139 -0.4110  0.0821
 5764SOL    HW128751   4.265   1.091  10.351 -0.3161 -4.1238  4.1288
 5764SOL    HW228752   4.274   1.135  10.494  2.4827  1.2788 -0.9166
 5765SOL     OW28753   1.709   3.246   6.716 -0.5070 -0.4577  0.1106
 5765SOL    HW128754   1.715   3.257   6.621  0.5024  2.5280  0.5242
 5765SOL    HW228755   1.705   3.338   6.741 -3.1812 -0.6913  0.5804
 5766SOL     OW28756   1.698   2.636   0.143  0.0310  0.2823  0.2344
 5766SOL    HW128757   1.695   2.693   0.220  0.7365 -0.3793  0.7448
 5766SOL    HW228758   1.779   2.592   0.167  0.2683  0.7556  0.3056
 5767SOL     OW28759   0.850   3.830   2.813 -0.0419  0.3285  0.3714
 5767SOL    HW128760   0.902   3.752   2.834  0.0866  0.2741 -0.1434
 5767SOL    HW228761   0.768   3.798   2.774  0.2452  1.3854 -1.1109
 5768SOL     OW28762   4.721   1.506   3.456 -0.4693  0.2982  0.8135
 5768SOL    HW128763   4.657   1.437   3.436  0.5625 -0.5570  0.4125
 5768SOL    HW228764   0.071   1.465   3.414 -0.6440  1.1830 -0.3592
 5769SOL     OW28765   4.169   2.719   9.489 -0.4127 -0.4251  0.3819
 5769SOL    HW128766   4.130   2.738   9.574  0.0944 -0.3274  0.5914
 5769SOL    HW228767   4.255   2.686   9.514 -0.5258 -1.5504 -0.7535
 5770SOL     OW28768   3.886   2.706  17.364  0.6131 -0.0896  0.3479
 5770SOL    HW128769   3.906   2.632  17.307  1.4674  1.1475 -0.9503
 5770SOL    HW228770   3.933   2.681  17.444 -0.0415 -2.0288  0.1334
 5771SOL     OW28771   1.298   3.494   5.911  0.7690  0.2165 -0.1310
 5771SOL    HW128772   1.261   3.582   5.913 -1.9812 -0.9836  2.9203
 5771SOL    HW228773   1.253   3.465   5.832 -1.8078  0.8180  1.1096
 5772SOL     OW28774   0.294   0.204   6.268  0.0953  0.1205  0.3257
 5772SOL    HW128775   0.353   0.272   6.300 -1.1879  1.8469 -0.9743
 5772SOL    HW228776   0.212   0.251   6.253  0.5115  0.9716  0.7452
 5773SOL     OW28777   1.395   2.135   4.998 -0.3813  0.0165 -0.2853
 5773SOL    HW128778   1.316   2.188   5.006  0.5633  1.3041  0.5332
 5773SOL    HW228779   1.455   2.177   4.936 -1.1463  0.4900 -0.7039
 5774SOL     OW28780   1.726   2.598   3.183 -0.3618 -0.5956  0.0871
 5774SOL    HW128781   1.808   2.639   3.157  0.5360 -2.3999  0.0237
 5774SOL    HW228782   1.691   2.563   3.101  1.8032  0.3368 -1.2314
 5775SOL     OW28783   2.912   2.253  14.181  0.2238 -0.3085  0.0083
 5775SOL    HW128784   2.952   2.169  14.203  1.9094  0.4177 -0.3122
 5775SOL    HW228785   2.856   2.262  14.258 -0.5858  0.5578 -0.6825
 5776SOL     OW28786   2.707   3.735   2.616  0.5335  0.0525  0.4140
 5776SOL    HW128787   2.694   3.776   2.530  0.4365 -1.9055 -0.4992
 5776SOL    HW228788   2.790   3.690   2.601 -1.3722 -2.9075 -1.1648
 5777SOL     OW28789   0.603   1.062   4.272  0.1860  0.4587 -0.7324
 5777SOL    HW128790   0.569   1.078   4.184 -0.4885  0.1510 -0.5301
 5777SOL    HW228791   0.645   0.976   4.262  0.2746  0.5647 -1.2637
 5778SOL     OW28792   0.069   4.235  16.203 -0.3007  0.1107 -0.1658
 5778SOL    HW128793   0.142   4.218  16.144  1.7419  2.8473  1.6109
 5778SOL    HW228794   0.054   4.150  16.243  0.0578 -0.3187 -0.9375
 5779SOL     OW28795   2.142   4.709   8.954  0.1305 -0.4696 -0.1288
 5779SOL    HW128796   2.148   4.613   8.949  0.7292 -0.2577 -3.2549
 5779SOL    HW228797   2.233   0.010   8.944 -0.3877  1.6988  1.0594
 5780SOL     OW28798   1.354   4.309   6.383  0.4358 -0.5793 -0.3017
 5780SOL    HW128799   1.391   4.315   6.471 -2.0362 -0.2281  0.7249
 5780SOL    HW228800   1.322   4.399   6.374  2.4516 -0.0205 -1.9980
 5781SOL     OW28801   3.465   4.547   6.340  0.5867 -0.2672 -0.0047
 5781SOL    HW128802   3.379   4.531   6.378 -0.1417  0.5805 -1.2901
 5781SOL    HW228803   3.489   4.631   6.379  0.7491 -0.5557  0.5176
 5782SOL     OW28804   0.430   1.532   0.385  0.0315 -0.2170  0.0427
 5782SOL    HW128805   0.504   1.564   0.334  0.9016  0.3496  1.6711
 5782SOL    HW228806   0.424   1.440   0.360 -0.7346  0.0049 -0.5849
 5783SOL     OW28807   3.857   1.831   4.040  0.1908 -0.5510 -0.1843
 5783SOL    HW128808   3.913   1.776   4.094 -0.6041  0.8106  2.0360
 5783SOL    HW228809   3.872   1.921   4.070  0.6919 -0.5336 -0.4725
 5784SOL     OW28810   3.284   3.081   9.020 -0.5578  0.1852 -0.0358
 5784SOL    HW128811   3.295   2.987   9.002 -1.0311  0.8343 -3.7786
 5784SOL    HW228812   3.306   3.085   9.113 -0.5411 -0.3563 -0.0144
 5785SOL     OW28813   0.149   2.845  11.741  0.3713  0.0575  0.4174
 5785SOL    HW128814   0.174   2.926  11.696 -1.0123  0.2627  0.0293
 5785SOL    HW228815   0.096   2.887  11.809 -1.3764  0.3369 -1.1367
 5786SOL     OW28816   3.195   0.294   4.769  0.1856 -0.0318 -0.0651
 5786SOL    HW128817   3.204   0.200   4.755 -0.7768 -0.0971 -0.2846
 5786SOL    HW228818   3.241   0.323   4.691 -2.1395  2.9020 -0.3638
 5787SOL     OW28819   4.071   1.419   0.369 -1.4365  0.4072  0.6367
 5787SOL    HW128820   4.106   1.437   0.456 -0.1762 -2.2912  0.7072
 5787SOL    HW228821   4.031   1.503   0.350  0.0706  0.8352 -0.6863
 5788SOL     OW28822   0.058   1.146  15.534  0.2561  0.1681  0.0107
 5788SOL    HW128823   0.007   1.189  15.602  1.6504  1.7116  0.0908
 5788SOL    HW228824   0.030   1.057  15.556 -1.9827  0.9631  0.3746
 5789SOL     OW28825   4.652   3.506   7.683  0.1520 -0.4556 -0.5890
 5789SOL    HW128826   0.011   3.501   7.726 -0.8150 -3.5874  0.9501
 5789SOL    HW228827   4.662   3.530   7.591  0.8990  1.4999  0.0027
 5790SOL     OW28828   3.345   4.085   6.945 -0.1487  0.2267 -0.0280
 5790SOL    HW128829   3.306   4.163   6.985 -0.2223  0.2568 -0.1598
 5790SOL    HW228830   3.308   4.020   7.006  0.8902  1.6049  2.0776
 5791SOL     OW28831   0.105   4.286   9.223 -0.2159  0.3147  0.0208
 5791SOL    HW128832   0.131   4.255   9.137  0.2931 -0.4978  0.4726
 5791SOL    HW228833   0.165   4.240   9.282  1.5663  0.8144 -1.4186
 5792SOL     OW28834   0.553   3.730   8.011 -0.0783  0.0850 -0.1985
 5792SOL    HW128835   0.502   3.678   8.073  0.2361  0.7532  0.6165
 5792SOL    HW228836   0.476   3.761   7.965  0.3584 -1.7663 -2.1952
 5793SOL     OW28837   1.592   1.046   1.609  0.0468  0.3751  0.2917
 5793SOL    HW128838   1.604   1.141   1.603 -1.7145  0.5870  0.0624
 5793SOL    HW228839   1.498   1.037   1.592  0.6392  0.4378 -3.0066
 5794SOL     OW28840   1.391   0.520   8.267  0.2253  0.0294 -0.0054
 5794SOL    HW128841   1.379   0.426   8.275 -0.0173  0.3448  3.0421
 5794SOL    HW228842   1.306   0.555   8.292  0.2827 -0.6775  1.1809
 5795SOL     OW28843   2.575   3.855   2.002  0.0123 -0.6349  0.6228
 5795SOL    HW128844   2.663   3.821   2.013  1.2282  1.5153 -2.4689
 5795SOL    HW228845   2.577   3.918   2.074  1.1043  0.8102 -0.6954
 5796SOL     OW28846   4.308   3.075   3.503  0.1812 -0.0249  1.0303
 5796SOL    HW128847   4.386   3.055   3.556  2.2846  0.8386 -1.7019
 5796SOL    HW228848   4.266   2.989   3.498  1.0083 -0.2831 -1.5962
 5797SOL     OW28849   2.194   2.654   3.918  0.3521 -0.5140 -0.9794
 5797SOL    HW128850   2.247   2.585   3.959  0.2471 -0.6657 -1.1014
 5797SOL    HW228851   2.153   2.613   3.843  1.0800 -1.3574 -0.9184
 5798SOL     OW28852   1.681   1.170  13.029  0.5457  0.1046 -0.6148
 5798SOL    HW128853   1.652   1.095  12.977 -3.0832 -0.4703  2.2956
 5798SOL    HW228854   1.597   1.190  13.070 -0.1199 -0.9228 -1.4790
 5799SOL     OW28855   3.489   3.419   4.283  0.3484 -0.6013 -0.3942
 5799SOL    HW128856   3.499   3.506   4.243 -1.2915 -1.0775 -1.8788
 5799SOL    HW228857   3.394   3.412   4.296  0.1607  1.7538 -0.4544
 5800SOL     OW28858   2.619   3.315   7.921  0.5467  0.2437 -0.3113
 5800SOL    HW128859   2.628   3.401   7.961  2.2782  0.6397 -1.5312
 5800SOL    HW228860   2.640   3.254   7.992 -0.8784  0.7246  0.5060
 5801SOL     OW28861   3.080   4.328   2.419 -0.2271  0.1721  0.0959
 5801SOL    HW128862   3.100   4.296   2.507 -0.2136  0.3267  0.1495
 5801SOL    HW228863   3.142   4.282   2.362 -0.4847 -2.0034  1.5718
 5802SOL     OW28864   2.689   4.208   0.403  0.2362 -0.2713  0.0775
 5802SOL    HW128865   2.649   4.283   0.447 -0.3653 -0.8019  0.4250
 5802SOL    HW228866   2.766   4.202   0.459  0.1829 -0.7609  0.0955
 5803SOL     OW28867   4.461   0.243   1.656 -0.0402 -0.3890  0.0672
 5803SOL    HW128868   4.539   0.297   1.661  0.8569 -1.9956  3.2476
 5803SOL    HW228869   4.414   0.260   1.738  1.6746  2.7408  0.3712
 5804SOL     OW28870   3.252   0.443  12.164  0.4014 -0.0128  0.5528
 5804SOL    HW128871   3.229   0.536  12.159 -0.1131 -0.1342  0.6386
 5804SOL    HW228872   3.342   0.446  12.196  0.2624 -0.3454  0.9686
 5805SOL     OW28873   0.259   0.576   2.432 -0.0809  0.0808 -0.5568
 5805SOL    HW128874   0.199   0.573   2.507  0.7120  1.3552  0.1380
 5805SOL    HW228875   0.281   0.483   2.425  0.9510  0.3948 -1.3761
 5806SOL     OW28876   3.653   4.478   4.983  0.1499  0.4627  0.4071
 5806SOL    HW128877   3.610   4.396   5.010  0.7221  0.1736  0.4353
 5806SOL    HW228878   3.694   4.506   5.065 -0.4621  1.6467  0.3091
 5807SOL     OW28879   2.130   0.899  14.796  0.3300  0.5799 -0.1058
 5807SOL    HW128880   2.132   0.807  14.823 -1.3739  0.4775 -0.3393
 5807SOL    HW228881   2.185   0.935  14.866  1.5889 -0.6277 -0.4653
 5808SOL     OW28882   4.648   2.893  10.465  0.0253 -0.0896 -0.5906
 5808SOL    HW128883   4.599   2.971  10.438  1.5815  0.9590 -0.3977
 5808SOL    HW228884   4.695   2.933  10.538 -1.5997 -0.5052  0.6724
 5809SOL     OW28885   4.707   0.386   1.626 -0.1499 -0.0875  0.1807
 5809SOL    HW128886   4.690   0.461   1.569 -2.5460  1.1532  2.4867
 5809SOL    HW228887   0.020   0.327   1.562 -0.1370 -1.6741  1.6485
 5810SOL     OW28888   3.110   1.508   9.215 -0.0920 -0.2243  0.2407
 5810SOL    HW128889   3.050   1.556   9.158 -0.8865 -1.9431 -0.3942
 5810SOL    HW228890   3.175   1.574   9.239  0.2364 -0.8333  1.0278
 5811SOL     OW28891   2.450   2.182   8.029 -0.0364 -0.0303  0.2858
 5811SOL    HW128892   2.505   2.129   7.971  0.0570  1.4852 -1.0298
 5811SOL    HW228893   2.498   2.264   8.042  1.6448 -1.3659  2.6090
 5812SOL     OW28894   1.392   1.719  12.977 -0.1347  0.2071  0.0960
 5812SOL    HW128895   1.403   1.736  13.071  1.1158 -0.0083 -0.0100
 5812SOL    HW228896   1.478   1.693  12.943 -0.9511 -1.1361 -0.9514
 5813SOL     OW28897   2.666   4.465   9.224  0.0147 -0.0219  0.3795
 5813SOL    HW128898   2.630   4.382   9.192  1.4813 -0.4394 -0.1587
 5813SOL    HW228899   2.628   4.519   9.155  0.4148  1.2302  1.1505
 5814SOL     OW28900   2.479   4.154   7.426 -0.5930 -0.5285  0.4299
 5814SOL    HW128901   2.514   4.239   7.454 -1.4257  0.5195 -1.6740
 5814SOL    HW228902   2.508   4.095   7.495 -0.5405 -1.4338 -0.3687
 5815SOL     OW28903   2.250   1.410  13.880 -0.0957  0.4254 -0.4773
 5815SOL    HW128904   2.321   1.359  13.918  0.2781  1.0222 -0.3685
 5815SOL    HW228905   2.296   1.441  13.801  0.7710 -2.3669 -1.0584
 5816SOL     OW28906   3.827   4.153   5.505 -0.0009  0.1213 -0.1902
 5816SOL    HW128907   3.873   4.194   5.432 -0.3999 -2.8146 -2.0795
 5816SOL    HW228908   3.736   4.166   5.478 -0.3783  2.4884  2.2951
 5817SOL     OW28909   2.434   3.548  17.279 -0.4018  0.3872  0.3892
 5817SOL    HW128910   2.433   3.547  17.374  1.5849 -0.3949  0.4098
 5817SOL    HW228911   2.527   3.572  17.276  0.2218 -1.8031  2.3644
 5818SOL     OW28912   0.557   2.609   9.347 -0.0436  0.0760  0.1227
 5818SOL    HW128913   0.496   2.554   9.298  1.9808 -1.5197 -0.6091
 5818SOL    HW228914   0.597   2.664   9.279 -1.0476  0.7042  0.0392
 5819SOL     OW28915   2.789   0.003   7.483  0.3966 -0.1862 -0.2318
 5819SOL    HW128916   2.803   4.689   7.569  2.5146  1.1780  0.0565
 5819SOL    HW228917   2.711   0.053   7.508  1.3310  0.7930  0.7725
 5820SOL     OW28918   0.887   2.135   7.657  0.4416 -0.2782 -0.2792
 5820SOL    HW128919   0.959   2.170   7.605  0.0631 -0.7436 -1.1131
 5820SOL    HW228920   0.901   2.042   7.638  0.2182 -0.4167  0.2357
 5821SOL     OW28921   2.002   0.383   8.302 -0.2799  0.7468  0.1573
 5821SOL    HW128922   2.091   0.388   8.267 -0.6020  2.4051 -0.4063
 5821SOL    HW228923   2.013   0.397   8.396  1.3361  1.0975 -0.0890
 5822SOL     OW28924   1.478   3.436   7.289 -0.0008 -0.0667  0.0516
 5822SOL    HW128925   1.530   3.383   7.351 -2.7298 -1.9987  0.6724
 5822SOL    HW228926   1.522   3.423   7.205  0.1413  0.2219  0.0802
 5823SOL     OW28927   4.073   0.510  11.382  0.2712 -0.3772 -0.5200
 5823SOL    HW128928   4.003   0.573  11.365  0.3221  0.0697  0.9457
 5823SOL    HW228929   4.146   0.567  11.357  2.0243 -0.7002  3.9769
 5824SOL     OW28930   0.987   4.493   1.012 -0.0506 -0.0748  0.0838
 5824SOL    HW128931   1.019   4.559   0.951 -1.7054 -0.8864 -1.6686
 5824SOL    HW228932   0.918   4.535   1.062  0.5788  2.1685 -0.9657
 5825SOL     OW28933   1.128   3.900   9.852  0.3934 -0.4939  0.5480
 5825SOL    HW128934   1.041   3.869   9.876  0.8659 -1.9864  0.3217
 5825SOL    HW228935   1.185   3.823   9.849  0.5839 -0.3276 -0.0258
 5826SOL     OW28936   2.733   0.850   8.859  0.0515  0.6231 -0.1765
 5826SOL    HW128937   2.702   0.877   8.945  1.6210  1.5531  0.1003
 5826SOL    HW228938   2.780   0.768   8.873  0.8561  0.9353 -1.0503
 5827SOL     OW28939   2.735   2.748   6.856 -0.1654 -0.3472  0.2979
 5827SOL    HW128940   2.810   2.806   6.869 -0.5223 -0.2461  1.8590
 5827SOL    HW228941   2.668   2.795   6.905 -1.8970 -1.5802 -0.8922
 5828SOL     OW28942   2.977   4.209  16.578  0.0252  0.3134  0.2311
 5828SOL    HW128943   3.043   4.159  16.530  0.8425 -0.3522  2.0547
 5828SOL    HW228944   2.899   4.166  16.544  2.5577 -1.7418 -2.8785
 5829SOL     OW28945   2.885   2.738   9.221  0.1125 -0.3597 -0.8794
 5829SOL    HW128946   2.813   2.761   9.280  0.9983  0.2203 -0.0215
 5829SOL    HW228947   2.938   2.686   9.281 -1.6869 -1.4766 -0.2685
 5830SOL     OW28948   1.694   3.408  16.783 -0.2283 -0.6028 -0.3269
 5830SOL    HW128949   1.640   3.480  16.816 -0.5348 -0.8767 -0.2277
 5830SOL    HW228950   1.771   3.431  16.834 -0.3227  1.5161 -1.1417
 5831SOL     OW28951   4.525   2.625   7.413 -0.5556  0.0227 -0.4173
 5831SOL    HW128952   4.610   2.584   7.395 -0.1030  0.4870  0.6172
 5831SOL    HW228953   4.497   2.605   7.502 -1.0725  0.4534 -0.4840
 5832SOL     OW28954   2.977   2.521   7.945 -0.4993 -0.4636  0.3095
 5832SOL    HW128955   3.065   2.483   7.953 -1.1719 -2.1153 -0.1534
 5832SOL    HW228956   2.979   2.554   7.855 -0.4555 -2.3989 -0.3960
 5833SOL     OW28957   4.375   2.117   8.024  0.5175 -0.7620 -0.1827
 5833SOL    HW128958   4.298   2.128   8.078  0.8599 -1.4604  0.4556
 5833SOL    HW228959   4.436   2.156   8.086  1.5821 -1.6815 -0.6412
 5834SOL     OW28960   2.957   3.588   3.378 -0.0884 -0.4230 -0.2626
 5834SOL    HW128961   2.885   3.546   3.332 -0.4108 -0.4861  0.2993
 5834SOL    HW228962   2.972   3.519   3.442  1.1922 -0.0881 -0.1826
 5835SOL     OW28963   1.935   1.973   7.138  0.1980 -0.5546 -0.2271
 5835SOL    HW128964   1.932   1.943   7.229  4.3258 -2.3006 -0.6809
 5835SOL    HW228965   2.028   1.993   7.129  0.0219  1.7435  2.8256
 5836SOL     OW28966   0.678   3.747   7.768  0.2012 -0.1662  0.5595
 5836SOL    HW128967   0.710   3.657   7.772 -1.6006 -0.8735 -1.2579
 5836SOL    HW228968   0.624   3.756   7.846 -0.1014 -0.6563  0.4040
 5837SOL     OW28969   1.244   1.178   2.847 -0.1680 -0.0078 -0.0221
 5837SOL    HW128970   1.241   1.117   2.921 -1.4231  0.2961  0.1842
 5837SOL    HW228971   1.318   1.150   2.794 -2.1915 -2.9093 -1.3265
 5838SOL     OW28972   3.630   1.993   7.321  0.1026  0.3560  0.1006
 5838SOL    HW128973   3.689   2.043   7.378  1.1724  0.1695 -0.8606
 5838SOL    HW228974   3.692   1.947   7.265  0.1167 -1.8110  1.9275
 5839SOL     OW28975   3.168   1.649  15.621  0.3196  0.2627 -0.3946
 5839SOL    HW128976   3.154   1.566  15.666 -1.7296  0.5652 -0.4818
 5839SOL    HW228977   3.222   1.695  15.685 -1.9368  2.2704  0.0305
 5840SOL     OW28978   0.425   3.970   0.249 -0.0985 -0.1766  0.5423
 5840SOL    HW128979   0.332   3.994   0.252 -0.1249 -0.1780 -0.2811
 5840SOL    HW228980   0.466   4.023   0.317 -0.1111 -0.5074  0.8043
 5841SOL     OW28981   3.227   1.660   2.813  0.0005 -0.1011 -0.4369
 5841SOL    HW128982   3.276   1.710   2.879  1.2037 -0.6124 -0.9441
 5841SOL    HW228983   3.142   1.699   2.835  1.3048  1.0853  2.4216
 5842SOL     OW28984   2.896   1.826   9.342 -0.3239  0.0384  0.4413
 5842SOL    HW128985   2.873   1.849   9.432  1.3828  1.0655  0.6091
 5842SOL    HW228986   2.848   1.743   9.340  0.7758 -0.6445  2.6630
 5843SOL     OW28987   4.116   3.233   8.352 -0.3580  0.4301 -0.0294
 5843SOL    HW128988   4.040   3.286   8.329 -1.3309 -0.9529  0.0024
 5843SOL    HW228989   4.081   3.147   8.330 -0.9995 -0.3216  3.7948
 5844SOL     OW28990   0.462   1.292   3.250 -0.6742  0.1846 -0.3155
 5844SOL    HW128991   0.476   1.202   3.220 -0.3680  0.8267 -2.1136
 5844SOL    HW228992   0.538   1.341   3.220  0.7477 -1.1342  1.0928
 5845SOL     OW28993   1.317   2.588   3.105 -0.0186 -0.8096  0.2811
 5845SOL    HW128994   1.248   2.587   3.039 -0.6385 -0.0120  0.9277
 5845SOL    HW228995   1.270   2.621   3.181  0.3065 -1.5962  0.8294
 5846SOL     OW28996   3.134   2.909   6.433  0.2372 -0.2728  0.0729
 5846SOL    HW128997   3.175   2.939   6.515 -2.4235  0.3688  1.1830
 5846SOL    HW228998   3.040   2.920   6.441  0.1017  0.8018 -3.1533
 5847SOL     OW28999   0.812   2.548   7.413 -0.0408  0.5896  0.3896
 5847SOL    HW129000   0.857   2.633   7.408  0.6087  0.1894 -0.7177
 5847SOL    HW229001   0.741   2.561   7.350 -1.3659 -0.6260  1.6456
 5848SOL     OW29002   2.433   4.407   0.710 -1.0182  0.0966  0.2915
 5848SOL    HW129003   2.459   4.315   0.717  3.5412  1.4550  1.0284
 5848SOL    HW229004   2.516   4.452   0.695  0.3029 -2.1654  0.6974
 5849SOL     OW29005   4.235   1.396   9.041  0.0681 -0.5205 -0.4875
 5849SOL    HW129006   4.248   1.481   9.083 -2.0566 -0.0880 -0.7422
 5849SOL    HW229007   4.299   1.343   9.090  0.0972 -0.6409 -0.6558
 5850SOL     OW29008   1.352   0.245  13.723  0.1020 -0.3094  0.3216
 5850SOL    HW129009   1.278   0.193  13.691  0.1320 -1.2103  1.7117
 5850SOL    HW229010   1.301   0.315  13.764 -1.8385 -0.0795 -2.4593
 5851SOL     OW29011   4.188   1.840   5.156  0.4812 -0.5920 -0.0144
 5851SOL    HW129012   4.209   1.889   5.236  0.4397 -2.0900  0.9201
 5851SOL    HW229013   4.132   1.907   5.116  1.4102 -0.0490 -0.4159
 5852SOL     OW29014   3.187   2.995   0.021  0.4473  0.4071 -0.6920
 5852SOL    HW129015   3.196   3.086  17.700  0.6963  1.0018  1.3844
 5852SOL    HW229016   3.238   2.951  17.658 -0.5542 -0.9204 -0.5909
 5853SOL     OW29017   2.234   2.829   6.000 -0.2199 -0.4296 -0.2417
 5853SOL    HW129018   2.238   2.775   5.921  0.6418  0.6944 -0.9644
 5853SOL    HW229019   2.218   2.916   5.963  3.0057  0.6595  0.9308
 5854SOL     OW29020   0.062   2.984  10.199  0.2993 -0.0705 -0.0298
 5854SOL    HW129021   0.088   3.063  10.246  1.5889  0.5809 -1.8711
 5854SOL    HW229022   0.097   3.003  10.112  1.5269 -1.2239  0.1993
 5855SOL     OW29023   2.007   1.881  16.016 -0.1032  0.1767  0.0188
 5855SOL    HW129024   2.094   1.920  16.013  0.0814 -0.2499 -0.0703
 5855SOL    HW229025   2.037   1.793  16.037 -0.0129  0.3072  0.4379
 5856SOL     OW29026   3.547   3.989  11.311 -0.2809 -0.1628 -0.2545
 5856SOL    HW129027   3.615   4.048  11.343 -1.5379  0.0974  1.9352
 5856SOL    HW229028   3.498   4.052  11.258 -0.6975  0.7001  1.1538
 5857SOL     OW29029   4.637   3.482   3.243 -0.1943 -0.2889 -0.1739
 5857SOL    HW129030   4.664   3.512   3.330  4.7439 -2.3305 -1.0202
 5857SOL    HW229031   4.654   3.388   3.246 -1.5010 -0.5277 -0.5104
 5858SOL     OW29032   1.055   2.804   8.393  0.1537 -0.2192  0.1090
 5858SOL    HW129033   1.013   2.770   8.313  3.5236 -2.5899 -0.6478
 5858SOL    HW229034   1.094   2.721   8.421  0.7436 -0.3851 -1.1987
 5859SOL     OW29035   1.844   1.871   3.374  0.0116  0.1815 -0.3714
 5859SOL    HW129036   1.916   1.843   3.430 -0.2421  1.4413  0.5930
 5859SOL    HW229037   1.768   1.854   3.430  0.2255 -1.2563 -0.5105
 5860SOL     OW29038   4.307   0.630   8.846 -0.1997  0.3074 -0.3715
 5860SOL    HW129039   4.289   0.551   8.896 -2.7385 -0.2525 -2.1782
 5860SOL    HW229040   4.269   0.609   8.760  1.3349 -2.0543 -0.4738
 5861SOL     OW29041   2.184   2.095   8.047 -0.7473 -0.6772  0.1799
 5861SOL    HW129042   2.259   2.151   8.031 -0.4863 -1.3340 -0.9487
 5861SOL    HW229043   2.228   2.035   8.107  1.2108 -2.0199 -2.6172
 5862SOL     OW29044   2.390   3.234   5.738  0.0230  0.0046  0.4040
 5862SOL    HW129045   2.470   3.231   5.789  0.4234  0.3284 -0.2068
 5862SOL    HW229046   2.397   3.319   5.693 -0.8227 -0.0960  0.0801
 5863SOL     OW29047   4.404   1.070   7.501 -0.0927  0.1789  0.0425
 5863SOL    HW129048   4.443   0.986   7.523 -1.8255 -0.6678 -0.0733
 5863SOL    HW229049   4.460   1.098   7.429 -0.1572  1.1247  0.3556
 5864SOL     OW29050   3.638   1.132  12.822  0.1832  0.0889  0.0236
 5864SOL    HW129051   3.711   1.131  12.760  0.8634  1.4434  0.8045
 5864SOL    HW229052   3.585   1.064  12.780 -0.9036  1.6230 -1.0947
 5865SOL     OW29053   4.328   2.411  13.639  0.0154  0.0470  0.7760
 5865SOL    HW129054   4.350   2.350  13.568  2.9313 -0.0076  1.7187
 5865SOL    HW229055   4.251   2.370  13.677  0.7725 -2.2196 -0.1178
 5866SOL     OW29056   0.907   4.715   2.186  0.2990 -0.5179 -0.1585
 5866SOL    HW129057   0.915   0.047   2.110 -0.2656 -1.2393 -0.7636
 5866SOL    HW229058   0.937   4.629   2.156  0.4974 -0.3421 -0.4627
 5867SOL     OW29059   2.812   3.311  17.501 -0.0923  0.4571  0.0685
 5867SOL    HW129060   2.836   3.221  17.479 -1.0428  0.9080 -2.7838
 5867SOL    HW229061   2.902   3.343  17.498  0.9407 -2.4158  0.3321
 5868SOL     OW29062   0.359   1.212   5.992  0.6303  0.1043  0.3633
 5868SOL    HW129063   0.451   1.226   5.969  0.6008 -2.4540 -1.4190
 5868SOL    HW229064   0.362   1.116   5.997  1.0578  0.0582 -0.6442
 5869SOL     OW29065   2.652   1.320  10.701  0.1881  0.3504  0.3389
 5869SOL    HW129066   2.600   1.373  10.762  2.4517  0.7561  1.9360
 5869SOL    HW229067   2.726   1.304  10.760 -0.9394 -2.4622  1.0176
 5870SOL     OW29068   1.972   4.118   2.174 -0.0255 -0.3537 -0.0269
 5870SOL    HW129069   2.049   4.170   2.150  0.8356 -0.8401  1.7155
 5870SOL    HW229070   1.903   4.184   2.165  0.3714  0.2496  1.4067
 5871SOL     OW29071   3.762   0.728   5.373  0.4442  0.2845 -0.7947
 5871SOL    HW129072   3.853   0.746   5.349  0.8787 -0.4041  0.3341
 5871SOL    HW229073   3.722   0.732   5.286 -2.4971  0.6355  0.5632
 5872SOL     OW29074   0.990   4.309   0.132  0.2043 -0.0372 -0.3158
 5872SOL    HW129075   1.066   4.366   0.147 -0.4601  0.7796 -0.0808
 5872SOL    HW229076   0.925   4.376   0.111  2.0174  1.5798 -0.8110
 5873SOL     OW29077   1.697   2.579  17.563 -0.1424  0.0879 -0.3667
 5873SOL    HW129078   1.675   2.665  17.528  0.7209 -0.5512 -2.4736
 5873SOL    HW229079   1.712   2.601  17.655 -0.5724 -0.7709 -0.0878
 5874SOL     OW29080   3.514   1.032  14.816 -0.2237 -0.0511 -0.2623
 5874SOL    HW129081   3.514   1.095  14.888  0.9314  1.4952 -1.6507
 5874SOL    HW229082   3.579   0.967  14.844  0.4250  1.4638  1.7398
 5875SOL     OW29083   3.162   1.441   7.140 -0.1314  0.1503 -0.2011
 5875SOL    HW129084   3.116   1.357   7.138  1.8186 -0.9826  2.0893
 5875SOL    HW229085   3.108   1.492   7.201 -2.2522 -3.3308  0.8607
 5876SOL     OW29086   2.797   1.578   8.769 -0.4049  0.1906  0.1598
 5876SOL    HW129087   2.723   1.548   8.822 -0.5749  1.4064  0.6051
 5876SOL    HW229088   2.877   1.556   8.817 -0.9522  1.6023  1.7223
 5877SOL     OW29089   2.666   1.161  14.122  0.5393 -0.5731 -0.4001
 5877SOL    HW129090   2.676   1.256  14.129 -1.9552 -0.2448 -1.1831
 5877SOL    HW229091   2.731   1.133  14.058  0.8853 -1.9004  0.5220
 5878SOL     OW29092   1.745   3.749   2.203  0.0087 -0.1234 -0.5210
 5878SOL    HW129093   1.840   3.753   2.215 -0.3324 -2.0777  3.0633
 5878SOL    HW229094   1.730   3.841   2.181 -4.5833  0.1118  3.3947
 5879SOL     OW29095   3.472   1.212   6.518  0.1880  0.4645 -0.7987
 5879SOL    HW129096   3.395   1.179   6.563  0.9338  1.5826  1.3438
 5879SOL    HW229097   3.479   1.297   6.562  1.8265 -0.1040  0.0367
 5880SOL     OW29098   1.744   2.327   3.945  0.0786 -0.3579  0.1064
 5880SOL    HW129099   1.806   2.376   3.999  2.5630 -1.0356 -2.1305
 5880SOL    HW229100   1.795   2.282   3.878 -0.9040 -1.6868  0.2449
 5881SOL     OW29101   3.987   3.431   4.457 -0.2868 -0.0228  0.0216
 5881SOL    HW129102   3.946   3.391   4.533 -2.3187 -1.6384 -1.9201
 5881SOL    HW229103   4.077   3.442   4.488 -0.1594 -0.3086 -0.2432
 5882SOL     OW29104   3.084   0.677   7.221  0.1600  0.2151  0.7170
 5882SOL    HW129105   3.172   0.689   7.184 -0.4755 -0.0166 -0.8937
 5882SOL    HW229106   3.097   0.703   7.312  0.2692 -1.6341  1.2403
 5883SOL     OW29107   0.290   1.941   7.220 -0.3044  0.4473 -0.2997
 5883SOL    HW129108   0.203   1.979   7.228 -0.3655 -0.2904  2.4377
 5883SOL    HW229109   0.276   1.884   7.145  2.1013 -1.1962  0.4979
 5884SOL     OW29110   3.059   3.379   3.157 -0.0374  0.1823 -0.4173
 5884SOL    HW129111   3.137   3.386   3.102  0.3833 -1.1754  0.0127
 5884SOL    HW229112   3.029   3.470   3.166 -1.8773 -0.2824 -1.8926
 5885SOL     OW29113   0.159   2.430  11.460  0.9280  0.2460 -0.3192
 5885SOL    HW129114   0.234   2.377  11.436  0.5962  0.8272 -2.6088
 5885SOL    HW229115   0.097   2.398  11.394  1.4720  1.3555 -1.3555
 5886SOL     OW29116   2.503   1.990   6.790  0.6869 -0.2362 -0.0651
 5886SOL    HW129117   2.565   1.930   6.831 -1.2716 -1.6878  0.7933
 5886SOL    HW229118   2.434   1.925   6.778  1.3241 -0.7605 -0.8448
 5887SOL     OW29119   3.764   1.663   4.727  0.0155  0.1896 -0.6803
 5887SOL    HW129120   3.775   1.680   4.633  3.1256 -0.5598 -0.4536
 5887SOL    HW229121   3.675   1.628   4.726 -0.0849  0.4479 -1.2069
 5888SOL     OW29122   0.739   2.870  12.716  0.4015  0.0932 -0.2323
 5888SOL    HW129123   0.676   2.922  12.766  1.6770  0.5042  0.9269
 5888SOL    HW229124   0.794   2.941  12.681  0.1354 -0.1841 -1.2334
 5889SOL     OW29125   1.976   0.820   5.228 -0.0502 -0.1846  0.1351
 5889SOL    HW129126   2.046   0.878   5.256 -0.0399 -0.8048  1.3915
 5889SOL    HW229127   1.944   0.869   5.152 -0.1838 -1.8523 -0.8988
 5890SOL     OW29128   1.615   3.799   5.656  0.1503  0.4955  0.3169
 5890SOL    HW129129   1.597   3.749   5.736 -0.3334  0.0368 -0.0768
 5890SOL    HW229130   1.694   3.848   5.678  1.4388 -1.8041  0.8266
 5891SOL     OW29131   2.203   4.569  14.126  1.1491  0.3549 -0.2082
 5891SOL    HW129132   2.141   4.598  14.060  0.5177  0.2638  0.3495
 5891SOL    HW229133   2.174   4.480  14.148  1.6076  0.4569  0.8243
 5892SOL     OW29134   2.221   3.769  12.229  0.4539  0.0835 -0.4610
 5892SOL    HW129135   2.237   3.831  12.300  1.6284 -0.6897 -0.0393
 5892SOL    HW229136   2.131   3.791  12.203  0.2999  2.3767  2.0290
 5893SOL     OW29137   1.645   3.490  17.651 -0.5651 -0.2245  0.1552
 5893SOL    HW129138   1.629   3.413  17.597  0.5339 -0.6355  0.4272
 5893SOL    HW229139   1.692   3.551  17.593  1.2324 -0.7166  1.0870
 5894SOL     OW29140   0.064   1.698   3.645  0.2024  0.3218 -0.0816
 5894SOL    HW129141   0.045   1.615   3.602 -0.1759 -0.5956  1.8553
 5894SOL    HW229142   0.158   1.698   3.625  0.3900  0.8046  0.8064
 5895SOL     OW29143   4.356   1.871   3.103 -0.2334  0.8926  0.6793
 5895SOL    HW129144   4.305   1.791   3.115  0.3665  0.6774  1.7890
 5895SOL    HW229145   4.309   1.899   3.024  2.0708  2.4507 -0.1572
 5896SOL     OW29146   4.146   4.539   1.263 -0.3871  0.1013 -0.9410
 5896SOL    HW129147   4.175   4.557   1.173  0.4635 -0.0913 -0.7014
 5896SOL    HW229148   4.213   4.488   1.307  0.0443 -1.6077 -3.5934
 5897SOL     OW29149   0.422   2.865   3.829  0.2012  0.5855  0.1437
 5897SOL    HW129150   0.337   2.899   3.859 -0.3527  0.4538 -1.2897
 5897SOL    HW229151   0.425   2.778   3.869 -0.1976 -0.3688 -1.9329
 5898SOL     OW29152   3.757   1.546   1.227 -0.3071  0.5214  0.1445
 5898SOL    HW129153   3.763   1.501   1.143 -1.9673  1.8241 -0.6901
 5898SOL    HW229154   3.705   1.485   1.280  0.8852  0.9300  1.7823
 5899SOL     OW29155   2.429   1.564   7.933  0.0030 -0.4202 -0.0617
 5899SOL    HW129156   2.452   1.654   7.912  1.1152 -1.3486 -2.7763
 5899SOL    HW229157   2.421   1.563   8.029 -0.1477  1.2698 -0.0656
 5900SOL     OW29158   1.013   3.501  15.996  0.1485  0.0816  0.6484
 5900SOL    HW129159   1.045   3.448  15.923 -0.3390 -0.5985  0.9204
 5900SOL    HW229160   0.986   3.443  16.067  0.0616 -0.5163  0.1225
 5901SOL     OW29161   3.274   3.478   8.297 -0.2114  0.1129 -0.1740
 5901SOL    HW129162   3.260   3.521   8.381 -0.5900  1.7948 -1.0795
 5901SOL    HW229163   3.219   3.403   8.318  0.0449  0.4745  1.7958
 5902SOL     OW29164   3.768   2.912   4.157 -0.9285  0.1201 -0.0481
 5902SOL    HW129165   3.840   2.934   4.098 -2.0186 -0.4106 -1.5595
 5902SOL    HW229166   3.704   2.965   4.110 -0.4756  1.7261  1.1460
 5903SOL     OW29167   4.323   1.767   5.878 -0.3837 -0.2231 -0.1076
 5903SOL    HW129168   4.244   1.767   5.933 -0.4904 -0.5707 -0.2635
 5903SOL    HW229169   4.378   1.837   5.914 -1.7692 -0.4925  2.5649
 5904SOL     OW29170   2.850   2.788   2.426 -0.8658 -0.4590 -0.3137
 5904SOL    HW129171   2.776   2.729   2.441  0.4171 -1.9338  0.1339
 5904SOL    HW229172   2.905   2.742   2.362  0.9177 -0.0185  0.9073
 5905SOL     OW29173   2.423   2.890   4.079  0.2112  0.2327  0.0862
 5905SOL    HW129174   2.333   2.908   4.105  0.3245  0.1352  0.5390
 5905SOL    HW229175   2.409   2.908   3.986 -3.8777 -1.3746  0.3680
 5906SOL     OW29176   2.084   2.030   5.580  0.1205  0.2422 -0.1916
 5906SOL    HW129177   2.042   2.025   5.495 -0.7980  0.2008  0.2629
 5906SOL    HW229178   2.168   2.066   5.551 -0.8595  0.9574 -2.0759
 5907SOL     OW29179   1.997   1.033   6.535  0.0738  0.2261 -0.3302
 5907SOL    HW129180   2.031   1.088   6.605 -0.7174  0.5889 -0.2346
 5907SOL    HW229181   2.063   0.964   6.525  0.1352  0.5191 -1.9497
 5908SOL     OW29182   0.422   0.752   4.662 -0.0337 -0.1613 -0.0343
 5908SOL    HW129183   0.389   0.814   4.728 -1.6382 -0.4629 -0.5428
 5908SOL    HW229184   0.428   0.810   4.586 -0.0352 -0.6839 -0.4299
 5909SOL     OW29185   0.391   2.074  13.507  0.3399  0.1360  0.2882
 5909SOL    HW129186   0.349   1.998  13.547  1.4204 -0.4115  0.3824
 5909SOL    HW229187   0.472   2.031  13.479  1.2640  0.9427  1.7641
 5910SOL     OW29188   3.868   1.603   0.201 -0.5982 -0.3041  0.2007
 5910SOL    HW129189   3.783   1.561   0.190 -1.1064  0.3830  1.4679
 5910SOL    HW229190   3.890   1.607   0.108 -2.0521 -1.7294 -0.2064
 5911SOL     OW29191   0.799   0.346   9.754  0.2822  0.0752  0.8321
 5911SOL    HW129192   0.823   0.437   9.737 -1.2399  0.3584  0.2692
 5911SOL    HW229193   0.879   0.316   9.798  1.7354 -2.0487 -3.2432
 5912SOL     OW29194   0.615   2.941   5.829 -0.1456 -0.2108 -0.3321
 5912SOL    HW129195   0.705   2.971   5.840 -0.1683 -1.4763  3.2313
 5912SOL    HW229196   0.579   2.957   5.916 -1.2748  1.4831 -1.0983
 5913SOL     OW29197   2.491   1.724   3.406  0.0472  0.2569  0.1886
 5913SOL    HW129198   2.426   1.792   3.392 -2.0217 -1.4006  1.8441
 5913SOL    HW229199   2.446   1.651   3.363 -0.3762  0.1036  0.9057
 5914SOL     OW29200   2.417   3.295   2.399  0.1312 -0.7275 -0.2499
 5914SOL    HW129201   2.461   3.378   2.383 -1.0392 -0.1124 -0.2918
 5914SOL    HW229202   2.449   3.237   2.330  0.5643 -1.9601  0.9792
 5915SOL     OW29203   4.228   0.181  11.411 -0.1934  0.3349 -0.1987
 5915SOL    HW129204   4.178   0.104  11.439  0.1934  0.0471 -0.2943
 5915SOL    HW229205   4.297   0.143  11.357 -1.4399 -0.5097 -1.1931
 5916SOL     OW29206   4.408   0.508   9.912  0.4791 -0.6204 -0.0357
 5916SOL    HW129207   4.336   0.490   9.973  0.4511 -1.7477 -0.3956
 5916SOL    HW229208   4.450   0.577   9.963  0.8823 -2.2151  1.7813
 5917SOL     OW29209   2.242   4.353  11.767 -0.0052 -0.4187 -0.3058
 5917SOL    HW129210   2.292   4.412  11.709  1.2167 -0.7741  0.3909
 5917SOL    HW229211   2.301   4.278  11.761  0.2390 -0.0649 -2.4191
 5918SOL     OW29212   0.123   0.216   1.418 -0.5977  0.2499  0.0253
 5918SOL    HW129213   0.080   0.135   1.391 -0.8745  1.0132 -1.8090
 5918SOL    HW229214   0.217   0.207   1.407 -0.6857 -1.1710  0.4061
 5919SOL     OW29215   1.538   1.050   9.827 -0.3563  0.1528 -0.8426
 5919SOL    HW129216   1.532   0.986   9.897  0.3432  1.8609  0.7811
 5919SOL    HW229217   1.599   1.119   9.855 -0.1544 -0.7116  0.8399
 5920SOL     OW29218   0.694   1.834   7.151 -0.9643  0.0777  0.1939
 5920SOL    HW129219   0.783   1.867   7.145 -2.7668  4.2312 -3.3062
 5920SOL    HW229220   0.660   1.921   7.168  1.8507  0.4544  3.8545
 5921SOL     OW29221   3.342   2.960   5.673  0.1497 -0.2839 -0.1223
 5921SOL    HW129222   3.307   2.916   5.596 -1.0034  0.0550  0.2084
 5921SOL    HW229223   3.370   2.884   5.723 -1.6001 -2.0002 -1.7428
 5922SOL     OW29224   1.334   4.275  11.286 -0.4228 -0.4031  0.5032
 5922SOL    HW129225   1.257   4.256  11.232  1.5049 -0.2841 -2.2655
 5922SOL    HW229226   1.395   4.213  11.247 -1.4704 -0.3532 -1.2115
 5923SOL     OW29227   2.629   0.706   9.776 -0.4475 -0.3622  0.7027
 5923SOL    HW129228   2.668   0.748   9.853 -0.0332  0.8469 -0.1679
 5923SOL    HW229229   2.691   0.635   9.760 -1.4651 -1.1023  0.0811
 5924SOL     OW29230   1.529   3.988   8.891 -0.6705 -0.2567 -0.7606
 5924SOL    HW129231   1.505   4.064   8.942 -1.2509 -2.1635  1.8110
 5924SOL    HW229232   1.612   3.956   8.928 -0.6968 -1.8822 -2.0761
 5925SOL     OW29233   4.368   0.706   8.241 -0.3508  0.1840 -0.5564
 5925SOL    HW129234   4.302   0.773   8.258  0.8808  2.0309 -3.0361
 5925SOL    HW229235   4.336   0.682   8.154 -0.3012 -0.3456 -0.4280
 5926SOL     OW29236   0.474   2.184   3.111  0.1197 -0.3348  0.4117
 5926SOL    HW129237   0.494   2.095   3.080  1.2820  0.2792 -0.5808
 5926SOL    HW229238   0.464   2.231   3.029 -1.2233 -0.4831  0.4992
 5927SOL     OW29239   0.489   3.897   8.663  0.3559 -0.0159 -0.3323
 5927SOL    HW129240   0.472   3.823   8.722 -1.7479  0.5025 -0.3163
 5927SOL    HW229241   0.479   3.977   8.714 -0.0062 -0.7577  0.7495
 5928SOL     OW29242   3.572   0.112   8.870  0.0443 -0.0627 -0.3959
 5928SOL    HW129243   3.651   0.118   8.925 -0.4450 -1.8922  0.5308
 5928SOL    HW229244   3.561   0.195   8.824 -1.1574  0.2243  0.4183
 5929SOL     OW29245   1.861   4.655   7.156  0.2085 -0.3588  0.2034
 5929SOL    HW129246   1.833   4.715   7.087  1.5381  0.6843  0.5809
 5929SOL    HW229247   1.821   4.703   7.229 -2.3256 -0.1167 -1.3433
 5930SOL     OW29248   1.489   1.135   8.028 -0.0392 -0.2201 -0.5023
 5930SOL    HW129249   1.445   1.055   8.055  0.4535  0.0600  1.1319
 5930SOL    HW229250   1.525   1.121   7.941  1.4357  0.6826 -0.0363
 5931SOL     OW29251   3.260   1.224   6.974 -0.5215  0.0099 -0.4099
 5931SOL    HW129252   3.191   1.217   7.040  1.7621  1.2490  2.0925
 5931SOL    HW229253   3.331   1.267   7.020 -0.3940  0.1567 -0.7407
 5932SOL     OW29254   1.255   1.104   1.821 -0.5335  0.0928 -0.1946
 5932SOL    HW129255   1.263   1.198   1.805  0.7254 -0.2790 -1.7600
 5932SOL    HW229256   1.297   1.069   1.742  0.3133  0.5361  0.0622
 5933SOL     OW29257   1.307   4.263   6.830 -0.1583  0.1768 -0.0555
 5933SOL    HW129258   1.239   4.195   6.826 -0.6237  0.7850 -2.8451
 5933SOL    HW229259   1.266   4.325   6.889 -1.3879  1.4191 -2.1989
 5934SOL     OW29260   3.743   2.068  10.035 -0.4561 -0.2459 -0.1835
 5934SOL    HW129261   3.757   2.125   9.959  1.7712  1.5676  1.5884
 5934SOL    HW229262   3.807   2.117  10.087  0.6915 -2.5090  0.5203
 5935SOL     OW29263   3.889   2.861   1.334  0.3111  0.3159  0.4223
 5935SOL    HW129264   3.826   2.822   1.394  1.2670 -2.5923 -0.4954
 5935SOL    HW229265   3.969   2.864   1.387 -0.0509  0.0497  0.9772
 5936SOL     OW29266   3.596   4.531   7.187  0.7955 -0.5725 -0.1346
 5936SOL    HW129267   3.657   4.583   7.239 -1.9341  1.8798  0.6302
 5936SOL    HW229268   3.620   4.533   7.095 -1.4353  4.0786 -0.6261
 5937SOL     OW29269   2.803   1.762   9.048  0.3563  0.0808 -0.1534
 5937SOL    HW129270   2.719   1.717   9.044 -1.0796  2.6389  1.2655
 5937SOL    HW229271   2.792   1.788   9.140  1.9767 -0.9287  0.3343
 5938SOL     OW29272   3.098   3.282   8.400 -0.1110  0.2893 -0.0805
 5938SOL    HW129273   3.124   3.193   8.376  0.6405  0.3917  0.3552
 5938SOL    HW229274   3.114   3.270   8.494  1.1290 -0.9080 -0.4574
 5939SOL     OW29275   4.058   0.319   7.095 -0.1405  0.1684  0.2117
 5939SOL    HW129276   4.010   0.318   7.012  0.1468  0.2723  0.0457
 5939SOL    HW229277   4.048   0.227   7.119 -1.4494  0.3841  0.4871
 5940SOL     OW29278   1.168   4.042   4.163  0.0938 -0.3681  0.7023
 5940SOL    HW129279   1.140   4.114   4.219  0.5482 -0.2441  0.7688
 5940SOL    HW229280   1.202   4.083   4.083  1.5463  0.0463  1.5428
 5941SOL     OW29281   2.874   2.801  13.309  0.1020  0.1096 -0.4895
 5941SOL    HW129282   2.939   2.818  13.377  0.1423 -0.0894 -0.4788
 5941SOL    HW229283   2.818   2.732  13.345  3.5938 -2.5472 -0.2568
 5942SOL     OW29284   1.978   4.007   7.280 -0.2953  0.6140  0.0659
 5942SOL    HW129285   2.005   3.939   7.218 -0.5437  0.2156  0.4023
 5942SOL    HW229286   2.068   4.028   7.304 -0.9224  1.8585  1.3145
 5943SOL     OW29287   4.245   4.146   5.249 -0.0944  0.2111 -0.4989
 5943SOL    HW129288   4.156   4.126   5.277 -0.5235  0.7991 -1.4302
 5943SOL    HW229289   4.302   4.155   5.325 -0.5776 -0.2666 -0.0801
 5944SOL     OW29290   3.668   2.883  17.212  0.0886 -0.7492  0.5966
 5944SOL    HW129291   3.724   2.910  17.140 -0.1857  2.1630  1.4673
 5944SOL    HW229292   3.657   2.963  17.263  3.4845  1.5918 -2.3907
 5945SOL     OW29293   0.644   3.481   2.350 -0.1429  0.9369  0.1137
 5945SOL    HW129294   0.553   3.500   2.373 -0.1843  1.4391 -0.4658
 5945SOL    HW229295   0.696   3.553   2.385  1.0402 -0.5074  1.3856
 5946SOL     OW29296   3.358   3.372  12.322  0.0973  0.1585 -0.7201
 5946SOL    HW129297   3.327   3.352  12.411  1.2905  0.1598 -0.3004
 5946SOL    HW229298   3.392   3.284  12.304 -0.3635 -0.0610 -0.5350
 5947SOL     OW29299   0.987   2.585   5.866  0.0232  0.6458  0.1263
 5947SOL    HW129300   0.894   2.607   5.855  0.1240  0.7671 -0.4543
 5947SOL    HW229301   1.025   2.672   5.874  1.0420  0.3837 -1.8288
 5948SOL     OW29302   2.755   1.787  13.618 -0.1047 -0.3499  0.4002
 5948SOL    HW129303   2.718   1.730  13.551 -1.3338 -0.9804  1.6371
 5948SOL    HW229304   2.829   1.828  13.573  0.4725  0.1580  1.8069
 5949SOL     OW29305   2.694   3.232   4.912 -0.1248  0.1564 -0.5399
 5949SOL    HW129306   2.760   3.170   4.942 -1.5271 -0.3265  1.5602
 5949SOL    HW229307   2.705   3.303   4.976 -1.6752  1.1171 -1.3426
 5950SOL     OW29308   0.089   1.944  15.448 -0.4080  0.0330 -1.0680
 5950SOL    HW129309   0.093   1.978  15.538  0.9092 -0.9823 -0.7400
 5950SOL    HW229310   0.050   2.021  15.409  0.6432  0.5824 -1.0332
 5951SOL     OW29311   4.138   2.497   5.192  0.5259 -0.2565 -0.7433
 5951SOL    HW129312   4.233   2.490   5.205  0.7102  1.4938 -1.0762
 5951SOL    HW229313   4.119   2.529   5.281  0.0583 -2.3753 -0.0914
 5952SOL     OW29314   4.451   1.007  10.555  0.1923  0.3870  0.3793
 5952SOL    HW129315   4.496   1.015  10.471 -0.2656  0.2198  0.1196
 5952SOL    HW229316   4.509   1.059  10.611 -0.2866  3.0563 -1.6580
 5953SOL     OW29317   2.322   0.430   5.149  0.9874  0.3768 -0.2302
 5953SOL    HW129318   2.394   0.369   5.139 -0.9710 -1.9952  0.0569
 5953SOL    HW229319   2.343   0.508   5.098  0.0724  1.6426  1.3252
 5954SOL     OW29320   1.899   0.459   5.692 -0.0407  0.1726  0.0857
 5954SOL    HW129321   1.882   0.513   5.769  0.1963 -0.9705  0.9513
 5954SOL    HW229322   1.875   0.508   5.613 -1.0639 -0.2613  0.1336
 5955SOL     OW29323   2.754   1.038  11.737 -0.6508  0.2495  0.5126
 5955SOL    HW129324   2.849   1.032  11.727 -0.4734  0.8903  1.8238
 5955SOL    HW229325   2.740   0.992  11.820 -0.8164 -1.3007 -0.3682
 5956SOL     OW29326   3.158   2.819   9.206 -0.0525  0.0738  0.2191
 5956SOL    HW129327   3.184   2.846   9.294 -0.0980  1.7645 -0.2851
 5956SOL    HW229328   3.063   2.809   9.216 -0.1211  1.0379  0.5267
 5957SOL     OW29329   3.549   0.593   2.267 -0.1416 -0.0251 -0.0760
 5957SOL    HW129330   3.461   0.567   2.296  0.8320 -0.3963  2.5009
 5957SOL    HW229331   3.578   0.647   2.340  1.6468  0.7449 -1.3795
 5958SOL     OW29332   0.540   3.273   9.743  0.0439 -0.0131 -0.3996
 5958SOL    HW129333   0.595   3.245   9.670 -1.7489 -1.5225 -1.1853
 5958SOL    HW229334   0.597   3.302   9.814 -0.1834 -1.4092  0.3533
 5959SOL     OW29335   2.841   3.081   3.932  0.0430  0.5717  0.0194
 5959SOL    HW129336   2.835   3.072   3.837 -0.0102  0.3048  0.0478
 5959SOL    HW229337   2.827   2.993   3.968 -0.3259  0.5528 -0.1664
 5960SOL     OW29338   3.529   3.336   6.477 -0.2018  0.1030 -0.0164
 5960SOL    HW129339   3.613   3.322   6.521  1.2113  3.9409 -1.4691
 5960SOL    HW229340   3.546   3.417   6.428 -1.5635 -0.3921 -1.3107
 5961SOL     OW29341   2.923   3.700   1.809 -0.4999  0.6726  0.1320
 5961SOL    HW129342   2.905   3.606   1.801 -0.8198  0.8394 -1.1860
 5961SOL    HW229343   2.887   3.739   1.729 -0.9312 -0.0525 -0.0276
 5962SOL     OW29344   3.579   4.653  12.135  0.2668 -0.1911 -0.1498
 5962SOL    HW129345   3.619   4.587  12.191  1.7722  1.9027  1.2583
 5962SOL    HW229346   3.572   0.004  12.192  2.8137  0.5015 -0.7969
 5963SOL     OW29347   2.259   1.728   7.390 -0.1245 -0.0651  0.4793
 5963SOL    HW129348   2.300   1.715   7.475  2.6415  0.8134 -0.7252
 5963SOL    HW229349   2.331   1.705   7.331 -0.8388 -0.1056 -0.3725
 5964SOL     OW29350   0.434   2.307   7.381  0.7296 -0.0649 -0.2652
 5964SOL    HW129351   0.386   2.355   7.448  2.2127 -1.2410  1.6540
 5964SOL    HW229352   0.523   2.299   7.416  0.5136  0.5744  0.4239
 5965SOL     OW29353   1.333   3.329   4.148 -0.5972  0.0193 -0.0512
 5965SOL    HW129354   1.281   3.301   4.223  1.8662  1.6995  2.2711
 5965SOL    HW229355   1.391   3.254   4.137 -1.3995 -0.6260  0.2229
 5966SOL     OW29356   3.377   3.290  17.051  0.4389 -0.5553  0.2390
 5966SOL    HW129357   3.348   3.364  17.104  1.1948 -0.8051  0.9978
 5966SOL    HW229358   3.459   3.281  17.100 -0.1081 -1.7650  0.9350
 5967SOL     OW29359   3.819   3.964   4.220 -0.1823 -0.1983  0.2780
 5967SOL    HW129360   3.800   3.884   4.171  0.6446 -0.3447  0.1893
 5967SOL    HW229361   3.868   4.020   4.160  0.4408  1.7753  2.6376
 5968SOL     OW29362   1.277   3.596   7.893 -0.3382  0.4531  0.1284
 5968SOL    HW129363   1.212   3.532   7.920 -0.4568  1.0227  1.2039
 5968SOL    HW229364   1.326   3.549   7.826 -2.5210 -1.5832 -0.0375
 5969SOL     OW29365   4.351   1.378   5.413  0.1482  0.2551  0.1696
 5969SOL    HW129366   4.444   1.356   5.404 -0.2079 -0.4625 -1.6620
 5969SOL    HW229367   4.355   1.473   5.419  1.4314  0.1975  0.2608
 5970SOL     OW29368   3.798   1.872  15.967 -0.6226 -0.0730 -0.3042
 5970SOL    HW129369   3.876   1.819  15.985  0.5088  1.2446 -1.2330
 5970SOL    HW229370   3.826   1.958  15.999 -0.0164  0.0920 -1.2441
 5971SOL     OW29371   0.218   4.521   0.601 -0.2332 -0.7915  0.3031
 5971SOL    HW129372   0.283   4.512   0.671 -0.6252 -0.6844  0.6854
 5971SOL    HW229373   0.276   4.518   0.525  1.2302  2.7222  1.2526
 5972SOL     OW29374   1.390   4.223   7.144  0.0054  0.4946 -0.1848
 5972SOL    HW129375   1.337   4.145   7.161  0.5539  0.0246 -0.6073
 5972SOL    HW229376   1.373   4.257   7.232 -3.3886 -1.5285 -0.0543
 5973SOL     OW29377   1.462   1.095   4.098  0.1866 -0.7483 -0.2225
 5973SOL    HW129378   1.384   1.072   4.149  0.8065  0.8340  1.4253
 5973SOL    HW229379   1.458   1.038   4.022 -0.9513 -1.3561  0.3004
 5974SOL     OW29380   1.568   0.188  17.622 -0.2373  0.6222  0.5979
 5974SOL    HW129381   1.502   0.120  17.639 -0.1886  0.0182 -1.6823
 5974SOL    HW229382   1.597   0.205   0.006  0.8985  1.7389  0.0097
 5975SOL     OW29383   4.253   2.845   2.645 -0.0707  0.4677 -0.0684
 5975SOL    HW129384   4.254   2.880   2.734  0.1640  2.9493 -1.0344
 5975SOL    HW229385   4.347   2.832   2.631  0.3298  2.4226  0.7159
 5976SOL     OW29386   0.480   2.056   5.392 -0.1096  0.1323 -0.6283
 5976SOL    HW129387   0.574   2.035   5.394 -0.3184 -0.7975 -0.5090
 5976SOL    HW229388   0.447   1.967   5.378 -1.7157  0.2938  2.1955
 5977SOL     OW29389   3.770   0.264   6.283  0.2138  0.1457  0.3145
 5977SOL    HW129390   3.837   0.196   6.291  0.5833  0.4546 -0.1753
 5977SOL    HW229391   3.816   0.314   6.216  1.1090 -1.9648 -0.6199
 5978SOL     OW29392   2.039   4.282   3.059  0.0625 -0.5535 -0.2844
 5978SOL    HW129393   2.036   4.377   3.063  0.6252 -0.5025 -1.1110
 5978SOL    HW229394   1.944   4.271   3.056 -0.1718  1.2623  0.7202
 5979SOL     OW29395   3.929   2.481  11.436  0.0474  0.1662 -0.2350
 5979SOL    HW129396   3.910   2.533  11.357  0.6695  2.9878  1.4431
 5979SOL    HW229397   3.852   2.466  11.490  0.7749 -0.1477  0.7094
 5980SOL     OW29398   1.237   1.979   2.316  0.3221  0.3016  0.8124
 5980SOL    HW129399   1.169   2.034   2.276  2.2251  0.6927 -1.9486
 5980SOL    HW229400   1.286   1.955   2.237  1.3105 -1.1070  1.8599
 5981SOL     OW29401   1.900   1.029   8.679 -0.3786 -0.0614  0.1559
 5981SOL    HW129402   1.939   1.116   8.680 -0.0157 -0.2197 -0.6211
 5981SOL    HW229403   1.809   1.045   8.653 -0.2953  0.2554  0.0653
 5982SOL     OW29404   3.741   2.460  17.417  0.2999  0.1646 -0.2617
 5982SOL    HW129405   3.707   2.528  17.359  0.2959  0.0592 -0.3811
 5982SOL    HW229406   3.721   2.382  17.367  0.1481  1.2396 -1.8685
 5983SOL     OW29407   1.455   3.256  14.157  0.6087 -0.1099 -0.2581
 5983SOL    HW129408   1.441   3.322  14.225 -2.3798 -2.4175  1.3942
 5983SOL    HW229409   1.367   3.221  14.141 -0.1334  1.6031  0.0798
 5984SOL     OW29410   0.320   2.299   9.322  0.0516  0.2016  0.2935
 5984SOL    HW129411   0.345   2.365   9.258 -1.2903  0.0578 -0.3849
 5984SOL    HW229412   0.226   2.299   9.304  0.1075 -1.4032  0.0560
 5985SOL     OW29413   2.062   0.112   6.699  0.4145 -0.6678 -0.5624
 5985SOL    HW129414   2.144   0.161   6.694 -0.3560  0.5105 -1.6166
 5985SOL    HW229415   2.087   0.032   6.747 -0.9543 -0.1637  0.9811
 5986SOL     OW29416   2.104   2.456   4.794  0.2123  0.6931 -0.2031
 5986SOL    HW129417   2.136   2.366   4.804  0.8000  0.9639  0.3789
 5986SOL    HW229418   2.103   2.494   4.881 -3.7211  1.7078 -0.7145
 5987SOL     OW29419   3.197   3.724   6.486  0.3278  0.2323  0.2949
 5987SOL    HW129420   3.274   3.781   6.495  0.7372 -0.0876 -1.0933
 5987SOL    HW229421   3.227   3.675   6.409  0.5654 -0.4947  0.8514
 5988SOL     OW29422   2.591   1.709  12.716  0.3068 -0.3880 -1.0765
 5988SOL    HW129423   2.666   1.766  12.733 -0.8416  0.7728  0.1493
 5988SOL    HW229424   2.641   1.628  12.708  0.4909 -0.6296  2.6150
 5989SOL     OW29425   1.383   2.635   7.585 -0.1438 -0.0200  0.2485
 5989SOL    HW129426   1.372   2.575   7.511 -0.5463  1.6415 -1.0608
 5989SOL    HW229427   1.433   2.711   7.556  1.2411 -0.7949  0.6370
 5990SOL     OW29428   1.825   2.475  12.162  0.3092  0.2701  0.2317
 5990SOL    HW129429   1.897   2.528  12.194 -0.2069  1.3157 -0.3321
 5990SOL    HW229430   1.807   2.421  12.238 -0.5361  0.2409  0.0117
 5991SOL     OW29431   3.860   4.328   2.498 -0.2708  0.2154  0.2803
 5991SOL    HW129432   3.889   4.365   2.581  1.7175  1.2715 -0.8836
 5991SOL    HW229433   3.939   4.285   2.465 -1.5570 -0.6546 -1.6855
 5992SOL     OW29434   3.308   1.414  12.875 -0.3047 -0.0205  0.1798
 5992SOL    HW129435   3.212   1.410  12.875 -0.2559 -1.0150 -0.0306
 5992SOL    HW229436   3.323   1.429  12.782 -0.3163  1.6161  0.4397
 5993SOL     OW29437   2.803   4.483   5.430  0.5973 -0.7919  0.0474
 5993SOL    HW129438   2.714   4.469   5.464  0.6651 -0.2055  0.4794
 5993SOL    HW229439   2.797   4.444   5.343  1.1679 -0.5096 -0.1167
 5994SOL     OW29440   4.392   3.759   7.596 -0.3066  0.0851  0.1477
 5994SOL    HW129441   4.473   3.809   7.586  0.8014 -2.2590 -2.4139
 5994SOL    HW229442   4.411   3.680   7.546 -1.0494  0.8288 -1.2989
 5995SOL     OW29443   2.455   4.555   1.895 -0.3299  0.2799  0.0222
 5995SOL    HW129444   2.411   4.597   1.969  0.1173 -0.6183  0.7927
 5995SOL    HW229445   2.540   4.599   1.897  0.1686 -0.7012  0.0578
 5996SOL     OW29446   2.995   2.627   5.544  0.3454  0.4222  0.9539
 5996SOL    HW129447   3.004   2.579   5.462  1.2538 -0.0857  1.3452
 5996SOL    HW229448   2.905   2.658   5.539  0.5709  1.3181  2.2460
 5997SOL     OW29449   2.588   3.428  12.630  0.5508 -0.2878 -0.0001
 5997SOL    HW129450   2.612   3.345  12.589  0.5671 -1.1587  1.7855
 5997SOL    HW229451   2.553   3.395  12.713  0.2814  0.8763  0.3576
 5998SOL     OW29452   3.735   3.297   3.820  0.3072  0.1859  0.3290
 5998SOL    HW129453   3.698   3.247   3.893 -0.1492 -0.5115 -0.3778
 5998SOL    HW229454   3.666   3.361   3.803 -1.0820 -0.4253  3.5231
 5999SOL     OW29455   0.785   0.570   6.577  0.4450  0.1178  0.5314
 5999SOL    HW129456   0.819   0.613   6.656  1.6602  1.1999 -0.5680
 5999SOL    HW229457   0.866   0.535   6.540  1.3326  2.8636 -0.1572
 6000SOL     OW29458   3.387   4.317   5.863  0.5619  0.5381 -0.1103
 6000SOL    HW129459   3.324   4.257   5.901  0.3105 -0.4744 -2.1075
 6000SOL    HW229460   3.414   4.370   5.938  0.0625 -0.9789  1.1249
 6001SOL     OW29461   1.163   0.496  13.734  0.3241 -0.7922  0.3194
 6001SOL    HW129462   1.240   0.554  13.727 -0.9523  0.9342  0.5044
 6001SOL    HW229463   1.118   0.549  13.800 -0.6341 -2.2159  0.7948
 6002SOL     OW29464   0.988   3.458   6.973  0.7295  0.6699  0.0019
 6002SOL    HW129465   1.049   3.394   6.938  1.8101  1.5610  0.2804
 6002SOL    HW229466   1.015   3.538   6.929 -1.1587  0.7076 -1.1054
 6003SOL     OW29467   3.061   1.741   8.665  0.1101 -0.4755 -0.3037
 6003SOL    HW129468   3.081   1.649   8.682 -0.3157 -0.8093 -1.6443
 6003SOL    HW229469   3.130   1.774   8.607 -0.9142  0.2294 -1.1048
 6004SOL     OW29470   0.124   1.361   7.468 -0.4417  0.7787 -0.1603
 6004SOL    HW129471   0.199   1.388   7.415 -0.4274  0.5240 -0.2733
 6004SOL    HW229472   0.160   1.304   7.536 -2.2465 -1.0172 -0.7277
 6005SOL     OW29473   3.044   4.106   8.167  0.0061 -0.2677 -0.2512
 6005SOL    HW129474   3.034   4.181   8.226 -1.9705 -0.2523 -0.5870
 6005SOL    HW229475   2.986   4.053   8.220 -1.6816  1.9834  0.1608
 6006SOL     OW29476   1.813   3.895   7.803  0.3558 -0.6093 -0.1928
 6006SOL    HW129477   1.788   3.988   7.804  1.6241 -0.2734  0.7283
 6006SOL    HW229478   1.902   3.903   7.769 -0.2548  0.5968 -1.4921
 6007SOL     OW29479   1.865   1.843  13.060  0.0605  0.2791  0.7554
 6007SOL    HW129480   1.890   1.892  13.139  0.4533  3.5195 -1.3701
 6007SOL    HW229481   1.915   1.901  13.003  1.1317 -0.2838  1.1195
 6008SOL     OW29482   2.814   3.215   9.668  0.1112 -0.7424  0.0134
 6008SOL    HW129483   2.777   3.302   9.679 -0.6553 -1.1147  0.3657
 6008SOL    HW229484   2.905   3.230   9.695  0.1589 -2.1853  0.6776
 6009SOL     OW29485   0.939   3.415   1.634  0.2872  0.1418  0.0404
 6009SOL    HW129486   1.016   3.471   1.623 -1.0486  1.5618 -2.1936
 6009SOL    HW229487   0.961   3.335   1.681 -0.0876  1.4844  2.4880
 6010SOL     OW29488   0.060   0.924   4.541 -0.0594 -0.5184 -0.3563
 6010SOL    HW129489   0.046   0.894   4.631  1.6805 -1.6753 -0.4804
 6010SOL    HW229490   0.075   1.017   4.555 -1.5421 -0.0965 -1.5545
 6011SOL     OW29491   1.055   3.662   6.827  0.2773  0.2448  0.3091
 6011SOL    HW129492   1.002   3.742   6.820  0.5306  0.3781 -0.0421
 6011SOL    HW229493   1.140   3.705   6.824  0.8771 -0.9905 -0.1020
 6012SOL     OW29494   4.013   1.296  13.169  0.1028 -1.1160 -0.3410
 6012SOL    HW129495   3.974   1.350  13.238  2.4172 -0.4733  0.4782
 6012SOL    HW229496   4.075   1.245  13.222  2.5208  0.2836 -1.8011
 6013SOL     OW29497   4.671   2.233  11.407  0.3091  0.4707  0.2242
 6013SOL    HW129498   4.671   2.137  11.405 -2.8733  0.4403  2.0603
 6013SOL    HW229499   4.592   2.260  11.362 -0.5054 -0.3105  1.1914
 6014SOL     OW29500   2.163   3.988   6.632 -0.1751 -0.2426  0.4032
 6014SOL    HW129501   2.087   3.966   6.578  0.1367 -2.6694  0.9583
 6014SOL    HW229502   2.131   3.979   6.722  0.2349  0.3499  0.6072
 6015SOL     OW29503   1.681   3.102   8.707 -0.5373 -0.6384  0.5804
 6015SOL    HW129504   1.749   3.125   8.644 -0.1446 -0.7935  0.9528
 6015SOL    HW229505   1.599   3.138   8.671 -0.5087  0.6728  1.8431
 6016SOL     OW29506   2.521   0.740   5.224 -0.0799  0.3747  0.1269
 6016SOL    HW129507   2.464   0.708   5.294 -0.9949  1.0660 -0.3055
 6016SOL    HW229508   2.604   0.694   5.240 -0.6607 -0.3673  1.0061
 6017SOL     OW29509   2.242   0.158   3.911  0.4207 -0.2794 -0.0480
 6017SOL    HW129510   2.305   0.218   3.951 -0.8320 -0.1742  1.7633
 6017SOL    HW229511   2.181   0.230   3.893 -1.0413 -2.0285 -1.9941
 6018SOL     OW29512   1.651   1.539   0.933  0.3151  0.6382  0.4601
 6018SOL    HW129513   1.743   1.554   0.957  0.4677 -0.2909  0.4553
 6018SOL    HW229514   1.608   1.516   1.016  0.2255  0.7855  0.4542
 6019SOL     OW29515   4.246   2.993   7.196  0.1246 -0.0728 -0.1178
 6019SOL    HW129516   4.155   2.985   7.166  0.2971 -2.6317  0.0157
 6019SOL    HW229517   4.267   2.906   7.230  0.6776  1.0774  2.4709
 6020SOL     OW29518   3.363   3.779   8.283 -0.0135  0.7878 -0.5160
 6020SOL    HW129519   3.433   3.725   8.247 -1.6762 -1.6019 -0.1420
 6020SOL    HW229520   3.393   3.799   8.372  0.5656 -2.6373  0.0314
 6021SOL     OW29521   4.081   2.896   3.114  0.0259 -0.3029 -0.0246
 6021SOL    HW129522   4.048   2.918   3.201  0.8416 -2.6114  0.8479
 6021SOL    HW229523   4.168   2.862   3.134 -0.6815 -1.7117  0.6276
 6022SOL     OW29524   3.239   0.252   2.743 -0.1715  0.3869 -0.6012
 6022SOL    HW129525   3.281   0.179   2.789 -1.5106  0.3817  0.5844
 6022SOL    HW229526   3.229   0.227   2.651 -0.1345 -1.3520 -0.1185
 6023SOL     OW29527   3.444   0.981   4.997 -0.2997  0.1167 -0.2405
 6023SOL    HW129528   3.421   0.994   4.904  0.6669 -0.9311 -0.6205
 6023SOL    HW229529   3.417   0.890   5.007 -1.1196  0.1640 -1.9684
 6024SOL     OW29530   4.225   1.565   7.904  1.1546 -0.1359 -0.0355
 6024SOL    HW129531   4.250   1.474   7.892  1.3682 -0.4005  2.3570
 6024SOL    HW229532   4.222   1.579   7.999 -0.7700 -1.6554  0.1163
 6025SOL     OW29533   4.447   2.299   6.864 -0.1132 -0.0241 -0.2348
 6025SOL    HW129534   4.430   2.390   6.888 -1.3149 -0.9349  2.3378
 6025SOL    HW229535   4.361   2.258   6.863 -0.3662  0.5206 -0.5125
 6026SOL     OW29536   4.667   0.489   4.228  0.2580 -0.4270 -0.1135
 6026SOL    HW129537   4.577   0.466   4.252  0.4958 -2.0182 -0.7918
 6026SOL    HW229538   4.680   0.567   4.282  1.1349 -1.5290  1.2545
 6027SOL     OW29539   3.369   0.274   3.906  0.5142  0.8238 -0.0580
 6027SOL    HW129540   3.275   0.265   3.922  1.0082 -0.7200  1.9658
 6027SOL    HW229541   3.382   0.310   3.818  0.6398 -1.1537 -0.8512
 6028SOL     OW29542   2.908   3.725   8.891 -0.0493 -0.7372  0.1244
 6028SOL    HW129543   2.973   3.780   8.848 -0.3412 -0.1472  0.4404
 6028SOL    HW229544   2.905   3.644   8.840 -0.4985  0.3481 -1.5584
 6029SOL     OW29545   0.023   2.830   7.898 -0.1195  0.2553  0.3293
 6029SOL    HW129546   4.662   2.865   7.878 -0.2492  0.2975  0.9402
 6029SOL    HW229547   0.038   2.771   7.825 -0.5264  0.8882 -0.2658
 6030SOL     OW29548   3.027   3.332   7.171  0.0830 -0.1171  0.2434
 6030SOL    HW129549   2.990   3.263   7.226  1.0816 -0.3254  0.6519
 6030SOL    HW229550   3.091   3.290   7.115  1.9298  1.9505  0.7751
 6031SOL     OW29551   4.327   0.204  10.682 -0.5542  0.3310  0.2765
 6031SOL    HW129552   4.324   0.220  10.776  0.8626  1.8836  0.0363
 6031SOL    HW229553   4.354   0.286  10.641  1.0719 -0.7345 -0.7940
 6032SOL     OW29554   0.208   3.249  14.244  0.1030  0.3975  0.6285
 6032SOL    HW129555   0.142   3.241  14.175 -0.1649 -0.2705  0.9635
 6032SOL    HW229556   0.157   3.298  14.308  0.6084  2.1088 -0.2883
 6033SOL     OW29557   4.676   0.032   9.454 -0.1824 -0.2738 -0.4820
 6033SOL    HW129558   4.601   0.088   9.434  0.5688  0.8086 -0.2445
 6033SOL    HW229559   4.647   4.706   9.530  0.2335  0.8402  0.4330
 6034SOL     OW29560   2.185   1.170   7.490  0.2112 -0.4290 -0.4124
 6034SOL    HW129561   2.233   1.251   7.508 -1.3233  0.5233 -0.6929
 6034SOL    HW229562   2.178   1.135   7.578 -0.8027  0.4209 -0.1665
 6035SOL     OW29563   2.673   2.637   9.768 -0.2663  0.3897  0.1492
 6035SOL    HW129564   2.614   2.709   9.789  0.2720  0.6807  0.6632
 6035SOL    HW229565   2.631   2.602   9.689 -1.2290  2.5423 -0.2682
 6036SOL     OW29566   3.444   1.903   5.933 -0.0985  0.0861  0.2558
 6036SOL    HW129567   3.446   1.833   5.999 -0.8776  1.4905  1.8015
 6036SOL    HW229568   3.539   1.908   5.928 -0.1636  2.1925  1.1138
 6037SOL     OW29569   4.292   1.818   3.387  0.1372  0.3157  0.2580
 6037SOL    HW129570   4.272   1.911   3.378  0.7516  0.5391  1.1740
 6037SOL    HW229571   4.363   1.811   3.323 -1.8864 -0.1322 -1.9457
 6038SOL     OW29572   0.259   0.846   4.227 -0.5321  0.7007 -0.2373
 6038SOL    HW129573   0.182   0.892   4.260  0.3631  1.5567  0.6324
 6038SOL    HW229574   0.230   0.758   4.203  2.6820 -0.4128 -0.1009
 6039SOL     OW29575   3.254   2.794   5.461  0.1091  0.2726  0.1688
 6039SOL    HW129576   3.245   2.817   5.369  2.0719 -0.1531 -0.1444
 6039SOL    HW229577   3.164   2.774   5.485  0.4728 -1.1290  0.3781
 6040SOL     OW29578   0.693   4.541  11.325 -0.0556 -0.0589  0.1001
 6040SOL    HW129579   0.672   4.565  11.415  1.3980  2.3609 -0.2217
 6040SOL    HW229580   0.610   4.494  11.312 -1.6453  2.7558  0.0895
 6041SOL     OW29581   4.155   3.559   3.746 -0.1024 -0.3046 -0.2648
 6041SOL    HW129582   4.174   3.466   3.757 -1.2643 -0.6263 -0.9010
 6041SOL    HW229583   4.071   3.551   3.792  1.3475 -2.2950  2.0455
 6042SOL     OW29584   1.415   0.179   5.548 -0.1101  0.5653 -0.4795
 6042SOL    HW129585   1.438   0.141   5.633  1.1802 -1.0950 -1.5750
 6042SOL    HW229586   1.341   0.232   5.576  0.5047  2.0358 -1.6432
 6043SOL     OW29587   3.730   2.184  11.145  0.4992  0.3485  0.0690
 6043SOL    HW129588   3.678   2.204  11.222 -1.6298 -0.1210 -1.2657
 6043SOL    HW229589   3.721   2.088  11.142 -1.5004  0.5134  1.2132
 6044SOL     OW29590   4.620   1.240   8.514  0.5015  0.2852  0.4263
 6044SOL    HW129591   4.629   1.329   8.481  1.9990  0.3623  1.0500
 6044SOL    HW229592   4.707   1.202   8.501  0.5180  0.0862  1.1154
 6045SOL     OW29593   3.746   3.819  12.472  0.0642 -0.2252 -0.5404
 6045SOL    HW129594   3.720   3.889  12.412  1.0925 -0.1788 -0.9197
 6045SOL    HW229595   3.677   3.756  12.450 -1.6686  1.4233  0.1880
 6046SOL     OW29596   2.488   1.419  10.973  0.6216 -0.4921 -0.1662
 6046SOL    HW129597   2.459   1.486  11.034 -1.7010  0.6006 -2.4602
 6046SOL    HW229598   2.405   1.381  10.945  0.3177  0.1644 -0.1394
 6047SOL     OW29599   0.914   0.361  13.689 -0.0543  0.0832  0.8424
 6047SOL    HW129600   0.995   0.376  13.739  0.3222  1.4120 -0.1788
 6047SOL    HW229601   0.875   0.448  13.693  1.3445  0.6812  1.5548
 6048SOL     OW29602   0.401   1.727  10.494 -0.6884 -0.0375  0.0374
 6048SOL    HW129603   0.479   1.681  10.527 -0.6355  0.3681  0.4810
 6048SOL    HW229604   0.442   1.765  10.417 -0.6941  0.1924  0.1490
 6049SOL     OW29605   3.966   4.414   7.488 -0.5145 -0.7972 -0.0849
 6049SOL    HW129606   3.994   4.482   7.427 -1.6124  1.7280  2.2059
 6049SOL    HW229607   3.884   4.447   7.525 -0.3173 -0.1256 -0.2447
 6050SOL     OW29608   1.516   0.549   9.058  0.0903  0.0274  0.0930
 6050SOL    HW129609   1.596   0.601   9.056 -0.1421  0.3836 -0.1688
 6050SOL    HW229610   1.464   0.618   9.016  0.2717  0.5611  0.7463
 6051SOL     OW29611   2.772   3.922   6.089  0.3781 -0.0939 -0.2285
 6051SOL    HW129612   2.692   3.871   6.102  1.9028 -1.5017  3.2895
 6051SOL    HW229613   2.810   3.929   6.176 -2.1165  1.5033  0.7477
 6052SOL     OW29614   4.634   1.875   3.514 -0.1607  0.1138  0.6808
 6052SOL    HW129615   4.655   1.931   3.589 -0.5858  0.1458  0.7789
 6052SOL    HW229616   4.679   1.800   3.552 -0.9211 -0.4971  0.3865
 6053SOL     OW29617   2.753   3.567   6.308 -0.4031 -0.4775 -0.2569
 6053SOL    HW129618   2.676   3.523   6.344  0.2518 -1.4333 -0.0088
 6053SOL    HW229619   2.751   3.557   6.212 -1.8137  1.6801 -0.4396
 6054SOL     OW29620   4.151   0.248   2.778  0.1436 -0.1629 -0.0782
 6054SOL    HW129621   4.199   0.331   2.771  2.5941 -1.3612  2.7907
 6054SOL    HW229622   4.195   0.202   2.707  0.1484 -0.2990  0.0122
 6055SOL     OW29623   2.779   4.068   8.738 -0.3290 -0.3575 -0.0020
 6055SOL    HW129624   2.768   4.157   8.706  2.6856 -0.4376 -1.2761
 6055SOL    HW229625   2.863   4.080   8.782 -0.9224  1.5256  0.6011
 6056SOL     OW29626   1.129   3.114   5.871 -0.1851 -0.1719 -0.7134
 6056SOL    HW129627   1.089   3.198   5.894  0.8204 -0.1017  0.8133
 6056SOL    HW229628   1.214   3.128   5.830  1.0401 -0.2447  1.7657
 6057SOL     OW29629   2.214   0.283   4.264  0.0804 -0.1109  0.4806
 6057SOL    HW129630   2.277   0.302   4.333  1.2825 -3.2493  0.2558
 6057SOL    HW229631   2.171   0.367   4.247 -0.6077 -0.1340  2.1280
 6058SOL     OW29632   2.494   1.627  13.174 -0.4078  0.5655  0.1669
 6058SOL    HW129633   2.434   1.677  13.119 -1.0035 -1.4626 -1.0531
 6058SOL    HW229634   2.551   1.579  13.113  0.1230  0.3020  0.8723
 6059SOL     OW29635   0.197   2.450   1.225  0.1938  0.4977 -0.2583
 6059SOL    HW129636   0.218   2.394   1.300  0.4645  0.2437 -0.5233
 6059SOL    HW229637   0.251   2.416   1.153 -1.1952 -1.1854 -0.4837
 6060SOL     OW29638   1.371   2.998   4.617 -0.0194 -0.4983  0.2958
 6060SOL    HW129639   1.390   2.952   4.535 -2.1138 -0.4999 -0.1999
 6060SOL    HW229640   1.414   2.943   4.683  1.6603  1.4701  0.8105
 6061SOL     OW29641   0.779   3.046   3.288  0.1191 -0.3098  0.1780
 6061SOL    HW129642   0.687   3.073   3.286  0.7457  1.9417  2.0717
 6061SOL    HW229643   0.794   3.020   3.197  1.0356 -1.3764  0.6320
 6062SOL     OW29644   3.936   0.401   2.009  0.0506 -0.4618  0.1905
 6062SOL    HW129645   3.874   0.329   2.001 -1.2827  0.5089  1.6778
 6062SOL    HW229646   3.921   0.430   2.099  0.9654  0.6913 -0.0111
 6063SOL     OW29647   2.859   2.772   6.464  0.4831  0.3981  0.3649
 6063SOL    HW129648   2.836   2.859   6.497 -2.4844  0.2712 -1.4159
 6063SOL    HW229649   2.777   2.727   6.482  0.8756 -1.1263 -1.5850
 6064SOL     OW29650   0.716   1.028   2.133 -0.4526  0.0760 -0.2244
 6064SOL    HW129651   0.714   1.110   2.084 -2.7531  0.9940  1.4021
 6064SOL    HW229652   0.736   0.966   2.063  0.3422 -2.9803  2.7024
 6065SOL     OW29653   3.475   1.639   5.014  0.4660  0.7710  0.1599
 6065SOL    HW129654   3.445   1.558   4.974 -0.1421  0.2753  1.6409
 6065SOL    HW229655   3.552   1.603   5.057  0.5447 -1.2451 -1.6496
 6066SOL     OW29656   0.324   1.674   3.618  0.1468  0.1794 -0.2865
 6066SOL    HW129657   0.375   1.651   3.540  0.4251  0.2852 -0.1334
 6066SOL    HW229658   0.382   1.630   3.679 -0.7421 -1.5972 -0.7218
 6067SOL     OW29659   1.255   1.864   4.925 -0.2470 -0.2119  0.3626
 6067SOL    HW129660   1.318   1.875   4.996  1.8290 -0.8234 -1.3573
 6067SOL    HW229661   1.225   1.955   4.920 -0.4804 -0.3152 -0.1476
 6068SOL     OW29662   0.042   0.677  15.634 -0.2526 -1.2933 -0.6358
 6068SOL    HW129663   0.068   0.697  15.724 -0.6120  2.5982 -1.3832
 6068SOL    HW229664   0.006   0.759  15.600  2.6725  0.2930  0.0845
 6069SOL     OW29665   3.926   3.722   6.791 -0.1538 -0.6567 -0.5332
 6069SOL    HW129666   3.906   3.662   6.719  1.3659 -2.5334  0.6046
 6069SOL    HW229667   3.964   3.799   6.749  1.8102 -0.5631  1.4135
 6070SOL     OW29668   3.012   2.471   2.518 -1.1240  0.5506  0.1157
 6070SOL    HW129669   3.018   2.496   2.610 -1.1874 -2.0105  0.8235
 6070SOL    HW229670   3.054   2.385   2.527 -0.4911  0.6161 -2.1799
 6071SOL     OW29671   0.202   3.078  14.653  0.7742 -0.1823 -0.1015
 6071SOL    HW129672   0.245   3.058  14.569 -1.9992  1.0645 -1.7985
 6071SOL    HW229673   0.121   3.028  14.646 -0.4794  1.8431  0.3036
 6072SOL     OW29674   1.352   1.749   3.555 -0.0832  0.2081 -0.1237
 6072SOL    HW129675   1.290   1.819   3.575  0.3495  0.6328 -0.2671
 6072SOL    HW229676   1.309   1.668   3.581  1.6181 -1.2018 -1.6719
 6073SOL     OW29677   0.151   3.542   1.543  0.6187  0.0684  1.1890
 6073SOL    HW129678   0.192   3.481   1.483  1.2596  0.4773  1.2032
 6073SOL    HW229679   0.232   3.580   1.579  0.9559  0.7672 -0.3009
 6074SOL     OW29680   2.712   3.304  16.392  0.6596  0.7287  0.6564
 6074SOL    HW129681   2.724   3.303  16.297  2.4422  0.9648  0.8672
 6074SOL    HW229682   2.618   3.313  16.402  0.3746  0.0826 -1.3650
 6075SOL     OW29683   0.864   1.538   2.765  0.1151  0.2861  0.5993
 6075SOL    HW129684   0.850   1.603   2.696 -0.2659 -0.7179 -0.2805
 6075SOL    HW229685   0.949   1.503   2.737 -0.7006 -3.1748  2.4679
 6076SOL     OW29686   1.866   1.580   8.956 -0.0353 -0.4136  0.0538
 6076SOL    HW129687   1.896   1.669   8.938  0.1353 -0.3000  0.8913
 6076SOL    HW229688   1.947   1.542   8.920 -0.2336 -1.1177  0.3394
 6077SOL     OW29689   4.622   3.177  17.617  0.1344  0.5779  0.2924
 6077SOL    HW129690   4.623   3.238  17.691  1.6300  0.9507 -0.0181
 6077SOL    HW229691   4.560   3.110  17.645  0.2994 -0.4709 -1.8336
 6078SOL     OW29692   2.940   0.278   8.959 -0.2560  0.1791  0.2277
 6078SOL    HW129693   2.881   0.231   9.017 -2.3409  2.6181  0.0827
 6078SOL    HW229694   2.907   0.264   8.870 -0.8048 -0.4176  0.5354
 6079SOL     OW29695   3.379   1.136   8.089 -0.7139 -0.4565  0.2087
 6079SOL    HW129696   3.335   1.137   8.004  0.9899 -0.4474 -0.6614
 6079SOL    HW229697   3.309   1.171   8.144  0.7979  2.0146  0.5310
 6080SOL     OW29698   2.795   0.502   2.980 -0.2457  0.1550  0.1602
 6080SOL    HW129699   2.831   0.474   3.065 -3.3894  0.3558  1.5576
 6080SOL    HW229700   2.837   0.445   2.916 -0.1236  0.1893  0.2091
 6081SOL     OW29701   2.617   2.699   8.786  0.1720  0.4051  0.2044
 6081SOL    HW129702   2.619   2.608   8.757  0.4506  0.4581  0.0617
 6081SOL    HW229703   2.522   2.706   8.796  0.4967  2.0278  2.1653
 6082SOL     OW29704   3.338   1.816   3.188 -0.1859 -0.3268 -0.4185
 6082SOL    HW129705   3.278   1.891   3.186  0.7170  0.3955 -0.6490
 6082SOL    HW229706   3.277   1.746   3.209 -1.5012  0.6749 -0.9095
 6083SOL     OW29707   4.111   3.745   3.576  0.4674  0.1119  0.5718
 6083SOL    HW129708   4.114   3.674   3.640 -1.2311 -0.8810 -0.4513
 6083SOL    HW229709   4.191   3.715   3.533  0.2071  0.0056  0.1573
 6084SOL     OW29710   1.211   1.582  11.486 -0.2804  0.1637  0.0686
 6084SOL    HW129711   1.254   1.607  11.405  1.7793  0.5130  1.2573
 6084SOL    HW229712   1.283   1.536  11.530 -0.8711  0.1958  1.0658
 6085SOL     OW29713   2.691   4.233   5.819 -0.4603 -0.6092  0.6854
 6085SOL    HW129714   2.770   4.210   5.771 -0.3426  0.4443  0.3625
 6085SOL    HW229715   2.725   4.297   5.882  0.1520 -0.0983 -0.1718
 6086SOL     OW29716   3.642   2.650   6.131 -0.0590  0.5445 -0.2223
 6086SOL    HW129717   3.660   2.707   6.206  1.0680  3.3544 -2.6544
 6086SOL    HW229718   3.662   2.704   6.055 -3.4722  0.5879 -1.1233
 6087SOL     OW29719   3.151   3.153   5.782 -0.3426  0.5341  0.0675
 6087SOL    HW129720   3.110   3.089   5.840  1.2762  0.2270  0.8520
 6087SOL    HW229721   3.227   3.115   5.738  0.7995  0.7543  1.8573
 6088SOL     OW29722   3.232   1.774   2.133  0.3060 -0.5865  0.0443
 6088SOL    HW129723   3.200   1.863   2.120 -0.5625 -1.0675 -1.1130
 6088SOL    HW229724   3.174   1.751   2.206  1.3940 -0.4741  0.9424
 6089SOL     OW29725   0.626   0.786   3.358 -0.2814 -0.4575  0.0434
 6089SOL    HW129726   0.533   0.775   3.378 -0.9697  0.6980 -2.5145
 6089SOL    HW229727   0.614   0.792   3.263 -1.4944 -0.6413  0.1833
 6090SOL     OW29728   2.089   2.384  16.398 -0.1184  0.0090 -0.4697
 6090SOL    HW129729   2.042   2.334  16.331  0.7567 -2.0952  0.4671
 6090SOL    HW229730   2.020   2.376  16.463  1.2178 -2.1656  0.6954
 6091SOL     OW29731   4.284   3.592   2.829 -0.3040 -0.3352 -0.0320
 6091SOL    HW129732   4.291   3.608   2.923  1.6184 -0.1803 -0.2069
 6091SOL    HW229733   4.372   3.561   2.806 -0.9240 -0.7843 -1.8244
 6092SOL     OW29734   3.417   1.229   9.081 -0.4012  0.4699 -0.2266
 6092SOL    HW129735   3.434   1.172   9.006  1.3377  1.1684 -0.3634
 6092SOL    HW229736   3.503   1.266   9.098 -1.3068  1.3249  2.5187
 6093SOL     OW29737   4.502   4.694   2.347  0.1112 -0.2875  0.3690
 6093SOL    HW129738   4.570   0.010   2.399  0.6502 -0.5732 -0.1049
 6093SOL    HW229739   4.510   4.610   2.394  1.8655 -0.3749 -0.0712
 6094SOL     OW29740   3.566   2.403   8.640 -0.9349  0.2039 -0.2965
 6094SOL    HW129741   3.580   2.310   8.660 -1.5823 -0.2549 -2.0545
 6094SOL    HW229742   3.504   2.398   8.567 -1.4474  0.0394  0.1435
 6095SOL     OW29743   2.995   2.459   5.334  0.3384  0.3109  0.5084
 6095SOL    HW129744   2.959   2.371   5.341 -0.3592  0.6946  1.7371
 6095SOL    HW229745   2.967   2.491   5.248  2.3260 -0.1484 -0.2990
 6096SOL     OW29746   0.580   1.681   2.627 -0.0070  0.0254 -0.5287
 6096SOL    HW129747   0.546   1.604   2.581 -1.6477  0.7521 -0.5575
 6096SOL    HW229748   0.672   1.670   2.604  0.3040 -0.2793  0.8685
 6097SOL     OW29749   0.954   2.287   2.250  0.6064  0.3493  0.2796
 6097SOL    HW129750   0.957   2.227   2.176 -0.2776  3.1334 -2.0163
 6097SOL    HW229751   1.045   2.315   2.255 -0.2246  3.2573 -0.7994
 6098SOL     OW29752   0.225   1.362   3.890 -0.2928 -0.4311 -0.3102
 6098SOL    HW129753   0.302   1.419   3.893 -2.1863  2.1334 -0.3616
 6098SOL    HW229754   0.266   1.280   3.918 -0.8184  1.0209  4.8042
 6099SOL     OW29755   0.863   0.193   8.823 -0.1242 -0.0828 -0.0365
 6099SOL    HW129756   0.814   0.238   8.754 -0.7877  1.1731  1.2699
 6099SOL    HW229757   0.822   0.227   8.902 -0.6748 -1.3680  0.2366
 6100SOL     OW29758   0.160   3.173  12.077 -0.6788 -0.8326  0.2514
 6100SOL    HW129759   0.105   3.241  12.117  1.4573  1.3797 -0.5519
 6100SOL    HW229760   0.111   3.143  12.001 -0.6309 -0.1850 -0.0375
 6101SOL     OW29761   3.619   2.401   8.112 -0.0468  0.2132  0.3592
 6101SOL    HW129762   3.562   2.326   8.097  0.1599 -0.0408  0.8611
 6101SOL    HW229763   3.704   2.358   8.101 -1.5120 -1.9646 -2.2527
 6102SOL     OW29764   4.576   2.199  13.609  0.4735  0.1530  0.1198
 6102SOL    HW129765   4.547   2.157  13.528 -1.1248  2.7008 -0.6217
 6102SOL    HW229766   4.642   2.255  13.569 -1.4497  2.5607  0.3787
 6103SOL     OW29767   3.973   4.653   8.288  0.3789  0.2127  0.3957
 6103SOL    HW129768   4.032   4.593   8.334 -2.5733 -2.9001  0.1303
 6103SOL    HW229769   3.883   4.621   8.292 -0.4232  2.5264  0.8416
 6104SOL     OW29770   3.944   3.982  17.645 -0.0739  0.3335  0.1396
 6104SOL    HW129771   4.026   3.953  17.607 -0.2932 -0.8695  0.5837
 6104SOL    HW229772   3.922   3.903  17.695 -0.5442  1.0338  1.0720
 6105SOL     OW29773   1.219   0.536   4.206  0.3126  0.0667 -0.2451
 6105SOL    HW129774   1.267   0.460   4.174 -0.3163 -1.1506  1.6573
 6105SOL    HW229775   1.262   0.611   4.166 -1.9388 -0.3589 -3.4357
 6106SOL     OW29776   1.903   4.062   1.187  0.3429 -0.4217  0.1285
 6106SOL    HW129777   1.817   4.096   1.210  0.8288  1.4877 -0.8689
 6106SOL    HW229778   1.912   3.995   1.254 -1.5787 -1.3738 -0.5848
 6107SOL     OW29779   1.547   3.292   5.380 -0.7491 -0.3227 -0.3690
 6107SOL    HW129780   1.554   3.205   5.419 -1.7611 -0.6484 -0.9097
 6107SOL    HW229781   1.529   3.268   5.289 -2.2115 -3.0667  0.6776
 6108SOL     OW29782   4.096   2.814  10.263  0.2853  0.4023  0.4730
 6108SOL    HW129783   4.170   2.852  10.310  0.0471  1.6476 -0.1670
 6108SOL    HW229784   4.074   2.746  10.327  2.9531 -1.7989 -0.9364
 6109SOL     OW29785   4.506   4.468  16.127 -0.0319 -0.3571 -0.4765
 6109SOL    HW129786   4.501   4.376  16.100  0.6557 -0.4092 -0.4300
 6109SOL    HW229787   4.597   4.473  16.156  0.8608 -0.7604 -3.2475
 6110SOL     OW29788   3.618   3.003  14.734  0.1229 -0.5968 -0.4147
 6110SOL    HW129789   3.673   2.953  14.794  1.4065 -0.0069 -1.0955
 6110SOL    HW229790   3.657   3.088  14.755  1.0025 -0.3930 -2.9189
 6111SOL     OW29791   0.891   0.915   3.824  0.0423  0.5533 -0.2174
 6111SOL    HW129792   0.878   0.882   3.735 -2.1000 -2.7673  1.3352
 6111SOL    HW229793   0.954   0.846   3.845 -0.2130  0.0711 -1.0434
 6112SOL     OW29794   3.023   3.178   8.931 -0.1138  0.0024 -0.3136
 6112SOL    HW129795   2.979   3.130   9.000 -0.2489  0.2189 -0.2467
 6112SOL    HW229796   3.112   3.152   8.953 -0.9005 -2.0045  0.4530
 6113SOL     OW29797   3.288   1.034  13.709  0.5340  0.1719  0.5554
 6113SOL    HW129798   3.372   1.077  13.726  0.5388  0.2502  0.3268
 6113SOL    HW229799   3.308   1.005  13.620  0.2210  1.9103 -0.0731
 6114SOL     OW29800   4.400   1.215  14.864 -0.4010 -0.2314  1.3329
 6114SOL    HW129801   4.324   1.164  14.890  0.4049 -1.9446  0.3865
 6114SOL    HW229802   4.466   1.175  14.920  0.3864 -0.8914 -0.0409
 6115SOL     OW29803   1.152   4.273  10.287  0.3310  0.2602  0.4852
 6115SOL    HW129804   1.078   4.256  10.346 -1.1418 -0.3777 -1.5543
 6115SOL    HW229805   1.124   4.220  10.213  0.1172 -0.4131  1.0489
 6116SOL     OW29806   1.092   0.933   4.464 -0.3866 -0.4220 -0.2181
 6116SOL    HW129807   1.041   0.943   4.383 -1.2428  0.6457  0.4562
 6116SOL    HW229808   1.085   0.838   4.474 -0.3762 -0.2397  1.4707
 6117SOL     OW29809   0.662   4.347  17.242 -0.6487 -0.2378 -0.3459
 6117SOL    HW129810   0.726   4.290  17.284 -0.9707 -0.7313 -0.5300
 6117SOL    HW229811   0.590   4.285  17.231 -0.7220 -0.0772 -0.7934
 6118SOL     OW29812   1.236   2.318   6.845 -0.2011 -0.9472  0.6182
 6118SOL    HW129813   1.233   2.320   6.749 -0.5367  0.9580  0.6743
 6118SOL    HW229814   1.147   2.290   6.865 -0.7400 -0.2110 -0.7601
 6119SOL     OW29815   3.802   3.751   6.158 -0.2347  1.1129  0.5062
 6119SOL    HW129816   3.812   3.757   6.063 -0.2685  0.4926  0.4620
 6119SOL    HW229817   3.873   3.808   6.188  0.5393 -0.0863  0.9726
 6120SOL     OW29818   0.077   3.436   8.109 -0.1500  0.2704  0.1152
 6120SOL    HW129819   0.013   3.367   8.124 -1.5516  1.0106 -2.4536
 6120SOL    HW229820   0.159   3.386   8.108 -0.9592 -0.9261 -3.6952
 6121SOL     OW29821   1.941   2.163   8.172  0.6775 -0.2153  0.2761
 6121SOL    HW129822   2.025   2.139   8.133  0.8668  1.4484 -0.3221
 6121SOL    HW229823   1.953   2.255   8.195 -0.0766  0.6621 -2.8165
 6122SOL     OW29824   4.340   2.628   2.359  0.2069 -0.0001 -0.6204
 6122SOL    HW129825   4.412   2.591   2.306 -0.1978 -0.1389 -1.0740
 6122SOL    HW229826   4.264   2.594   2.312  1.3046  0.8864 -3.0445
 6123SOL     OW29827   2.753   1.669   6.728  0.5644 -0.4421 -0.1374
 6123SOL    HW129828   2.728   1.729   6.659 -0.7638  1.5776  2.1055
 6123SOL    HW229829   2.835   1.626   6.705 -0.3819 -1.1181 -2.2479
 6124SOL     OW29830   4.405   3.735   3.503  0.0800  0.1493 -0.7895
 6124SOL    HW129831   4.450   3.760   3.422  0.8022 -3.4382 -1.5168
 6124SOL    HW229832   4.379   3.823   3.529 -1.9501 -1.0439  1.2188
 6125SOL     OW29833   3.234   2.829   4.378  0.8535  0.5423 -0.2816
 6125SOL    HW129834   3.153   2.781   4.361 -1.2846  4.0995 -0.0901
 6125SOL    HW229835   3.202   2.912   4.342 -1.0922 -0.7315 -1.4965
 6126SOL     OW29836   1.121   2.236   3.549 -0.4960 -0.0851 -0.3673
 6126SOL    HW129837   1.055   2.242   3.618 -1.1064 -6.3863 -0.3770
 6126SOL    HW229838   1.103   2.320   3.507  1.9935 -0.8305 -2.8937
 6127SOL     OW29839   3.875   4.358   9.929 -0.3960  0.2478 -0.0055
 6127SOL    HW129840   3.938   4.321   9.991  0.6726 -1.1620 -1.9355
 6127SOL    HW229841   3.873   4.445   9.967  1.8159  0.3665 -0.1261
 6128SOL     OW29842   1.333   4.685  10.957 -0.1329 -0.7172 -0.3878
 6128SOL    HW129843   1.396   0.030  10.969  0.4331 -0.9052 -2.2603
 6128SOL    HW229844   1.379   4.607  10.987  0.1731 -0.7587 -0.9759
 6129SOL     OW29845   4.568   2.177   4.918  0.1352 -0.6976  0.5927
 6129SOL    HW129846   4.612   2.235   4.980 -0.1398 -1.2258  1.2972
 6129SOL    HW229847   4.635   2.160   4.852 -1.2945 -0.2746 -0.9631
 6130SOL     OW29848   2.953   0.283  12.272 -0.5031  0.2260 -0.3483
 6130SOL    HW129849   2.889   0.220  12.238  0.2715 -1.4134  1.1633
 6130SOL    HW229850   3.039   0.245  12.253 -2.1778 -2.7772 -1.9208
 6131SOL     OW29851   3.425   2.247   0.094 -0.3421  0.2726  0.8794
 6131SOL    HW129852   3.403   2.159   0.125 -0.6873 -0.7006 -2.1051
 6131SOL    HW229853   3.491   2.273   0.159  1.4940 -0.8528 -0.5610
 6132SOL     OW29854   0.305   3.729   8.826 -0.0310  0.2385 -0.1753
 6132SOL    HW129855   0.290   3.808   8.877 -0.0087  0.1941 -0.0984
 6132SOL    HW229856   0.224   3.679   8.816 -0.6512  1.4550 -1.2805
 6133SOL     OW29857   0.178   2.993  16.971 -0.1647  0.6193 -0.3423
 6133SOL    HW129858   0.209   3.026  17.055 -1.6750  1.1048  0.0163
 6133SOL    HW229859   0.094   2.957  16.997  0.1006 -0.1141 -0.5177
 6134SOL     OW29860   1.840   0.197  10.229 -0.0278 -0.1162  0.0946
 6134SOL    HW129861   1.770   0.261  10.234 -0.5847 -0.5161 -2.7243
 6134SOL    HW229862   1.805   0.140  10.160 -0.3862 -1.4804  1.4038
 6135SOL     OW29863   0.405   3.635   1.584  0.0314  0.5310  0.2778
 6135SOL    HW129864   0.397   3.728   1.606 -2.5559  0.4263 -0.2403
 6135SOL    HW229865   0.500   3.622   1.587  0.2174  1.6202 -0.8386
 6136SOL     OW29866   4.236   0.133   9.056  0.3457 -0.0502 -0.7556
 6136SOL    HW129867   4.185   0.064   9.098 -1.9783  0.3947 -2.8023
 6136SOL    HW229868   4.164   0.174   9.007 -0.1439 -0.2110 -0.1640
 6137SOL     OW29869   3.786   3.750   5.870 -0.1867 -0.0477  0.7914
 6137SOL    HW129870   3.800   3.660   5.840 -0.9214 -0.1196  0.6635
 6137SOL    HW229871   3.694   3.763   5.847  0.7997  0.6457 -2.8030
 6138SOL     OW29872   1.145   2.562   5.201  0.1056 -0.3730  0.5729
 6138SOL    HW129873   1.091   2.609   5.138 -0.1849 -0.3374  0.8448
 6138SOL    HW229874   1.179   2.489   5.150  1.5997  0.5829  0.2102
 6139SOL     OW29875   4.540   1.820   6.131 -0.0637  0.3427  0.5597
 6139SOL    HW129876   4.629   1.807   6.164 -0.2333 -0.0607  0.8514
 6139SOL    HW229877   4.514   1.730   6.111  2.8892 -0.5814  0.8734
 6140SOL     OW29878   1.850   4.482   9.543  0.8657 -0.3999 -0.2701
 6140SOL    HW129879   1.849   4.397   9.587 -1.1510 -1.5075 -2.4630
 6140SOL    HW229880   1.826   4.454   9.455 -0.3410  0.8149 -0.3240
 6141SOL     OW29881   2.818   0.496   0.482  0.2889 -0.2180 -0.1785
 6141SOL    HW129882   2.727   0.481   0.506 -1.0607  2.8948 -3.4129
 6141SOL    HW229883   2.832   0.583   0.518 -1.3649 -0.5274  1.1870
 6142SOL     OW29884   1.281   4.359   9.170  0.1403 -0.1857  0.1697
 6142SOL    HW129885   1.252   4.433   9.117  1.7866  1.6021  1.7675
 6142SOL    HW229886   1.194   4.337   9.205  0.2403 -1.0759 -0.1320
 6143SOL     OW29887   1.035   1.495   8.243  0.5384  0.1647  0.3347
 6143SOL    HW129888   1.118   1.523   8.204  0.8230  0.7381  1.3783
 6143SOL    HW229889   1.013   1.573   8.294 -1.1028 -0.1186  0.0898
 6144SOL     OW29890   0.168   3.277   3.525 -0.1556  0.0432  0.4377
 6144SOL    HW129891   0.195   3.317   3.442 -1.8323 -0.6801 -0.4480
 6144SOL    HW229892   0.073   3.281   3.513 -0.0470 -1.0745 -0.8098
 6145SOL     OW29893   0.595   2.862   7.428  0.6763  0.1284  0.0298
 6145SOL    HW129894   0.548   2.944   7.415 -1.2221 -1.0111 -0.2968
 6145SOL    HW229895   0.652   2.863   7.351  0.5614  1.3384 -0.0412
 6146SOL     OW29896   1.566   4.518   2.263 -0.7612  0.2442 -0.4965
 6146SOL    HW129897   1.585   4.470   2.183 -0.3664 -0.6139  0.1209
 6146SOL    HW229898   1.485   4.473   2.285 -1.3384  0.4800 -2.1047
 6147SOL     OW29899   2.043   2.402   1.101  0.2471  0.1556  0.1214
 6147SOL    HW129900   2.007   2.321   1.138  0.8915 -0.0066  0.4028
 6147SOL    HW229901   1.963   2.454   1.104 -0.0915 -0.4683  1.9281
 6148SOL     OW29902   1.205   0.430   9.343  0.0119 -0.3379 -0.1237
 6148SOL    HW129903   1.199   0.511   9.393  2.8552  0.1825 -0.6223
 6148SOL    HW229904   1.301   0.434   9.338 -0.1174  3.3842  0.8353
 6149SOL     OW29905   2.130   2.855   5.490 -0.0058  0.5017 -0.9492
 6149SOL    HW129906   2.170   2.855   5.577  0.0514  0.0028 -0.9784
 6149SOL    HW229907   2.159   2.769   5.459  2.3072  0.8887  0.2070
 6150SOL     OW29908   4.720   2.899   8.536  0.2217  0.0527  0.5889
 6150SOL    HW129909   4.709   2.934   8.447  3.1832  0.2774  0.3221
 6150SOL    HW229910   4.663   2.958   8.584 -0.4196 -0.5378  0.5582
 6151SOL     OW29911   1.230   4.425   3.428 -0.3966 -0.7321 -0.5335
 6151SOL    HW129912   1.306   4.460   3.475  0.1618 -1.8803 -0.5779
 6151SOL    HW229913   1.212   4.364   3.499  0.6083  0.7840  1.0285
 6152SOL     OW29914   0.759   4.465   8.102 -0.9248  0.4805 -0.7083
 6152SOL    HW129915   0.740   4.480   8.195 -0.4092 -0.4525 -0.4453
 6152SOL    HW229916   0.681   4.509   8.069 -0.3001  1.6606 -0.6043
 6153SOL     OW29917   4.298   0.307  16.468  0.1616 -0.1373  0.4266
 6153SOL    HW129918   4.204   0.294  16.456  0.1526 -0.1325  0.4889
 6153SOL    HW229919   4.297   0.385  16.524 -1.2550 -0.7526  1.2736
 6154SOL     OW29920   3.738   2.809   5.626 -0.3644 -0.0907 -0.0985
 6154SOL    HW129921   3.808   2.809   5.560 -1.0644 -1.4844 -0.8414
 6154SOL    HW229922   3.669   2.762   5.580  1.5348 -1.7382 -1.2779
 6155SOL     OW29923   2.070   3.145   7.731 -0.3272 -0.5964  0.0407
 6155SOL    HW129924   2.009   3.075   7.758  1.3627 -2.0753  0.0290
 6155SOL    HW229925   2.042   3.206   7.800  0.4060 -0.3801  0.1433
 6156SOL     OW29926   2.443   4.131  14.911 -0.0253  0.0076 -0.3900
 6156SOL    HW129927   2.408   4.058  14.963  1.8290 -0.9906 -0.5615
 6156SOL    HW229928   2.371   4.190  14.887  0.6327  1.4542  1.1734
 6157SOL     OW29929   4.088   1.358   8.829  0.1843  0.5519 -0.0588
 6157SOL    HW129930   4.004   1.321   8.856  0.4224  0.0453 -0.0212
 6157SOL    HW229931   4.137   1.360   8.911  0.0180  0.6155  0.0402
 6158SOL     OW29932   1.089   1.399  10.583 -0.2590  0.5933  0.3988
 6158SOL    HW129933   1.168   1.417  10.633 -0.8751  2.2446  0.7879
 6158SOL    HW229934   1.110   1.435  10.497  0.2151  0.1114  0.3189
 6159SOL     OW29935   0.671   3.661   1.629 -0.4529  0.1708  0.4066
 6159SOL    HW129936   0.757   3.696   1.651 -0.3054 -0.6939  1.2042
 6159SOL    HW229937   0.687   3.623   1.543 -1.2607 -1.5561  1.0123
 6160SOL     OW29938   1.882   2.700   1.331 -0.0027 -0.7845 -0.2561
 6160SOL    HW129939   1.907   2.728   1.243  0.4527  0.7041  0.3412
 6160SOL    HW229940   1.940   2.743   1.394 -1.2336  2.6803 -1.4938
 6161SOL     OW29941   3.329   4.701   8.770  0.5544  0.0140 -0.3440
 6161SOL    HW129942   3.375   0.036   8.827 -1.9879 -0.0748  1.8339
 6161SOL    HW229943   3.277   4.654   8.836 -1.1609 -0.5829 -2.1073
 6162SOL     OW29944   0.321   3.091   2.239  0.4372  0.6168  0.1523
 6162SOL    HW129945   0.300   3.150   2.166 -1.8973 -1.7771 -1.0992
 6162SOL    HW229946   0.292   3.010   2.198  2.2703  0.6137 -1.1150
 6163SOL     OW29947   1.651   2.501   3.470 -0.4588  0.3130 -0.3267
 6163SOL    HW129948   1.647   2.520   3.376 -0.4610 -1.4693 -0.6992
 6163SOL    HW229949   1.711   2.426   3.461  0.9393  1.3897  0.0822
 6164SOL     OW29950   0.569   2.773  15.590  0.2279 -0.0255  0.3312
 6164SOL    HW129951   0.511   2.764  15.666 -0.2293  1.1913  0.1231
 6164SOL    HW229952   0.511   2.812  15.525  2.8281  0.0191 -1.9345
 6165SOL     OW29953   1.232   0.511   5.665 -0.1652  0.5252 -0.3963
 6165SOL    HW129954   1.296   0.575   5.635 -0.6831  1.8517  1.3870
 6165SOL    HW229955   1.153   0.564   5.652 -0.4504 -0.1929 -1.6445
 6166SOL     OW29956   0.744   3.055   6.966 -0.5556  0.0568  0.4762
 6166SOL    HW129957   0.763   3.149   6.964 -0.5289  0.0441  0.2164
 6166SOL    HW229958   0.724   3.027   6.877 -0.6161  1.6925 -0.0129
 6167SOL     OW29959   3.731   1.334   5.484 -0.2115  0.0012  0.3171
 6167SOL    HW129960   3.770   1.266   5.539  2.2177  1.7321  0.7419
 6167SOL    HW229961   3.801   1.394   5.459 -0.4262 -0.4217 -1.2995
 6168SOL     OW29962   4.449   1.660   3.570  0.1530  0.5812  0.2649
 6168SOL    HW129963   4.406   1.729   3.520  1.5336  0.2061 -1.4117
 6168SOL    HW229964   4.539   1.690   3.585  0.1022  1.1669 -0.5871
 6169SOL     OW29965   1.152   4.237   9.976 -0.7455 -0.2912 -0.3644
 6169SOL    HW129966   1.157   4.151  10.018 -1.9628 -0.7423 -1.1588
 6169SOL    HW229967   1.234   4.241   9.927 -2.3000 -0.0589 -2.9233
 6170SOL     OW29968   2.579   2.419  12.703  0.5661 -0.7112 -0.5586
 6170SOL    HW129969   2.616   2.360  12.637 -0.3831 -0.1187 -1.6227
 6170SOL    HW229970   2.508   2.469  12.664  0.6437  0.0017  0.2006
 6171SOL     OW29971   1.661   4.448   0.633 -0.4740  0.0721 -0.2045
 6171SOL    HW129972   1.730   4.496   0.589  0.5599 -0.1772  1.1215
 6171SOL    HW229973   1.647   4.494   0.716  0.1842 -0.0857 -0.0063
 6172SOL     OW29974   3.243   3.185  16.535 -0.3590 -0.3402  0.8851
 6172SOL    HW129975   3.333   3.217  16.537 -0.3402 -0.2397 -1.6859
 6172SOL    HW229976   3.202   3.260  16.491 -0.4409  0.8928  3.0269
 6173SOL     OW29977   3.032   0.316   7.311 -0.5470 -0.3411 -0.2393
 6173SOL    HW129978   3.087   0.312   7.233  1.0787 -1.3631  0.9495
 6173SOL    HW229979   2.960   0.372   7.282  0.3473 -0.1882 -2.1490
 6174SOL     OW29980   2.938   2.235   8.338  0.0621  0.4851 -0.1148
 6174SOL    HW129981   2.926   2.326   8.309  0.8263 -0.0055 -2.0019
 6174SOL    HW229982   2.947   2.246   8.432  2.3894 -0.4070 -0.2318
 6175SOL     OW29983   3.698   1.271   4.313 -0.2669  0.6170 -0.6821
 6175SOL    HW129984   3.733   1.318   4.237  0.1789  0.7731 -0.3749
 6175SOL    HW229985   3.622   1.326   4.331  0.7988  1.1502  2.0365
 6176SOL     OW29986   3.447   2.307  15.369  0.4303  0.2236 -0.1986
 6176SOL    HW129987   3.409   2.373  15.312  1.7738  1.8009  0.7192
 6176SOL    HW229988   3.377   2.242  15.363  3.1557 -2.6563 -1.0610
 6177SOL     OW29989   0.437   3.064   0.219 -0.1180 -0.0540  0.9450
 6177SOL    HW129990   0.527   3.031   0.222  0.4433  1.2246 -1.4506
 6177SOL    HW229991   0.386   2.983   0.215  0.3722 -0.3811  1.2238
 6178SOL     OW29992   3.700   2.520   7.633  0.4314  0.0190  0.4601
 6178SOL    HW129993   3.787   2.560   7.629 -0.3381  1.4869 -1.6819
 6178SOL    HW229994   3.669   2.544   7.721 -0.8985  0.9977 -0.2694
 6179SOL     OW29995   0.313   2.503   6.116  0.0040 -0.1290  0.0301
 6179SOL    HW129996   0.391   2.550   6.146  0.3210 -2.1196  2.3368
 6179SOL    HW229997   0.327   2.412   6.141 -1.8503 -1.1215 -2.5001
 6180SOL     OW29998   0.751   3.570  15.031  0.2822 -0.3634 -0.2281
 6180SOL    HW129999   0.725   3.544  15.120 -3.4191 -2.4549 -1.9153
 6180SOL    HW230000   0.682   3.636  15.033 -0.4111 -1.0347 -2.6732
 6181SOL     OW30001   0.986   4.170  10.483 -0.2003  0.0933 -0.2331
 6181SOL    HW130002   0.944   4.172  10.570 -0.6588 -0.2075 -0.4464
 6181SOL    HW230003   1.035   4.089  10.495  1.5642  1.1788 -0.0818
 6182SOL     OW30004   0.898   3.716   0.904  0.2588  0.4631  0.6747
 6182SOL    HW130005   0.868   3.786   0.846  1.1557  1.0062  0.8737
 6182SOL    HW230006   0.907   3.772   0.980 -1.9550  0.5591  0.8769
 6183SOL     OW30007   3.516   2.758   7.300 -0.0045 -0.4023  0.0844
 6183SOL    HW130008   3.519   2.817   7.226  0.3667 -1.6441 -0.8966
 6183SOL    HW230009   3.579   2.687   7.284  0.2776  0.2363 -1.6059
 6184SOL     OW30010   4.226   0.946   2.895  0.0199  0.0407 -0.0658
 6184SOL    HW130011   4.297   0.946   2.831  1.0890 -1.7725  1.1450
 6184SOL    HW230012   4.219   1.041   2.902 -2.3631 -0.1986  0.7460
 6185SOL     OW30013   2.927   1.019  13.002 -0.2594 -0.3356  0.0202
 6185SOL    HW130014   2.928   0.924  13.018  0.6774 -0.5404 -1.2862
 6185SOL    HW230015   2.956   1.055  13.086 -0.4212  0.5817 -0.3193
 6186SOL     OW30016   3.880   1.406   1.865 -0.2802 -0.1930  0.2299
 6186SOL    HW130017   3.807   1.349   1.886 -0.5804  0.5700  1.2609
 6186SOL    HW230018   3.877   1.430   1.773 -1.9650 -2.8862 -0.4072
 6187SOL     OW30019   2.948   3.573   2.878 -0.0222  0.1980  0.1942
 6187SOL    HW130020   2.972   3.603   2.790  1.4451 -0.3039  0.4135
 6187SOL    HW230021   2.921   3.483   2.859 -0.1399  0.4790 -1.0101
 6188SOL     OW30022   2.742   0.522   8.671 -0.2213  0.2217  0.5570
 6188SOL    HW130023   2.737   0.438   8.716 -1.1453  0.1983  0.4117
 6188SOL    HW230024   2.811   0.563   8.722 -0.8948  1.3260  0.5814
 6189SOL     OW30025   2.199   2.522   3.025  0.2895  0.3842  0.1294
 6189SOL    HW130026   2.183   2.464   2.951  2.0637  0.0042  0.0235
 6189SOL    HW230027   2.157   2.605   3.004  1.1243  0.1886 -2.2792
 6190SOL     OW30028   0.591   4.017   5.453  0.3972  0.4217 -0.3914
 6190SOL    HW130029   0.661   3.967   5.495  1.0824  0.3652 -1.5902
 6190SOL    HW230030   0.625   4.023   5.364  0.6513 -0.6255 -0.3710
 6191SOL     OW30031   0.952   0.016   5.994  0.5176  0.0414  0.2908
 6191SOL    HW130032   0.889   4.683   6.035 -1.4866  1.8847 -0.1272
 6191SOL    HW230033   1.036   4.705   6.020 -0.2686 -0.3702  2.2715
 6192SOL     OW30034   2.884   3.180  10.605  0.1032  0.5293  0.5561
 6192SOL    HW130035   2.928   3.101  10.636  0.8207  1.5348  2.0979
 6192SOL    HW230036   2.888   3.166  10.511 -3.0723  1.9010  0.2191
 6193SOL     OW30037   3.893   3.466   5.411  0.2070  0.3659  0.6581
 6193SOL    HW130038   3.928   3.381   5.438  1.6239  0.5157 -0.7364
 6193SOL    HW230039   3.801   3.457   5.436  0.0124  0.6132  0.0379
 6194SOL     OW30040   1.822   0.479   6.956 -0.2350 -0.3021 -0.2660
 6194SOL    HW130041   1.859   0.566   6.943  0.2500 -0.6066 -0.9248
 6194SOL    HW230042   1.867   0.423   6.893 -0.3969 -3.3534  2.3174
 6195SOL     OW30043   1.084   2.696   6.736  0.2510 -0.0796  0.3899
 6195SOL    HW130044   1.006   2.744   6.708  0.2652 -0.5311 -0.4471
 6195SOL    HW230045   1.103   2.652   6.653 -1.1558 -1.4028  0.7722
 6196SOL     OW30046   0.837   4.512  12.277 -0.1573  0.1937  0.5926
 6196SOL    HW130047   0.742   4.525  12.268 -0.0585  0.2960 -0.3078
 6196SOL    HW230048   0.834   4.546  12.367 -1.0389  1.7158 -0.0149
 6197SOL     OW30049   3.002   2.370  15.930  0.1360 -0.1315  0.3868
 6197SOL    HW130050   3.077   2.428  15.921  0.4450 -0.5115  0.5494
 6197SOL    HW230051   2.971   2.394  15.842  1.0379 -1.3082 -0.2412
 6198SOL     OW30052   3.114   0.149  15.564  0.5012 -0.1858 -0.4303
 6198SOL    HW130053   3.190   0.207  15.558  0.2845 -0.0942 -2.5668
 6198SOL    HW230054   3.043   0.210  15.586  1.2999  0.3371  0.6474
 6199SOL     OW30055   1.242   2.312   2.318  0.2770  0.1752  0.3653
 6199SOL    HW130056   1.268   2.282   2.231  0.7245 -0.1759  0.6144
 6199SOL    HW230057   1.294   2.392   2.304  1.9967 -0.9702  0.2305
 6200SOL     OW30058   3.403   0.894  11.446 -0.4441  0.0445 -0.4259
 6200SOL    HW130059   3.374   0.804  11.459  0.2816 -0.1031  0.1807
 6200SOL    HW230060   3.485   0.893  11.496 -1.0285  1.3627  0.5621
 6201SOL     OW30061   3.162   0.518  16.612  0.0050 -0.1817  0.6088
 6201SOL    HW130062   3.173   0.466  16.691 -0.3827  0.3044  0.9836
 6201SOL    HW230063   3.175   0.609  16.638 -3.6612  0.3715  0.5381
 6202SOL     OW30064   2.555   1.113   1.577 -0.3310  0.8538  0.0488
 6202SOL    HW130065   2.622   1.082   1.516 -0.5654 -0.3765  0.4199
 6202SOL    HW230066   2.615   1.154   1.640 -0.8853  2.2507 -0.3203
 6203SOL     OW30067   2.140   0.165   4.677  0.2435  0.4447 -0.0814
 6203SOL    HW130068   2.130   0.235   4.742 -0.4026 -1.3002  1.7051
 6203SOL    HW230069   2.214   0.115   4.714 -0.8600 -0.2440  1.1867
 6204SOL     OW30070   4.185   0.406   1.903 -0.0335  0.0313 -0.3338
 6204SOL    HW130071   4.099   0.401   1.946  2.1297 -1.9918  3.7498
 6204SOL    HW230072   4.231   0.326   1.929  0.1440 -0.3927 -1.9422
 6205SOL     OW30073   0.713   3.326   0.400 -0.7942  0.0842 -0.1411
 6205SOL    HW130074   0.624   3.292   0.411 -0.0638 -1.4889  0.9771
 6205SOL    HW230075   0.740   3.263   0.333 -0.0690  1.1739 -0.8526
 6206SOL     OW30076   4.285   0.123   5.742  0.0014  0.4072 -0.3536
 6206SOL    HW130077   4.233   0.044   5.728  1.7142 -0.8519  0.3569
 6206SOL    HW230078   4.229   0.183   5.792  0.6567  0.9196 -0.2246
 6207SOL     OW30079   4.285   2.847   8.462  0.5393 -0.2249  0.3741
 6207SOL    HW130080   4.284   2.796   8.543  1.3618 -1.8888 -0.6637
 6207SOL    HW230081   4.267   2.935   8.496 -1.9408 -0.1972 -1.0500
 6208SOL     OW30082   3.632   1.423   8.817 -0.3986 -0.3950 -0.5059
 6208SOL    HW130083   3.611   1.332   8.797  1.0575 -0.4052 -1.9974
 6208SOL    HW230084   3.614   1.422   8.911 -0.6430 -3.3570 -0.5796
 6209SOL     OW30085   1.134   0.468   2.004  0.3422  0.3024  0.2902
 6209SOL    HW130086   1.069   0.399   1.986  0.0050  0.8863 -0.7403
 6209SOL    HW230087   1.076   0.538   2.034 -1.4450 -1.0938  0.0701
 6210SOL     OW30088   0.184   1.981   4.018  0.0527 -0.6150  0.6052
 6210SOL    HW130089   0.211   1.987   4.110 -1.3014 -0.0263  0.9570
 6210SOL    HW230090   0.162   1.888   4.009 -0.6848 -0.6682  3.0604
 6211SOL     OW30091   0.017   4.663   5.620  0.0470 -0.5159  0.0772
 6211SOL    HW130092   0.001   0.028   5.597 -2.1427 -1.0320 -0.4817
 6211SOL    HW230093   0.042   4.662   5.712  0.9993 -2.7118 -0.2027
 6212SOL     OW30094   2.404   2.163   2.641  0.8321 -0.0928  1.1520
 6212SOL    HW130095   2.320   2.126   2.613  0.8398  0.8898 -0.1960
 6212SOL    HW230096   2.377   2.253   2.655  1.2697  0.2432 -0.1912
 6213SOL     OW30097   2.098   0.490   2.835  0.7420 -0.6969  0.0113
 6213SOL    HW130098   2.150   0.531   2.767 -1.4285  1.0851 -0.5492
 6213SOL    HW230099   2.010   0.507   2.802  1.3119  0.6361 -0.8032
 6214SOL     OW30100   2.058   4.520   8.350 -0.0839  0.4365  0.3696
 6214SOL    HW130101   2.023   4.502   8.438 -0.0028 -1.0906  0.0896
 6214SOL    HW230102   2.075   4.611   8.374  0.9003  0.8557 -1.9096
 6215SOL     OW30103   2.372   0.802  13.357 -0.0702  0.2877  0.3439
 6215SOL    HW130104   2.411   0.848  13.432  2.4388 -2.4283  0.7253
 6215SOL    HW230105   2.446   0.743  13.345  1.1181  1.8148  0.1201
 6216SOL     OW30106   4.659   3.187   3.270 -0.4488 -0.0605 -0.4986
 6216SOL    HW130107   4.663   3.110   3.328  0.8261  1.1105  0.9866
 6216SOL    HW230108   4.586   3.167   3.212  1.1433  0.1669 -2.5944
 6217SOL     OW30109   3.291   0.587  16.093  0.3844 -0.4143 -0.2240
 6217SOL    HW130110   3.200   0.591  16.123  0.3383 -2.0705 -0.1063
 6217SOL    HW230111   3.333   0.640  16.160 -0.0285 -1.9296  1.2562
 6218SOL     OW30112   2.189   0.748   1.068 -0.0980  0.2524 -0.3282
 6218SOL    HW130113   2.214   0.774   0.980  0.6704  0.9487  0.1040
 6218SOL    HW230114   2.111   0.696   1.049  0.3669 -0.1939 -0.9948
 6219SOL     OW30115   1.537   0.506   3.867 -0.0470  0.2053  0.3793
 6219SOL    HW130116   1.597   0.456   3.922 -0.8294  1.2369  2.1812
 6219SOL    HW230117   1.583   0.506   3.783 -2.6761 -1.3300 -1.0712
 6220SOL     OW30118   1.527   0.077   1.903  0.2721 -0.0665 -0.2437
 6220SOL    HW130119   1.442   0.086   1.945  0.6261 -1.6421  0.7686
 6220SOL    HW230120   1.506   0.109   1.815 -0.6472 -1.1652 -0.4203
 6221SOL     OW30121   2.751   0.936   6.172 -0.7235 -0.2109  0.4634
 6221SOL    HW130122   2.778   0.984   6.250 -0.6319 -0.2359  0.4476
 6221SOL    HW230123   2.684   0.872   6.195 -0.8835 -0.3686 -0.4427
 6222SOL     OW30124   4.497   3.885   6.590 -0.1589 -0.5038  0.2610
 6222SOL    HW130125   4.416   3.840   6.611 -0.2202  0.0854  1.3249
 6222SOL    HW230126   4.544   3.816   6.543  2.4016  1.5821 -0.2443
 6223SOL     OW30127   1.767   3.593  15.854  0.1445 -0.3908 -0.4257
 6223SOL    HW130128   1.739   3.506  15.882  0.2440 -0.1373  0.4674
 6223SOL    HW230129   1.746   3.647  15.930  0.5603  1.3779 -1.5905
 6224SOL     OW30130   2.934   2.134   5.026 -0.0017  0.5545 -0.0182
 6224SOL    HW130131   2.882   2.128   4.946 -0.0416 -1.1274  0.1202
 6224SOL    HW230132   2.867   2.164   5.086 -0.9242 -0.2223 -0.6598
 6225SOL     OW30133   2.697   2.956   7.121  0.1747 -0.8232  0.2305
 6225SOL    HW130134   2.704   3.035   7.173  0.2320  0.9118 -2.4061
 6225SOL    HW230135   2.782   2.956   7.077 -0.0559 -3.9724 -0.2196
 6226SOL     OW30136   4.369   3.185   7.318 -0.4201  0.0642 -0.3047
 6226SOL    HW130137   4.374   3.236   7.237 -0.2760  0.2952 -0.1513
 6226SOL    HW230138   4.318   3.111   7.286  1.9454 -1.2301 -1.0576
 6227SOL     OW30139   2.423   4.623  13.344  0.3086 -0.0286 -0.7489
 6227SOL    HW130140   2.473   4.658  13.417  1.8429 -2.1613 -0.7883
 6227SOL    HW230141   2.482   4.653  13.276  1.2706  0.2888  0.2359
 6228SOL     OW30142   0.080   0.595   2.691  0.1742  0.2555 -0.2971
 6228SOL    HW130143   0.018   0.523   2.698  1.2117 -0.4724  1.3879
 6228SOL    HW230144   0.023   0.649   2.635 -0.1464  0.2222 -0.0018
 6229SOL     OW30145   1.936   2.123   3.283  0.2804  0.8595  0.9528
 6229SOL    HW130146   1.893   2.048   3.324 -0.6819 -0.3446 -2.2903
 6229SOL    HW230147   2.011   2.077   3.247  0.4927  0.7024  1.5971
 6230SOL     OW30148   3.991   0.110   6.255  0.1825 -0.5458  0.4356
 6230SOL    HW130149   4.054   0.079   6.320  3.8749 -1.8659 -3.7264
 6230SOL    HW230150   4.027   0.067   6.177 -0.3005 -1.9325  0.9799
 6231SOL     OW30151   3.394   2.072  11.818 -0.6206  0.0897 -0.2921
 6231SOL    HW130152   3.339   1.995  11.801  2.2524 -2.1686  0.7533
 6231SOL    HW230153   3.418   2.054  11.908 -0.1441 -0.4567 -0.5315
 6232SOL     OW30154   2.480   1.191   7.007 -0.0324 -0.2676  0.0001
 6232SOL    HW130155   2.560   1.241   7.021 -0.1217  0.3222 -1.5858
 6232SOL    HW230156   2.483   1.133   7.083  0.7048 -0.8398 -0.4743
 6233SOL     OW30157   4.226   0.081   6.909  0.8140 -0.2103 -0.2393
 6233SOL    HW130158   4.299   0.079   6.971  0.7259  0.0370 -0.1229
 6233SOL    HW230159   4.269   0.130   6.839  0.4383  0.5206  0.0376
 6234SOL     OW30160   3.782   0.261   4.070 -0.9062  0.6620 -0.1143
 6234SOL    HW130161   3.749   0.348   4.045  0.5504  0.4365 -2.7299
 6234SOL    HW230162   3.699   0.213   4.079 -0.7193  0.5585  1.0056
 6235SOL     OW30163   2.546   4.477  15.250  0.3429  0.6224  0.0698
 6235SOL    HW130164   2.596   4.405  15.288 -1.1104 -0.1309  0.5562
 6235SOL    HW230165   2.456   4.448  15.266  1.1946 -1.2488  1.4096
 6236SOL     OW30166   0.214   2.823   4.383 -0.6877 -0.3967  0.3664
 6236SOL    HW130167   0.205   2.918   4.385 -0.5986 -0.3897  0.4892
 6236SOL    HW230168   0.252   2.803   4.298 -1.4946  2.4394 -0.6615
 6237SOL     OW30169   3.961   1.522   6.103 -0.4493 -0.6722 -0.8831
 6237SOL    HW130170   4.025   1.461   6.067 -0.9902 -0.9005 -1.4475
 6237SOL    HW230171   3.885   1.470   6.127 -0.5476 -0.4183 -0.6432
 6238SOL     OW30172   2.835   2.378   0.918 -0.6754 -0.5029  0.1159
 6238SOL    HW130173   2.799   2.433   0.848 -1.5328 -2.0070 -0.6243
 6238SOL    HW230174   2.753   2.366   0.967 -0.2283 -0.1257  0.9567
 6239SOL     OW30175   0.742   3.844   9.312  0.0952 -0.4357 -0.8228
 6239SOL    HW130176   0.794   3.835   9.392  0.1560 -1.6968 -1.0015
 6239SOL    HW230177   0.792   3.784   9.257  0.2122 -0.6628 -0.4698
 6240SOL     OW30178   1.707   3.535   3.506  0.4664  0.3948  0.1186
 6240SOL    HW130179   1.778   3.597   3.492 -0.2286  0.7705 -1.7746
 6240SOL    HW230180   1.671   3.558   3.592 -0.5038  1.3680 -0.5515
 6241SOL     OW30181   2.130   4.370   4.395  0.1160 -0.2279 -0.2391
 6241SOL    HW130182   2.074   4.307   4.349 -0.6083 -0.0769  0.4401
 6241SOL    HW230183   2.063   4.407   4.452 -0.3031 -1.1112 -0.1649
 6242SOL     OW30184   1.341   2.256   0.101  0.3543 -0.1569  0.4204
 6242SOL    HW130185   1.381   2.192   0.041  1.0844  1.5756 -0.9510
 6242SOL    HW230186   1.409   2.323   0.099  0.4232 -0.2406 -0.2020
 6243SOL     OW30187   0.099   1.323  10.638 -0.5034 -0.5241 -0.4856
 6243SOL    HW130188   0.077   1.416  10.629  0.4127 -0.3419 -0.7849
 6243SOL    HW230189   0.098   1.296  10.546 -0.6396  1.3789 -1.0426
 6244SOL     OW30190   2.767   0.475   2.269  0.2859  0.0113  0.3127
 6244SOL    HW130191   2.749   0.414   2.340 -0.5298 -0.0931  0.0218
 6244SOL    HW230192   2.810   0.415   2.208 -1.6841 -0.2153 -0.8694
 6245SOL     OW30193   4.297   0.881   8.573 -0.1077 -0.0314  0.5509
 6245SOL    HW130194   4.292   0.964   8.526 -0.3620 -0.4271 -0.1152
 6245SOL    HW230195   4.232   0.835   8.520  0.0184  2.0363 -1.4137
 6246SOL     OW30196   0.598   4.509   6.303 -0.4020 -0.0143 -0.4399
 6246SOL    HW130197   0.519   4.543   6.260 -0.5424  0.9606  0.5919
 6246SOL    HW230198   0.561   4.431   6.345 -0.2371  0.6948  1.0021
 6247SOL     OW30199   3.623   1.619   7.495 -0.1650  0.2499  0.3704
 6247SOL    HW130200   3.632   1.575   7.411  0.2440  1.3269 -0.1511
 6247SOL    HW230201   3.693   1.684   7.488 -1.3380  1.6378  1.5212
 6248SOL     OW30202   4.078   3.826   8.697  0.8053 -0.7584 -0.1603
 6248SOL    HW130203   4.078   3.917   8.668  1.2626 -0.6716  0.1198
 6248SOL    HW230204   4.042   3.836   8.785 -1.2905  0.4369 -1.1467
 6249SOL     OW30205   2.533   2.559   6.353  0.0993 -0.1159  0.0400
 6249SOL    HW130206   2.497   2.573   6.266  1.9299  0.9045 -0.5610
 6249SOL    HW230207   2.546   2.642   6.399  0.0822 -0.4935  0.7392
 6250SOL     OW30208   0.012   4.516   8.217 -0.3906 -0.0255 -0.7810
 6250SOL    HW130209   0.040   4.428   8.191  0.0558 -0.0851 -0.0966
 6250SOL    HW230210   4.687   4.500   8.296 -3.2063 -0.5152 -2.7152
 6251SOL     OW30211   2.906   3.079   4.973 -0.3056  0.0851  0.7021
 6251SOL    HW130212   2.937   3.054   4.886  1.4539  1.0880  1.0596
 6251SOL    HW230213   2.992   3.095   5.010  0.6516  0.4844 -1.6825
 6252SOL     OW30214   4.013   2.448  17.369  0.0987 -0.3182 -0.0156
 6252SOL    HW130215   3.925   2.455  17.407  0.4189  0.8706  0.5037
 6252SOL    HW230216   4.073   2.460  17.442 -0.6572 -0.3297  0.6103
 6253SOL     OW30217   1.975   1.974  11.078  0.4521  0.0749  0.3779
 6253SOL    HW130218   1.893   2.006  11.114  1.2752  0.7846  1.6461
 6253SOL    HW230219   2.031   2.048  11.099  2.8119 -1.8950  1.1493
 6254SOL     OW30220   3.932   0.962   9.602 -0.5579  0.1556  0.0606
 6254SOL    HW130221   3.989   0.888   9.580  0.1522 -0.5745  4.1971
 6254SOL    HW230222   3.863   0.927   9.658 -1.0360  1.8602  0.5398
 6255SOL     OW30223   0.798   2.128   4.947  0.0479  0.8617  0.2673
 6255SOL    HW130224   0.756   2.132   5.033 -0.9769 -0.3566 -0.1719
 6255SOL    HW230225   0.794   2.034   4.933  2.7830  0.6635  0.7334
 6256SOL     OW30226   0.160   3.556   7.843 -0.6565  0.2135 -0.1710
 6256SOL    HW130227   0.229   3.490   7.849  0.4558  1.3371 -0.6601
 6256SOL    HW230228   0.105   3.537   7.919  0.4405 -0.1970  0.5174
 6257SOL     OW30229   0.244   0.699  15.216 -0.4652 -0.3912  0.0751
 6257SOL    HW130230   0.227   0.787  15.250  0.5942 -0.1221 -0.0935
 6257SOL    HW230231   0.279   0.728  15.132  0.4852 -0.7304  0.3579
 6258SOL     OW30232   4.240   1.210   8.659 -0.0615  0.0955 -0.1046
 6258SOL    HW130233   4.205   1.200   8.571  0.6046 -0.2883 -0.3242
 6258SOL    HW230234   4.169   1.254   8.706  1.9211  1.7049  1.4467
 6259SOL     OW30235   2.287   0.221   2.405  0.0263 -0.1257  0.0709
 6259SOL    HW130236   2.370   0.201   2.450  0.3023  0.4389 -0.1801
 6259SOL    HW230237   2.310   0.275   2.329  0.3469 -1.1461 -0.5477
 6260SOL     OW30238   3.421   2.177   4.040  0.0114  0.4483 -0.0629
 6260SOL    HW130239   3.486   2.201   4.106 -0.3110  2.4492 -0.4676
 6260SOL    HW230240   3.481   2.166   3.966 -0.9087 -0.1334 -0.7196
 6261SOL     OW30241   0.343   0.156   5.567 -0.4585 -0.4889 -0.0631
 6261SOL    HW130242   0.422   0.102   5.566 -0.3186 -0.2587 -2.8173
 6261SOL    HW230243   0.340   0.183   5.659 -0.2352 -0.0421 -0.1890
 6262SOL     OW30244   1.036   1.867   6.511 -0.1214 -0.2595 -0.5134
 6262SOL    HW130245   1.100   1.898   6.575 -1.8346  0.4610  0.8348
 6262SOL    HW230246   0.979   1.942   6.494  1.2702  0.8544 -0.2055
 6263SOL     OW30247   2.132   4.348   2.694 -0.5769  0.7897  0.0757
 6263SOL    HW130248   2.084   4.363   2.612  0.6854  1.7712 -0.4949
 6263SOL    HW230249   2.140   4.254   2.713  2.2235  1.7589  3.5770
 6264SOL     OW30250   0.091   1.581   5.910  0.0983 -0.2171  0.6727
 6264SOL    HW130251   0.175   1.545   5.941 -0.1461  0.4586  2.1402
 6264SOL    HW230252   0.033   1.563   5.984 -3.6605  2.0336 -1.7964
 6265SOL     OW30253   2.904   4.507   8.636  0.4425 -0.0626  0.4525
 6265SOL    HW130254   2.860   4.583   8.673  0.6153 -0.2924  1.1270
 6265SOL    HW230255   2.968   4.535   8.570 -1.5401 -0.4966 -1.6602
 6266SOL     OW30256   3.613   3.383  17.353  0.7008  0.0836 -0.2032
 6266SOL    HW130257   3.595   3.476  17.365  0.3944  0.2119 -1.6325
 6266SOL    HW230258   3.622   3.386  17.257 -0.9207  1.6223 -0.2943
 6267SOL     OW30259   1.486   0.183  11.100 -0.1883  0.3322  0.2359
 6267SOL    HW130260   1.506   0.124  11.172  0.8145  1.2330  0.6908
 6267SOL    HW230261   1.516   0.265  11.139 -0.9534  1.6571 -1.9414
 6268SOL     OW30262   3.989   3.450  17.376  0.0188 -0.1863  0.4158
 6268SOL    HW130263   3.923   3.505  17.336 -0.0115  0.1872  0.9803
 6268SOL    HW230264   3.937   3.382  17.419 -2.8672  1.7717 -0.0033
 6269SOL     OW30265   3.182   0.953   4.270  0.4467 -0.5142  0.1820
 6269SOL    HW130266   3.241   0.914   4.335  1.9045 -0.6661 -1.2601
 6269SOL    HW230267   3.119   0.992   4.331  1.1691  1.4166 -0.3184
 6270SOL     OW30268   1.975   2.000   3.730 -0.0171 -0.5332  0.0979
 6270SOL    HW130269   2.018   2.084   3.713  2.7410 -1.8571  0.6536
 6270SOL    HW230270   1.911   2.017   3.800 -1.0940  2.7646 -1.6450
 6271SOL     OW30271   1.687   1.276   1.398 -0.1450 -0.1767  0.0218
 6271SOL    HW130272   1.703   1.359   1.352  0.5740 -0.7202 -0.7023
 6271SOL    HW230273   1.759   1.282   1.460 -0.0172  0.7689 -0.2160
 6272SOL     OW30274   0.134   1.111   0.197  0.0871 -0.2639 -0.1212
 6272SOL    HW130275   0.174   1.195   0.220  0.3472 -0.9434  1.9507
 6272SOL    HW230276   0.044   1.144   0.200  0.7819  1.5555  0.7784
 6273SOL     OW30277   3.373   4.584   4.872 -0.5085  0.5047  0.0087
 6273SOL    HW130278   3.385   4.508   4.815 -5.4687  0.0541 -0.4563
 6273SOL    HW230279   3.463   4.604   4.899 -0.4680  0.5008 -0.1259
 6274SOL     OW30280   4.594   1.318   5.823 -0.9308  0.2937  0.2445
 6274SOL    HW130281   4.624   1.397   5.778  0.3199 -0.5821 -0.4369
 6274SOL    HW230282   4.677   1.278   5.848 -1.9196 -1.3382  0.9016
 6275SOL     OW30283   4.242   3.975   6.842 -0.3927  0.0419 -0.9115
 6275SOL    HW130284   4.269   3.890   6.806  2.2383  0.9126 -1.0289
 6275SOL    HW230285   4.314   4.030   6.813  0.1568  0.2677  0.8325
 6276SOL     OW30286   3.471   3.697   0.340 -0.8182 -0.0620 -0.9651
 6276SOL    HW130287   3.454   3.613   0.382 -0.4293  0.0738 -0.5338
 6276SOL    HW230288   3.510   3.661   0.260 -2.2917  1.1035 -2.2078
 6277SOL     OW30289   2.834   1.920   5.330  0.2576  0.0630 -0.2089
 6277SOL    HW130290   2.881   1.877   5.258  0.5887 -0.6803  0.4471
 6277SOL    HW230291   2.771   1.854   5.359 -0.8897  0.1090 -2.5990
 6278SOL     OW30292   2.857   0.908   7.226 -0.2041 -0.1722  0.6451
 6278SOL    HW130293   2.771   0.866   7.225 -0.8080  1.0518  0.2041
 6278SOL    HW230294   2.922   0.840   7.243  1.4105  1.9496  3.0064
 6279SOL     OW30295   3.141   1.873   8.429 -0.0391 -0.2841 -0.1883
 6279SOL    HW130296   3.074   1.833   8.373  0.3006  0.7762 -1.3514
 6279SOL    HW230297   3.203   1.902   8.363 -0.6410 -1.7107 -1.3772
 6280SOL     OW30298   3.227   3.577  13.810  0.3672 -0.3601 -0.3346
 6280SOL    HW130299   3.199   3.533  13.890  0.1645 -2.8845 -1.7880
 6280SOL    HW230300   3.215   3.666  13.842 -2.7729 -0.8704 -0.1337
 6281SOL     OW30301   4.555   3.141   6.761 -0.9208  0.8552  0.3226
 6281SOL    HW130302   4.567   3.046   6.752 -0.1603  1.0203 -0.4225
 6281SOL    HW230303   4.460   3.141   6.754 -1.0161  1.8608  1.7359
 6282SOL     OW30304   0.120   0.755   7.695 -0.7215 -0.1186 -0.5798
 6282SOL    HW130305   0.056   0.686   7.682 -0.9072 -0.4050  1.8328
 6282SOL    HW230306   0.158   0.759   7.607 -3.3422  0.2903 -1.6854
 6283SOL     OW30307   3.472   4.208  12.211 -0.6262  0.6575  0.5017
 6283SOL    HW130308   3.381   4.234  12.198 -1.4165 -1.8922  0.9813
 6283SOL    HW230309   3.520   4.263  12.149 -2.1696  0.8060 -0.5536
 6284SOL     OW30310   2.975   0.697   5.859 -0.0556  0.2962  0.0449
 6284SOL    HW130311   2.962   0.609   5.894 -2.7040  0.2678 -0.9672
 6284SOL    HW230312   3.068   0.710   5.878  0.1044 -0.1346 -0.4265
 6285SOL     OW30313   4.012   2.062   0.502 -0.1662  0.0052  0.2103
 6285SOL    HW130314   4.090   2.011   0.520 -0.7858 -0.3572  1.8480
 6285SOL    HW230315   3.940   2.012   0.539 -1.7096 -0.3468 -3.2455
 6286SOL     OW30316   0.546   1.306  13.400  0.3825  0.0323  0.3055
 6286SOL    HW130317   0.639   1.309  13.379  0.3045 -1.9346 -0.3268
 6286SOL    HW230318   0.536   1.397  13.374 -1.8850  0.2113  1.8092
 6287SOL     OW30319   1.430   1.371  17.684 -0.3066  0.4290  0.0757
 6287SOL    HW130320   1.425   1.465  17.664  0.6891 -0.1713 -3.0472
 6287SOL    HW230321   1.349   1.357   0.026 -0.0009  1.0689  0.7838
 6288SOL     OW30322   0.651   0.216   3.867 -0.6021 -0.2248 -0.1529
 6288SOL    HW130323   0.738   0.176   3.866  0.3472  1.7900  2.3962
 6288SOL    HW230324   0.663   0.304   3.903 -0.9220 -1.2040  2.3281
 6289SOL     OW30325   4.072   0.271  16.677 -0.1273  0.0240  0.5227
 6289SOL    HW130326   4.137   0.341  16.686 -1.1104  1.2802 -1.9918
 6289SOL    HW230327   3.994   0.308  16.717 -0.3307  0.4448 -0.2754
 6290SOL     OW30328   4.658   4.020  10.901 -0.5606  0.2237 -0.2791
 6290SOL    HW130329   4.651   4.103  10.949  1.1868  0.7695 -0.9865
 6290SOL    HW230330   4.713   4.045  10.827  1.4537 -1.1272  0.7952
 6291SOL     OW30331   4.251   4.475   2.514 -0.2231 -0.2749 -0.2681
 6291SOL    HW130332   4.161   4.457   2.487 -0.0428  1.2563 -1.8746
 6291SOL    HW230333   4.306   4.402   2.487 -0.2519  0.1595 -1.5127
 6292SOL     OW30334   2.314   1.311  14.667 -0.7462  0.0557 -0.3339
 6292SOL    HW130335   2.395   1.300  14.717 -0.4300  2.0755 -0.4230
 6292SOL    HW230336   2.338   1.395  14.628  0.1491 -0.1638 -0.2487
 6293SOL     OW30337   0.044   0.009   7.566  0.1132  0.0958  0.1511
 6293SOL    HW130338   4.720   4.691   7.634  1.2366 -3.8257 -1.5796
 6293SOL    HW230339   0.051   0.092   7.612 -1.8339  0.9270 -1.0335
 6294SOL     OW30340   3.827   2.277   9.492  0.2879 -0.1841 -0.6339
 6294SOL    HW130341   3.872   2.360   9.504  0.7548 -0.3854 -1.0127
 6294SOL    HW230342   3.734   2.289   9.513  0.4677 -1.1671  0.7330
 6295SOL     OW30343   3.495   0.458   2.632 -0.1885 -0.0970 -0.5737
 6295SOL    HW130344   3.559   0.395   2.665 -0.5355 -1.0030 -1.6341
 6295SOL    HW230345   3.452   0.394   2.575 -0.6579  0.3543 -0.7265
 6296SOL     OW30346   4.260   0.461  16.706  0.5029  0.2982 -0.1775
 6296SOL    HW130347   4.224   0.546  16.733  0.0098  0.2903 -0.8071
 6296SOL    HW230348   4.326   0.440  16.772 -1.2265  0.9279  1.7511
 6297SOL     OW30349   4.334   1.254   1.618 -0.1981  0.4582  0.0717
 6297SOL    HW130350   4.273   1.272   1.546 -1.4312 -2.5640  0.3512
 6297SOL    HW230351   4.280   1.270   1.695 -1.0839  2.6218 -0.9973
 6298SOL     OW30352   1.733   1.649   7.176  0.2029  0.4196  0.2761
 6298SOL    HW130353   1.638   1.647   7.192  0.0211  1.4640 -0.6552
 6298SOL    HW230354   1.769   1.668   7.263  1.3403 -0.6097  0.0118
 6299SOL     OW30355   1.272   0.852   5.345 -0.1770  0.2149 -0.3386
 6299SOL    HW130356   1.232   0.768   5.366  2.1844  0.1389  4.0406
 6299SOL    HW230357   1.229   0.877   5.263 -1.3867  0.7106  0.4436
 6300SOL     OW30358   1.262   4.579  14.971 -0.8070  0.3029  0.2625
 6300SOL    HW130359   1.266   4.512  14.903  2.7344  2.4396 -1.6155
 6300SOL    HW230360   1.355   4.594  14.988 -0.4418  0.7034 -2.0452
 6301SOL     OW30361   1.095   2.822  11.294  0.3290  0.8652 -0.4194
 6301SOL    HW130362   1.087   2.767  11.215 -1.4828 -1.4802  1.3959
 6301SOL    HW230363   1.010   2.817  11.337  0.3226  1.5960 -0.3530
 6302SOL     OW30364   1.572   4.327   5.728  0.3627  0.5857 -0.6605
 6302SOL    HW130365   1.571   4.417   5.695 -0.1727  0.4262 -1.0914
 6302SOL    HW230366   1.645   4.292   5.678  0.0557 -1.8883  0.6203
 6303SOL     OW30367   1.225   1.240  15.459  0.0500 -0.2658 -0.2460
 6303SOL    HW130368   1.283   1.165  15.448 -1.3117 -1.0798 -1.8639
 6303SOL    HW230369   1.209   1.255  15.366 -5.2038  2.7637  1.1027
 6304SOL     OW30370   1.425   4.685   5.727  0.0129 -0.0081  0.2310
 6304SOL    HW130371   1.484   0.019   5.773 -0.3180  1.8359 -1.7490
 6304SOL    HW230372   1.487   4.636   5.672 -1.7120 -1.8139 -0.1110
 6305SOL     OW30373   1.380   0.611  15.810  0.4107 -0.1523 -0.3397
 6305SOL    HW130374   1.404   0.521  15.833 -1.7847 -0.3303  1.2792
 6305SOL    HW230375   1.460   0.637  15.764  0.6590 -1.4942 -0.6826
 6306SOL     OW30376   3.300   4.031   4.729  1.3348 -0.1325 -0.2905
 6306SOL    HW130377   3.350   4.057   4.807 -1.6534  2.6986  0.6606
 6306SOL    HW230378   3.283   3.938   4.744  0.9608  0.0406  0.3306
 6307SOL     OW30379   4.078   1.885   8.908 -0.1562 -0.2861 -0.7332
 6307SOL    HW130380   4.170   1.871   8.885  0.0293 -1.1614  0.5899
 6307SOL    HW230381   4.078   1.887   9.003  2.9429  0.2774 -0.7575
 6308SOL     OW30382   1.609   0.810   1.078  0.6175  0.1718  0.3549
 6308SOL    HW130383   1.549   0.757   1.024  0.6309 -0.2228  0.7268
 6308SOL    HW230384   1.669   0.845   1.012  0.1778  1.4366  0.6381
 6309SOL     OW30385   0.424   0.715   7.948 -0.3743 -0.1109  0.1057
 6309SOL    HW130386   0.493   0.746   8.006 -0.8164 -0.1255  0.6392
 6309SOL    HW230387   0.432   0.621   7.967 -0.8665 -0.3847 -1.0486
 6310SOL     OW30388   2.174   4.485  12.824 -0.2676  0.9391  0.3913
 6310SOL    HW130389   2.152   4.566  12.870  0.0319  2.8339 -2.8129
 6310SOL    HW230390   2.267   4.480  12.844 -0.7502  0.4082  2.5627
 6311SOL     OW30391   0.163   1.992  17.634 -0.2990  0.2853 -0.7906
 6311SOL    HW130392   0.180   1.915  17.580 -1.1494  0.4486 -1.2801
 6311SOL    HW230393   0.168   1.960   0.018  1.7905 -0.0355 -1.0014
 6312SOL     OW30394   0.042   4.354   7.637  0.1351  0.0382 -0.9886
 6312SOL    HW130395   4.701   4.411   7.672  0.0399 -0.3419 -0.5490
 6312SOL    HW230396   0.046   4.272   7.686  0.3081 -1.3134 -3.2239
 6313SOL     OW30397   2.839   1.705   3.056  0.2716 -0.0833 -0.4589
 6313SOL    HW130398   2.876   1.705   2.968 -0.3625 -0.2729 -0.7217
 6313SOL    HW230399   2.760   1.759   3.047  0.3254  0.1051  0.2050
 6314SOL     OW30400   3.848   2.727   6.957 -0.5686 -0.4021  0.2155
 6314SOL    HW130401   3.755   2.720   6.934 -0.9961  0.5877  1.6058
 6314SOL    HW230402   3.902   2.651   6.936 -2.5433 -1.9086  0.5809
 6315SOL     OW30403   4.319   2.003   3.668  0.9088  0.2553 -0.4279
 6315SOL    HW130404   4.264   1.957   3.605  1.3206 -0.3407 -0.3409
 6315SOL    HW230405   4.324   2.082   3.614 -0.8319  0.6298 -0.0533
 6316SOL     OW30406   1.006   4.353   9.777  0.2071 -0.1713 -0.0742
 6316SOL    HW130407   1.041   4.321   9.694  1.2378  1.2177 -0.1664
 6316SOL    HW230408   1.058   4.303   9.840 -0.6018  0.2745  0.9574
 6317SOL     OW30409   0.697   2.867   7.149  0.2110  0.6674 -0.1719
 6317SOL    HW130410   0.733   2.940   7.100 -1.0428  0.7976 -0.8991
 6317SOL    HW230411   0.603   2.885   7.145 -0.3492 -1.8139  1.6742
 6318SOL     OW30412   1.189   1.776  14.691 -0.3031 -0.4153 -0.2500
 6318SOL    HW130413   1.105   1.810  14.660 -1.5516 -0.4254  3.1268
 6318SOL    HW230414   1.188   1.777  14.787  1.5067  1.3955 -0.2540
 6319SOL     OW30415   4.063   4.088   0.366  0.0558 -0.0587  0.1037
 6319SOL    HW130416   4.109   4.107   0.283 -1.1372  0.6745 -0.3897
 6319SOL    HW230417   4.068   4.177   0.400  0.2293  0.1895 -0.5572
 6320SOL     OW30418   0.412   0.473   0.305 -0.0416  0.1580 -0.3142
 6320SOL    HW130419   0.348   0.524   0.355 -0.7574 -0.6377 -0.4254
 6320SOL    HW230420   0.411   0.388   0.349  0.8386  0.2891 -0.0275
 6321SOL     OW30421   2.785   0.988  14.341  0.0065 -0.3941  0.2106
 6321SOL    HW130422   2.814   0.904  14.378  1.9399  0.0971 -0.1649
 6321SOL    HW230423   2.865   1.023  14.302  0.3506  0.9213  2.0864
 6322SOL     OW30424   1.070   3.858   5.304 -0.2307 -0.5190 -0.6277
 6322SOL    HW130425   1.041   3.824   5.219 -2.0568  0.4727 -0.4026
 6322SOL    HW230426   1.139   3.796   5.325  1.4285  1.9925  1.3079
 6323SOL     OW30427   0.344   0.230   6.661  0.3736  0.0971  0.0846
 6323SOL    HW130428   0.265   0.281   6.643  1.9309  2.5594  0.1946
 6323SOL    HW230429   0.332   0.144   6.621 -0.6625 -0.0686  0.7480
 6324SOL     OW30430   0.527   4.062   2.332 -0.3990  0.1467  0.6948
 6324SOL    HW130431   0.518   4.157   2.323 -0.5426 -0.1020 -1.8390
 6324SOL    HW230432   0.613   4.052   2.373  1.5845  3.2724 -2.7606
 6325SOL     OW30433   2.109   2.491   7.996 -0.4438  0.1716  0.3108
 6325SOL    HW130434   2.196   2.497   7.956 -0.6532 -0.3588 -0.2246
 6325SOL    HW230435   2.069   2.413   7.958  0.8051  0.4144 -1.4979
 6326SOL     OW30436   1.337   0.853  13.914 -0.5356  0.1105 -0.2777
 6326SOL    HW130437   1.312   0.869  14.005 -0.2467  1.5199 -0.4569
 6326SOL    HW230438   1.268   0.896  13.863 -1.4907 -0.6605  0.3638
 6327SOL     OW30439   0.576   0.009   9.799 -0.0375 -0.4053 -0.4063
 6327SOL    HW130440   0.650   4.688   9.837 -1.6805 -3.2258 -0.6846
 6327SOL    HW230441   0.513   0.020   9.871  1.3448 -2.2026  1.0572
 6328SOL     OW30442   0.091   4.386   1.718 -0.1917  0.1659  0.4563
 6328SOL    HW130443   0.073   4.480   1.710 -0.6989 -0.0029 -0.4422
 6328SOL    HW230444   0.142   4.373   1.638 -2.3781 -1.8667 -0.6079
 6329SOL     OW30445   3.814   1.615  11.139 -0.3023  0.1303 -0.5296
 6329SOL    HW130446   3.842   1.628  11.048 -0.1762 -0.0666 -0.5191
 6329SOL    HW230447   3.720   1.600  11.131 -0.3801  1.1446 -1.5111
 6330SOL     OW30448   1.267   2.456   6.567 -0.1951 -0.2115  0.1997
 6330SOL    HW130449   1.321   2.398   6.512  1.2700  2.3126 -1.0077
 6330SOL    HW230450   1.316   2.455   6.649  0.4621 -0.0087 -0.1930
 6331SOL     OW30451   4.034   4.306  12.627  0.0467  0.6390  0.0427
 6331SOL    HW130452   3.964   4.370  12.637 -3.2802 -2.6362 -2.3317
 6331SOL    HW230453   4.042   4.273  12.717 -2.0985  1.8106  0.6801
 6332SOL     OW30454   3.178   1.528   5.348  0.2677 -0.1755  0.1348
 6332SOL    HW130455   3.206   1.437   5.362 -0.0663 -0.5882 -1.8933
 6332SOL    HW230456   3.206   1.570   5.430  1.3258 -2.0094  0.7078
 6333SOL     OW30457   0.148   4.093   8.645 -0.2230  0.1263  0.3527
 6333SOL    HW130458   0.077   4.078   8.707 -0.2866  0.3285  0.3301
 6333SOL    HW230459   0.097   4.121   8.569  0.1190 -2.5148 -0.8342
 6334SOL     OW30460   2.589   0.391   0.577  0.0400 -0.1104  0.3330
 6334SOL    HW130461   2.536   0.318   0.544  1.1538 -0.5277 -0.5270
 6334SOL    HW230462   2.624   0.358   0.659 -0.5279 -1.2000  0.1395
 6335SOL     OW30463   0.064   1.671  15.232 -0.1979  0.3731  0.4650
 6335SOL    HW130464   4.721   1.680  15.166  0.1973  2.7564  0.3999
 6335SOL    HW230465   0.119   1.747  15.212  0.6114 -0.0817  0.9703
 6336SOL     OW30466   2.153   2.648  16.635  0.1721  0.0865 -0.4433
 6336SOL    HW130467   2.139   2.553  16.640 -0.0464  0.1112 -0.5869
 6336SOL    HW230468   2.094   2.673  16.564  2.3319 -0.6821 -2.4920
 6337SOL     OW30469   2.713   0.884   4.189  0.4883 -0.0617 -0.1233
 6337SOL    HW130470   2.758   0.865   4.272  0.3895 -0.4773 -0.1647
 6337SOL    HW230471   2.656   0.807   4.188 -1.1641  1.1712 -0.5818
 6338SOL     OW30472   3.980   2.394   4.995 -1.2216  0.2087 -0.7222
 6338SOL    HW130473   3.887   2.412   5.006 -1.0555  1.3728 -1.3095
 6338SOL    HW230474   4.016   2.425   5.078  0.1386  0.9843 -1.6091
 6339SOL     OW30475   1.826   1.077   2.762  0.5082  0.6462 -0.6120
 6339SOL    HW130476   1.885   1.043   2.694  1.6769  0.1445  0.6719
 6339SOL    HW230477   1.838   1.170   2.740 -1.0823  1.7012  2.9229
 6340SOL     OW30478   1.844   1.478   6.386 -0.1674 -0.3370  0.0827
 6340SOL    HW130479   1.877   1.536   6.318  1.8016  0.2253  1.4943
 6340SOL    HW230480   1.769   1.526   6.422 -1.0941 -2.3353  0.8212
 6341SOL     OW30481   3.452   4.506   6.075 -0.2083  0.1820  0.1248
 6341SOL    HW130482   3.526   4.445   6.077  0.6097  1.1452 -1.5030
 6341SOL    HW230483   3.429   4.502   6.168 -1.0669  0.7963 -0.0677
 6342SOL     OW30484   1.344   0.076   5.298 -0.5173  0.2265  0.0110
 6342SOL    HW130485   1.348   0.167   5.268 -1.3647  0.4063  0.4321
 6342SOL    HW230486   1.348   0.100   5.391  1.7969 -2.3512  0.5844
 6343SOL     OW30487   3.927   0.452  11.610  0.1402  0.2000  0.1222
 6343SOL    HW130488   3.895   0.366  11.584 -1.8876  0.7720  0.7190
 6343SOL    HW230489   3.982   0.457  11.532 -2.0884  0.5031 -1.4240
 6344SOL     OW30490   3.037   0.563   4.583 -0.3201 -0.0622  0.4111
 6344SOL    HW130491   3.001   0.509   4.654 -0.1989 -0.4847  0.1510
 6344SOL    HW230492   3.061   0.503   4.512  0.5014 -0.3236  0.9007
 6345SOL     OW30493   0.538   2.121  16.506 -0.4925  0.1922 -0.0700
 6345SOL    HW130494   0.601   2.089  16.441 -0.0370 -0.4602  0.6876
 6345SOL    HW230495   0.467   2.058  16.490 -0.2500 -0.6324  2.0880
 6346SOL     OW30496   0.193   1.831   4.888 -0.3583 -0.2376 -0.2649
 6346SOL    HW130497   0.179   1.762   4.822 -0.8825 -0.8588  0.4873
 6346SOL    HW230498   0.154   1.782   4.960 -0.7196  0.3423 -0.0736
 6347SOL     OW30499   3.230   1.235   5.353  0.1298  0.1692 -0.2092
 6347SOL    HW130500   3.244   1.150   5.312 -0.3006 -0.1301  0.2683
 6347SOL    HW230501   3.306   1.248   5.410 -0.4212 -0.4942  0.6820
 6348SOL     OW30502   2.280   0.887   4.130 -0.1712 -0.4157 -0.2365
 6348SOL    HW130503   2.251   0.910   4.219 -1.0238 -1.2053 -0.3099
 6348SOL    HW230504   2.212   0.932   4.080  2.4156  3.0780 -0.6306
 6349SOL     OW30505   1.308   3.910  16.458 -0.1832 -0.0127  0.3931
 6349SOL    HW130506   1.291   3.993  16.414 -1.3295 -0.2928  0.3075
 6349SOL    HW230507   1.315   3.943  16.548  0.1664  2.3020 -0.5043
 6350SOL     OW30508   1.904   3.085   2.263 -0.3412  0.0310  0.2125
 6350SOL    HW130509   1.861   3.169   2.281 -1.1775 -0.8526  2.3569
 6350SOL    HW230510   1.835   3.031   2.224 -1.8998  1.2666  1.1967
 6351SOL     OW30511   4.214   4.007   7.863 -0.1668 -0.1092  0.2285
 6351SOL    HW130512   4.122   4.023   7.881 -0.5234  1.0946 -2.6587
 6351SOL    HW230513   4.212   3.984   7.770  1.5418  0.1625  0.1218
 6352SOL     OW30514   1.233   1.104   4.877 -0.2035  0.1143  0.0537
 6352SOL    HW130515   1.259   1.091   4.786 -0.8539  0.9276 -0.2504
 6352SOL    HW230516   1.302   1.166   4.899  0.0732  0.3560 -1.4818
 6353SOL     OW30517   1.093   1.204   2.100 -0.2991 -0.2265  0.3414
 6353SOL    HW130518   1.043   1.286   2.097  0.5738  0.2161 -2.8613
 6353SOL    HW230519   1.177   1.219   2.057 -0.7912 -2.9203 -1.6136
 6354SOL     OW30520   1.010   3.252   0.887 -0.2782 -0.2887  0.2406
 6354SOL    HW130521   0.953   3.323   0.859  1.6463  1.1533 -0.0174
 6354SOL    HW230522   0.974   3.174   0.844  0.9424 -0.2232 -0.8970
 6355SOL     OW30523   2.606   1.684   0.575 -0.3821  0.3100  0.0644
 6355SOL    HW130524   2.573   1.602   0.613  2.6228 -1.5461 -1.3203
 6355SOL    HW230525   2.602   1.660   0.482 -0.1981  0.2457  0.0740
 6356SOL     OW30526   3.332   1.728   5.216 -0.4388  0.0946  0.0999
 6356SOL    HW130527   3.291   1.651   5.254 -0.2246  0.1198  0.3796
 6356SOL    HW230528   3.381   1.694   5.141 -2.6966  0.0576 -1.3482
 6357SOL     OW30529   3.069   2.609   6.252  0.1748 -0.1830 -0.4643
 6357SOL    HW130530   3.073   2.567   6.338  2.6923 -1.1109 -1.0396
 6357SOL    HW230531   3.015   2.544   6.207 -0.9050 -0.1257  0.7381
 6358SOL     OW30532   3.017   1.596   8.334 -0.1439 -0.4801  0.1325
 6358SOL    HW130533   2.964   1.520   8.358 -0.6404 -0.4326 -0.8212
 6358SOL    HW230534   3.026   1.631   8.422  1.2981  0.9034 -0.5603
 6359SOL     OW30535   0.140   0.600   2.950  0.0358  0.1064  0.3123
 6359SOL    HW130536   0.115   0.692   2.947 -0.8651 -0.0974  1.8017
 6359SOL    HW230537   0.136   0.584   2.856 -1.6642  1.7808  0.1134
 6360SOL     OW30538   3.057   4.246   4.022 -0.3744 -0.3861  0.7864
 6360SOL    HW130539   3.007   4.181   4.072 -0.4653  1.0365  2.5635
 6360SOL    HW230540   2.996   4.318   4.007  0.2309  0.2477  1.3290
 6361SOL     OW30541   1.002   1.231  13.178 -0.2895 -0.2320  0.2879
 6361SOL    HW130542   1.076   1.269  13.224  1.1193 -0.4434 -1.7799
 6361SOL    HW230543   1.036   1.165  13.117  0.5840  2.3796 -2.0756
 6362SOL     OW30544   2.440   0.264   0.882  0.0040 -0.0925  0.6307
 6362SOL    HW130545   2.478   0.179   0.860  1.4853  1.0959 -1.3766
 6362SOL    HW230546   2.472   0.272   0.971 -1.2422  0.4108  1.0371
 6363SOL     OW30547   0.804   3.257   1.391  0.2722  0.2411  0.2026
 6363SOL    HW130548   0.869   3.231   1.326 -0.4886  0.8316 -0.7838
 6363SOL    HW230549   0.853   3.288   1.468 -0.6221 -0.2487  0.9680
 6364SOL     OW30550   1.794   1.857   6.492  0.7257  0.7538 -0.7306
 6364SOL    HW130551   1.865   1.851   6.429  1.1507 -0.6476 -0.1299
 6364SOL    HW230552   1.759   1.946   6.483 -1.3327  0.1655  1.4099
 6365SOL     OW30553   3.203   0.486   8.313 -0.4316  0.8041  0.3073
 6365SOL    HW130554   3.297   0.490   8.296 -0.3994  1.0884  0.5515
 6365SOL    HW230555   3.185   0.563   8.260  2.1979  1.6724  0.7016
 6366SOL     OW30556   0.972   3.548   6.096 -0.0959  0.5473 -0.2075
 6366SOL    HW130557   0.881   3.552   6.125  0.7854  1.9974  2.3218
 6366SOL    HW230558   1.007   3.624   6.143 -1.7383  2.0783 -1.4693
 6367SOL     OW30559   3.483   3.249  16.034 -0.4810  0.3395 -0.2598
 6367SOL    HW130560   3.479   3.343  16.019  0.3069  0.3860 -0.1701
 6367SOL    HW230561   3.489   3.245  16.130  0.9182  0.9894 -0.3335
 6368SOL     OW30562   3.757   2.814   7.881 -0.0990 -0.1299 -0.0186
 6368SOL    HW130563   3.696   2.741   7.871  0.0111 -0.1485 -0.5894
 6368SOL    HW230564   3.719   2.857   7.957  0.8818 -0.8031  0.8697
 6369SOL     OW30565   2.812   0.961   1.889 -0.2065 -0.1449  0.3075
 6369SOL    HW130566   2.897   0.927   1.860 -1.0641 -1.8623 -0.2010
 6369SOL    HW230567   2.752   0.896   1.854  1.9747 -2.3976  0.7372
 6370SOL     OW30568   3.066   4.080   8.857 -0.2102 -0.5170  0.3422
 6370SOL    HW130569   3.153   4.043   8.874 -0.6296 -0.3274  2.9014
 6370SOL    HW230570   3.065   4.059   8.764 -1.6194 -0.9814  0.4593
 6371SOL     OW30571   0.395   2.660   6.909  0.2612 -0.5870  0.1000
 6371SOL    HW130572   0.439   2.660   6.994 -1.9543  2.0909  1.2433
 6371SOL    HW230573   0.379   2.752   6.887 -0.7982 -0.9707 -0.7670
 6372SOL     OW30574   3.649   2.748   3.685  0.3411 -0.5880 -0.2467
 6372SOL    HW130575   3.560   2.747   3.722 -0.0219 -0.3078 -1.1091
 6372SOL    HW230576   3.675   2.836   3.713  0.7140 -0.5017 -0.8856
 6373SOL     OW30577   2.525   2.068   7.280  0.4149  0.3303  0.3662
 6373SOL    HW130578   2.576   2.132   7.329  0.4365  0.5580  0.0475
 6373SOL    HW230579   2.439   2.110   7.277  0.1495 -0.2527 -0.2866
 6374SOL     OW30580   4.602   0.282   4.509 -0.3205  0.5949 -0.6853
 6374SOL    HW130581   4.566   0.292   4.597  0.5589  1.3994 -0.4146
 6374SOL    HW230582   4.519   0.269   4.463  0.5385 -1.4363 -1.6633
 6375SOL     OW30583   1.727   4.053  16.545  0.4051 -0.1033  0.0492
 6375SOL    HW130584   1.804   4.109  16.543  0.5124 -0.3397 -2.3533
 6375SOL    HW230585   1.669   4.107  16.599  1.4933 -0.6884  1.8027
 6376SOL     OW30586   4.047   2.685   6.530 -0.2832 -0.1126 -0.3162
 6376SOL    HW130587   4.010   2.669   6.617 -0.7200  0.3726 -0.4082
 6376SOL    HW230588   4.038   2.602   6.484  2.9993 -0.5577 -0.1109
 6377SOL     OW30589   2.189   3.265   5.998  0.1167 -0.1225  0.4011
 6377SOL    HW130590   2.096   3.287   6.003 -0.6273 -2.5375 -3.3985
 6377SOL    HW230591   2.231   3.341   5.958  0.9706  0.2735  2.0366
 6378SOL     OW30592   0.811   2.073  12.173  0.0822 -0.2411 -1.0760
 6378SOL    HW130593   0.738   2.012  12.164 -0.2836 -0.0780  0.6858
 6378SOL    HW230594   0.811   2.098  12.266 -4.8555 -1.0650 -0.8582
 6379SOL     OW30595   3.751   2.229   9.826 -0.5138 -0.3756 -0.4251
 6379SOL    HW130596   3.684   2.273   9.773 -0.5277 -0.5833 -0.5810
 6379SOL    HW230597   3.818   2.201   9.763  0.1506  1.9379 -0.7331
 6380SOL     OW30598   0.024   1.440   7.869 -0.2002 -0.4021 -0.1471
 6380SOL    HW130599   4.703   1.478   7.796  0.3064  1.6147  0.5867
 6380SOL    HW230600   4.681   1.402   7.924  0.7187  1.3744  2.2815
 6381SOL     OW30601   4.681   1.091   8.798 -0.1505  0.0654  0.5447
 6381SOL    HW130602   0.031   1.147   8.785 -0.2528  0.4300  1.5075
 6381SOL    HW230603   4.610   1.155   8.805 -0.4768 -0.3895  1.3441
 6382SOL     OW30604   0.808   4.219   3.250  0.0489 -0.1267  0.1921
 6382SOL    HW130605   0.887   4.271   3.265 -1.0922  1.8082 -0.4991
 6382SOL    HW230606   0.840   4.129   3.244 -1.3197 -0.6370  0.5641
 6383SOL     OW30607   0.154   2.084  15.705  0.1415  0.7185 -0.4646
 6383SOL    HW130608   0.235   2.041  15.679 -0.5561 -0.2459 -1.0333
 6383SOL    HW230609   0.135   2.036  15.786  0.1004  1.0696 -0.2638
 6384SOL     OW30610   4.350   2.656   6.727 -0.1652  0.1743  0.2752
 6384SOL    HW130611   4.324   2.736   6.773 -0.4274  0.6425 -0.6871
 6384SOL    HW230612   4.324   2.680   6.638  1.8018  0.2602 -0.2698
 6385SOL     OW30613   1.688   0.928   5.297  0.4369 -0.4048 -0.7108
 6385SOL    HW130614   1.740   0.848   5.308  1.1540  0.0990 -0.5065
 6385SOL    HW230615   1.746   1.003   5.284 -1.8085  1.3130 -0.7844
 6386SOL     OW30616   1.183   4.114   0.692 -0.3496 -1.0442 -0.2432
 6386SOL    HW130617   1.142   4.154   0.769 -2.3528 -0.2364 -1.7429
 6386SOL    HW230618   1.199   4.184   0.628  1.0418 -0.5819  0.6058
 6387SOL     OW30619   3.182   3.241   4.692  0.1982  0.1489  0.2174
 6387SOL    HW130620   3.233   3.313   4.654 -0.8415  0.9063  0.2601
 6387SOL    HW230621   3.172   3.273   4.782 -0.3398 -0.1808  0.2730
 6388SOL     OW30622   4.118   4.206   3.118  0.0560  0.0189  0.3329
 6388SOL    HW130623   4.037   4.193   3.068  0.6829  0.3359 -0.7473
 6388SOL    HW230624   4.113   4.134   3.182 -2.4847  0.4763  0.6518
 6389SOL     OW30625   3.184   1.054   0.633 -0.1246 -0.2940  0.5679
 6389SOL    HW130626   3.121   1.109   0.586  0.5096  0.9077  1.1501
 6389SOL    HW230627   3.223   1.114   0.696  2.4254 -1.6793  0.3136
 6390SOL     OW30628   0.247   3.052   2.969 -0.3641  0.9037 -1.0210
 6390SOL    HW130629   0.231   3.006   2.886  1.9520 -2.4130  0.3589
 6390SOL    HW230630   0.185   3.124   2.960  0.2203  1.5337  0.0711
 6391SOL     OW30631   0.209   1.190   5.402 -0.2009  0.4789 -0.2680
 6391SOL    HW130632   0.283   1.235   5.443 -0.2102  0.0571  0.2186
 6391SOL    HW230633   0.147   1.171   5.473  1.5685 -3.2000  0.3256
 6392SOL     OW30634   2.706   0.596   1.781 -0.3291 -0.1113 -0.0798
 6392SOL    HW130635   2.730   0.515   1.735  2.0185  0.4012  0.2566
 6392SOL    HW230636   2.705   0.569   1.872 -2.4291 -2.6048 -0.8291
 6393SOL     OW30637   3.777   4.470   2.280 -0.0969  0.1958 -0.9389
 6393SOL    HW130638   3.818   4.430   2.357  1.3090  4.7416  0.6780
 6393SOL    HW230639   3.722   4.399   2.246 -2.9259  1.3671  1.1897
 6394SOL     OW30640   4.071   1.950   9.190  0.3305  0.4226 -0.1724
 6394SOL    HW130641   3.999   1.960   9.252  0.5849 -0.1439  0.2066
 6394SOL    HW230642   4.101   2.041   9.183  1.6299  0.0576  0.7021
 6395SOL     OW30643   3.329   3.817  12.168 -0.4892 -0.1733 -0.5494
 6395SOL    HW130644   3.255   3.758  12.183  0.5271 -1.2695  0.1721
 6395SOL    HW230645   3.403   3.758  12.182 -1.4051 -1.2483 -0.1931
 6396SOL     OW30646   4.723   3.259   4.963  0.1792 -0.4504  0.1242
 6396SOL    HW130647   4.668   3.246   4.886 -0.9213  1.7129  0.5517
 6396SOL    HW230648   4.664   3.227   5.032 -0.4391 -2.3103 -1.2624
 6397SOL     OW30649   2.474   1.252   5.129  0.2090 -0.1718 -0.1279
 6397SOL    HW130650   2.550   1.303   5.157  1.7290 -2.0956 -0.7074
 6397SOL    HW230651   2.428   1.322   5.083  0.9223 -0.2670 -0.9946
 6398SOL     OW30652   4.148   0.944   6.282 -0.4937  0.4924  0.6454
 6398SOL    HW130653   4.118   0.881   6.347 -1.0211  0.4895  0.4019
 6398SOL    HW230654   4.227   0.897   6.256  0.1293  3.1700 -2.3650
 6399SOL     OW30655   0.205   3.154  15.496 -0.0789 -0.2820 -0.0465
 6399SOL    HW130656   0.176   3.240  15.467  2.2171  0.8109  0.8482
 6399SOL    HW230657   0.248   3.178  15.579  0.3143 -1.3334  0.0618
 6400SOL     OW30658   2.794   2.680   4.403  0.1428 -0.4671 -0.1783
 6400SOL    HW130659   2.810   2.748   4.470 -1.0862  0.6328 -0.9822
 6400SOL    HW230660   2.701   2.657   4.405  0.4742 -1.8624 -1.0812
 6401SOL     OW30661   0.865   2.654   3.621 -0.0789 -0.3834  0.5606
 6401SOL    HW130662   0.820   2.722   3.569 -0.0370 -0.5205  0.3431
 6401SOL    HW230663   0.952   2.693   3.631  0.0779 -0.3090 -0.9574
 6402SOL     OW30664   0.121   2.502   5.895 -0.5600 -0.1622 -0.5321
 6402SOL    HW130665   0.197   2.505   5.953  0.0592  1.8761 -1.4348
 6402SOL    HW230666   0.159   2.517   5.808  2.4355  1.1320  0.9908
 6403SOL     OW30667   4.202   2.413   0.693  0.2412 -0.8190  0.5674
 6403SOL    HW130668   4.260   2.457   0.631 -4.4194 -1.8770 -4.6061
 6403SOL    HW230669   4.160   2.491   0.729 -0.2799 -0.1466 -1.4645
 6404SOL     OW30670   3.230   2.311   7.764 -0.7401  0.0831 -0.3053
 6404SOL    HW130671   3.219   2.365   7.686 -0.0643 -0.4942 -0.8049
 6404SOL    HW230672   3.228   2.366   7.843  0.8937 -0.1393 -0.0970
 6405SOL     OW30673   2.454   0.931   1.315  0.1181  0.1619 -0.3452
 6405SOL    HW130674   2.450   0.849   1.365 -0.5151  1.0295  1.0230
 6405SOL    HW230675   2.533   0.972   1.350  0.3840 -1.1458  0.5949
 6406SOL     OW30676   3.157   3.062   5.037  0.5460  0.1445  0.2536
 6406SOL    HW130677   3.219   3.033   4.970  1.3897  0.0307  1.0781
 6406SOL    HW230678   3.203   3.059   5.121  1.1185 -3.2567 -0.1765
 6407SOL     OW30679   3.032   4.613   7.095  0.2234 -0.3971  0.1025
 6407SOL    HW130680   3.113   4.618   7.147  1.2514  1.4465 -1.6900
 6407SOL    HW230681   2.983   4.678   7.145  1.3727 -0.3178  1.1474
 6408SOL     OW30682   3.211   2.783  14.892  0.2397 -0.2983 -0.6504
 6408SOL    HW130683   3.149   2.734  14.838 -0.2477 -0.6704  0.2451
 6408SOL    HW230684   3.272   2.811  14.824 -0.1730 -0.0901 -0.9351
 6409SOL     OW30685   1.499   2.352   4.375 -0.1003  0.8180 -0.8162
 6409SOL    HW130686   1.404   2.343   4.378  0.0891 -0.7167  0.7082
 6409SOL    HW230687   1.516   2.405   4.297 -1.2004  1.7364 -0.4425
 6410SOL     OW30688   1.312   3.076   3.167  0.1292 -0.3293 -0.2752
 6410SOL    HW130689   1.379   3.142   3.149  0.3116 -0.5564 -0.4250
 6410SOL    HW230690   1.336   2.996   3.120 -2.6867 -0.5822 -1.2823
 6411SOL     OW30691   3.021   1.957   6.117 -0.8947 -0.4220 -0.0741
 6411SOL    HW130692   2.998   1.937   6.027  0.1320  2.4994 -0.9875
 6411SOL    HW230693   3.109   1.994   6.108 -0.4667 -1.2442  0.6899
 6412SOL     OW30694   1.436   3.085  12.112  0.0419  0.2860 -0.4245
 6412SOL    HW130695   1.529   3.109  12.103 -0.3233  1.6798 -0.4926
 6412SOL    HW230696   1.403   3.175  12.114  1.0864  0.6694 -0.2867
 6413SOL     OW30697   2.453   2.164   7.667  0.5630  0.0108  0.0939
 6413SOL    HW130698   2.402   2.225   7.720  2.2783  0.1615  1.5540
 6413SOL    HW230699   2.394   2.148   7.593  1.2528  1.1201 -0.7001
 6414SOL     OW30700   1.121   3.615   0.743 -0.4731 -0.0110 -0.4798
 6414SOL    HW130701   1.085   3.567   0.669  0.3103  0.0106 -0.8821
 6414SOL    HW230702   1.042   3.654   0.780 -0.2275  0.1794 -0.1541
 6415SOL     OW30703   4.507   0.726   4.910  0.1742  0.1198  0.9972
 6415SOL    HW130704   4.495   0.724   5.005 -0.4360  2.2253  0.9778
 6415SOL    HW230705   4.436   0.780   4.874 -0.1330 -1.0127 -0.1274
 6416SOL     OW30706   3.639   1.362   7.363  0.1867  0.1532  0.1760
 6416SOL    HW130707   3.619   1.319   7.280  1.7222 -2.1203  0.9727
 6416SOL    HW230708   3.556   1.359   7.411 -0.8758 -0.9419 -1.7087
 6417SOL     OW30709   2.983   4.097   3.139 -0.0705 -0.0710  0.6320
 6417SOL    HW130710   2.988   4.003   3.122  2.3140  0.3666 -0.9699
 6417SOL    HW230711   2.889   4.117   3.138  0.1380  0.9175  1.2945
 6418SOL     OW30712   2.942   2.333   8.597 -0.0909 -0.2329 -0.1377
 6418SOL    HW130713   2.895   2.305   8.675 -1.3767 -0.1642 -0.8724
 6418SOL    HW230714   2.974   2.415   8.635  0.9008 -0.6116 -0.1590
 6419SOL     OW30715   1.800   4.307   8.329  0.3193 -0.0280 -0.0671
 6419SOL    HW130716   1.877   4.250   8.334  0.3451  0.0196  0.0754
 6419SOL    HW230717   1.831   4.379   8.275 -1.7108 -0.1468 -1.3990
 6420SOL     OW30718   0.665   3.231   3.915 -0.4618 -0.2556  0.7737
 6420SOL    HW130719   0.756   3.217   3.887 -0.6890 -0.2334  0.0149
 6420SOL    HW230720   0.683   3.298   3.980  1.6075 -0.3976  0.3520
 6421SOL     OW30721   4.671   0.683   2.047  0.1081 -0.1051 -0.3573
 6421SOL    HW130722   4.613   0.606   2.050 -0.0050 -0.0475 -1.2047
 6421SOL    HW230723   4.726   0.665   1.970  2.0187  0.9708  0.7604
 6422SOL     OW30724   4.070   1.749   5.966  0.1084  0.1224  0.2231
 6422SOL    HW130725   4.023   1.670   5.990 -3.3024  1.6624 -1.3693
 6422SOL    HW230726   3.990   1.796   5.943  0.8948  1.9895  1.2932
 6423SOL     OW30727   2.414   2.648   4.461  0.2648 -0.2689  0.2067
 6423SOL    HW130728   2.480   2.593   4.503  0.5873 -0.8850 -1.0938
 6423SOL    HW230729   2.352   2.648   4.533 -1.2502 -1.3716 -1.1044
 6424SOL     OW30730   3.373   1.179   6.112  0.3103  0.3919  0.0336
 6424SOL    HW130731   3.290   1.222   6.092  0.3757  0.4335 -0.1501
 6424SOL    HW230732   3.354   1.119   6.184  1.1638  2.0961  1.7053
 6425SOL     OW30733   4.683   1.313   4.155 -0.8933  0.2474 -0.1403
 6425SOL    HW130734   4.716   1.270   4.077 -0.4763  2.8213 -1.3888
 6425SOL    HW230735   4.718   1.249   4.217 -0.1519  1.4211  0.6559
 6426SOL     OW30736   1.663   4.300   8.973 -0.4262 -0.1413  0.4284
 6426SOL    HW130737   1.652   4.296   8.878  1.8163 -0.8591  0.1958
 6426SOL    HW230738   1.581   4.263   9.006 -0.1048  1.2678  2.8155
 6427SOL     OW30739   2.395   0.694   8.036 -0.1423 -0.7086  0.1874
 6427SOL    HW130740   2.352   0.779   8.043 -1.6278 -1.4352 -0.0836
 6427SOL    HW230741   2.357   0.666   7.953 -1.4152 -1.7421  1.1097
 6428SOL     OW30742   3.638   2.115  17.056  0.1392  0.1689 -0.0648
 6428SOL    HW130743   3.633   2.166  17.137  0.5202 -2.0356  1.3407
 6428SOL    HW230744   3.572   2.170  17.013 -0.7346 -0.1572  0.8620
 6429SOL     OW30745   4.589   0.162  17.086  0.0989 -0.1444 -0.0093
 6429SOL    HW130746   4.556   0.135  17.000  0.3497 -1.4379  0.3138
 6429SOL    HW230747   4.681   0.185  17.069 -0.1562  1.0630  0.2228
 6430SOL     OW30748   3.930   2.182  14.919  0.7049 -0.1236  0.2907
 6430SOL    HW130749   3.881   2.192  14.838  0.0059  0.0119  0.7276
 6430SOL    HW230750   3.861   2.183  14.986  1.0400 -1.8344  0.6746
 6431SOL     OW30751   0.789   2.234   9.085 -0.7346  0.1586  0.1582
 6431SOL    HW130752   0.853   2.302   9.104  0.0011  0.4450 -3.3092
 6431SOL    HW230753   0.743   2.233   9.169 -2.8749 -0.7648 -1.0189
 6432SOL     OW30754   0.950   3.497   8.157 -0.0288  0.8291  0.2148
 6432SOL    HW130755   0.870   3.538   8.190 -2.0588 -0.4057 -3.1954
 6432SOL    HW230756   1.000   3.484   8.238 -2.0685  2.3376  1.7355
 6433SOL     OW30757   1.290   3.281   7.802  0.5259 -0.6319  0.4829
 6433SOL    HW130758   1.343   3.292   7.881 -1.4477  1.9300  1.4429
 6433SOL    HW230759   1.322   3.350   7.744  2.2365 -2.2714 -0.5108
 6434SOL     OW30760   3.637   2.640   4.649 -0.2979  0.3318  0.7741
 6434SOL    HW130761   3.655   2.546   4.646  1.3801  0.6740 -0.3005
 6434SOL    HW230762   3.642   2.664   4.556  0.5514  0.3587  0.8217
 6435SOL     OW30763   4.004   0.997   8.195 -0.0947  0.3139  0.2961
 6435SOL    HW130764   4.044   0.941   8.262 -1.5848  0.1716  1.0437
 6435SOL    HW230765   4.070   0.987   8.125 -0.2711  1.3419 -0.0079
 6436SOL     OW30766   3.112   4.284   4.974  0.3421  0.1705 -0.0343
 6436SOL    HW130767   3.091   4.237   5.055 -0.2371  0.1919 -0.1728
 6436SOL    HW230768   3.084   4.220   4.909 -0.8448  0.7109 -0.0545
 6437SOL     OW30769   0.395   1.769  14.692  0.6373  0.1483  0.2355
 6437SOL    HW130770   0.373   1.708  14.762 -1.1215  0.1172 -0.3513
 6437SOL    HW230771   0.308   1.798  14.666  1.1094  0.4511 -1.0441
 6438SOL     OW30772   4.207   3.430  16.625  0.1592 -0.3062 -0.5311
 6438SOL    HW130773   4.236   3.410  16.536 -0.0395 -2.5120 -0.0858
 6438SOL    HW230774   4.201   3.525  16.611 -3.4815 -0.7844 -2.2728
 6439SOL     OW30775   0.686   0.536   3.717 -0.5171 -0.0273  0.4063
 6439SOL    HW130776   0.650   0.625   3.715  0.5373  0.3894 -0.6617
 6439SOL    HW230777   0.779   0.561   3.712 -0.7697  0.4203 -2.1003
 6440SOL     OW30778   4.374   1.994  10.066  0.2393 -0.2688 -0.4271
 6440SOL    HW130779   4.286   1.998  10.028 -0.5526  0.2834  1.4578
 6440SOL    HW230780   4.429   2.004   9.988  2.0165 -1.6994  0.6577
 6441SOL     OW30781   0.823   0.662  13.250  0.3632 -0.0653  0.3716
 6441SOL    HW130782   0.841   0.580  13.205 -1.0576  0.3297 -0.9151
 6441SOL    HW230783   0.833   0.632  13.340 -1.2340 -3.0712 -0.4529
 6442SOL     OW30784   0.751   4.298   0.893  0.4267 -0.0012 -0.2020
 6442SOL    HW130785   0.842   4.325   0.896  0.7032 -0.9245 -0.2658
 6442SOL    HW230786   0.711   4.349   0.964  2.8841  0.4629  0.8360
 6443SOL     OW30787   3.700   3.220   8.562  0.0674 -0.6342  0.0745
 6443SOL    HW130788   3.689   3.255   8.473  0.3907 -2.1023 -0.5388
 6443SOL    HW230789   3.632   3.153   8.551  2.0632 -2.4994 -0.9343
 6444SOL     OW30790   2.972   0.617   7.730  0.1694  0.3652  0.0664
 6444SOL    HW130791   3.012   0.542   7.684 -1.5814  0.8735 -2.2768
 6444SOL    HW230792   3.023   0.688   7.692  2.6072 -0.0085  2.6290
 6445SOL     OW30793   3.532   2.687   5.472  0.3481 -0.7715 -0.4626
 6445SOL    HW130794   3.442   2.713   5.487  0.5390  0.4913 -1.5143
 6445SOL    HW230795   3.520   2.626   5.399  1.9427 -1.3091 -0.2830
 6446SOL     OW30796   0.319   4.604   5.265  0.4796 -0.1248 -0.0817
 6446SOL    HW130797   0.333   4.698   5.264  0.1427 -0.0823 -0.9133
 6446SOL    HW230798   0.394   4.577   5.211  1.0594  0.1600  0.5795
 6447SOL     OW30799   2.876   1.349  12.479  0.3922  0.0620 -0.5318
 6447SOL    HW130800   2.919   1.431  12.503  1.3984 -0.6065 -0.0641
 6447SOL    HW230801   2.856   1.369  12.388 -0.7819  0.5143 -0.1706
 6448SOL     OW30802   3.697   1.590   8.201  0.2050  0.6438 -0.3100
 6448SOL    HW130803   3.604   1.611   8.200  0.2292  0.7490 -0.9191
 6448SOL    HW230804   3.693   1.519   8.137 -1.1019 -0.3157  0.8587
 6449SOL     OW30805   2.631   2.688   6.623 -0.3716  0.3403 -0.2060
 6449SOL    HW130806   2.589   2.611   6.661 -0.9666  0.1636 -1.2285
 6449SOL    HW230807   2.676   2.727   6.698 -1.4056  1.4764 -0.1652
 6450SOL     OW30808   0.809   0.424   1.803 -0.5471  0.5879  0.6693
 6450SOL    HW130809   0.867   0.487   1.846 -0.3674  1.1876 -0.4391
 6450SOL    HW230810   0.832   0.432   1.710  1.1438  0.5932  1.0885
 6451SOL     OW30811   4.625   2.243  10.092  0.2536 -0.8250  0.8247
 6451SOL    HW130812   4.653   2.312  10.151 -0.4338  0.8003 -0.7675
 6451SOL    HW230813   4.567   2.198  10.154 -0.7985 -1.0053 -0.2940
 6452SOL     OW30814   4.559   4.375   6.928  0.0574 -0.3745  0.0262
 6452SOL    HW130815   4.632   4.431   6.901  0.6871  0.3176  3.0952
 6452SOL    HW230816   4.526   4.416   7.008 -2.5772 -0.9804 -0.7478
 6453SOL     OW30817   2.926   0.521   3.667  0.1477  0.1292  0.3666
 6453SOL    HW130818   2.833   0.499   3.673 -0.0423  0.8201 -0.0902
 6453SOL    HW230819   2.917   0.578   3.591 -0.4659 -0.9281 -0.3568
 6454SOL     OW30820   0.685   1.466   7.885 -0.1258  0.2482 -0.1243
 6454SOL    HW130821   0.642   1.468   7.800 -0.8344  0.5725  0.2384
 6454SOL    HW230822   0.710   1.373   7.888  0.4021  0.3141 -3.0118
 6455SOL     OW30823   4.529   3.845   8.043  0.0847  0.6563  0.2462
 6455SOL    HW130824   4.551   3.890   8.124  1.9357  0.1689  0.0122
 6455SOL    HW230825   4.495   3.759   8.069  0.2181  0.5702  0.1395
 6456SOL     OW30826   3.900   0.533   8.617 -0.7267  0.1213  0.2320
 6456SOL    HW130827   3.969   0.589   8.653  0.0438  0.4210 -1.6691
 6456SOL    HW230828   3.822   0.588   8.617 -2.3456 -2.2184  0.0171
 6457SOL     OW30829   0.367   3.563   5.591 -0.6966 -0.1979 -0.6381
 6457SOL    HW130830   0.354   3.657   5.578  0.4243  0.2211  1.2889
 6457SOL    HW230831   0.298   3.525   5.536 -1.9327  0.6434  0.3282
 6458SOL     OW30832   3.931   1.135   7.463  0.1719  0.3994 -0.1581
 6458SOL    HW130833   3.917   1.224   7.432 -0.2329 -0.3110 -2.0112
 6458SOL    HW230834   4.024   1.142   7.486  0.0605  0.7353  0.1899
 6459SOL     OW30835   0.618   0.645   4.458 -0.0828  0.3297  0.2526
 6459SOL    HW130836   0.686   0.682   4.401  1.0363 -0.1165  1.2851
 6459SOL    HW230837   0.567   0.724   4.476  1.9095  2.4743 -3.3766
 6460SOL     OW30838   1.127   4.600  13.094  0.4695 -0.1889  0.3437
 6460SOL    HW130839   1.159   4.560  13.013  2.5200  0.2603  0.9334
 6460SOL    HW230840   1.193   4.666  13.116  0.1178  0.8870 -1.7687
 6461SOL     OW30841   3.098   4.009   6.799 -0.4640 -0.3289  0.0461
 6461SOL    HW130842   3.185   3.977   6.775 -0.1543  1.3314 -0.9904
 6461SOL    HW230843   3.044   3.988   6.723 -1.3999 -2.1109  1.1985
 6462SOL     OW30844   1.810   0.236   7.247  0.0821 -0.6278 -0.1968
 6462SOL    HW130845   1.744   0.269   7.186 -2.1497  0.9308  3.0768
 6462SOL    HW230846   1.763   0.258   7.328 -1.0356 -2.7116 -0.2733
 6463SOL     OW30847   0.987   4.266   8.995 -0.0508  0.3771 -0.1360
 6463SOL    HW130848   0.987   4.203   8.923  1.4870 -0.5158  0.6701
 6463SOL    HW230849   0.997   4.216   9.076 -1.5690 -0.8546 -0.7140
 6464SOL     OW30850   2.294   1.172  11.321  0.3074  0.0428 -0.0793
 6464SOL    HW130851   2.245   1.107  11.271 -1.1827 -0.1497  1.6346
 6464SOL    HW230852   2.375   1.121  11.311  1.5185  1.4053  2.5650
 6465SOL     OW30853   1.028   2.416   5.636  0.2953 -0.3123  0.1322
 6465SOL    HW130854   1.025   2.470   5.714  0.1440  0.4020 -0.3654
 6465SOL    HW230855   1.096   2.460   5.584  0.4243  1.1945  1.5969
 6466SOL     OW30856   4.010   0.132  15.731  0.6185  0.1940 -0.1612
 6466SOL    HW130857   3.938   0.076  15.705  2.3659 -1.4533 -1.4000
 6466SOL    HW230858   4.057   0.066  15.782 -1.0393 -1.0743 -0.2850
 6467SOL     OW30859   4.533   4.434  13.696  0.0436 -0.3762  0.6096
 6467SOL    HW130860   4.570   4.418  13.783  0.7199 -2.8756 -0.1356
 6467SOL    HW230861   4.454   4.482  13.720 -0.5410 -1.5256  1.0026
 6468SOL     OW30862   2.062   3.256   7.188  0.1456 -0.3362 -0.6916
 6468SOL    HW130863   2.128   3.305   7.238  0.9884 -1.6151 -0.5597
 6468SOL    HW230864   2.107   3.173   7.171  1.1056  0.2101 -0.8303
 6469SOL     OW30865   0.921   1.940   2.755  0.2574 -0.2458 -0.2510
 6469SOL    HW130866   0.999   1.991   2.777  0.0812 -0.1047  0.0407
 6469SOL    HW230867   0.849   2.004   2.749  0.4521  0.0915  1.0806
 6470SOL     OW30868   0.304   0.645  15.547 -0.2838  0.1119  0.4107
 6470SOL    HW130869   0.211   0.662  15.561 -0.2315 -0.4930  1.4523
 6470SOL    HW230870   0.331   0.709  15.481 -0.5703 -0.4327 -0.2326
 6471SOL     OW30871   2.996   2.862  13.530  0.5010  0.2635  0.3936
 6471SOL    HW130872   3.056   2.928  13.565  1.8854 -1.3429  1.0386
 6471SOL    HW230873   3.039   2.777  13.541 -2.6377 -1.3079  0.3807
 6472SOL     OW30874   3.839   2.269  12.786  0.0339 -0.1428 -0.4154
 6472SOL    HW130875   3.754   2.229  12.803  0.3788 -1.2778 -1.2949
 6472SOL    HW230876   3.864   2.300  12.872 -0.8932  0.5088 -0.3827
 6473SOL     OW30877   2.098   1.527   8.407 -0.5102  0.0747  0.5392
 6473SOL    HW130878   2.036   1.485   8.348 -0.9792  0.2349  0.9212
 6473SOL    HW230879   2.163   1.458   8.421  0.5001  0.5603 -1.6912
 6474SOL     OW30880   2.004   4.450   8.092 -0.5624  0.1647  0.0356
 6474SOL    HW130881   2.048   4.492   8.166 -0.2978  1.7866 -1.0459
 6474SOL    HW230882   1.911   4.468   8.105 -0.7085 -0.0298 -0.7591
 6475SOL     OW30883   1.384   1.515   4.538 -0.0753  0.1488  0.5469
 6475SOL    HW130884   1.320   1.558   4.481 -0.1445 -0.9747 -0.2283
 6475SOL    HW230885   1.460   1.561   4.503 -0.3549  0.2103  0.0189
 6476SOL     OW30886   3.878   2.504  10.617 -0.2594 -0.2527  0.0657
 6476SOL    HW130887   3.784   2.503  10.603  0.0222 -1.8988 -1.6842
 6476SOL    HW230888   3.888   2.419  10.660 -2.1858 -0.3079  0.3919
 6477SOL     OW30889   4.538   3.872  10.364 -0.0038  0.5865  0.0426
 6477SOL    HW130890   4.609   3.815  10.392  2.0602  2.5814 -1.1256
 6477SOL    HW230891   4.502   3.815  10.296 -0.6995 -2.0990  2.6824
 6478SOL     OW30892   4.207   1.603   8.172  0.3808  0.0774  0.3119
 6478SOL    HW130893   4.250   1.679   8.212  0.5678  1.7892 -3.1045
 6478SOL    HW230894   4.115   1.624   8.189 -0.3867 -2.5075 -0.6573
 6479SOL     OW30895   0.631   1.093  16.956 -0.1664 -0.1622  0.6510
 6479SOL    HW130896   0.660   1.184  16.966  0.7801 -0.4443  0.4838
 6479SOL    HW230897   0.716   1.050  16.967  0.7550  1.6268  0.4722
 6480SOL     OW30898   4.123   3.896   7.621  0.5310 -0.1785  0.0687
 6480SOL    HW130899   4.090   3.876   7.533 -0.5282 -2.0255  0.8954
 6480SOL    HW230900   4.164   3.817   7.656  0.3409 -0.2921  0.0321
 6481SOL     OW30901   2.431   2.302  16.953 -1.0887 -0.1666 -0.0436
 6481SOL    HW130902   2.458   2.211  16.941 -0.2800  0.2622 -1.4893
 6481SOL    HW230903   2.431   2.345  16.868  2.0005 -0.0805  0.0040
 6482SOL     OW30904   3.041   1.436  12.891 -0.3491 -0.2727  0.5215
 6482SOL    HW130905   2.996   1.353  12.876  1.8629 -1.2943 -0.3480
 6482SOL    HW230906   2.974   1.487  12.844 -0.7539 -0.5190  0.8344
 6483SOL     OW30907   1.991   3.447   4.019 -0.4194  0.3048 -0.4534
 6483SOL    HW130908   2.020   3.383   3.954  1.3845  1.2985 -0.6216
 6483SOL    HW230909   1.933   3.503   3.969 -1.7932  0.0728  0.8788
 6484SOL     OW30910   1.361   3.200   4.442 -0.3115 -0.3782 -0.4240
 6484SOL    HW130911   1.452   3.197   4.413  0.2320  0.3965  1.2151
 6484SOL    HW230912   1.350   3.139   4.515 -0.3757  1.0059  0.7233
 6485SOL     OW30913   4.331   3.108   5.977 -0.7773 -0.0348 -0.5202
 6485SOL    HW130914   4.311   3.014   5.976  1.8217 -0.5980 -1.3426
 6485SOL    HW230915   4.418   3.108   5.937 -0.6441  1.9175 -0.2270
 6486SOL     OW30916   4.119   2.846   4.735 -0.5370  0.2803 -0.0922
 6486SOL    HW130917   4.114   2.795   4.816 -1.7929  1.0819  0.3350
 6486SOL    HW230918   4.099   2.935   4.765 -1.4611 -0.0323  0.2175
 6487SOL     OW30919   0.190   3.748   9.231 -0.2001  0.4760 -0.0716
 6487SOL    HW130920   0.215   3.664   9.268 -1.3820  1.1336  2.2568
 6487SOL    HW230921   0.278   3.767   9.198 -0.1843  0.5394  0.0061
 6488SOL     OW30922   0.813   0.470   4.613 -0.9731 -0.2152  0.5754
 6488SOL    HW130923   0.867   0.546   4.637  0.4229 -0.0119 -3.2352
 6488SOL    HW230924   0.744   0.509   4.560  1.1412  2.3752 -0.2929
 6489SOL     OW30925   3.088   0.455   6.004 -0.0113  0.0728  0.1510
 6489SOL    HW130926   3.136   0.394   6.060  1.4661 -0.5593 -1.8332
 6489SOL    HW230927   3.052   0.393   5.941  0.4878  1.0803 -1.1200
 6490SOL     OW30928   2.604   4.541   3.523 -0.0163  0.4658  0.2526
 6490SOL    HW130929   2.624   4.450   3.503 -2.3229 -0.1448  0.7102
 6490SOL    HW230930   2.640   4.578   3.443 -2.2671 -0.3634 -1.1318
 6491SOL     OW30931   1.056   4.227   0.985 -0.2731 -0.1793 -0.3528
 6491SOL    HW130932   1.151   4.228   0.992 -0.2576  0.0287 -0.5913
 6491SOL    HW230933   1.038   4.321   0.992  0.2280  0.0313 -1.8219
 6492SOL     OW30934   2.566   4.246   6.954 -0.0474  0.0548  0.0290
 6492SOL    HW130935   2.536   4.214   7.039 -1.4662  0.0801 -0.4621
 6492SOL    HW230936   2.491   4.226   6.897 -0.8440  0.9834  0.7452
 6493SOL     OW30937   0.861   0.606   8.577 -0.8262  0.5313  0.2047
 6493SOL    HW130938   0.782   0.597   8.524  0.3686  0.8171 -1.6285
 6493SOL    HW230939   0.907   0.524   8.559 -0.9555 -0.1903  3.0501
 6494SOL     OW30940   2.082   4.112   1.654  0.5132 -0.4455  0.0897
 6494SOL    HW130941   2.131   4.193   1.664  0.9052 -0.6341 -0.2685
 6494SOL    HW230942   2.028   4.136   1.579 -2.7804 -3.8081  1.3990
 6495SOL     OW30943   3.943   4.094  12.159 -0.2505  1.0146 -0.3804
 6495SOL    HW130944   4.031   4.098  12.122 -0.2303  1.1271 -0.3224
 6495SOL    HW230945   3.902   4.008  12.156  3.6923 -0.7766 -2.8713
 6496SOL     OW30946   0.893   4.573  12.544 -0.2439  0.7657  0.1887
 6496SOL    HW130947   0.928   4.658  12.569  0.7616  0.5722 -0.5204
 6496SOL    HW230948   0.942   4.501  12.584  0.9422  1.6437  0.3261
 6497SOL     OW30949   2.261   0.726   0.252  0.1588 -0.2427  0.4928
 6497SOL    HW130950   2.286   0.639   0.219 -0.5591  1.0593 -3.5033
 6497SOL    HW230951   2.169   0.727   0.225  0.0699  0.4583  0.8331
 6498SOL     OW30952   3.641   4.636  10.526  0.5212 -0.1682  0.6038
 6498SOL    HW130953   3.734   4.616  10.535  0.4212 -0.1862  1.6165
 6498SOL    HW230954   3.610   4.548  10.545 -0.0643 -0.6310 -2.4838
 6499SOL     OW30955   2.386   3.521   5.627 -0.0329 -0.2225 -0.0096
 6499SOL    HW130956   2.294   3.496   5.641  0.3921 -1.0508  1.3561
 6499SOL    HW230957   2.386   3.526   5.532 -1.8469  0.1982  0.0133
 6500SOL     OW30958   3.807   2.223   0.791 -0.0227 -0.3881  0.5774
 6500SOL    HW130959   3.749   2.147   0.796  0.2085 -0.4488  2.2069
 6500SOL    HW230960   3.875   2.206   0.855 -0.1068 -0.6165  0.6071
 6501SOL     OW30961   2.579   2.087  16.941 -0.2283  0.2280 -0.0667
 6501SOL    HW130962   2.642   2.069  16.871 -0.3220  0.0721 -0.1130
 6501SOL    HW230963   2.640   2.119  17.008 -0.4292 -0.1444  0.2982
 6502SOL     OW30964   1.412   4.680  10.073  0.0795  0.3645 -0.2911
 6502SOL    HW130965   1.370   4.597  10.093  0.6356  0.3494  0.8171
 6502SOL    HW230966   1.506   4.663  10.072 -0.2533 -1.5033  0.1601
 6503SOL     OW30967   0.889   0.115   3.152 -0.3343  0.4963  0.1140
 6503SOL    HW130968   0.886   0.156   3.238  0.2825 -1.2279  0.9646
 6503SOL    HW230969   0.881   0.024   3.183 -0.9773  0.9048  1.1437
 6504SOL     OW30970   1.384   3.795   8.371 -0.1515  0.1968 -0.0993
 6504SOL    HW130971   1.306   3.746   8.396 -0.4451  0.8136  0.1843
 6504SOL    HW230972   1.414   3.743   8.296  1.1016  0.8172 -0.0256
 6505SOL     OW30973   3.146   0.862   7.557 -0.6088  0.1573 -0.5557
 6505SOL    HW130974   3.173   0.882   7.647  1.9082 -0.5391 -1.1675
 6505SOL    HW230975   3.052   0.878   7.555 -0.5667  0.4493 -0.2705
 6506SOL     OW30976   4.199   0.001   2.400  0.7330 -0.3370  0.1086
 6506SOL    HW130977   4.231   4.637   2.407  0.2563 -0.5065  0.1322
 6506SOL    HW230978   4.137   4.715   2.327  0.5835  1.5961 -0.0830
 6507SOL     OW30979   0.901   0.472   9.311 -0.1310 -0.3562  0.0388
 6507SOL    HW130980   0.841   0.398   9.314 -0.9401  0.4060  2.3143
 6507SOL    HW230981   0.972   0.436   9.364 -1.5463 -2.4948  0.4819
 6508SOL     OW30982   0.788   2.721  15.791  0.2782 -0.0571  0.7754
 6508SOL    HW130983   0.846   2.776  15.843 -0.4593  1.2719  0.1849
 6508SOL    HW230984   0.716   2.727  15.854 -0.1675  0.4674  0.2164
 6509SOL     OW30985   2.414   3.723   0.748  0.3368  0.0237 -0.0755
 6509SOL    HW130986   2.338   3.781   0.741  1.4236  1.2227 -1.8229
 6509SOL    HW230987   2.408   3.665   0.673 -0.5137  0.6473 -0.4982
 6510SOL     OW30988   4.168   0.346  11.135  0.5287 -0.2949  0.7248
 6510SOL    HW130989   4.135   0.435  11.152 -1.2998 -0.6601 -0.8277
 6510SOL    HW230990   4.189   0.313  11.222  2.7164 -0.4184  0.1325
 6511SOL     OW30991   1.037   4.354   3.251  0.2466 -0.9097  0.0745
 6511SOL    HW130992   1.097   4.320   3.185 -0.7658 -0.9503 -0.8126
 6511SOL    HW230993   1.107   4.371   3.315 -0.9799  0.7455  0.9574
 6512SOL     OW30994   3.256   0.911   5.307  0.1938  0.7468  0.1500
 6512SOL    HW130995   3.210   0.831   5.280  0.3552  0.6617  0.1307
 6512SOL    HW230996   3.263   0.963   5.227 -1.8343 -1.1038 -1.2285
 6513SOL     OW30997   1.576   1.333   2.879 -0.1964  0.3307 -0.2194
 6513SOL    HW130998   1.542   1.310   2.793  1.5231  0.3352 -0.9128
 6513SOL    HW230999   1.672   1.331   2.878 -0.2436 -0.4101 -2.1167
 6514SOL     OW31000   0.453   3.231  12.225  0.3328 -0.2252  0.0246
 6514SOL    HW131001   0.359   3.224  12.211 -0.0537  0.5690  2.2263
 6514SOL    HW231002   0.454   3.243  12.320 -0.0247 -1.0973  0.1310
 6515SOL     OW31003   4.229   1.047  14.037  0.1255  0.4698  0.3018
 6515SOL    HW131004   4.147   1.048  13.988 -0.4558 -1.5114  1.2162
 6515SOL    HW231005   4.239   0.951  14.036  2.0339  0.6891 -0.9556
 6516SOL     OW31006   3.826   2.921   1.091 -0.1171 -0.2343 -0.0868
 6516SOL    HW131007   3.849   3.011   1.115 -0.7950 -0.1209  0.1334
 6516SOL    HW231008   3.855   2.872   1.168  2.1127 -0.3019 -0.9501
 6517SOL     OW31009   1.888   1.578   3.694  0.4082 -0.6585 -0.0423
 6517SOL    HW131010   1.979   1.569   3.721  0.1877  3.7479  2.2146
 6517SOL    HW231011   1.897   1.571   3.599 -1.4084 -2.6490 -0.0696
 6518SOL     OW31012   0.361   2.843   2.429 -0.3699 -0.7252 -0.4075
 6518SOL    HW131013   0.312   2.909   2.379 -0.3403 -0.5501 -0.2076
 6518SOL    HW231014   0.313   2.761   2.422 -0.6785 -0.3897 -2.1618
 6519SOL     OW31015   1.649   2.216   5.429 -0.2994 -0.3565  0.7453
 6519SOL    HW131016   1.567   2.252   5.394  0.3711  0.7856  0.3127
 6519SOL    HW231017   1.686   2.178   5.349 -0.6891  1.9343 -0.5329
 6520SOL     OW31018   3.721   2.307   0.557  0.1363  0.2900 -0.1743
 6520SOL    HW131019   3.800   2.350   0.523  0.4403  0.6671  0.9998
 6520SOL    HW231020   3.756   2.287   0.644  1.6318  0.6518 -0.6826
 6521SOL     OW31021   4.051   0.201   6.546 -0.1408  0.3387 -0.0629
 6521SOL    HW131022   4.098   0.254   6.481  1.9991 -0.9972  0.4092
 6521SOL    HW231023   4.052   0.108   6.523  1.4242 -0.0096  1.4893
 6522SOL     OW31024   4.218   3.379   4.560  0.2428  0.2004 -0.3869
 6522SOL    HW131025   4.309   3.391   4.585 -0.7702 -0.0292  3.3192
 6522SOL    HW231026   4.231   3.396   4.466  2.9968 -1.8781 -0.3809
 6523SOL     OW31027   2.905   1.674   5.607  0.2556  0.1392  0.2104
 6523SOL    HW131028   2.990   1.712   5.628  0.4691  1.4462 -3.1462
 6523SOL    HW231029   2.911   1.594   5.661 -2.6022  0.2189  0.6456
 6524SOL     OW31030   0.287   4.453  10.549  0.0888  0.6917  0.5029
 6524SOL    HW131031   0.211   4.495  10.510 -0.0776  0.0615  0.1439
 6524SOL    HW231032   0.277   4.374  10.497 -1.6252  0.5030  1.1081
 6525SOL     OW31033   1.541   3.250   3.110 -0.4616  0.3513  0.6912
 6525SOL    HW131034   1.528   3.327   3.167 -0.0101  1.5700 -0.8550
 6525SOL    HW231035   1.617   3.215   3.156  1.8341  0.7085 -2.9264
 6526SOL     OW31036   4.473   3.588   8.128  0.3449 -0.3158 -0.2865
 6526SOL    HW131037   4.399   3.594   8.189  0.7012 -0.5732  0.1711
 6526SOL    HW231038   4.436   3.529   8.062  2.9739 -1.3143 -0.8607
 6527SOL     OW31039   0.872   3.133   7.584 -0.5317 -0.0595 -0.1439
 6527SOL    HW131040   0.852   3.066   7.650 -1.8541  1.9002  1.4148
 6527SOL    HW231041   0.919   3.195   7.640  1.3156 -1.0862 -0.5393
 6528SOL     OW31042   4.074   0.182   8.301  0.6189  0.4006 -0.0158
 6528SOL    HW131043   3.998   0.236   8.279  0.2828  0.8911  2.3147
 6528SOL    HW231044   4.049   0.090   8.292  1.4993 -0.0689  2.4583
 6529SOL     OW31045   3.586   4.096  15.193  0.4684 -0.3308 -0.2100
 6529SOL    HW131046   3.571   4.111  15.286 -1.1426 -0.0417 -0.5084
 6529SOL    HW231047   3.664   4.041  15.188  0.5228 -0.2595 -0.1333
 6530SOL     OW31048   2.370   0.705   7.363  0.0075 -0.2850  0.6333
 6530SOL    HW131049   2.349   0.655   7.285  1.0823 -3.0100  2.0890
 6530SOL    HW231050   2.304   0.774   7.354  0.7830  0.5459  1.2609
 6531SOL     OW31051   1.599   4.319   8.696  0.2178  0.5543  0.0575
 6531SOL    HW131052   1.603   4.414   8.686  0.3286  0.3845 -1.4822
 6531SOL    HW231053   1.573   4.291   8.609  2.2160 -0.3625 -0.2410
 6532SOL     OW31054   3.406   1.280   7.742  0.3658 -0.5390  0.1381
 6532SOL    HW131055   3.472   1.239   7.686 -0.1750 -0.0875 -0.8198
 6532SOL    HW231056   3.357   1.204   7.772 -2.0469  0.5562 -1.0806
 6533SOL     OW31057   3.456   2.351   6.448 -0.2814  0.2044  0.3787
 6533SOL    HW131058   3.455   2.441   6.480 -2.9560  0.1411  0.4629
 6533SOL    HW231059   3.464   2.297   6.527  0.3267 -0.2125  0.0324
 6534SOL     OW31060   1.410   3.162   3.823  0.3125  0.6554 -0.1018
 6534SOL    HW131061   1.435   3.254   3.835 -3.1992  1.3176  2.2941
 6534SOL    HW231062   1.315   3.171   3.818  0.4113  1.8242  0.0456
 6535SOL     OW31063   3.634   4.283   6.063  0.2875 -0.1866  0.2048
 6535SOL    HW131064   3.595   4.216   6.120 -2.3461  1.2270  0.0513
 6535SOL    HW231065   3.724   4.295   6.094  0.1236 -1.2510  1.0923
 6536SOL     OW31066   3.724   2.735   2.673  0.5264 -0.2096 -0.1332
 6536SOL    HW131067   3.628   2.733   2.670  0.5691 -3.5634  2.2126
 6536SOL    HW231068   3.747   2.677   2.600  1.8142 -0.2880  0.3517
 6537SOL     OW31069   1.767   4.152  11.183 -0.3335  0.1697 -0.0509
 6537SOL    HW131070   1.676   4.148  11.154 -0.1440  0.7877 -0.7168
 6537SOL    HW231071   1.765   4.237  11.229 -0.4485  0.2637 -0.2308
 6538SOL     OW31072   2.004   3.552   3.595  0.1493  0.0712  0.2522
 6538SOL    HW131073   1.990   3.646   3.608 -3.2519 -0.4153  0.0487
 6538SOL    HW231074   2.061   3.545   3.518  0.5068 -0.6675  0.5771
 6539SOL     OW31075   3.193   4.241   7.104  0.5864 -0.4212  0.6847
 6539SOL    HW131076   3.161   4.192   7.180 -0.6761 -1.5098 -0.5497
 6539SOL    HW231077   3.250   4.306   7.144  0.7817 -0.6598  0.7999
 6540SOL     OW31078   2.223   0.354   6.629 -0.5300  0.4818  0.1282
 6540SOL    HW131079   2.134   0.378   6.606 -0.0956  2.2243  0.3087
 6540SOL    HW231080   2.255   0.318   6.546 -1.2682  1.1992 -0.4618
 6541SOL     OW31081   0.379   3.703   6.858  0.5846 -0.0932  0.2118
 6541SOL    HW131082   0.443   3.763   6.896 -1.3578  0.5481  2.4814
 6541SOL    HW231083   0.310   3.763   6.829 -0.7321 -2.2982 -1.1808
 6542SOL     OW31084   3.153   2.688   0.175 -0.2470 -0.4694 -0.1586
 6542SOL    HW131085   3.221   2.621   0.172  2.4331  2.3876 -3.9959
 6542SOL    HW231086   3.098   2.654   0.104 -1.3372 -0.5949  0.7573
 6543SOL     OW31087   0.943   1.216   9.133  0.2790 -0.2759  0.0040
 6543SOL    HW131088   0.911   1.135   9.172  1.4726 -0.6559  0.1992
 6543SOL    HW231089   1.018   1.182   9.084  0.9983 -1.4490  1.9167
 6544SOL     OW31090   2.781   1.229   4.490 -0.4700 -0.1296 -1.1268
 6544SOL    HW131091   2.695   1.198   4.516 -0.9310  0.0100 -2.5071
 6544SOL    HW231092   2.766   1.300   4.427  0.1579 -0.9689 -2.2167
 6545SOL     OW31093   2.790   2.421  11.034 -0.5034  0.1080  0.2264
 6545SOL    HW131094   2.739   2.347  11.068 -2.1562  1.5487  0.8715
 6545SOL    HW231095   2.824   2.467  11.111 -1.9065  1.5900 -0.0237
 6546SOL     OW31096   4.227   2.855   3.916 -0.2792  0.6301  0.6692
 6546SOL    HW131097   4.218   2.774   3.866 -0.6490  1.1023 -0.0359
 6546SOL    HW231098   4.299   2.888   3.863 -0.0293  1.2982  1.4266
 6547SOL     OW31099   1.999   3.706   5.101 -0.6631  0.0964 -0.2936
 6547SOL    HW131100   1.909   3.735   5.115 -0.0819  2.1771 -0.8921
 6547SOL    HW231101   1.990   3.641   5.031  0.3057 -1.2731  0.8557
 6548SOL     OW31102   0.258   1.857   0.691  0.5950  0.0488  0.4419
 6548SOL    HW131103   0.245   1.841   0.598 -0.6602 -0.8331  0.7697
 6548SOL    HW231104   0.211   1.939   0.706 -0.5391 -0.4482 -0.4164
 6549SOL     OW31105   2.273   2.529  15.180  0.5590 -0.3589  0.2289
 6549SOL    HW131106   2.230   2.598  15.130 -0.7201 -1.9158 -0.7932
 6549SOL    HW231107   2.277   2.466  15.108 -0.4184 -0.4564  0.2656
 6550SOL     OW31108   2.156   3.125   9.121  0.1978  0.4280 -0.7456
 6550SOL    HW131109   2.245   3.125   9.156 -0.1174  0.5801  0.0431
 6550SOL    HW231110   2.122   3.214   9.131  0.3306  0.7381 -2.9195
 6551SOL     OW31111   2.590   1.073  13.346  0.0307  0.0648  0.7117
 6551SOL    HW131112   2.623   1.159  13.319  3.2607 -1.4364 -0.0400
 6551SOL    HW231113   2.495   1.087  13.345  0.2478  1.3712 -1.1268
 6552SOL     OW31114   1.823   3.571   6.370 -0.3462 -0.2481 -0.1701
 6552SOL    HW131115   1.776   3.627   6.431 -0.3853  0.9118 -1.2607
 6552SOL    HW231116   1.788   3.596   6.284 -3.0673 -1.9663  0.4414
 6553SOL     OW31117   3.073   3.751   6.018 -0.1202  0.1540 -0.2223
 6553SOL    HW131118   3.048   3.694   6.091 -0.1717  0.4355 -0.0188
 6553SOL    HW231119   2.988   3.765   5.978 -0.6349  0.7355  1.0465
 6554SOL     OW31120   3.226   1.945  13.519  0.4237  0.2614  0.5317
 6554SOL    HW131121   3.260   2.004  13.451  0.6089 -0.2521  0.1830
 6554SOL    HW231122   3.258   1.864  13.479  0.2849  0.3574  0.2254
 6555SOL     OW31123   4.708   2.814   7.164  0.5602  0.8544  0.2343
 6555SOL    HW131124   4.697   2.908   7.147  1.5829  1.1742  1.3467
 6555SOL    HW231125   4.618   2.782   7.154  0.6731  1.2628 -1.9127
 6556SOL     OW31126   0.527   0.673   5.129  0.4887  0.0811  0.0500
 6556SOL    HW131127   0.457   0.723   5.088  1.9654  1.5021 -0.7432
 6556SOL    HW231128   0.487   0.650   5.213  1.7484 -0.6112  0.4736
 6557SOL     OW31129   2.267   4.187   2.908  0.4492 -0.9052  0.0353
 6557SOL    HW131130   2.338   4.226   2.960 -0.4802 -2.0553  2.1635
 6557SOL    HW231131   2.192   4.228   2.951 -0.0784 -2.3730  0.5147
 6558SOL     OW31132   3.342   3.538   5.343  0.7508  0.0604  0.2334
 6558SOL    HW131133   3.379   3.477   5.406 -0.5363 -1.1864 -0.2135
 6558SOL    HW231134   3.295   3.598   5.401 -1.7297  0.7444 -2.4663
 6559SOL     OW31135   3.483   0.949   2.628 -1.2341  0.3225  0.3219
 6559SOL    HW131136   3.401   0.934   2.675 -0.1527  1.0260  2.4416
 6559SOL    HW231137   3.486   1.045   2.627  1.4283  0.2005 -3.0643
 6560SOL     OW31138   2.900   3.281   3.441  0.2266  0.0842  0.1128
 6560SOL    HW131139   2.826   3.330   3.403  0.9714  1.2755  0.1948
 6560SOL    HW231140   2.901   3.205   3.384  0.2704 -1.4019  2.0957
 6561SOL     OW31141   0.146   0.299   3.003  0.4765 -0.7148 -0.3603
 6561SOL    HW131142   0.148   0.394   2.989 -0.5565 -0.5109  0.8269
 6561SOL    HW231143   0.126   0.294   3.097 -0.1614 -2.7375 -0.5933
 6562SOL     OW31144   1.903   3.035   3.849 -0.7731  0.6531 -0.3172
 6562SOL    HW131145   1.868   3.078   3.772 -1.7832 -0.3989 -0.4476
 6562SOL    HW231146   1.961   3.106   3.877 -1.6285  0.9720  0.6401
 6563SOL     OW31147   1.627   1.836   3.541  0.9695 -0.1125  0.4516
 6563SOL    HW131148   1.648   1.799   3.627  0.5301 -1.2648  0.0689
 6563SOL    HW231149   1.532   1.826   3.542  0.7637  1.6042 -3.1593
 6564SOL     OW31150   2.631   0.207   2.936 -0.1489  0.3273 -0.3501
 6564SOL    HW131151   2.554   0.151   2.941 -0.7196  1.2986  1.7655
 6564SOL    HW231152   2.596   0.296   2.937  1.5464  0.9796  0.4198
 6565SOL     OW31153   3.011   0.712   4.170 -0.2557  0.0058 -0.1503
 6565SOL    HW131154   3.060   0.633   4.191  1.4788  1.2929  0.6442
 6565SOL    HW231155   3.079   0.768   4.134  0.7091 -1.8460 -1.1488
 6566SOL     OW31156   4.560   2.116   1.876 -0.0790 -0.1692  0.3203
 6566SOL    HW131157   4.596   2.166   1.804 -0.5838 -0.6676 -0.2803
 6566SOL    HW231158   4.585   2.027   1.849 -2.0741  0.4400 -3.5456
 6567SOL     OW31159   2.722   0.539   5.200 -0.3641 -0.5774  0.3715
 6567SOL    HW131160   2.696   0.455   5.238  0.3744  0.5254  3.3051
 6567SOL    HW231161   2.816   0.533   5.214 -0.5817 -2.3294  1.0903
 6568SOL     OW31162   3.037   0.478  17.482  1.0036  0.1349  0.1603
 6568SOL    HW131163   3.018   0.552  17.424 -0.0816 -1.5130 -1.6217
 6568SOL    HW231164   3.015   0.522  17.564  1.2140 -2.1343  1.4401
 6569SOL     OW31165   3.206   0.228  15.172 -0.0430 -0.2588  0.1424
 6569SOL    HW131166   3.276   0.223  15.237  0.7023  1.0763 -0.5623
 6569SOL    HW231167   3.131   0.182  15.210 -0.9118  0.7591 -0.3331
 6570SOL     OW31168   4.643   3.434   0.484 -0.2668  0.0905  0.8816
 6570SOL    HW131169   4.726   3.403   0.521  0.8565  0.0928 -1.5932
 6570SOL    HW231170   4.589   3.461   0.558  0.2964 -1.3823  1.8179
 6571SOL     OW31171   3.078   0.916   8.001  0.1116 -0.3922 -0.4089
 6571SOL    HW131172   3.140   0.889   7.934 -0.1235 -1.1821 -0.3129
 6571SOL    HW231173   3.092   1.010   7.999  1.1803 -0.5437  0.1890
 6572SOL     OW31174   1.474   4.573   3.019 -0.5436 -0.3759 -0.1604
 6572SOL    HW131175   1.389   4.615   3.005 -0.7491 -0.7470 -0.0252
 6572SOL    HW231176   1.516   4.643   3.070 -0.3015 -1.1880  0.7546
 6573SOL     OW31177   3.163   4.687  17.029  0.1172  0.0009 -0.5428
 6573SOL    HW131178   3.081   4.662  17.072  0.0546 -0.1889 -0.7683
 6573SOL    HW231179   3.201   0.015  17.098  0.6005 -0.6626 -0.2869
 6574SOL     OW31180   0.084   0.128   4.413  0.2016  0.6581  0.2078
 6574SOL    HW131181   0.144   0.190   4.371  0.4407  0.9977  1.0551
 6574SOL    HW231182   0.016   0.192   4.436 -2.1695 -1.9716  0.5080
 6575SOL     OW31183   3.892   0.375   5.621  0.1191 -1.2528  0.0810
 6575SOL    HW131184   3.928   0.457   5.588  1.6681 -0.9337  2.5419
 6575SOL    HW231185   3.893   0.318   5.545 -0.8722 -3.4706  1.7135
 6576SOL     OW31186   1.309   4.525  12.016  1.0488 -0.3658 -0.3937
 6576SOL    HW131187   1.380   4.580  11.984 -0.6339  0.9188 -1.9752
 6576SOL    HW231188   1.346   4.490  12.097  0.4318  0.7312  0.3566
 6577SOL     OW31189   3.924   3.383   2.887 -0.3636 -0.0962 -0.1866
 6577SOL    HW131190   3.887   3.339   2.964 -1.0380 -1.1927 -1.1420
 6577SOL    HW231191   3.887   3.471   2.895  0.1607  0.0063  1.1990
 6578SOL     OW31192   4.088   1.112  12.848 -0.5756 -0.0094 -0.4772
 6578SOL    HW131193   4.141   1.188  12.875 -0.1537 -1.3369  2.3711
 6578SOL    HW231194   4.006   1.118  12.897  0.0391  0.4525  0.5046
 6579SOL     OW31195   0.994   3.532   3.916  0.0340  0.3089 -0.2992
 6579SOL    HW131196   0.990   3.492   3.829 -0.0821 -1.7910  0.6861
 6579SOL    HW231197   0.941   3.611   3.909  1.4723  1.3450  0.4668
 6580SOL     OW31198   4.018   3.890   6.185 -0.2266  0.4745 -0.3934
 6580SOL    HW131199   4.044   3.916   6.096  0.6485 -0.1564 -0.3218
 6580SOL    HW231200   4.088   3.911   6.246 -1.0223  1.0843  0.2948
 6581SOL     OW31201   0.592   1.758   8.726  0.1573 -0.1431 -0.1765
 6581SOL    HW131202   0.637   1.674   8.727  4.2365  2.0338  0.0944
 6581SOL    HW231203   0.546   1.763   8.642 -1.3773  1.9330  0.7908
 6582SOL     OW31204   2.132   0.949   4.820 -0.2258 -0.4041  0.1418
 6582SOL    HW131205   2.185   0.883   4.866  0.9572 -0.6803 -1.6014
 6582SOL    HW231206   2.053   0.904   4.791 -0.1070  0.4027 -1.4062
 6583SOL     OW31207   4.439   3.726  15.426  0.1846  0.7314 -0.3506
 6583SOL    HW131208   4.353   3.700  15.460  0.6070  1.1808  1.0343
 6583SOL    HW231209   4.495   3.655  15.457  0.1234  1.0956  0.5854
 6584SOL     OW31210   3.590   3.039   7.640  0.0515  0.0319 -0.4669
 6584SOL    HW131211   3.594   2.943   7.641  1.2798  0.0804 -0.6251
 6584SOL    HW231212   3.613   3.065   7.551  2.2342 -0.4908 -0.0528
 6585SOL     OW31213   0.195   1.612  10.858 -0.0052  0.4042  0.3345
 6585SOL    HW131214   0.182   1.703  10.883  1.5327  0.0904  2.3096
 6585SOL    HW231215   0.272   1.622  10.802  1.1749  0.1917  1.9002
 6586SOL     OW31216   2.173   3.703  10.477  0.1690 -0.0276 -0.0377
 6586SOL    HW131217   2.210   3.773  10.532  0.3878 -0.5629  0.4987
 6586SOL    HW231218   2.248   3.693  10.418 -1.8517  0.5719 -2.6755
 6587SOL     OW31219   3.064   3.705   5.164 -0.6045 -0.7405  0.4323
 6587SOL    HW131220   2.985   3.701   5.109 -1.8722 -0.2838  2.2363
 6587SOL    HW231221   3.033   3.656   5.240 -1.5063  0.5013  0.8581
 6588SOL     OW31222   3.187   3.323   8.668  0.3506  0.1529  0.0319
 6588SOL    HW131223   3.201   3.365   8.753 -0.1644  1.9180 -0.7566
 6588SOL    HW231224   3.215   3.232   8.680  1.2159  0.6792  1.9309
 6589SOL     OW31225   0.260   3.392   2.060  0.3561 -0.1350 -0.5741
 6589SOL    HW131226   0.261   3.486   2.077  1.0198 -0.5076  1.5024
 6589SOL    HW231227   0.340   3.389   2.007  0.4686 -1.5834 -0.3258
 6590SOL     OW31228   2.741   3.023   2.293  0.2531 -0.3482  0.5191
 6590SOL    HW131229   2.742   2.951   2.357 -0.1839 -0.0589  0.8515
 6590SOL    HW231230   2.654   3.061   2.305  0.0366  0.3617 -3.1098
 6591SOL     OW31231   4.297   1.365  11.536 -0.2971 -0.1147 -0.2073
 6591SOL    HW131232   4.384   1.399  11.516 -1.2517  2.5501  0.2567
 6591SOL    HW231233   4.252   1.423  11.475 -1.1810 -0.4440  0.1210
 6592SOL     OW31234   0.401   1.405   7.673  0.1616  0.3227 -0.0594
 6592SOL    HW131235   0.317   1.450   7.663 -0.8712 -1.5052  0.3124
 6592SOL    HW231236   0.376   1.318   7.641 -0.6367 -0.1826  1.9207
 6593SOL     OW31237   0.838   1.905   4.248 -0.2139  0.1846 -0.6548
 6593SOL    HW131238   0.932   1.887   4.255 -0.4584  0.0648  2.2359
 6593SOL    HW231239   0.820   1.879   4.157 -0.8523  0.2679 -0.5545
 6594SOL     OW31240   3.731   2.403   6.768 -0.3897 -0.2339  0.1586
 6594SOL    HW131241   3.720   2.331   6.705 -1.9603  0.3113 -0.1913
 6594SOL    HW231242   3.703   2.479   6.717  0.2149 -1.0579 -1.4243
 6595SOL     OW31243   0.895   4.345   3.792 -0.4451 -0.5636  0.0242
 6595SOL    HW131244   0.883   4.338   3.697 -4.8320 -2.3254  0.7041
 6595SOL    HW231245   0.803   4.334   3.817 -0.3987 -0.8670  0.0581
 6596SOL     OW31246   1.434   1.959  11.486 -0.0106  0.2431  0.2157
 6596SOL    HW131247   1.386   1.947  11.403  1.5065  0.6920 -0.7257
 6596SOL    HW231248   1.359   1.980  11.542  1.2865  3.2588  0.8300
 6597SOL     OW31249   4.169   3.696  16.588 -0.3595 -0.1308  0.5531
 6597SOL    HW131250   4.102   3.741  16.537 -1.2862 -1.4248  0.6230
 6597SOL    HW231251   4.234   3.764  16.573 -0.7008  0.3577  1.3074
 6598SOL     OW31252   1.114   3.720   5.658  0.1169 -0.4802 -0.0098
 6598SOL    HW131253   1.159   3.730   5.742 -2.5369  3.6568  0.9353
 6598SOL    HW231254   1.083   3.808   5.636  1.8481 -0.6061 -2.9125
 6599SOL     OW31255   3.004   1.185  15.258 -0.0949  0.5988  0.1185
 6599SOL    HW131256   3.097   1.207  15.263  0.3331 -0.7579 -1.8466
 6599SOL    HW231257   2.963   1.256  15.209  0.6192  1.0137  0.1155
 6600SOL     OW31258   1.511   1.059  13.765 -0.2439 -0.3365  0.4031
 6600SOL    HW131259   1.427   1.016  13.753  0.3626 -1.2172 -0.6775
 6600SOL    HW231260   1.562   0.979  13.768 -0.7806 -0.6193  1.9994
 6601SOL     OW31261   2.264   4.652   0.687  0.0229 -0.7233 -0.0220
 6601SOL    HW131262   2.213   0.005   0.673  0.8035 -0.2800 -0.3679
 6601SOL    HW231263   2.346   4.688   0.721 -0.5017  0.5676 -0.1224
 6602SOL     OW31264   0.847   1.323   8.173  0.0512 -0.6540  0.2319
 6602SOL    HW131265   0.906   1.390   8.205 -0.6431  0.7675 -1.4353
 6602SOL    HW231266   0.904   1.246   8.180 -0.4313 -0.9060  1.4349
 6603SOL     OW31267   2.902   0.947   4.649 -0.1387 -0.2932 -0.0330
 6603SOL    HW131268   2.927   0.860   4.678  0.4704 -0.5586 -1.3377
 6603SOL    HW231269   2.808   0.936   4.662 -0.1215  0.9795  1.0885
 6604SOL     OW31270   0.264   4.202   4.264  0.1058  0.0153  0.5549
 6604SOL    HW131271   0.193   4.215   4.327 -1.1855  0.2699 -0.9383
 6604SOL    HW231272   0.256   4.110   4.240  1.2641  0.2187 -0.5962
 6605SOL     OW31273   3.564   4.273   2.580  0.1896 -0.3778  0.3039
 6605SOL    HW131274   3.639   4.286   2.522 -0.5894  2.1327 -0.1418
 6605SOL    HW231275   3.488   4.261   2.523  1.8092 -1.3724 -1.6728
 6606SOL     OW31276   3.261   1.758   2.466  0.0312 -0.0817  0.1709
 6606SOL    HW131277   3.314   1.836   2.455  1.2596 -0.7111  1.6406
 6606SOL    HW231278   3.322   1.688   2.441  1.6703  0.7995  1.7312
 6607SOL     OW31279   4.459   4.151   2.741 -0.2595 -0.9316  0.0636
 6607SOL    HW131280   4.433   4.203   2.817  1.5153  3.5982 -2.3958
 6607SOL    HW231281   4.420   4.067   2.762  0.9431 -1.6206 -0.4014
 6608SOL     OW31282   0.672   1.805   6.614  0.1353 -0.3420  0.2922
 6608SOL    HW131283   0.713   1.855   6.685  0.7964 -1.0279  0.3964
 6608SOL    HW231284   0.651   1.881   6.560 -2.2890 -0.7769  0.6375
 6609SOL     OW31285   3.025   0.199   6.612  0.6834  0.7440  0.2399
 6609SOL    HW131286   2.966   0.205   6.687 -1.9274 -1.1134 -1.6344
 6609SOL    HW231287   3.003   0.108   6.592  1.7974  0.5928 -0.2815
 6610SOL     OW31288   0.545   1.764   4.919 -0.2945 -0.0665  0.1056
 6610SOL    HW131289   0.498   1.758   4.836  0.3735 -2.1575 -0.1201
 6610SOL    HW231290   0.487   1.722   4.982  0.0718  1.7843  1.6585
 6611SOL     OW31291   3.074   4.253   1.217  0.6253  0.0234  0.5940
 6611SOL    HW131292   3.155   4.302   1.228  0.5440 -0.2004  2.1528
 6611SOL    HW231293   3.018   4.296   1.281  0.9329 -0.2174  1.0258
 6612SOL     OW31294   3.944   0.343   3.061  0.0649  0.3239 -0.1488
 6612SOL    HW131295   3.901   0.402   2.999  0.3146  0.7615  0.0870
 6612SOL    HW231296   3.989   0.398   3.125  0.0871  1.8417 -1.4786
 6613SOL     OW31297   4.696   2.823   4.062  0.2113 -0.0148  0.0258
 6613SOL    HW131298   4.725   2.753   4.121 -0.1317  1.3139  1.7850
 6613SOL    HW231299   4.672   2.894   4.122 -1.4693  0.0595 -0.7508
 6614SOL     OW31300   2.710   0.269   8.792  0.3777 -0.0370 -0.5240
 6614SOL    HW131301   2.644   0.215   8.749  0.4702 -1.3812  1.0419
 6614SOL    HW231302   2.782   0.228   8.743  1.4564  0.0113  1.0081
 6615SOL     OW31303   2.175   3.178   8.026  0.0943  0.7544 -0.2679
 6615SOL    HW131304   2.232   3.255   8.025  2.3569 -0.9007  1.2459
 6615SOL    HW231305   2.089   3.212   8.003  0.2890  1.0817 -0.5086
 6616SOL     OW31306   1.827   4.644   8.903  1.1178 -0.4288 -0.3257
 6616SOL    HW131307   1.739   4.614   8.927  0.3777  0.6730 -1.6260
 6616SOL    HW231308   1.811   0.009   8.880  0.8253 -0.2188  0.7233
 6617SOL     OW31309   2.668   3.156   6.825  0.1396  0.6578 -0.1204
 6617SOL    HW131310   2.755   3.179   6.857  0.6343  1.7879 -2.2339
 6617SOL    HW231311   2.600   3.201   6.875  2.7786  1.5300  2.6789
 6618SOL     OW31312   0.382   2.316   9.709 -0.0776  0.5649  0.2508
 6618SOL    HW131313   0.316   2.260   9.750  0.7954 -2.3967 -2.3983
 6618SOL    HW231314   0.435   2.267   9.646 -0.2484  1.3734 -0.5173
 6619SOL     OW31315   4.593   4.722   5.316  0.3430 -0.0375 -0.2547
 6619SOL    HW131316   4.506   4.699   5.347  1.0640 -1.7461  0.4669
 6619SOL    HW231317   4.589   4.722   5.221  0.0501 -1.2713 -0.2380
 6620SOL     OW31318   2.546   0.254   1.126 -0.9297 -0.3040 -0.4015
 6620SOL    HW131319   2.508   0.219   1.207  0.4644  1.0228  0.8195
 6620SOL    HW231320   2.636   0.227   1.140 -1.2155 -1.2970 -0.4635
 6621SOL     OW31321   0.374   2.663   8.922 -0.0503 -0.6918 -0.0490
 6621SOL    HW131322   0.407   2.635   8.837 -0.0053  2.0480 -0.9254
 6621SOL    HW231323   0.409   2.752   8.925  0.7219 -0.9964 -0.0810
 6622SOL     OW31324   3.189   3.614   8.536  0.2319  0.3295 -0.0360
 6622SOL    HW131325   3.283   3.632   8.534 -0.0349  1.7032 -0.3300
 6622SOL    HW231326   3.163   3.630   8.627 -1.3506 -0.9297 -0.2534
 6623SOL     OW31327   2.324   0.438   5.539  0.1039  0.3014  0.1135
 6623SOL    HW131328   2.301   0.385   5.463 -0.0510  1.8168 -0.8841
 6623SOL    HW231329   2.419   0.446   5.538  0.2541 -1.0184  2.2514
 6624SOL     OW31330   1.010   0.845   1.427  0.7076 -0.1253  0.2004
 6624SOL    HW131331   0.988   0.917   1.368 -0.4735  0.4566  1.3492
 6624SOL    HW231332   0.953   0.869   1.500  0.6661  1.7592 -0.4592
 6625SOL     OW31333   4.608   1.767  15.068  0.1629  0.2061 -0.2930
 6625SOL    HW131334   4.575   1.811  15.147 -0.6526  1.2343 -1.1947
 6625SOL    HW231335   4.646   1.844  15.026 -1.2433 -0.3497 -2.5571
 6626SOL     OW31336   1.705   2.118  14.279 -0.0880  0.4339  0.1320
 6626SOL    HW131337   1.714   2.104  14.185  0.9062  3.0028 -0.1530
 6626SOL    HW231338   1.625   2.171  14.289 -1.4366 -1.8181  1.1433
 6627SOL     OW31339   1.400   3.249   9.215 -0.1447 -0.3501 -0.3684
 6627SOL    HW131340   1.329   3.301   9.178  0.7582  2.1269  1.3852
 6627SOL    HW231341   1.373   3.250   9.307  1.6090  0.6637  0.1455
 6628SOL     OW31342   2.076   0.031   4.234 -0.3529  0.3600  0.1778
 6628SOL    HW131343   2.120   0.113   4.253  0.7601  0.2285 -1.7521
 6628SOL    HW231344   2.063   4.719   4.320  0.0672 -0.3011 -0.0487
 6629SOL     OW31345   3.129   2.128   6.872 -0.1821  0.0297 -0.1352
 6629SOL    HW131346   3.084   2.109   6.790  0.6286 -0.3929 -0.4694
 6629SOL    HW231347   3.198   2.189   6.846 -2.2934  1.9440 -1.2315
 6630SOL     OW31348   4.152   3.811   6.570 -0.6378  0.0990 -0.4883
 6630SOL    HW131349   4.171   3.850   6.484 -0.6528 -1.0199 -0.9918
 6630SOL    HW231350   4.101   3.883   6.607  0.6046  2.0243 -2.5110
 6631SOL     OW31351   1.907   3.659   3.217  0.2518 -0.2168  0.0375
 6631SOL    HW131352   1.856   3.592   3.172 -0.1342  0.5138 -0.6259
 6631SOL    HW231353   1.851   3.666   3.294 -0.4389  0.8267 -0.5674
 6632SOL     OW31354   3.196   1.705  10.032  0.5525 -0.2016  0.0122
 6632SOL    HW131355   3.194   1.611  10.049 -1.7394  0.5596  3.9313
 6632SOL    HW231356   3.236   1.713   9.945 -1.5575 -0.3311 -0.9730
 6633SOL     OW31357   0.859   0.614   6.232  0.0796 -0.0826 -0.1543
 6633SOL    HW131358   0.955   0.615   6.230  0.0660  1.0229 -0.0277
 6633SOL    HW231359   0.839   0.574   6.317  0.4388  2.3117  1.0541
 6634SOL     OW31360   1.197   0.463   1.642  0.8237  0.2263  0.2279
 6634SOL    HW131361   1.212   0.478   1.549  0.7303  2.0545  0.5015
 6634SOL    HW231362   1.106   0.486   1.663  0.0985  0.0047 -2.7369
 6635SOL     OW31363   3.323   3.093   5.249 -0.0977 -0.0306  0.2978
 6635SOL    HW131364   3.371   3.175   5.263  1.0487 -0.7881  0.7930
 6635SOL    HW231365   3.256   3.091   5.318  0.2145 -0.4530  0.5917
 6636SOL     OW31366   2.478   3.260   6.973  0.3117 -0.3058 -0.1131
 6636SOL    HW131367   2.513   3.230   7.056 -0.1651 -2.1489 -0.5589
 6636SOL    HW231368   2.466   3.353   6.987 -3.6414 -0.8738  0.2800
 6637SOL     OW31369   0.052   1.870  17.253 -0.0898  0.3650 -0.3064
 6637SOL    HW131370   0.101   1.834  17.327 -0.2055 -0.3700 -0.5806
 6637SOL    HW231371   0.069   1.962  17.272  5.4821 -0.6478 -0.3155
 6638SOL     OW31372   2.962   3.038   8.000 -0.3892  0.0852 -0.1211
 6638SOL    HW131373   3.046   3.073   7.973 -0.1730 -0.2092  0.1597
 6638SOL    HW231374   2.977   2.944   7.984  0.0253 -0.1362  1.5655
 6639SOL     OW31375   2.697   0.039   4.144  0.2296 -0.2467  0.5377
 6639SOL    HW131376   2.749   0.094   4.087  0.1477 -0.6913  0.0297
 6639SOL    HW231377   2.620   0.095   4.147  0.3626  0.1215 -2.7202
 6640SOL     OW31378   2.977   0.496  16.416  0.4196 -0.2910  0.6388
 6640SOL    HW131379   2.913   0.427  16.432 -0.2474  0.5144  1.3925
 6640SOL    HW231380   3.024   0.513  16.498  1.3152  0.2490  0.0174
 6641SOL     OW31381   1.549   3.311   5.079 -0.1306 -0.3087  0.1795
 6641SOL    HW131382   1.602   3.359   5.016  1.3129 -1.4901  0.4728
 6641SOL    HW231383   1.586   3.222   5.080 -1.2827 -0.7829  0.8527
 6642SOL     OW31384   2.282   1.394   5.681  0.4448 -0.2522 -0.1399
 6642SOL    HW131385   2.224   1.343   5.625 -0.2982  0.6366 -0.1785
 6642SOL    HW231386   2.233   1.379   5.761 -1.8998  3.3309 -0.8922
 6643SOL     OW31387   0.309   0.639   6.800 -0.9948 -0.0930  0.5976
 6643SOL    HW131388   0.355   0.606   6.722 -1.5529 -1.2718  0.7760
 6643SOL    HW231389   0.332   0.577   6.869 -1.4458 -1.4149 -0.4404
 6644SOL     OW31390   2.177   2.176  10.601  0.2633  0.3061 -0.6889
 6644SOL    HW131391   2.183   2.090  10.641 -0.6088  0.6869  0.2828
 6644SOL    HW231392   2.264   2.181  10.561  0.1028  2.1348 -0.8359
 6645SOL     OW31393   0.278   0.730   6.436 -0.0162  0.2504  0.3818
 6645SOL    HW131394   0.238   0.796   6.379 -1.7338 -0.6951  0.5006
 6645SOL    HW231395   0.208   0.689   6.487 -0.8616 -0.1099 -1.0924
 6646SOL     OW31396   2.030   1.571   8.677 -0.6725 -0.5097 -0.0753
 6646SOL    HW131397   2.093   1.630   8.719 -2.0820  2.5956 -2.3423
 6646SOL    HW231398   2.031   1.609   8.589  2.1944 -2.1428 -0.7532
 6647SOL     OW31399   1.354   0.020   3.344 -0.0932 -0.0147 -0.6966
 6647SOL    HW131400   1.261   4.723   3.348  0.2467 -0.8624  1.6612
 6647SOL    HW231401   1.347   0.114   3.326 -0.6628  0.2306  0.8082
 6648SOL     OW31402   2.742   2.485   9.346 -0.5182 -0.2332  0.3402
 6648SOL    HW131403   2.720   2.576   9.369  2.2173  0.2966  0.9287
 6648SOL    HW231404   2.835   2.488   9.324 -1.1382 -0.0106 -2.2407
 6649SOL     OW31405   0.048   1.710   5.099  0.1295 -0.3419  0.1490
 6649SOL    HW131406   0.076   1.633   5.149  0.7481 -0.5029 -0.4335
 6649SOL    HW231407   0.034   1.765   5.176  0.3160  1.6475 -1.2614
 6650SOL     OW31408   2.809   0.857   7.955  0.3703  0.3942  0.6558
 6650SOL    HW131409   2.787   0.873   7.863 -2.9127  0.6675  1.4933
 6650SOL    HW231410   2.901   0.884   7.947  0.5401 -0.7481 -1.3047
 6651SOL     OW31411   2.735   4.493   2.935 -0.1112  0.1517  0.3031
 6651SOL    HW131412   2.737   4.474   3.028 -1.3696  0.8319  0.4583
 6651SOL    HW231413   2.768   4.408   2.905 -2.1501 -0.6410  0.3070
 6652SOL     OW31414   0.359   0.979  11.482 -0.1104 -0.0243  0.1725
 6652SOL    HW131415   0.445   0.971  11.525 -0.6091 -0.2716  1.1153
 6652SOL    HW231416   0.383   0.931  11.403 -1.5715  1.7172 -1.2981
 6653SOL     OW31417   3.873   2.882   4.459  0.4944  0.0663 -0.2262
 6653SOL    HW131418   3.813   2.890   4.533  1.6697 -1.4144  0.8868
 6653SOL    HW231419   3.817   2.834   4.397  1.4753 -3.0834  1.2989
 6654SOL     OW31420   3.978   3.075   6.789  0.0816  0.4069  0.3969
 6654SOL    HW131421   3.952   3.054   6.699  1.5727 -0.6686  0.2256
 6654SOL    HW231422   3.962   3.170   6.796  1.2875  0.6842 -0.7502
 6655SOL     OW31423   1.261   3.147  12.541 -0.0780 -0.2490  0.3114
 6655SOL    HW131424   1.300   3.229  12.512  0.9374 -1.2954 -1.2542
 6655SOL    HW231425   1.173   3.173  12.568  0.2232  0.4673  0.5894
 6656SOL     OW31426   0.477   4.665   4.557 -0.3631  0.4585 -0.2797
 6656SOL    HW131427   0.562   4.693   4.590 -0.7046  3.0909 -1.6150
 6656SOL    HW231428   0.428   4.688   4.636  0.1006  1.7122 -0.3517
 6657SOL     OW31429   2.195   3.503  12.226  0.6303  0.0981 -0.4286
 6657SOL    HW131430   2.188   3.597  12.243  0.6973 -0.1037  0.7108
 6657SOL    HW231431   2.106   3.483  12.200 -0.3034  0.3307  2.5847
 6658SOL     OW31432   1.098   1.853   9.057 -0.3445 -0.0695 -0.3605
 6658SOL    HW131433   1.082   1.884   9.146  0.0445 -2.5879  0.5863
 6658SOL    HW231434   1.044   1.923   9.020  0.4995  1.4213  1.2060
 6659SOL     OW31435   1.122   3.971   5.004  0.8443  0.2695  0.0143
 6659SOL    HW131436   1.076   3.897   4.966  0.7542 -0.2989  1.2155
 6659SOL    HW231437   1.213   3.942   4.992  0.0561 -1.6705 -1.1623
 6660SOL     OW31438   3.260   1.152   6.698  0.2137  0.1909 -0.2248
 6660SOL    HW131439   3.229   1.063   6.709  1.1808 -0.1342 -0.1755
 6660SOL    HW231440   3.236   1.186   6.785  0.5982 -1.4455  0.5032
 6661SOL     OW31441   2.400   4.520  11.632  0.5006  0.3163  0.2285
 6661SOL    HW131442   2.399   4.616  11.629  1.1617  0.2640 -1.8835
 6661SOL    HW231443   2.484   4.499  11.592  0.9108  1.7327  0.3423
 6662SOL     OW31444   1.436   1.408   9.909  0.2954 -0.5316  0.0113
 6662SOL    HW131445   1.352   1.419   9.953  1.4236  1.6377  1.6316
 6662SOL    HW231446   1.407   1.410   9.818  2.3227  0.8871 -0.6071
 6663SOL     OW31447   3.754   1.660   8.460  0.3300 -0.1912 -0.1259
 6663SOL    HW131448   3.754   1.632   8.368  1.2600 -1.5857  0.3127
 6663SOL    HW231449   3.763   1.755   8.456  1.1290 -0.0950  4.4555
 6664SOL     OW31450   1.390   3.540  15.496 -0.4637 -0.3406  0.3708
 6664SOL    HW131451   1.336   3.592  15.555  0.9616  0.0991  1.2838
 6664SOL    HW231452   1.455   3.503  15.555  0.1360  0.3748  0.1720
 6665SOL     OW31453   3.268   1.948  17.000  0.0432 -0.1462 -0.0257
 6665SOL    HW131454   3.261   2.008  16.925 -1.0320  0.1642  0.3201
 6665SOL    HW231455   3.277   2.015  17.067 -3.6861 -0.2186  0.5393
 6666SOL     OW31456   3.346   4.202   7.402  0.2514 -0.4383  0.1622
 6666SOL    HW131457   3.298   4.284   7.416  0.4283  0.0116 -1.8698
 6666SOL    HW231458   3.421   4.224   7.348 -0.6494  1.5161 -0.2905
 6667SOL     OW31459   3.535   1.135   5.239 -0.2674  0.0437  0.3826
 6667SOL    HW131460   3.500   1.116   5.153  0.3293 -1.1668  0.4048
 6667SOL    HW231461   3.486   1.210   5.275  0.0878  0.3258  0.2803
 6668SOL     OW31462   0.129   0.169   3.270 -0.7377 -0.1907  0.1073
 6668SOL    HW131463   0.040   0.174   3.234 -0.1926  3.6259 -0.7562
 6668SOL    HW231464   0.147   0.077   3.250 -1.3630 -0.3206  0.1422
 6669SOL     OW31465   2.520   3.372  14.608 -0.3307  0.1394 -0.0870
 6669SOL    HW131466   2.512   3.288  14.653 -0.0511  0.5417  0.7077
 6669SOL    HW231467   2.613   3.389  14.620 -0.1029 -2.0445  1.3777
 6670SOL     OW31468   0.259   1.409   3.373 -0.9113  0.1491  0.2282
 6670SOL    HW131469   0.240   1.474   3.305 -1.9508  1.1640  1.4737
 6670SOL    HW231470   0.323   1.355   3.326  0.1795  1.3509  0.3546
 6671SOL     OW31471   4.000   0.807   4.477  0.1325  0.1161  0.3067
 6671SOL    HW131472   3.955   0.739   4.527 -0.0505 -0.5516 -0.7457
 6671SOL    HW231473   3.973   0.890   4.516 -0.3597  1.3578 -2.6681
 6672SOL     OW31474   3.202   0.021   4.411  0.4591 -0.4307  0.7010
 6672SOL    HW131475   3.143   4.675   4.392  0.7944 -0.9412  1.5733
 6672SOL    HW231476   3.286   4.701   4.404  1.1066  0.4721  2.4045
 6673SOL     OW31477   2.191   1.078  16.703 -0.0631  0.6076 -0.4423
 6673SOL    HW131478   2.110   1.089  16.752 -0.9542 -0.5804 -1.6326
 6673SOL    HW231479   2.263   1.083  16.766  0.1590 -0.3398 -0.6161
 6674SOL     OW31480   3.746   0.819   6.352  0.3184 -0.5167 -0.1607
 6674SOL    HW131481   3.757   0.889   6.416  0.1994 -2.2094  1.7003
 6674SOL    HW231482   3.756   0.869   6.271 -2.3867  2.4444  1.3002
 6675SOL     OW31483   2.042   3.859   2.143 -0.3399 -0.4107 -1.0162
 6675SOL    HW131484   2.136   3.867   2.124 -0.6608  2.0779 -1.5706
 6675SOL    HW231485   2.024   3.950   2.166  1.3721 -0.5744  0.9995
 6676SOL     OW31486   3.841   4.368   8.335  0.2129 -0.2725 -0.3803
 6676SOL    HW131487   3.868   4.416   8.413  0.9412  0.5445 -1.1264
 6676SOL    HW231488   3.796   4.292   8.372 -0.5393  0.2328 -0.2642
 6677SOL     OW31489   4.649   2.201  14.773  0.0747  0.5404  0.2027
 6677SOL    HW131490   4.565   2.177  14.813 -1.0865  1.4507 -1.7339
 6677SOL    HW231491   4.663   2.291  14.800  0.5843  0.6596 -0.4983
 6678SOL     OW31492   1.026   2.091   1.614  0.2168 -0.0691  0.3986
 6678SOL    HW131493   1.045   2.172   1.566  0.5066  0.1817  0.9447
 6678SOL    HW231494   0.977   2.126   1.688 -3.3846  0.5242 -2.2441
 6679SOL     OW31495   2.980   3.269   6.118 -0.0996 -0.5049  0.5910
 6679SOL    HW131496   2.955   3.203   6.182  0.7069 -0.3839  1.0396
 6679SOL    HW231497   2.957   3.347   6.168  0.6169 -0.3056  0.6173
 6680SOL     OW31498   3.842   3.341   3.564 -0.4053 -0.1321 -0.5338
 6680SOL    HW131499   3.768   3.319   3.508  0.1173 -0.9080 -0.9163
 6680SOL    HW231500   3.824   3.297   3.647 -3.4706  3.7614  0.8236
 6681SOL     OW31501   1.984   2.426   8.239  0.2260 -0.4872 -0.3230
 6681SOL    HW131502   1.951   2.514   8.256  1.8961  0.1998 -0.6335
 6681SOL    HW231503   2.021   2.446   8.153  0.7222 -2.7164 -0.6398
 6682SOL     OW31504   1.640   4.665   3.312 -0.0818 -0.1100 -0.0261
 6682SOL    HW131505   1.554   4.696   3.338  0.3200  0.3527  0.7454
 6682SOL    HW231506   1.667   0.002   3.246  0.8608 -1.0711 -0.5637
 6683SOL     OW31507   0.053   3.940   4.653 -0.4888  0.3802 -0.0144
 6683SOL    HW131508   0.012   3.937   4.740 -1.3718  1.6433 -0.3869
 6683SOL    HW231509   4.708   3.928   4.590  0.1207 -0.1825 -0.5922
 6684SOL     OW31510   3.890   0.612   3.625  0.4269 -0.0134  0.1510
 6684SOL    HW131511   3.814   0.651   3.667 -0.9365 -2.7380  0.2127
 6684SOL    HW231512   3.963   0.633   3.682 -1.4998  2.2825  1.7625
 6685SOL     OW31513   0.038   1.686  15.491  0.6270 -0.7640 -0.2582
 6685SOL    HW131514   0.024   1.780  15.501 -0.0117 -0.9772  0.8427
 6685SOL    HW231515   0.045   1.677  15.396  0.3428 -1.0944 -0.2438
 6686SOL     OW31516   2.712   1.818   6.489  0.2392 -0.1650 -0.2499
 6686SOL    HW131517   2.686   1.909   6.474  1.4998  0.2481  0.0128
 6686SOL    HW231518   2.779   1.812   6.421  0.9534  2.1538  0.2465
 6687SOL     OW31519   3.243   0.686   5.884 -0.3483  0.4280 -0.0490
 6687SOL    HW131520   3.245   0.627   5.959 -0.0532  0.3368 -0.1307
 6687SOL    HW231521   3.293   0.645   5.814  1.3111 -0.2141  1.5380
 6688SOL     OW31522   0.238   3.030   8.577  0.1146  0.4567 -0.4210
 6688SOL    HW131523   0.299   2.962   8.547 -1.5590 -1.2143 -0.0573
 6688SOL    HW231524   0.152   2.987   8.586  0.4067  0.0299  0.3179
 6689SOL     OW31525   2.727   1.208   3.788 -0.2140 -0.4673  0.1816
 6689SOL    HW131526   2.820   1.225   3.777  0.0146 -1.4570  0.5944
 6689SOL    HW231527   2.727   1.149   3.863  1.3106 -0.4569  0.1897
 6690SOL     OW31528   0.699   0.944   7.792  0.0404  0.1979 -0.5325
 6690SOL    HW131529   0.689   1.000   7.714  0.8137 -1.7781 -2.0432
 6690SOL    HW231530   0.692   1.007   7.864 -0.2984  0.1587 -0.5311
 6691SOL     OW31531   4.331   2.531   6.962  0.5810 -0.1170  0.2829
 6691SOL    HW131532   4.332   2.573   6.876 -1.7072 -2.9285 -1.1063
 6691SOL    HW231533   4.239   2.534   6.987  0.3499 -0.1823 -0.5871
 6692SOL     OW31534   4.468   0.927  11.165 -0.2339  0.6890 -0.0011
 6692SOL    HW131535   4.495   0.979  11.089  2.6439 -0.3588  0.3191
 6692SOL    HW231536   4.387   0.894  11.126  0.3190 -0.5536 -0.0782
 6693SOL     OW31537   1.672   3.054   3.309  0.2333 -0.3558  0.4326
 6693SOL    HW131538   1.635   3.050   3.398  1.0029 -2.5248  0.6601
 6693SOL    HW231539   1.627   2.975   3.281  1.0961 -0.0912 -1.7141
 6694SOL     OW31540   2.412   1.909   1.982 -0.3888  0.3868 -0.6084
 6694SOL    HW131541   2.392   1.817   1.995  3.1996 -0.4835 -1.2580
 6694SOL    HW231542   2.361   1.936   1.906  0.6095 -0.2947 -1.5063
 6695SOL     OW31543   2.482   3.405   6.381  0.3135  0.1942 -0.3543
 6695SOL    HW131544   2.424   3.461   6.433 -0.2966  1.2921 -2.2317
 6695SOL    HW231545   2.503   3.334   6.442  0.6605 -0.9710 -1.8337
 6696SOL     OW31546   3.260   1.906   9.503  0.4139  0.5049  0.1257
 6696SOL    HW131547   3.204   1.960   9.559 -1.9762 -2.8733  0.9835
 6696SOL    HW231548   3.199   1.893   9.430  0.5529  0.7225 -0.0293
 6697SOL     OW31549   3.217   2.378   2.265  0.5296 -0.0809  0.2110
 6697SOL    HW131550   3.296   2.408   2.219  1.5366 -0.7607  1.4955
 6697SOL    HW231551   3.263   2.325   2.329  0.8156 -1.1116 -0.8436
 6698SOL     OW31552   1.740   3.220   0.548 -0.2872 -0.1585 -0.0793
 6698SOL    HW131553   1.676   3.284   0.520  0.3376  0.8997  0.9079
 6698SOL    HW231554   1.781   3.197   0.464 -0.9999 -2.2839  0.1470
 6699SOL     OW31555   2.971   2.388   6.146 -0.1101 -0.3909 -0.1440
 6699SOL    HW131556   3.051   2.378   6.095  0.7121 -0.8359  1.2333
 6699SOL    HW231557   2.903   2.366   6.082 -2.9177  1.7363  2.1023
 6700SOL     OW31558   0.862   1.346  10.682 -0.2942 -0.0351 -0.0486
 6700SOL    HW131559   0.811   1.307  10.611  1.0411 -0.1950 -0.9154
 6700SOL    HW231560   0.942   1.374  10.639 -0.4029 -0.6291 -0.6350
 6701SOL     OW31561   4.494   3.705  10.627 -0.0059 -0.4445  0.2253
 6701SOL    HW131562   4.431   3.771  10.657 -0.4636  0.1586 -2.0840
 6701SOL    HW231563   4.437   3.659  10.565  1.6652  2.6789 -3.6700
 6702SOL     OW31564   2.091   3.370   2.742 -0.2856  0.4019 -0.0488
 6702SOL    HW131565   2.113   3.343   2.653 -0.9404 -0.1760 -0.0363
 6702SOL    HW231566   2.110   3.283   2.778  0.8729  0.6486 -0.0774
 6703SOL     OW31567   2.620   1.485  12.962  0.0590 -0.2455  0.2018
 6703SOL    HW131568   2.593   1.403  13.004 -0.7894 -1.2072 -2.2350
 6703SOL    HW231569   2.567   1.475  12.883  0.9762  0.1378 -0.4527
 6704SOL     OW31570   2.609   1.943   1.189  0.1738  0.2782  0.6408
 6704SOL    HW131571   2.588   2.005   1.120 -1.1238 -0.8314  0.0453
 6704SOL    HW231572   2.697   1.976   1.206  0.8410 -0.8670 -0.5891
 6705SOL     OW31573   2.680   0.311  16.257 -0.2061  0.0360  0.5156
 6705SOL    HW131574   2.609   0.258  16.221 -0.6240 -0.6990  2.4584
 6705SOL    HW231575   2.678   0.376  16.186 -1.2381 -1.1653 -0.5472
 6706SOL     OW31576   4.618   0.550  16.286  0.0496 -0.0811  0.5567
 6706SOL    HW131577   4.709   0.574  16.304  0.8248 -2.6503  0.0945
 6706SOL    HW231578   4.575   0.632  16.310 -2.9180 -1.9046  1.4548
 6707SOL     OW31579   2.819   1.282   5.018 -0.2889  0.5596 -0.0689
 6707SOL    HW131580   2.899   1.304   5.066 -1.7547  1.3622  1.9812
 6707SOL    HW231581   2.822   1.342   4.943 -2.1344 -1.1279 -1.4947
 6708SOL     OW31582   4.224   2.016   6.031  0.4878  0.5194  0.7502
 6708SOL    HW131583   4.249   2.087   5.972 -0.9205  1.2088  0.9658
 6708SOL    HW231584   4.304   2.008   6.083  0.8206  3.2556  0.6729
 6709SOL     OW31585   3.858   2.521   8.887 -0.5872  0.4911  0.2949
 6709SOL    HW131586   3.781   2.519   8.831  0.7560 -1.5046 -1.4907
 6709SOL    HW231587   3.872   2.613   8.909 -0.1755  0.0361  1.9638
 6710SOL     OW31588   4.000   2.627   4.561  0.0453  0.2414  0.1321
 6710SOL    HW131589   4.026   2.545   4.603 -0.5718 -0.4311 -0.8180
 6710SOL    HW231590   3.937   2.651   4.629  2.6443  2.3356  1.8374
 6711SOL     OW31591   1.456   3.098  15.107  0.0659  0.1707  0.7617
 6711SOL    HW131592   1.442   3.092  15.012 -0.4449  0.9345  0.7866
 6711SOL    HW231593   1.407   3.022  15.137 -0.0870 -0.1779 -0.3454
 6712SOL     OW31594   3.903   0.332   6.869 -0.1069 -0.5208  0.4786
 6712SOL    HW131595   3.863   0.418   6.871  0.3093 -0.3488  1.4446
 6712SOL    HW231596   3.827   0.274   6.864 -0.7664  0.4276 -0.3155
 6713SOL     OW31597   0.438   0.858  15.423  0.2882  0.0538 -0.2245
 6713SOL    HW131598   0.504   0.911  15.378  0.8657 -2.2511 -2.1182
 6713SOL    HW231599   0.440   0.894  15.511 -0.1516  0.9183 -0.5723
 6714SOL     OW31600   4.064   3.071   2.891 -0.6306  0.7573 -0.0580
 6714SOL    HW131601   4.008   3.008   2.846 -0.2792  0.5665 -0.2313
 6714SOL    HW231602   4.059   3.027   2.976  0.3308 -2.8423 -1.8469
 6715SOL     OW31603   4.570   4.066   9.382 -0.5126 -0.0377  0.1714
 6715SOL    HW131604   4.514   3.989   9.389 -0.8993  0.2431  0.1324
 6715SOL    HW231605   4.656   4.023   9.386  0.6192  2.4631  3.1307
 6716SOL     OW31606   3.537   1.895   4.906 -0.2189 -0.6085  0.6081
 6716SOL    HW131607   3.532   1.838   4.983 -0.5184 -0.1724  0.9084
 6716SOL    HW231608   3.494   1.825   4.856 -0.3496 -0.2123  0.1658
 6717SOL     OW31609   2.733   0.762  13.757  0.2392 -0.0561 -0.0505
 6717SOL    HW131610   2.723   0.703  13.683  0.5645 -0.8166  0.5108
 6717SOL    HW231611   2.697   0.839  13.712 -0.0653 -0.2681 -0.1639
 6718SOL     OW31612   2.417   1.575   3.986  0.0424 -0.3858  0.0775
 6718SOL    HW131613   2.379   1.660   4.007 -1.0565 -1.1229  1.0242
 6718SOL    HW231614   2.340   1.520   3.974 -0.1494  0.2114 -1.4269
 6719SOL     OW31615   3.287   3.062   8.689  0.7003 -0.0588  0.6143
 6719SOL    HW131616   3.323   3.003   8.755 -1.8526 -1.0166  1.1421
 6719SOL    HW231617   3.206   3.020   8.663  0.2562 -1.3696  4.0991
 6720SOL     OW31618   0.959   1.341   6.450 -0.2531  0.1098 -0.1364
 6720SOL    HW131619   1.021   1.278   6.487 -0.0360  0.0344 -0.6331
 6720SOL    HW231620   1.016   1.401   6.402  1.3549 -0.7767  0.6761
 6721SOL     OW31621   4.434   4.272   6.095  0.1022 -0.3522 -0.3864
 6721SOL    HW131622   4.485   4.191   6.086 -1.1168 -1.2024  0.3251
 6721SOL    HW231623   4.432   4.298   6.004  1.1550  3.1328  0.5956
 6722SOL     OW31624   0.912   4.140   4.939 -0.5033  0.0852  0.4071
 6722SOL    HW131625   0.995   4.094   4.944  0.1610  1.3996  1.4735
 6722SOL    HW231626   0.947   4.221   4.976 -0.8336  0.9749 -1.2627
 6723SOL     OW31627   3.365   2.904   4.120  0.2696 -0.3682 -0.2522
 6723SOL    HW131628   3.288   2.957   4.096 -0.5775 -1.6520 -0.3589
 6723SOL    HW231629   3.337   2.879   4.208  1.2715 -2.9074 -0.6708
 6724SOL     OW31630   4.425   2.765   7.085  0.2637  0.1163  0.2616
 6724SOL    HW131631   4.403   2.825   7.013  0.7379 -0.9920 -0.8182
 6724SOL    HW231632   4.413   2.681   7.041 -0.4458 -0.4844  1.6041
 6725SOL     OW31633   4.392   0.480  17.168 -0.1019 -0.1883 -0.5663
 6725SOL    HW131634   4.335   0.535  17.223 -0.0019  1.3473 -1.9867
 6725SOL    HW231635   4.394   0.405  17.227  1.4996  0.4506  0.2033
 6726SOL     OW31636   0.020   2.049   6.546 -0.0258  0.0552  0.4665
 6726SOL    HW131637   4.696   2.130   6.530 -0.9465 -0.2449  1.7400
 6726SOL    HW231638   4.681   1.998   6.595 -0.9178 -0.9888 -1.8274
 6727SOL     OW31639   2.275   3.697   5.905  0.2921  0.0550 -0.0699
 6727SOL    HW131640   2.181   3.680   5.907  0.0847  1.2228  0.3443
 6727SOL    HW231641   2.300   3.684   5.997  3.0163  0.3809 -0.7580
 6728SOL     OW31642   3.020   1.016  11.728 -0.1465 -0.4863  0.4562
 6728SOL    HW131643   3.094   0.962  11.699 -1.3859 -0.5226 -2.6662
 6728SOL    HW231644   3.031   1.091  11.670  1.4250 -0.8102  0.3196
 6729SOL     OW31645   1.488   2.215   8.153 -0.5559 -0.3845  0.2066
 6729SOL    HW131646   1.558   2.153   8.174  1.0781  1.3514 -0.1354
 6729SOL    HW231647   1.533   2.297   8.175  0.9359 -1.4658  1.2513
 6730SOL     OW31648   1.076   1.039  12.991  0.0658  0.1937  0.0942
 6730SOL    HW131649   1.044   0.957  13.026 -0.4842  0.3170 -0.1154
 6730SOL    HW231650   1.071   1.033  12.895  1.5785  1.6841 -0.0916
 6731SOL     OW31651   3.125   3.615   1.577  0.1808 -0.0032  0.0262
 6731SOL    HW131652   3.127   3.556   1.654 -0.0007  0.7969  0.6412
 6731SOL    HW231653   3.199   3.673   1.590 -0.5577  1.1189 -0.8119
 6732SOL     OW31654   2.630   1.219   9.171  0.5891  0.4949  0.5401
 6732SOL    HW131655   2.606   1.247   9.260  0.2752 -2.3269  1.3560
 6732SOL    HW231656   2.675   1.300   9.147 -1.5077  0.6713 -2.6510
 6733SOL     OW31657   3.125   0.647  13.597  0.0743 -0.5007  0.0397
 6733SOL    HW131658   3.089   0.559  13.611 -3.3327  0.4246 -2.8657
 6733SOL    HW231659   3.215   0.638  13.628  0.6069  0.3572 -1.2281
 6734SOL     OW31660   4.225   4.357  12.445 -0.2160 -0.0868  0.6106
 6734SOL    HW131661   4.160   4.352  12.515 -0.8906  1.1382  0.0811
 6734SOL    HW231662   4.254   4.266  12.439 -0.4834 -0.1601  0.4003
 6735SOL     OW31663   2.733   2.844   5.036 -0.3611 -0.0825 -0.6978
 6735SOL    HW131664   2.805   2.907   5.027  0.4220 -0.8136  0.4064
 6735SOL    HW231665   2.710   2.852   5.128 -1.4059  0.6000 -1.0186
 6736SOL     OW31666   3.170   3.160  10.749  0.0502 -0.0289 -0.5199
 6736SOL    HW131667   3.133   3.128  10.667 -0.4701 -0.9915  0.0837
 6736SOL    HW231668   3.100   3.132  10.808  1.5382 -1.4372  0.5791
 6737SOL     OW31669   2.529   0.210   2.572  0.2251 -0.3554  0.0248
 6737SOL    HW131670   2.517   0.181   2.663  0.0847  1.6377  0.6402
 6737SOL    HW231671   2.573   0.294   2.583 -1.1536  0.3026  0.5041
 6738SOL     OW31672   2.245   4.669  16.880  0.4197  0.1262 -0.2757
 6738SOL    HW131673   2.341   4.674  16.881  0.5328 -1.8907 -0.8194
 6738SOL    HW231674   2.222   4.692  16.970  1.8976 -1.9010  0.6179
 6739SOL     OW31675   4.256   1.627   8.763  0.2844 -0.1846  0.1902
 6739SOL    HW131676   4.187   1.585   8.814 -1.1917  2.5789  0.4638
 6739SOL    HW231677   4.213   1.624   8.677 -1.0194  0.3684  0.8194
 6740SOL     OW31678   2.964   4.041   7.636 -0.5454 -0.4610  0.6884
 6740SOL    HW131679   2.916   3.958   7.628 -2.8975  0.9596 -0.0693
 6740SOL    HW231680   2.947   4.085   7.553  1.0132 -3.7994 -1.3956
 6741SOL     OW31681   4.245   4.346   2.802 -0.1045  0.3542 -0.6250
 6741SOL    HW131682   4.306   4.405   2.847 -0.7810  2.0157 -1.8985
 6741SOL    HW231683   4.252   4.383   2.714 -1.8545  0.3405 -0.7600
 6742SOL     OW31684   0.073   2.289   4.807  0.0021 -0.3911  0.5423
 6742SOL    HW131685   0.146   2.349   4.819 -0.2382  0.1996 -0.8707
 6742SOL    HW231686   0.016   2.340   4.750  0.7275  0.3324  0.4715
 6743SOL     OW31687   3.904   2.787   8.483 -0.1436  0.3399  0.4054
 6743SOL    HW131688   3.815   2.751   8.483 -0.4372  1.0658  0.2436
 6743SOL    HW231689   3.942   2.735   8.553 -0.5170  0.3735  0.6369
 6744SOL     OW31690   4.212   0.460   3.111 -0.0911 -0.0032  0.2197
 6744SOL    HW131691   4.215   0.459   3.207 -0.7001  2.3778  0.2655
 6744SOL    HW231692   4.225   0.552   3.090  1.7394 -0.6142 -1.2412
 6745SOL     OW31693   3.985   4.470   6.816 -0.0898 -0.8522 -0.0476
 6745SOL    HW131694   3.937   4.411   6.874  1.8261 -0.1763  2.2556
 6745SOL    HW231695   4.052   4.510   6.872 -0.2702  0.6527 -0.9113
 6746SOL     OW31696   1.768   2.610   1.985  0.6789 -0.6038 -0.4148
 6746SOL    HW131697   1.827   2.643   2.053  1.1244  1.5197 -1.8388
 6746SOL    HW231698   1.831   2.595   1.914  1.2344  3.7503 -0.8608
 6747SOL     OW31699   3.469   0.604   3.737  0.0980 -0.2115  0.2802
 6747SOL    HW131700   3.531   0.673   3.714 -1.7377  1.1289 -0.6250
 6747SOL    HW231701   3.531   0.534   3.758 -1.5090 -1.2792  1.4493
 6748SOL     OW31702   0.499   1.081  12.483 -0.2679  0.2850  0.3197
 6748SOL    HW131703   0.561   1.154  12.491 -0.4716  0.6259 -1.2517
 6748SOL    HW231704   0.494   1.078  12.388 -3.1498  2.0845  0.4111
 6749SOL     OW31705   2.107   4.172   7.776 -0.1745 -0.2272 -0.3718
 6749SOL    HW131706   2.115   4.084   7.739 -2.0264 -1.8736  3.1796
 6749SOL    HW231707   2.197   4.200   7.794  0.2727 -1.5378 -0.5510
 6750SOL     OW31708   4.099   2.185  10.863  0.0638 -0.9569 -0.1988
 6750SOL    HW131709   4.073   2.184  10.955  0.7962 -2.0445 -0.0053
 6750SOL    HW231710   4.070   2.095  10.847 -1.9297 -0.2753 -0.5146
 6751SOL     OW31711   2.550   1.324   7.650  0.3561  0.4236  0.1638
 6751SOL    HW131712   2.457   1.345   7.662  0.5467  1.4525 -0.2417
 6751SOL    HW231713   2.580   1.409   7.681 -0.3653  0.8413 -0.2850
 6752SOL     OW31714   2.895   2.170   4.210 -0.3800 -0.0521 -0.6585
 6752SOL    HW131715   2.859   2.090   4.171  1.1033 -1.6259  1.1657
 6752SOL    HW231716   2.891   2.228   4.134 -1.1423 -0.6179 -1.0582
 6753SOL     OW31717   4.351   1.492   5.789  0.9627  0.1101  0.2391
 6753SOL    HW131718   4.371   1.581   5.819  0.0509 -0.2892  2.0523
 6753SOL    HW231719   4.441   1.460   5.787  0.2737 -1.7508 -0.6903
 6754SOL     OW31720   2.996   1.929   1.478 -0.4630  0.9097 -0.0220
 6754SOL    HW131721   3.024   1.900   1.565 -2.2721  1.3948  0.7381
 6754SOL    HW231722   3.042   2.013   1.474 -0.9827  1.3062  2.0448
 6755SOL     OW31723   1.639   3.538   6.141  0.3062 -0.4356 -0.5455
 6755SOL    HW131724   1.658   3.444   6.149  0.9714 -0.3084 -0.6523
 6755SOL    HW231725   1.643   3.542   6.045  0.4890 -0.2128 -0.5292
 6756SOL     OW31726   1.701   0.834   7.878  0.2419  0.6377  0.0516
 6756SOL    HW131727   1.706   0.928   7.895  0.8432  0.2047  2.3665
 6756SOL    HW231728   1.782   0.811   7.923  1.3223 -0.5048 -2.4790
 6757SOL     OW31729   4.017   2.787  14.333  0.2151 -0.0950  0.3218
 6757SOL    HW131730   4.070   2.846  14.280  0.1937  1.9190  2.5196
 6757SOL    HW231731   3.949   2.767  14.269 -1.2794 -0.9494  2.1378
 6758SOL     OW31732   2.384   4.493   4.296 -0.5558  0.0658 -0.2323
 6758SOL    HW131733   2.369   4.563   4.232  3.3992  0.5600 -0.6160
 6758SOL    HW231734   2.302   4.445   4.288 -0.9791  0.3565  2.4774
 6759SOL     OW31735   0.736   1.603   1.195 -0.3236 -0.3650  0.3598
 6759SOL    HW131736   0.685   1.628   1.272  0.8009  1.9362  0.3474
 6759SOL    HW231737   0.677   1.611   1.119 -0.7273 -0.4462  0.6635
 6760SOL     OW31738   4.018   3.904   3.843 -0.4510  0.3865 -0.7005
 6760SOL    HW131739   4.083   3.912   3.774 -0.5913  1.3310 -0.7273
 6760SOL    HW231740   3.944   3.871   3.793 -0.3879 -1.7971  0.6571
 6761SOL     OW31741   2.834   0.756  14.446 -0.4938 -0.4215  0.2173
 6761SOL    HW131742   2.793   0.681  14.489  0.1803  0.6021  2.6960
 6761SOL    HW231743   2.860   0.713  14.365 -1.9230 -0.3647 -0.2556
 6762SOL     OW31744   0.421   1.315  15.096  0.3943  0.7256  0.0027
 6762SOL    HW131745   0.384   1.381  15.154 -0.6292  0.6673 -0.5846
 6762SOL    HW231746   0.502   1.366  15.086 -0.6427  2.2039 -0.8879
 6763SOL     OW31747   0.672   4.538  11.605 -0.3187  0.0270  0.3724
 6763SOL    HW131748   0.719   4.524  11.687  1.0165  0.4414 -0.3204
 6763SOL    HW231749   0.667   4.450  11.569 -1.0095 -0.3212  1.3394
 6764SOL     OW31750   2.820   3.870   7.837  0.8715 -0.6551 -0.3486
 6764SOL    HW131751   2.862   3.787   7.816  2.0060  0.0087 -0.7223
 6764SOL    HW231752   2.844   3.876   7.930  0.6495  1.2078 -0.4035
 6765SOL     OW31753   1.007   2.459  13.656 -0.7064 -0.0989  0.2892
 6765SOL    HW131754   0.991   2.420  13.570 -0.4681  0.6209 -0.0810
 6765SOL    HW231755   1.055   2.540  13.640  1.4052 -1.3992  0.0523
 6766SOL     OW31756   0.409   1.052   1.749  0.0448 -0.1641 -0.0476
 6766SOL    HW131757   0.392   1.036   1.656  2.3817 -2.4488 -0.0793
 6766SOL    HW231758   0.335   1.103   1.782  0.4433 -0.3703  1.1589
 6767SOL     OW31759   0.149   1.725   3.912  0.4345  0.1621  0.1486
 6767SOL    HW131760   0.054   1.720   3.927  0.4429 -1.2872 -0.2648
 6767SOL    HW231761   0.149   1.694   3.821  0.9698  3.5362 -0.9938
 6768SOL     OW31762   2.294   4.283  13.822  0.0753 -0.2486 -0.5304
 6768SOL    HW131763   2.261   4.371  13.806 -1.6253 -0.4018  2.1476
 6768SOL    HW231764   2.240   4.240  13.756 -0.3497 -0.5112 -0.0103
 6769SOL     OW31765   0.833   1.181   8.827 -0.0512 -0.0273  0.3820
 6769SOL    HW131766   0.855   1.132   8.748 -1.7448  0.2655 -0.2554
 6769SOL    HW231767   0.908   1.167   8.886  0.0507  0.5520  0.3910
 6770SOL     OW31768   4.222   1.215   2.892  0.4665  0.4592 -0.1766
 6770SOL    HW131769   4.288   1.217   2.823  0.5604 -0.7584 -0.1248
 6770SOL    HW231770   4.144   1.252   2.850 -1.0935 -1.1463  1.3103
 6771SOL     OW31771   1.870   2.679   5.191  0.1292 -0.2256  0.7395
 6771SOL    HW131772   1.934   2.618   5.156  0.1154  0.3938 -0.3413
 6771SOL    HW231773   1.884   2.668   5.285 -3.1595  4.1204  1.7250
 6772SOL     OW31774   2.736   3.767   9.474 -0.1168  0.0919  0.3754
 6772SOL    HW131775   2.687   3.829   9.420  3.1168  0.4381 -2.1316
 6772SOL    HW231776   2.773   3.826   9.540  0.4857  1.1554 -0.9219
 6773SOL     OW31777   2.620   0.292  17.266  0.4485 -0.2549 -0.5153
 6773SOL    HW131778   2.542   0.242  17.242  1.2824 -2.7423  1.9569
 6773SOL    HW231779   2.687   0.250  17.212 -1.0441 -1.0220 -1.7763
 6774SOL     OW31780   3.062   3.580   6.221 -0.1398  0.7235  0.2785
 6774SOL    HW131781   3.002   3.573   6.295  1.0857 -0.0759  1.2119
 6774SOL    HW231782   3.141   3.531   6.246 -0.0945  1.0196  0.7138
 6775SOL     OW31783   4.218   1.792   6.251 -0.2450  0.2684 -0.7689
 6775SOL    HW131784   4.179   1.823   6.169  0.0810  0.9290 -0.6811
 6775SOL    HW231785   4.296   1.751   6.213  1.6382  1.1313  2.1356
 6776SOL     OW31786   0.949   4.148   8.343 -0.1337 -0.1484  0.0825
 6776SOL    HW131787   1.043   4.152   8.326  0.0813 -1.7486  0.9214
 6776SOL    HW231788   0.926   4.147   8.250 -0.4204  0.1674  0.1487
 6777SOL     OW31789   0.824   0.825   7.168  0.2489  0.0865 -0.2009
 6777SOL    HW131790   0.810   0.837   7.262 -0.8862  0.9684 -0.4884
 6777SOL    HW231791   0.889   0.892   7.149 -1.0134  1.1564 -0.6846
 6778SOL     OW31792   0.465   1.928   3.429  0.1463  0.8321  0.4130
 6778SOL    HW131793   0.453   2.023   3.434  1.5031  0.9810  0.8117
 6778SOL    HW231794   0.554   1.918   3.462 -0.5270 -2.6006  1.1150
 6779SOL     OW31795   1.044   1.153   6.789  0.2850  0.3217  0.7336
 6779SOL    HW131796   0.993   1.072   6.790  0.3841  0.2639  1.5772
 6779SOL    HW231797   1.099   1.144   6.711 -0.6232 -0.4360  0.1937
 6780SOL     OW31798   1.543   4.689   6.545 -0.1411 -0.2164 -0.6648
 6780SOL    HW131799   1.530   0.041   6.598  2.3159  1.2452 -2.2102
 6780SOL    HW231800   1.540   4.621   6.612  0.3732  0.8021  0.3806
 6781SOL     OW31801   3.236   2.229   0.660 -0.0530  0.3358  0.0873
 6781SOL    HW131802   3.171   2.163   0.638 -1.4726  2.5075 -2.2236
 6781SOL    HW231803   3.265   2.198   0.746 -0.0169  0.1042 -0.0091
 6782SOL     OW31804   3.065   2.168   7.433 -0.0223  0.4680  0.3309
 6782SOL    HW131805   3.156   2.159   7.405 -0.3655 -0.9034 -0.3386
 6782SOL    HW231806   3.029   2.213   7.357  0.1461  1.6290  0.9404
 6783SOL     OW31807   2.154   1.275   5.472 -0.5959 -0.0904  0.5425
 6783SOL    HW131808   2.154   1.281   5.376  0.8103 -0.4766  0.5209
 6783SOL    HW231809   2.162   1.180   5.478 -2.7242 -0.3527 -0.6476
 6784SOL     OW31810   0.612   2.049   8.255  0.1788  0.3988 -0.0043
 6784SOL    HW131811   0.627   1.971   8.202  0.7130  0.1940  0.4395
 6784SOL    HW231812   0.521   2.059   8.228  0.4068 -0.3887 -1.0580
 6785SOL     OW31813   3.956   3.508   6.307 -0.1018 -0.2358 -0.0447
 6785SOL    HW131814   3.945   3.592   6.263  1.4387  0.8205  1.6049
 6785SOL    HW231815   4.027   3.465   6.260 -0.3046  1.0026 -1.4946
 6786SOL     OW31816   2.589   0.198   4.802 -0.2807  0.1503 -0.4137
 6786SOL    HW131817   2.622   0.283   4.832 -1.1909  0.4827 -0.3323
 6786SOL    HW231818   2.652   0.184   4.732  0.6827 -1.3836  0.7835
 6787SOL     OW31819   1.589   0.400  11.258 -0.0679 -0.0999 -0.0011
 6787SOL    HW131820   1.602   0.414  11.352  1.7886 -1.7214 -0.0224
 6787SOL    HW231821   1.635   0.479  11.227  2.2639 -0.7079  1.8717
 6788SOL     OW31822   4.210   0.070   4.008  0.5235 -0.1205 -0.3886
 6788SOL    HW131823   4.274   0.038   3.945  0.4945 -1.0846  0.0659
 6788SOL    HW231824   4.200   4.721   4.066  0.8473  2.3012  2.8336
 6789SOL     OW31825   3.721   1.663   5.151  0.2688 -0.0006 -0.3224
 6789SOL    HW131826   3.780   1.738   5.162  1.0457 -0.7413  0.5633
 6789SOL    HW231827   3.689   1.668   5.241 -1.9895  1.9954 -1.2288
 6790SOL     OW31828   3.802   1.303   2.566 -0.4827  0.0066 -0.1392
 6790SOL    HW131829   3.813   1.393   2.533 -1.1886  0.1085 -0.0961
 6790SOL    HW231830   3.770   1.262   2.485  1.0273  0.6967 -1.0971
 6791SOL     OW31831   3.270   0.646   3.989 -0.1461 -0.1436  0.0398
 6791SOL    HW131832   3.186   0.663   3.946  0.7816 -0.9746 -2.1078
 6791SOL    HW231833   3.324   0.618   3.915 -0.0439 -1.8067  0.7435
 6792SOL     OW31834   2.539   1.878  11.064 -0.7504 -0.2667  0.6340
 6792SOL    HW131835   2.476   1.839  11.003 -2.6522 -2.2550  3.9310
 6792SOL    HW231836   2.581   1.806  11.110 -1.6983 -1.8501 -0.9654
 6793SOL     OW31837   4.325   2.276  16.975  0.1608  0.0760  0.1161
 6793SOL    HW131838   4.331   2.369  16.996  1.2386  0.1192 -0.4197
 6793SOL    HW231839   4.231   2.271  16.994  0.2200  1.5340  0.8149
 6794SOL     OW31840   3.158   1.801   5.761  0.5389 -0.2383 -0.1750
 6794SOL    HW131841   3.191   1.761   5.681  1.9748  0.6345 -0.0013
 6794SOL    HW231842   3.233   1.818   5.817 -0.3893  1.8803  0.4128
 6795SOL     OW31843   1.012   3.518   2.751  0.1483 -0.2579  0.4209
 6795SOL    HW131844   1.104   3.498   2.731 -0.4881 -1.0432 -1.7209
 6795SOL    HW231845   1.021   3.552   2.840 -2.9372  0.3695  0.4850
 6796SOL     OW31846   0.580   3.650   5.263  0.2713  0.0485 -0.2678
 6796SOL    HW131847   0.486   3.633   5.256  0.4599 -1.5674  1.2522
 6796SOL    HW231848   0.578   3.723   5.324 -1.3735 -0.0679 -0.1839
 6797SOL     OW31849   1.526   3.132   5.926  0.0565 -0.3265 -0.1421
 6797SOL    HW131850   1.527   3.174   5.840 -3.7082 -0.1313 -0.0788
 6797SOL    HW231851   1.564   3.047   5.903  1.5019  0.2877 -0.0516
 6798SOL     OW31852   3.464   1.757  17.028  0.5430  0.5082  0.3119
 6798SOL    HW131853   3.412   1.836  17.012 -2.1969 -1.7684 -2.0281
 6798SOL    HW231854   3.553   1.786  17.005 -0.1084  0.9171 -1.6903
 6799SOL     OW31855   0.801   0.393  14.506  0.4432  0.2505  0.5119
 6799SOL    HW131856   0.878   0.337  14.510 -1.3357 -2.4799 -3.3510
 6799SOL    HW231857   0.745   0.340  14.449 -0.3224  1.3441  0.2313
 6800SOL     OW31858   3.876   1.885   7.859 -0.4961  0.4868  0.0792
 6800SOL    HW131859   3.940   1.828   7.816 -0.1074  1.4562 -0.6177
 6800SOL    HW231860   3.835   1.922   7.781 -2.8302 -1.8613  0.1618
 6801SOL     OW31861   2.970   4.478   7.441  0.0634 -0.4447 -0.2636
 6801SOL    HW131862   2.891   4.425   7.439  0.9359 -1.5855 -3.4890
 6801SOL    HW231863   2.935   4.566   7.453  0.9816 -0.2456  1.0636
 6802SOL     OW31864   1.685   2.166   4.447  0.2979  0.2413  0.6434
 6802SOL    HW131865   1.606   2.215   4.424 -0.1623 -0.3777  0.8947
 6802SOL    HW231866   1.749   2.200   4.385  0.3895  1.5885  1.4714
 6803SOL     OW31867   2.319   3.627   6.482  0.3711  0.3497  0.0986
 6803SOL    HW131868   2.332   3.721   6.465  0.3814  0.6762  1.8354
 6803SOL    HW231869   2.261   3.597   6.413  0.0942  1.1530 -0.0144
 6804SOL     OW31870   3.524   3.786   5.821  0.4727  0.1614 -0.4667
 6804SOL    HW131871   3.519   3.878   5.794  0.3262  0.0968 -0.6537
 6804SOL    HW231872   3.441   3.750   5.790  0.1185  0.0235  0.6603
 6805SOL     OW31873   1.937   2.143   9.607  0.0232 -0.1253 -0.1585
 6805SOL    HW131874   1.938   2.129   9.702 -0.0669  0.3299 -0.0905
 6805SOL    HW231875   1.871   2.080   9.578 -3.4126  2.5850  1.6863
 6806SOL     OW31876   1.036   1.589   0.277  0.3913 -0.3307 -0.1826
 6806SOL    HW131877   1.111   1.632   0.319 -0.5598  1.4242 -0.2862
 6806SOL    HW231878   0.981   1.661   0.245 -1.5844 -1.3316  0.9558
 6807SOL     OW31879   4.278   0.049   8.645  0.0117  0.4873  0.3368
 6807SOL    HW131880   4.191   0.054   8.684 -0.8770  1.2249 -1.7766
 6807SOL    HW231881   4.320   4.715   8.707  0.9386 -0.9823 -1.7339
 6808SOL     OW31882   0.753   3.216   2.017 -0.0091  0.3003  0.1383
 6808SOL    HW131883   0.741   3.123   2.034 -0.0652 -0.1080 -2.1586
 6808SOL    HW231884   0.840   3.218   1.976 -0.3630  0.5993 -0.5921
 6809SOL     OW31885   0.992   1.843  16.888 -0.6529 -0.0264 -0.5425
 6809SOL    HW131886   0.968   1.911  16.951 -0.7244  1.0886 -1.7828
 6809SOL    HW231887   0.987   1.893  16.807  1.2989  0.7663 -0.1722
 6810SOL     OW31888   4.116   2.660   9.767  0.5369 -0.2882 -0.1701
 6810SOL    HW131889   4.146   2.577   9.805 -1.1964 -1.2630 -0.9186
 6810SOL    HW231890   4.099   2.719   9.841  0.8561  0.0664 -0.3816
 6811SOL     OW31891   1.411   2.282   6.252 -0.3661 -0.5929  0.2584
 6811SOL    HW131892   1.441   2.348   6.189 -1.7659 -1.2973 -1.1384
 6811SOL    HW231893   1.407   2.200   6.202  1.3805  0.0800 -0.9981
 6812SOL     OW31894   1.108   3.953  10.520 -0.3769  0.1522  0.0124
 6812SOL    HW131895   1.172   3.930  10.453 -0.7566 -0.9407  0.0367
 6812SOL    HW231896   1.100   3.877  10.576 -3.0072  1.6619  1.6825
 6813SOL     OW31897   3.361   2.425  17.274 -0.3121  0.2755 -0.4762
 6813SOL    HW131898   3.332   2.462  17.357 -1.1082 -2.0121  0.2601
 6813SOL    HW231899   3.343   2.502  17.220 -0.1863 -0.7832 -2.0404
 6814SOL     OW31900   3.899   0.496   2.315 -0.4302 -0.0369  0.1667
 6814SOL    HW131901   3.880   0.588   2.335 -1.4842 -0.5472  1.4808
 6814SOL    HW231902   3.891   0.455   2.400 -3.5004  0.1230 -0.0545
 6815SOL     OW31903   4.711   3.491  12.552  0.0047 -0.2757  0.2436
 6815SOL    HW131904   0.039   3.486  12.473  0.6086  1.0543  0.5778
 6815SOL    HW231905   4.695   3.585  12.547 -1.8074 -0.5552  0.6738
 6816SOL     OW31906   3.397   4.694  16.875 -0.8061  0.2492  0.4501
 6816SOL    HW131907   3.363   0.054  16.851 -0.6268  0.5935  1.4229
 6816SOL    HW231908   3.315   4.670  16.918 -0.3037 -1.1761  0.5964
 6817SOL     OW31909   0.121   2.335   7.029  0.1033  0.0928 -0.3332
 6817SOL    HW131910   0.114   2.324   6.934 -1.0543  0.8437 -0.3306
 6817SOL    HW231911   0.052   2.399   7.045  0.4815  0.6393 -0.9271
 6818SOL     OW31912   2.537   0.289   6.669 -1.0774 -0.0702  0.0658
 6818SOL    HW131913   2.619   0.246   6.644  0.1717  1.0392  2.2660
 6818SOL    HW231914   2.471   0.220   6.663  0.1203 -1.2761  0.9792
 6819SOL     OW31915   4.253   2.270   7.260  0.5307 -0.4077  0.0892
 6819SOL    HW131916   4.241   2.355   7.218 -1.4336  0.7522  3.0532
 6819SOL    HW231917   4.302   2.299   7.337 -1.0358  0.8642  0.6033
 6820SOL     OW31918   1.722   4.164   3.763  0.2876 -0.0696 -0.0878
 6820SOL    HW131919   1.726   4.228   3.692  0.8507  0.5657  0.5102
 6820SOL    HW231920   1.810   4.178   3.799 -0.3853 -1.7649  2.1978
 6821SOL     OW31921   0.558   2.541   7.211  0.4199  0.1243  0.1190
 6821SOL    HW131922   0.490   2.502   7.156 -0.4865  0.4876  0.9812
 6821SOL    HW231923   0.510   2.609   7.259  0.7638  0.5660 -0.1735
 6822SOL     OW31924   2.761   0.264   5.771 -0.4440  0.1121  0.3001
 6822SOL    HW131925   2.836   0.255   5.830  0.4443 -0.7613 -0.9618
 6822SOL    HW231926   2.685   0.263   5.829 -0.5712  1.4486  0.1574
 6823SOL     OW31927   0.669   1.072  13.482  0.2454 -0.2707 -0.1771
 6823SOL    HW131928   0.757   1.052  13.451 -0.0809 -0.8717 -0.7088
 6823SOL    HW231929   0.625   1.141  13.431  1.7768  1.5188  0.9096
 6824SOL     OW31930   0.502   3.801  15.924 -0.3773 -0.2105  0.3621
 6824SOL    HW131931   0.584   3.843  15.952  0.2052 -0.1821 -1.3733
 6824SOL    HW231932   0.470   3.863  15.859  1.8217  1.9271  1.2736
 6825SOL     OW31933   1.998   2.653  11.824 -0.3416 -0.4696 -0.1976
 6825SOL    HW131934   1.969   2.567  11.855 -1.1982  1.3111  3.8825
 6825SOL    HW231935   1.912   2.683  11.794  0.6019 -0.1902 -2.6382
 6826SOL     OW31936   2.613   2.441   2.934 -0.5580 -0.0793 -0.1419
 6826SOL    HW131937   2.628   2.392   2.853  2.5092  1.3900 -0.4791
 6826SOL    HW231938   2.655   2.527   2.929 -1.4327  0.2862 -1.3301
 6827SOL     OW31939   1.269   1.707   0.346 -0.1461 -0.4347 -0.1517
 6827SOL    HW131940   1.313   1.665   0.420 -1.4564 -1.5206 -0.0024
 6827SOL    HW231941   1.250   1.791   0.388  2.6638  0.6573 -1.0106
 6828SOL     OW31942   3.117   1.578  16.912  0.1904 -0.4941  0.1350
 6828SOL    HW131943   3.044   1.517  16.898  0.6168 -1.1202  0.6296
 6828SOL    HW231944   3.114   1.573  17.008  1.2951 -0.0241  0.1893
 6829SOL     OW31945   4.029   1.667  15.339 -0.1200 -0.0287 -0.5102
 6829SOL    HW131946   4.084   1.650  15.416 -0.2520  2.0218  0.0383
 6829SOL    HW231947   3.944   1.634  15.369  0.8339 -0.9086  1.2780
 6830SOL     OW31948   2.408   4.275   8.043  0.2691 -0.0333  0.0202
 6830SOL    HW131949   2.416   4.338   8.114 -1.3818  0.7336 -0.4616
 6830SOL    HW231950   2.405   4.331   7.966 -0.5404 -0.5316 -0.3124
 6831SOL     OW31951   3.669   1.128   0.023  0.3770  0.3065  0.2499
 6831SOL    HW131952   3.671   1.033   0.039 -0.9534  0.5217  1.6520
 6831SOL    HW231953   3.761   1.147   0.003  0.5130 -0.1984  0.3704
 6832SOL     OW31954   2.688   1.031  13.709  0.1024  0.2641 -0.4427
 6832SOL    HW131955   2.726   1.078  13.783  1.0949  0.2036 -0.9123
 6832SOL    HW231956   2.652   1.095  13.648  0.4868 -0.6138 -1.5950
 6833SOL     OW31957   0.537   2.991   4.880 -0.4036 -0.1838  0.0712
 6833SOL    HW131958   0.501   2.988   4.792  0.0962 -1.9850 -0.0651
 6833SOL    HW231959   0.572   3.080   4.887 -1.7522  0.1949  2.3863
 6834SOL     OW31960   0.999   4.052   7.383 -0.3804  0.7997  0.1031
 6834SOL    HW131961   0.986   3.960   7.404  2.4084 -0.1482 -2.3618
 6834SOL    HW231962   1.067   4.052   7.316  1.7802  0.3498  2.2851
 6835SOL     OW31963   2.884   1.227   6.745 -0.3715  0.1670  0.5096
 6835SOL    HW131964   2.880   1.139   6.708 -1.0509  0.1989  0.5046
 6835SOL    HW231965   2.912   1.289   6.678  0.2106 -0.8557 -0.2069
 6836SOL     OW31966   3.984   4.570   3.888 -0.0388 -0.0968  0.8064
 6836SOL    HW131967   3.931   4.514   3.831  0.4755  1.4476 -1.1780
 6836SOL    HW231968   4.005   4.637   3.823 -0.6920 -0.2491  0.4353
 6837SOL     OW31969   2.236   2.505  14.416 -0.4026  0.0112 -0.6222
 6837SOL    HW131970   2.269   2.588  14.383  2.3177  0.2021  2.5438
 6837SOL    HW231971   2.224   2.445  14.342 -0.4572 -0.8362  0.0666
 6838SOL     OW31972   4.327   2.450  12.112  0.7855  1.0045 -0.5284
 6838SOL    HW131973   4.368   2.509  12.175 -0.9906  1.5135  0.1206
 6838SOL    HW231974   4.237   2.442  12.143  1.9938 -1.0407  2.3787
 6839SOL     OW31975   2.242   3.036  11.840 -0.1258 -0.1758  0.1517
 6839SOL    HW131976   2.319   3.083  11.808 -0.8782  0.5235 -0.6156
 6839SOL    HW231977   2.261   2.946  11.815  1.5263  0.0614  0.5148
 6840SOL     OW31978   1.524   1.096   9.450  0.2614 -0.0719  0.4329
 6840SOL    HW131979   1.430   1.081   9.457  0.0659  0.4624 -0.8635
 6840SOL    HW231980   1.549   1.018   9.500 -0.7816 -0.6254  0.0908
 6841SOL     OW31981   0.188   2.051   2.731  0.0128 -0.7629 -0.0667
 6841SOL    HW131982   0.135   2.033   2.809  1.2925  1.0398  1.1878
 6841SOL    HW231983   0.259   2.107   2.759  1.7054 -2.2652 -1.3582
 6842SOL     OW31984   4.594   4.390   8.434  0.2488  0.7811  0.0838
 6842SOL    HW131985   4.665   4.326   8.436  1.9632  2.7012  1.9887
 6842SOL    HW231986   4.549   4.372   8.352  0.4567  1.1560 -0.1150
 6843SOL     OW31987   2.282   1.264   8.742  0.3503 -0.5420 -0.3084
 6843SOL    HW131988   2.194   1.270   8.704 -0.6768 -0.1661  2.1235
 6843SOL    HW231989   2.326   1.199   8.689 -0.9667  0.2329 -2.3536
 6844SOL     OW31990   3.963   2.329   7.822 -0.0772  0.3643 -0.1582
 6844SOL    HW131991   4.014   2.317   7.742 -1.0242  1.4640 -0.9197
 6844SOL    HW231992   4.005   2.409   7.852 -0.4298  0.0426  1.1978
 6845SOL     OW31993   0.959   0.196   6.449  0.2748 -0.0533 -0.0501
 6845SOL    HW131994   0.947   0.220   6.358  1.0066 -0.7660 -0.3337
 6845SOL    HW231995   0.908   0.115   6.446  3.5715 -2.2029  1.1650
 6846SOL     OW31996   0.074   0.918   2.733  0.5706 -0.3596  0.0818
 6846SOL    HW131997   0.086   1.011   2.751  1.3541 -0.2664 -0.9052
 6846SOL    HW231998   0.004   0.901   2.795 -0.3936 -0.6977 -1.0904
 6847SOL     OW31999   1.114   2.341   3.203  0.1994 -1.0154 -0.0861
 6847SOL    HW132000   1.063   2.266   3.173  0.7218 -0.3441 -2.6011
 6847SOL    HW232001   1.202   2.313   3.177  0.4762 -0.8021  0.6040
 6848SOL     OW32002   4.673   2.325   7.990 -0.3746 -0.2183 -0.2127
 6848SOL    HW132003   4.674   2.259   7.921  0.0485 -0.5960  0.1592
 6848SOL    HW232004   0.037   2.355   7.983 -0.3052 -0.2010  0.8355
 6849SOL     OW32005   1.610   3.296   9.021  0.5895  0.0766  0.2466
 6849SOL    HW132006   1.572   3.274   9.107 -0.0006 -0.8048 -0.2385
 6849SOL    HW232007   1.593   3.389   9.030  1.4224 -0.0000  2.7626
 6850SOL     OW32008   4.353   2.340   7.514 -0.1248 -0.0778  0.0260
 6850SOL    HW132009   4.363   2.431   7.543 -1.0538  0.4316 -1.2790
 6850SOL    HW232010   4.428   2.300   7.559 -1.0160 -0.1822  1.4066
 6851SOL     OW32011   0.793   4.668   9.985  0.4359  0.1921  0.7088
 6851SOL    HW132012   0.885   4.647  10.000  0.3186 -1.3091 -0.5741
 6851SOL    HW232013   0.786   0.034  10.011 -0.2635  0.2048  0.4989
 6852SOL     OW32014   4.714   0.460  12.587  0.2867  0.0049 -0.1330
 6852SOL    HW132015   4.639   0.475  12.529  1.2058  1.1805 -1.0131
 6852SOL    HW232016   4.678   0.423  12.668 -0.1555  0.0313 -0.3202
 6853SOL     OW32017   2.864   2.797   3.944 -0.4011  0.1648  0.0992
 6853SOL    HW132018   2.911   2.741   3.883 -1.2105 -0.4736  0.0728
 6853SOL    HW232019   2.803   2.729   3.972 -0.0322 -0.6144 -1.0111
 6854SOL     OW32020   0.367   3.594  14.446  0.1911  0.1907  0.4867
 6854SOL    HW132021   0.299   3.661  14.453  0.9593  1.0546 -0.3064
 6854SOL    HW232022   0.316   3.521  14.482 -0.7731  1.7046  2.1604
 6855SOL     OW32023   1.077   3.455  17.617  0.0258  0.3844  0.1191
 6855SOL    HW132024   1.070   3.524  17.683  5.5442  0.8183  0.2441
 6855SOL    HW232025   1.002   3.399  17.637 -0.7818  1.2214 -0.5888
 6856SOL     OW32026   3.419   2.596   9.722  0.0696 -0.4023 -0.3857
 6856SOL    HW132027   3.327   2.578   9.700  0.2028 -1.2235 -0.2903
 6856SOL    HW232028   3.414   2.623   9.813  1.9595  0.4301 -0.5201
 6857SOL     OW32029   0.243   0.353   4.344 -0.1897  0.0717  0.5055
 6857SOL    HW132030   0.229   0.427   4.403 -0.6883 -1.0911  1.8225
 6857SOL    HW232031   0.335   0.363   4.321  0.4350 -1.3574  2.4144
 6858SOL     OW32032   4.497   0.491   1.938 -0.2513 -0.2062 -0.1913
 6858SOL    HW132033   4.409   0.482   1.902 -1.4648  0.0250  2.7344
 6858SOL    HW232034   4.487   0.465   2.030 -1.7989  2.2726  0.3311
 6859SOL     OW32035   3.768   1.906   6.748 -0.0345 -0.0911 -0.3101
 6859SOL    HW132036   3.714   1.855   6.688  0.2389  0.4690 -1.0261
 6859SOL    HW232037   3.699   1.909   6.815 -1.0396 -1.1691 -1.3064
 6860SOL     OW32038   1.281   4.511  12.886 -0.4150  0.4611 -0.2770
 6860SOL    HW132039   1.249   4.428  12.853  2.1153 -0.1506 -1.1569
 6860SOL    HW232040   1.333   4.539  12.811 -1.6116 -1.9201 -2.0059
 6861SOL     OW32041   1.234   1.367  11.712  0.2711  0.1609  0.2027
 6861SOL    HW132042   1.314   1.391  11.666  0.2427  1.3330  0.7658
 6861SOL    HW232043   1.247   1.429  11.783 -0.1416  1.3131 -0.7343
 6862SOL     OW32044   1.792   4.018   0.821  0.3519 -0.1862 -0.7176
 6862SOL    HW132045   1.887   4.010   0.831  0.6534  2.4234 -1.6474
 6862SOL    HW232046   1.759   3.941   0.869  2.7736  0.3506  1.7765
 6863SOL     OW32047   0.312   3.035  14.379  0.4382 -0.3188  0.9367
 6863SOL    HW132048   0.375   3.011  14.311 -0.9506 -0.8801 -0.1466
 6863SOL    HW232049   0.266   3.107  14.336  1.2200 -1.2151 -1.3619
 6864SOL     OW32050   1.426   2.983   9.130 -0.2603  0.0948 -0.4190
 6864SOL    HW132051   1.368   2.949   9.198 -2.1173  1.6461 -1.2264
 6864SOL    HW232052   1.416   3.078   9.132  0.8046  0.1763  0.7352
 6865SOL     OW32053   1.110   3.682  14.413 -0.4094  0.1343  0.1781
 6865SOL    HW132054   1.128   3.700  14.320 -0.6311  0.4493  0.1967
 6865SOL    HW232055   1.033   3.629  14.393  0.1026  0.9104 -3.8814
 6866SOL     OW32056   1.636   0.628   9.678 -0.3125 -0.2992  0.3794
 6866SOL    HW132057   1.670   0.585   9.600 -1.1860 -0.0300 -0.1480
 6866SOL    HW232058   1.650   0.559   9.743 -1.4923 -0.7660  0.1532
 6867SOL     OW32059   0.151   4.504   4.095 -0.9783 -0.3023 -0.4713
 6867SOL    HW132060   0.155   4.535   4.185 -0.3093  0.1761 -0.6680
 6867SOL    HW232061   0.124   4.586   4.053 -1.1015 -0.4007 -0.5857
 6868SOL     OW32062   1.191   0.103   1.250 -0.5864  0.0022  0.3796
 6868SOL    HW132063   1.133   0.179   1.252 -0.3256  0.2052  0.2512
 6868SOL    HW232064   1.253   0.125   1.181  0.1225 -0.1208  0.9759
 6869SOL     OW32065   2.815   4.092  15.654  0.6644 -0.5857  1.0272
 6869SOL    HW132066   2.878   4.112  15.584 -0.9790  2.4689  0.4249
 6869SOL    HW232067   2.744   4.066  15.596  0.4401 -0.0951  1.0813
 6870SOL     OW32068   1.947   0.747   4.679  0.5869 -0.1754  0.6125
 6870SOL    HW132069   1.889   0.814   4.642  2.3118  0.2811 -1.3449
 6870SOL    HW232070   1.881   0.704   4.732 -0.1875  1.0263  0.6356
 6871SOL     OW32071   2.177   4.573   7.404 -0.3384 -0.0913  0.1941
 6871SOL    HW132072   2.153   4.530   7.486 -1.2120  1.2107  0.6023
 6871SOL    HW232073   2.126   4.653   7.401 -0.4278 -0.1751 -0.6625
 6872SOL     OW32074   1.890   3.219   2.579  0.2689 -0.4585  0.6592
 6872SOL    HW132075   1.852   3.268   2.506  0.5955 -0.0686  0.7465
 6872SOL    HW232076   1.859   3.263   2.659 -0.0920  0.7456 -0.1426
 6873SOL     OW32077   2.128   2.306   9.064  0.0125  0.3389  0.0160
 6873SOL    HW132078   2.145   2.212   9.059 -0.9757  0.1379  0.4363
 6873SOL    HW232079   2.101   2.318   9.155 -0.0088  0.5489 -0.0199
 6874SOL     OW32080   0.902   4.287  16.614  0.0614  0.1276 -0.2982
 6874SOL    HW132081   0.942   4.369  16.582  0.1284 -0.3999 -1.5778
 6874SOL    HW232082   0.880   4.240  16.533  0.9184 -0.7167 -0.0418
 6875SOL     OW32083   3.118   2.530   3.527 -0.0794  0.4225  0.3665
 6875SOL    HW132084   3.098   2.439   3.504  1.3102 -0.2008  1.6071
 6875SOL    HW232085   3.210   2.522   3.554 -0.1626 -0.1087  0.4941
 6876SOL     OW32086   2.720   1.129  12.568  0.7252 -0.1393  0.5391
 6876SOL    HW132087   2.804   1.089  12.547  1.5801  1.7836  0.3209
 6876SOL    HW232088   2.746   1.220  12.578 -2.2361  0.6026  1.2942
 6877SOL     OW32089   0.927   1.835   1.204  0.5554  0.3286 -0.2144
 6877SOL    HW132090   0.991   1.771   1.237 -0.5335 -0.2917  0.6667
 6877SOL    HW232091   0.850   1.779   1.200 -0.6755  2.0066  0.4269
 6878SOL     OW32092   3.846   4.366   3.665 -0.2065  0.5771 -0.2077
 6878SOL    HW132093   3.927   4.376   3.616 -0.3431  0.6131 -0.4248
 6878SOL    HW232094   3.790   4.320   3.602  0.3795  3.1319 -2.5523
 6879SOL     OW32095   4.012   1.702   4.231 -0.0432  0.0019 -0.9782
 6879SOL    HW132096   4.091   1.650   4.220  1.2026  1.6688  0.1308
 6879SOL    HW232097   4.024   1.733   4.320 -0.6746 -1.0369 -0.5281
 6880SOL     OW32098   0.050   0.387   6.299  0.3128 -0.8338 -0.2871
 6880SOL    HW132099   4.691   0.347   6.317  0.7866 -0.4807  2.6782
 6880SOL    HW232100   0.035   0.425   6.212 -1.6467 -1.2681 -0.1491
 6881SOL     OW32101   0.552   1.558  13.760 -0.1571 -0.3922 -0.1629
 6881SOL    HW132102   0.523   1.468  13.740  1.0864 -0.2040 -2.8113
 6881SOL    HW232103   0.549   1.602  13.675 -4.5999  0.7464  0.5721
 6882SOL     OW32104   0.779   0.019   0.449  0.0013 -0.2991 -0.2252
 6882SOL    HW132105   0.827   0.071   0.514  0.0950  1.1972 -1.4964
 6882SOL    HW232106   0.706   4.711   0.501  1.7478 -0.9910  1.8212
 6883SOL     OW32107   0.670   2.112   5.184 -0.9328 -0.2762 -0.2449
 6883SOL    HW132108   0.682   2.023   5.217 -0.9510  0.4683  1.7995
 6883SOL    HW232109   0.580   2.131   5.212 -0.9831  0.4255 -0.8876
 6884SOL     OW32110   0.491   3.438   4.253  0.6496  0.1383  0.7389
 6884SOL    HW132111   0.472   3.345   4.241 -1.6526  0.7749 -0.5545
 6884SOL    HW232112   0.412   3.485   4.279  0.1448 -0.9479  1.1970
 6885SOL     OW32113   0.146   2.950   3.858  0.3602 -0.1901  0.3466
 6885SOL    HW132114   0.097   2.868   3.867 -1.2126  0.8591  1.4013
 6885SOL    HW232115   0.085   3.011   3.900  2.0406  1.0593  0.9771
 6886SOL     OW32116   1.502   1.663  10.688  0.4848  0.4991 -0.5956
 6886SOL    HW132117   1.587   1.684  10.725  0.7076 -0.5061 -0.5252
 6886SOL    HW232118   1.525   1.663  10.595 -2.4839  2.1296 -1.3269
 6887SOL     OW32119   4.385   4.538   3.278 -0.2406 -0.0749 -0.2205
 6887SOL    HW132120   4.293   4.511   3.286 -0.0458 -0.4115  0.9058
 6887SOL    HW232121   4.380   4.633   3.293  1.3691 -0.1179  0.6027
 6888SOL     OW32122   3.509   1.010   5.494  0.0813  0.0261  0.0040
 6888SOL    HW132123   3.514   0.919   5.467  1.0397  0.4125 -1.1373
 6888SOL    HW232124   3.499   1.060   5.413 -0.6984  1.0595  0.7358
 6889SOL     OW32125   1.943   0.638   2.188  0.6365  0.6443  0.3365
 6889SOL    HW132126   1.882   0.707   2.164 -2.6049 -2.2498  0.2226
 6889SOL    HW232127   1.883   0.577   2.232 -0.4157  1.7844  0.4870
 6890SOL     OW32128   4.458   2.677   6.067 -0.0198  0.1039 -0.2889
 6890SOL    HW132129   4.505   2.734   6.128 -0.5177  1.0329 -0.7781
 6890SOL    HW232130   4.413   2.741   6.012 -1.7132 -0.2390  0.6996
 6891SOL     OW32131   2.721   0.694   2.116 -0.3416 -0.2167  0.7006
 6891SOL    HW132132   2.732   0.625   2.181  1.7806  0.3432  0.9221
 6891SOL    HW232133   2.800   0.745   2.133  0.0421 -0.2387 -1.0227
 6892SOL     OW32134   2.550   4.093  15.503  0.3540  0.3031 -0.0629
 6892SOL    HW132135   2.503   4.049  15.433 -2.7718  1.6104  1.2205
 6892SOL    HW232136   2.482   4.153  15.532 -0.6647 -2.2908  2.9144
 6893SOL     OW32137   3.922   1.583   9.386 -0.6452  0.1870  0.1090
 6893SOL    HW132138   3.966   1.511   9.340  0.4579  1.0799 -0.2257
 6893SOL    HW232139   3.857   1.608   9.320 -0.4591 -0.0276 -0.1565
 6894SOL     OW32140   3.553   0.119   4.032  0.8199  0.0933 -0.1401
 6894SOL    HW132141   3.507   0.041   4.062 -2.9309  3.0186  1.6286
 6894SOL    HW232142   3.490   0.152   3.969  0.9143  0.8831  0.1687
 6895SOL     OW32143   1.678   1.426   9.090 -0.3210 -0.2472 -0.2627
 6895SOL    HW132144   1.710   1.501   9.040  1.0307  0.0895  1.1371
 6895SOL    HW232145   1.759   1.396   9.130 -0.3678  0.7774  0.5806
 6896SOL     OW32146   4.291   4.453  11.457  0.1636  0.2231 -0.0132
 6896SOL    HW132147   4.335   4.439  11.540 -0.0863 -2.4227 -0.3252
 6896SOL    HW232148   4.354   4.516  11.422  0.4720  0.1762  0.4596
 6897SOL     OW32149   4.506   2.988   1.542  0.3089 -1.1755 -0.1220
 6897SOL    HW132150   4.427   3.038   1.522  0.6158 -0.2216  1.0165
 6897SOL    HW232151   4.482   2.946   1.624 -2.8236  2.7135  0.9868
 6898SOL     OW32152   4.151   2.444  10.853 -0.3489 -0.3010  0.1124
 6898SOL    HW132153   4.139   2.351  10.873 -0.1274 -0.6640 -1.4588
 6898SOL    HW232154   4.078   2.481  10.902 -1.1125  1.0099 -2.0303
 6899SOL     OW32155   0.847   0.261   7.590  0.0806 -0.6313  0.4083
 6899SOL    HW132156   0.930   0.226   7.625 -0.0286  1.6220  2.9175
 6899SOL    HW232157   0.866   0.355   7.588  0.4100 -0.7014  0.2565
 6900SOL     OW32158   2.008   0.087  16.683 -0.3647  0.2052  0.2087
 6900SOL    HW132159   2.038   0.143  16.756 -0.3420  1.3487 -0.6773
 6900SOL    HW232160   2.006   0.149  16.610  2.6937  0.0795 -0.0017
 6901SOL     OW32161   1.121   4.602   3.909 -0.1342  0.3158  0.1611
 6901SOL    HW132162   1.135   4.508   3.923 -0.8810  0.0945 -0.5322
 6901SOL    HW232163   1.028   4.598   3.933 -0.5730  0.6860 -1.4228
 6902SOL     OW32164   3.813   2.305  15.156 -0.0595 -0.4699  0.0041
 6902SOL    HW132165   3.879   2.318  15.224  0.5102  0.3562 -0.7096
 6902SOL    HW232166   3.752   2.261  15.215 -1.4350  3.5932  1.6490
 6903SOL     OW32167   4.472   0.129   2.734  0.3461  0.1596  0.5217
 6903SOL    HW132168   4.438   0.098   2.818  1.0505 -0.7444  0.4719
 6903SOL    HW232169   4.505   0.050   2.692 -1.5409 -1.0873  1.3719
 6904SOL     OW32170   0.422   4.448   7.353  0.3380 -0.1437  0.4292
 6904SOL    HW132171   0.394   4.487   7.436  0.2248 -0.4972  0.5564
 6904SOL    HW232172   0.345   4.396   7.332  0.4632  0.3269 -1.1799
 6905SOL     OW32173   2.082   0.979   3.453  0.0766 -0.0056 -0.2876
 6905SOL    HW132174   2.077   0.971   3.358 -2.7697  0.1948 -0.1735
 6905SOL    HW232175   2.038   1.063   3.470  2.9480  1.4195  0.1247
 6906SOL     OW32176   4.460   1.643   0.303  0.3009  0.1484 -0.8120
 6906SOL    HW132177   4.404   1.685   0.238  0.1693  1.5684  0.2221
 6906SOL    HW232178   4.460   1.707   0.374  1.2433  0.8158 -1.4154
 6907SOL     OW32179   2.073   4.602   2.051  0.1393  0.5307 -0.3649
 6907SOL    HW132180   2.162   4.638   2.050  0.7404 -0.9209  2.8836
 6907SOL    HW232181   2.020   4.680   2.035 -2.2576 -0.4086  3.2826
 6908SOL     OW32182   2.806   1.738   6.993 -0.3471 -0.6628  0.3035
 6908SOL    HW132183   2.801   1.706   6.903  0.0838 -0.6439  0.2756
 6908SOL    HW232184   2.804   1.833   6.978 -2.7592 -0.2818  2.9823
 6909SOL     OW32185   0.810   3.300  12.335  0.4053  0.2371  0.2167
 6909SOL    HW132186   0.844   3.213  12.316 -0.8058  0.5301 -3.2824
 6909SOL    HW232187   0.852   3.336  12.414  4.2317 -1.3595 -1.0781
 6910SOL     OW32188   2.012   4.700   2.610  0.1408 -0.1125 -0.0470
 6910SOL    HW132189   2.085   4.662   2.561  2.1368  0.4458  2.4630
 6910SOL    HW232190   2.022   0.067   2.590 -2.8322 -0.1198 -1.5474
 6911SOL     OW32191   1.504   3.788   7.460 -0.8082  0.1191  0.4613
 6911SOL    HW132192   1.562   3.719   7.491 -1.3578 -1.2153 -1.4619
 6911SOL    HW232193   1.511   3.780   7.365 -0.2615  0.3205  0.4853
 6912SOL     OW32194   0.366   3.272  13.686 -0.8195 -0.3504  0.0684
 6912SOL    HW132195   0.286   3.220  13.670 -1.3858  0.5512 -0.0199
 6912SOL    HW232196   0.326   3.358  13.695 -2.3553 -0.8617 -1.8814
 6913SOL     OW32197   1.523   1.667   2.966  0.6950  0.1495  0.3442
 6913SOL    HW132198   1.479   1.652   3.050 -0.3700  1.1548 -0.0333
 6913SOL    HW232199   1.509   1.580   2.929  2.0076 -0.1836  0.6538
 6914SOL     OW32200   0.218   2.864   7.325  0.1711  0.3394 -0.0128
 6914SOL    HW132201   0.160   2.909   7.263 -0.7469  0.5194  0.9802
 6914SOL    HW232202   0.177   2.899   7.404 -1.7026 -1.6325 -0.1081
 6915SOL     OW32203   0.451   1.578   5.919  0.4457 -0.0711  0.1975
 6915SOL    HW132204   0.412   1.656   5.879  0.6181 -0.2223 -0.2659
 6915SOL    HW232205   0.434   1.593   6.012  1.7169 -1.4353  0.6475
 6916SOL     OW32206   3.716   2.839  17.515  0.3306 -0.1344  0.3392
 6916SOL    HW132207   3.652   2.842  17.444  1.4719  1.4999 -0.6371
 6916SOL    HW232208   3.796   2.813  17.468 -0.9568 -0.7211 -1.5244
 6917SOL     OW32209   4.390   2.165  11.583 -0.4294 -0.4906 -0.1840
 6917SOL    HW132210   4.305   2.203  11.561 -0.1910  1.2413  1.8880
 6917SOL    HW232211   4.404   2.110  11.506 -1.7943 -2.1387  0.7458
 6918SOL     OW32212   1.964   3.181   5.717  0.1654  0.1766  0.0769
 6918SOL    HW132213   1.884   3.211   5.676  0.8955 -1.7135 -2.7414
 6918SOL    HW232214   1.951   3.086   5.719  1.8841 -0.0590  0.3495
 6919SOL     OW32215   0.178   3.258   3.788  0.5203 -0.0992 -0.0148
 6919SOL    HW132216   0.266   3.227   3.808  0.5850  0.1186  0.0316
 6919SOL    HW232217   0.184   3.263   3.693 -1.3857 -0.4426 -0.1595
 6920SOL     OW32218   0.709   4.119   9.700  0.7274 -0.1308 -0.0838
 6920SOL    HW132219   0.621   4.104   9.665 -0.6745  2.8412  2.2169
 6920SOL    HW232220   0.761   4.128   9.620  0.5265  0.1293 -0.1868
 6921SOL     OW32221   0.559   3.248   8.759  0.0853  0.3556  0.2682
 6921SOL    HW132222   0.528   3.336   8.777  0.9016  0.7569 -0.3048
 6921SOL    HW232223   0.481   3.197   8.778  0.7378 -0.6312  0.3202
 6922SOL     OW32224   0.542   4.388   4.619 -0.6658 -0.4458 -0.3878
 6922SOL    HW132225   0.508   4.348   4.538 -0.4288 -1.0853 -0.1756
 6922SOL    HW232226   0.516   4.479   4.605 -2.3293 -0.8305  0.2020
 6923SOL     OW32227   0.954   3.627   8.732 -1.0117  0.1435 -0.1409
 6923SOL    HW132228   0.885   3.641   8.668 -0.1787  1.3785 -0.7732
 6923SOL    HW232229   0.898   3.632   8.810 -0.0521  0.4499  0.5302
 6924SOL     OW32230   0.443   1.662   2.871 -0.2602  0.3901 -0.2467
 6924SOL    HW132231   0.490   1.579   2.876 -1.7281 -0.5042 -1.4868
 6924SOL    HW232232   0.482   1.691   2.788 -1.5990  0.8494 -0.7127
 6925SOL     OW32233   2.052   0.920   2.339  0.2506 -0.1514 -0.3118
 6925SOL    HW132234   2.128   0.950   2.290  0.2684 -1.0242 -0.8271
 6925SOL    HW232235   1.980   0.945   2.281  1.6744  1.5937 -1.3092
 6926SOL     OW32236   1.691   2.813  17.102  0.2457  0.0918  0.2203
 6926SOL    HW132237   1.761   2.879  17.110 -0.7205  1.1950 -0.5713
 6926SOL    HW232238   1.621   2.877  17.106 -0.1257 -0.3195  0.2659
 6927SOL     OW32239   0.704   3.502   3.519  0.3670 -0.3302 -0.0808
 6927SOL    HW132240   0.665   3.446   3.452 -0.6563  0.6017 -0.2663
 6927SOL    HW232241   0.720   3.585   3.473 -1.5153  1.0601  1.7632
 6928SOL     OW32242   2.129   1.048  11.108 -0.0198  0.0440  0.3883
 6928SOL    HW132243   2.128   1.050  11.013 -0.1674 -0.4415  0.3819
 6928SOL    HW232244   2.054   1.105  11.122 -1.6094 -1.6464 -1.3597
 6929SOL     OW32245   0.135   3.977   5.019 -0.3908 -0.0694 -0.2304
 6929SOL    HW132246   0.052   4.015   5.049 -0.1626 -0.0216  0.3476
 6929SOL    HW232247   0.194   4.033   5.070  0.6022 -2.7086  1.5443
 6930SOL     OW32248   1.753   4.230   3.083  0.2738  0.0511  0.2043
 6930SOL    HW132249   1.768   4.230   3.178  1.2514  1.8477  0.0511
 6930SOL    HW232250   1.671   4.277   3.078  1.3849  1.7755 -1.8042
 6931SOL     OW32251   1.832   4.545   1.201 -0.3208  0.6263 -0.3526
 6931SOL    HW132252   1.897   4.507   1.261 -0.7885 -1.1602 -0.9705
 6931SOL    HW232253   1.782   4.603   1.258  0.2221 -0.7173  1.4983
 6932SOL     OW32254   4.070   3.640   5.328 -0.5439  0.2127 -0.2266
 6932SOL    HW132255   4.156   3.621   5.365 -0.3279 -2.5139 -2.1651
 6932SOL    HW232256   4.014   3.570   5.363 -0.6431  0.5038  0.1990
 6933SOL     OW32257   3.364   2.836   3.432 -0.5204  0.6901  0.6023
 6933SOL    HW132258   3.355   2.741   3.420 -2.0335  0.8658  0.3972
 6933SOL    HW232259   3.293   2.867   3.376 -0.9753  1.9939  1.9078
 6934SOL     OW32260   1.821   0.845   8.338  0.5188  0.2149  0.2765
 6934SOL    HW132261   1.883   0.780   8.305 -0.8413 -1.1232  0.3112
 6934SOL    HW232262   1.856   0.848   8.427  1.5240 -2.1315 -0.0403
 6935SOL     OW32263   0.872   2.532   4.532  0.3201  0.0831  0.1809
 6935SOL    HW132264   0.874   2.448   4.486 -1.1427  0.5551 -0.7333
 6935SOL    HW232265   0.780   2.529   4.560  0.9354 -2.6834  1.8930
 6936SOL     OW32266   0.923   3.036   8.897  0.0389  0.1208 -0.4603
 6936SOL    HW132267   0.867   2.963   8.924 -0.4542  0.9077  0.6978
 6936SOL    HW232268   1.009   2.999   8.915  0.7015  1.3700 -1.0370
 6937SOL     OW32269   4.075   3.561   3.146  0.0376 -0.0130  0.8160
 6937SOL    HW132270   4.112   3.475   3.122 -1.9300  0.4349 -3.7878
 6937SOL    HW232271   4.055   3.539   3.237  3.3598  1.0782  1.7958
 6938SOL     OW32272   3.450   2.961  14.063  0.4761  0.6426 -0.6225
 6938SOL    HW132273   3.365   2.929  14.093 -0.2239  0.1501 -3.1406
 6938SOL    HW232274   3.452   3.052  14.093 -1.0595  0.8562 -1.1529
 6939SOL     OW32275   3.963   1.132   2.312  0.0768 -0.6467  0.8796
 6939SOL    HW132276   3.950   1.065   2.244  1.3013  1.5554 -1.5053
 6939SOL    HW232277   3.890   1.187   2.286  0.8971  0.4777  0.9729
 6940SOL     OW32278   4.092   0.730  13.001  0.8209 -0.3073  0.0764
 6940SOL    HW132279   4.174   0.766  13.036  0.1938 -1.2636  2.4927
 6940SOL    HW232280   4.102   0.636  13.017 -0.3072 -0.4479 -0.0535
 6941SOL     OW32281   0.758   3.769   3.454 -0.3644 -0.1815 -0.2949
 6941SOL    HW132282   0.788   3.858   3.475  1.3356 -0.8514  0.1264
 6941SOL    HW232283   0.664   3.783   3.454 -0.5789 -1.6894 -0.7077
 6942SOL     OW32284   0.507   2.425   2.183 -0.1686 -0.7781 -0.1490
 6942SOL    HW132285   0.468   2.436   2.096  0.4520 -0.4038 -0.3789
 6942SOL    HW232286   0.427   2.420   2.235  0.3670 -0.0920  0.7439
 6943SOL     OW32287   0.916   2.950   6.113 -0.0863 -0.2590  0.3826
 6943SOL    HW132288   0.965   2.889   6.057 -2.4146 -3.0793  1.4386
 6943SOL    HW232289   0.888   3.013   6.046  0.5986 -0.2027  0.1487
 6944SOL     OW32290   4.127   1.249  10.892  0.1033  0.0535 -0.3847
 6944SOL    HW132291   4.110   1.268  10.984  0.8012  2.1863 -0.6921
 6944SOL    HW232292   4.162   1.162  10.906  1.7483  1.0281  1.5285
 6945SOL     OW32293   1.091   3.591   0.411 -0.4002 -0.2971 -0.2612
 6945SOL    HW132294   1.122   3.662   0.355  0.4998 -0.8005 -0.3917
 6945SOL    HW232295   1.163   3.531   0.429 -0.6255 -0.4911 -0.0052
 6946SOL     OW32296   1.464   4.395   3.259  0.9817 -0.6745  0.1376
 6946SOL    HW132297   1.372   4.394   3.287  1.3596 -1.4337  1.3534
 6946SOL    HW232298   1.458   4.448   3.180  3.0765 -1.8735 -0.8232
 6947SOL     OW32299   4.452   4.466   6.290  0.8496  0.1834 -0.7634
 6947SOL    HW132300   4.434   4.416   6.369  0.8688  1.5210  0.0831
 6947SOL    HW232301   4.434   4.402   6.221 -1.3538 -0.2790  0.2606
 6948SOL     OW32302   2.715   4.089   3.064  0.3398 -0.0799 -0.0387
 6948SOL    HW132303   2.662   4.035   3.006  0.4685  0.4441 -0.6518
 6948SOL    HW232304   2.755   4.143   2.995 -0.8619  0.8288 -0.0217
 6949SOL     OW32305   3.193   2.780  11.761 -0.0311 -0.6594 -0.6037
 6949SOL    HW132306   3.277   2.805  11.800 -0.5873  0.4328 -0.0950
 6949SOL    HW232307   3.221   2.735  11.681 -0.0402  1.8888 -2.0422
 6950SOL     OW32308   1.356   3.017   5.461  0.8343  0.2644 -0.0856
 6950SOL    HW132309   1.273   3.059   5.438 -0.1678 -1.6848 -0.0577
 6950SOL    HW232310   1.366   2.955   5.389  0.9956 -2.0128  1.8861
 6951SOL     OW32311   0.795   2.175  13.353  0.4826 -0.6236  0.2243
 6951SOL    HW132312   0.810   2.096  13.405 -0.9843 -1.2429 -0.2822
 6951SOL    HW232313   0.872   2.158  13.299  1.8160 -0.8205  2.1986
 6952SOL     OW32314   2.353   2.379   4.314  0.1542 -0.4418 -0.0782
 6952SOL    HW132315   2.448   2.383   4.318  0.1358  1.2386 -1.2274
 6952SOL    HW232316   2.345   2.460   4.264  0.0056  1.0365  2.3152
 6953SOL     OW32317   3.599   3.927  17.115 -0.5188 -0.6054  1.0919
 6953SOL    HW132318   3.528   3.992  17.110 -2.1526 -2.5044 -0.7590
 6953SOL    HW232319   3.548   3.848  17.094  0.1353 -1.2043  1.7759
 6954SOL     OW32320   2.997   0.391   0.690  0.1440  0.1408  0.8197
 6954SOL    HW132321   2.964   0.319   0.743 -1.5086  1.5261  1.6729
 6954SOL    HW232322   2.937   0.385   0.616 -1.1451  0.2621  1.8606
 6955SOL     OW32323   1.125   2.852  12.757  0.2959 -0.1054  0.2755
 6955SOL    HW132324   1.150   2.837  12.666 -3.3836 -0.4485 -0.6794
 6955SOL    HW232325   1.046   2.906  12.752  0.1900 -0.3263 -0.4886
 6956SOL     OW32326   4.658   4.308  12.282 -0.1261 -0.0158 -0.1130
 6956SOL    HW132327   4.725   4.277  12.221 -0.7219  0.1240 -0.8295
 6956SOL    HW232328   4.712   4.322  12.360  0.2837 -0.0895 -0.3861
 6957SOL     OW32329   3.432   0.336   4.267 -0.2206  0.3190 -0.1965
 6957SOL    HW132330   3.492   0.285   4.213  1.4076  1.7720  0.2594
 6957SOL    HW232331   3.348   0.324   4.221  1.0872  1.4341 -2.8788
 6958SOL     OW32332   4.452   0.443   2.220  0.2632 -0.3540  0.0478
 6958SOL    HW132333   4.375   0.495   2.243  1.4535  1.2652  0.3416
 6958SOL    HW232334   4.446   0.361   2.269 -1.4642 -0.1152  0.2398
 6959SOL     OW32335   3.437   1.608  13.043 -0.2280 -0.2573  0.4455
 6959SOL    HW132336   3.355   1.578  13.003  0.0927  0.0939 -0.4893
 6959SOL    HW232337   3.407   1.699  13.050 -4.5545 -1.7629  1.6464
 6960SOL     OW32338   0.356   0.685   3.652  0.4655 -0.4899 -0.3534
 6960SOL    HW132339   0.441   0.721   3.680  1.9171 -1.6815 -3.1988
 6960SOL    HW232340   0.378   0.594   3.636 -0.2857 -0.9860  1.5145
 6961SOL     OW32341   2.316   2.719   1.665 -0.0059 -0.2748  0.1885
 6961SOL    HW132342   2.365   2.796   1.694  0.6290 -1.0536  1.1985
 6961SOL    HW232343   2.303   2.719   1.570  2.2306 -2.5941 -0.1193
 6962SOL     OW32344   1.113   0.120   2.853  0.0937 -0.0126 -0.1453
 6962SOL    HW132345   1.132   0.081   2.767 -1.1627 -2.4939  0.6927
 6962SOL    HW232346   1.142   0.048   2.910  3.7747  1.3086 -0.3091
 6963SOL     OW32347   1.935   1.616   5.299  0.1306 -0.2847  0.4351
 6963SOL    HW132348   1.892   1.532   5.309  0.2180 -0.2793  0.8394
 6963SOL    HW232349   1.900   1.655   5.379 -0.8394  0.0840 -0.1670
 6964SOL     OW32350   4.127   3.078   4.544  0.1172  0.0950 -0.4486
 6964SOL    HW132351   4.083   3.147   4.595  1.0811  2.7751 -3.2574
 6964SOL    HW232352   4.111   3.110   4.455 -0.5627  1.2466  0.0886
 6965SOL     OW32353   1.534   0.001   9.557  0.3452 -0.5110  0.2723
 6965SOL    HW132354   1.484   0.007   9.639 -0.8137  2.5874 -0.6679
 6965SOL    HW232355   1.541   4.632   9.549  1.6421 -0.3085 -1.0508
 6966SOL     OW32356   4.021   2.096   9.802  0.3758  0.1018  0.3583
 6966SOL    HW132357   3.982   2.010   9.788  1.7325 -0.3443 -0.6616
 6966SOL    HW232358   4.044   2.093   9.895  1.3098 -1.6635  0.0643
 6967SOL     OW32359   2.503   0.549   6.624  0.3619 -0.5269  0.7404
 6967SOL    HW132360   2.488   0.460   6.655  1.9394 -0.9036  0.3923
 6967SOL    HW232361   2.598   0.555   6.614  0.4165 -0.5945  1.2245
 6968SOL     OW32362   0.356   3.851   2.921  0.1358  1.0304  0.0973
 6968SOL    HW132363   0.399   3.865   3.005 -0.3719  1.2286  0.3295
 6968SOL    HW232364   0.388   3.767   2.889  0.2451  1.5646 -1.1619
 6969SOL     OW32365   0.819   3.075   8.063 -0.0361 -0.2890 -0.6696
 6969SOL    HW132366   0.829   3.043   8.152 -0.8402 -0.2169 -0.5499
 6969SOL    HW232367   0.890   3.139   8.063  0.4999 -0.8884 -0.6010
 6970SOL     OW32368   1.329   3.562   4.368 -0.3049  0.4657 -0.3224
 6970SOL    HW132369   1.264   3.556   4.298  0.9030 -0.5494 -1.3457
 6970SOL    HW232370   1.411   3.585   4.324  1.1804  0.2843  2.3432
 6971SOL     OW32371   0.247   0.294   7.230  0.2542  0.3389 -0.1238
 6971SOL    HW132372   0.192   0.220   7.257 -0.9339  1.5683  0.8466
 6971SOL    HW232373   0.294   0.325   7.307  0.0130 -0.9804  0.5654
 6972SOL     OW32374   3.154   1.945   7.148 -0.8838  0.5373  0.0045
 6972SOL    HW132375   3.064   1.926   7.120  0.0748 -1.3651 -1.8068
 6972SOL    HW232376   3.147   2.035   7.180  0.2574  0.9705 -0.9411
 6973SOL     OW32377   0.938   0.184   9.154 -0.3055 -0.3859  0.4889
 6973SOL    HW132378   0.862   0.187   9.096  0.3635  3.1064 -0.2138
 6973SOL    HW232379   0.891   0.190   9.237 -0.1215 -1.5564  0.6686
 6974SOL     OW32380   2.708   4.224   4.574  0.4673 -0.2827 -0.0257
 6974SOL    HW132381   2.716   4.316   4.600  0.9105  0.4776 -2.8446
 6974SOL    HW232382   2.716   4.228   4.479 -0.3566  0.3855 -0.0658
 6975SOL     OW32383   3.029   3.455   9.067 -0.4670 -0.3593  0.1271
 6975SOL    HW132384   2.973   3.495   9.134  1.3571  0.0222  1.4194
 6975SOL    HW232385   2.969   3.400   9.017 -0.2710 -3.6916  3.6172
 6976SOL     OW32386   4.419   4.155  15.321  0.1715  0.6153 -0.4016
 6976SOL    HW132387   4.383   4.083  15.271  2.1448 -0.6109 -0.0406
 6976SOL    HW232388   4.383   4.224  15.265  2.6505  1.6566 -0.7115
 6977SOL     OW32389   1.631   3.668   6.588  0.6868  0.3439  0.3507
 6977SOL    HW132390   1.646   3.748   6.638  1.2014 -0.6492  1.7838
 6977SOL    HW232391   1.555   3.699   6.539 -1.4137 -1.9156  2.1986
 6978SOL     OW32392   1.026   3.507   9.621 -0.1760  0.2403  0.0091
 6978SOL    HW132393   0.976   3.438   9.665 -0.0475  0.8936  1.1786
 6978SOL    HW232394   1.042   3.575   9.686 -0.3166 -1.1750  1.5161
 6979SOL     OW32395   1.631   4.217   4.368  0.4499  0.5656 -0.3973
 6979SOL    HW132396   1.602   4.171   4.447  1.0669  0.2010 -0.3815
 6979SOL    HW232397   1.573   4.292   4.361  1.0193  1.0735  0.2916
 6980SOL     OW32398   0.824   1.986   8.992 -0.1933  0.0347 -0.2423
 6980SOL    HW132399   0.823   2.076   9.025  0.0289  0.0445 -0.2617
 6980SOL    HW232400   0.772   1.933   9.053  1.8089 -0.6698  0.8312
 6981SOL     OW32401   3.457   2.396   7.531 -0.0363 -0.0458 -0.1639
 6981SOL    HW132402   3.547   2.410   7.563  0.6479  1.9959 -2.9125
 6981SOL    HW232403   3.428   2.319   7.580 -1.1923  1.1166  0.9644
 6982SOL     OW32404   4.347   0.788  13.984  0.4026 -0.2332 -0.1216
 6982SOL    HW132405   4.429   0.811  14.028  0.6410 -0.2789 -0.5495
 6982SOL    HW232406   4.351   0.693  13.976 -0.0896 -0.0734 -2.1685
 6983SOL     OW32407   3.859   2.791   3.309 -0.1824  0.5972  0.1270
 6983SOL    HW132408   3.775   2.750   3.333 -0.4606  1.4338  0.5689
 6983SOL    HW232409   3.913   2.756   3.380 -1.6873 -0.8204  0.5899
 6984SOL     OW32410   2.852   0.680   8.339  1.1836 -0.5005  0.2461
 6984SOL    HW132411   2.924   0.741   8.324  2.0778 -1.4468  0.6479
 6984SOL    HW232412   2.807   0.654   8.259  0.1769  2.8665 -0.2793
 6985SOL     OW32413   1.191   0.968   3.042  0.3817  0.1013  0.2905
 6985SOL    HW132414   1.103   0.930   3.049  1.3034 -2.1933 -0.3864
 6985SOL    HW232415   1.240   0.887   3.028 -0.2965 -0.2572  0.0129
 6986SOL     OW32416   1.006   3.250   8.059  0.4298 -0.3312 -0.4026
 6986SOL    HW132417   0.987   3.338   8.091 -0.8040 -1.0615  0.8450
 6986SOL    HW232418   1.084   3.225   8.109  1.8933  0.5617 -2.1920
 6987SOL     OW32419   0.386   1.780   2.107  0.5219  0.7595 -0.2974
 6987SOL    HW132420   0.431   1.714   2.055  1.4565  0.5446  0.7705
 6987SOL    HW232421   0.327   1.716   2.147  2.2731 -0.6131  0.0853
 6988SOL     OW32422   3.420   2.081   1.459  0.3809  0.0010  0.1528
 6988SOL    HW132423   3.336   2.049   1.426 -1.1774  1.9533  2.2495
 6988SOL    HW232424   3.479   2.063   1.386 -2.1734 -1.2727 -1.6253
 6989SOL     OW32425   4.495   2.121  10.286 -0.0296 -0.2478 -0.9366
 6989SOL    HW132426   4.424   2.077  10.240 -0.5741  2.0518 -2.3274
 6989SOL    HW232427   4.565   2.056  10.284  2.3746  2.3381 -0.1086
 6990SOL     OW32428   1.620   3.996   7.117 -0.2174  0.5934  0.1022
 6990SOL    HW132429   1.602   4.043   7.199 -2.6800 -0.1988  0.0391
 6990SOL    HW232430   1.697   4.044   7.086  0.6262 -1.6640 -1.2471
 6991SOL     OW32431   2.724   0.873   9.534  0.2410 -0.1102 -0.5044
 6991SOL    HW132432   2.659   0.830   9.589  1.1417  1.4679  1.7672
 6991SOL    HW232433   2.670   0.871   9.454  0.5299  1.1966 -0.7247
 6992SOL     OW32434   4.326   3.045   5.629 -0.2458 -0.1980  0.1346
 6992SOL    HW132435   4.408   2.999   5.643 -0.5611 -0.9445 -0.4836
 6992SOL    HW232436   4.265   2.985   5.672 -0.5319 -0.5689 -0.8055
 6993SOL     OW32437   3.081   3.972   7.935 -0.6874  0.5415 -0.2701
 6993SOL    HW132438   3.068   4.020   8.017 -0.0267 -0.8064  0.6277
 6993SOL    HW232439   3.002   3.999   7.887 -1.6115 -1.2974  0.2105
 6994SOL     OW32440   3.531   2.237  15.041 -0.3426  0.8955 -0.4821
 6994SOL    HW132441   3.516   2.143  15.045  4.1513  0.1954 -0.9148
 6994SOL    HW232442   3.463   2.266  15.102 -0.6533  0.9020 -0.8288
 6995SOL     OW32443   2.897   1.064  16.443  0.2870 -0.0508 -0.2218
 6995SOL    HW132444   2.924   0.977  16.412  0.4251 -0.6997  1.6983
 6995SOL    HW232445   2.924   1.051  16.534 -0.6421 -1.1363 -0.1071
 6996SOL     OW32446   2.992   3.178   6.856  0.2383 -0.2238  0.5027
 6996SOL    HW132447   2.965   3.260   6.815 -0.1807 -0.6948 -0.1507
 6996SOL    HW232448   3.076   3.211   6.889  1.1559  0.4279 -2.4458
 6997SOL     OW32449   2.021   3.855   1.032  0.0393 -0.2780  0.0436
 6997SOL    HW132450   1.976   3.929   1.073 -0.6454 -0.1565 -0.9285
 6997SOL    HW232451   1.957   3.792   1.066  1.4027 -1.3568  0.6368
 6998SOL     OW32452   0.035   4.072   2.913  0.2825 -0.0855  0.3377
 6998SOL    HW132453   0.084   4.151   2.893  1.7970 -0.7634  1.2914
 6998SOL    HW232454   0.095   4.036   2.979  0.5790  1.6922  1.0274
 6999SOL     OW32455   4.197   2.855   1.391 -0.2632  0.1560 -0.5787
 6999SOL    HW132456   4.258   2.800   1.440  0.8612  0.9011 -1.1380
 6999SOL    HW232457   4.215   2.942   1.428 -0.2323  0.9643 -2.4723
 7000SOL     OW32458   1.538   3.744  10.046 -0.4358  0.2628 -0.2181
 7000SOL    HW132459   1.537   3.830  10.003  1.8097 -0.1134 -1.0634
 7000SOL    HW232460   1.507   3.765  10.134  0.9188 -1.0091  0.5769
 7001SOL     OW32461   1.124   1.711  10.619 -0.2101 -0.4371  0.0784
 7001SOL    HW132462   1.042   1.706  10.667 -1.3639 -0.4943 -1.9247
 7001SOL    HW232463   1.100   1.751  10.536 -2.1960  1.0921  1.4298
 7002SOL     OW32464   3.300   3.458   6.259 -0.3333  0.4470  0.2358
 7002SOL    HW132465   3.355   3.507   6.320  0.7315  0.1184 -0.4503
 7002SOL    HW232466   3.302   3.367   6.287 -0.0541  0.2931 -0.2893
 7003SOL     OW32467   3.698   3.748   3.858  0.4765 -0.5393 -0.5556
 7003SOL    HW132468   3.727   3.766   3.948 -0.9132 -0.6588 -0.0808
 7003SOL    HW232469   3.635   3.676   3.865 -0.1198  0.2500  2.3592
 7004SOL     OW32470   3.485   2.133   3.553  0.8641  0.8027  0.0303
 7004SOL    HW132471   3.552   2.072   3.523  1.6618  1.2985  0.8070
 7004SOL    HW232472   3.407   2.077   3.555  1.6186 -0.2590 -0.3173
 7005SOL     OW32473   1.021   2.405   0.776 -0.2376  0.1447 -0.2158
 7005SOL    HW132474   0.991   2.325   0.820 -1.1137  0.6724  0.1474
 7005SOL    HW232475   0.938   2.438   0.743 -0.4654 -3.1548 -2.8609
 7006SOL     OW32476   1.005   2.792   8.689  0.5425 -0.0516 -0.3411
 7006SOL    HW132477   0.997   2.697   8.699  1.4592 -0.2957 -1.8867
 7006SOL    HW232478   1.011   2.811   8.596  0.8644 -1.5605 -0.6349
 7007SOL     OW32479   3.721   2.492   4.987 -0.3486 -0.0677 -0.6219
 7007SOL    HW132480   3.627   2.501   4.976 -0.5754 -1.4326  0.1183
 7007SOL    HW232481   3.728   2.420   4.924  2.9923 -1.5434  1.4139
 7008SOL     OW32482   3.764   2.116   3.513 -0.1786 -0.0092 -0.5336
 7008SOL    HW132483   3.807   2.107   3.428  1.3346 -0.3400  0.2764
 7008SOL    HW232484   3.828   2.165   3.563 -0.1166  0.5025 -1.1121
 7009SOL     OW32485   0.438   1.640  10.766 -0.1695 -0.3720  0.8723
 7009SOL    HW132486   0.482   1.631  10.851 -1.7249  1.7637  1.8818
 7009SOL    HW232487   0.487   1.708  10.720 -0.4641  0.7770  2.2667
 7010SOL     OW32488   4.604   0.750   6.845 -0.4046  0.4422  0.6077
 7010SOL    HW132489   4.510   0.740   6.830 -0.6529  1.9958  1.0759
 7010SOL    HW232490   4.593   0.841   6.873 -0.9636  0.9210 -1.1507
 7011SOL     OW32491   1.525   3.013   9.582 -0.5756  0.3099  0.4909
 7011SOL    HW132492   1.461   2.956   9.540 -1.1463 -0.2353  2.0773
 7011SOL    HW232493   1.499   3.099   9.550  0.1302 -0.2823 -1.6550
 7012SOL     OW32494   1.792   0.058  11.134 -0.3908  1.0532  0.0412
 7012SOL    HW132495   1.744   0.042  11.052  0.3560  0.1262 -0.2163
 7012SOL    HW232496   1.738   0.009  11.195  0.4451 -1.9817 -1.6714
 7013SOL     OW32497   1.597   1.893  17.658  0.3341 -0.0219  0.2620
 7013SOL    HW132498   1.612   1.927   0.040 -1.2746 -0.0231  0.5289
 7013SOL    HW232499   1.521   1.943  17.629  1.5224  1.7111  0.1545
 7014SOL     OW32500   4.720   1.151   3.941 -0.1584  0.2352  0.6893
 7014SOL    HW132501   4.699   1.058   3.936 -0.3401  0.3592 -0.8000
 7014SOL    HW232502   4.675   1.181   3.862 -1.5364 -2.9374  0.2891
 7015SOL     OW32503   4.147   1.844   9.998  0.3444  0.3280  0.4498
 7015SOL    HW132504   4.175   1.759  10.034 -0.4051 -0.0095  0.2367
 7015SOL    HW232505   4.084   1.828   9.928 -1.5514 -1.3870  2.5288
 7016SOL     OW32506   1.099   1.006  11.592 -0.2751  0.0466  0.1888
 7016SOL    HW132507   1.071   1.089  11.630 -0.1119 -0.3905  1.2611
 7016SOL    HW232508   1.068   0.940  11.654 -0.7776  2.5533  2.6247
 7017SOL     OW32509   3.937   4.107   4.003 -0.4445  0.0545 -0.9197
 7017SOL    HW132510   4.015   4.163   3.997  0.0179 -0.5814 -0.8147
 7017SOL    HW232511   3.958   4.038   3.940  1.7731 -0.3705  0.2631
 7018SOL     OW32512   0.333   3.361   2.814 -0.0874 -0.5736  0.1670
 7018SOL    HW132513   0.276   3.399   2.748 -2.0837 -1.0985  1.5622
 7018SOL    HW232514   0.268   3.340   2.881  0.1110  1.1429  0.8969
 7019SOL     OW32515   3.954   0.340   3.601 -0.6154  0.2297  0.5424
 7019SOL    HW132516   3.901   0.418   3.585 -0.9153 -0.4208 -1.5645
 7019SOL    HW232517   3.996   0.363   3.684  0.4178  0.4611 -0.0303
 7020SOL     OW32518   3.684   2.270   5.253  0.1532  0.1640 -0.2506
 7020SOL    HW132519   3.762   2.228   5.288 -0.6928  0.4322  1.9817
 7020SOL    HW232520   3.682   2.243   5.161  0.9397  1.2488 -0.5826
 7021SOL     OW32521   1.599   4.473   9.881  0.2811  0.2608  0.2820
 7021SOL    HW132522   1.646   4.543   9.835 -1.9671  1.9702  0.5800
 7021SOL    HW232523   1.631   4.475   9.972 -3.0444  0.3382  1.4416
 7022SOL     OW32524   0.633   1.757   8.410 -0.0382  0.4069  0.1099
 7022SOL    HW132525   0.585   1.831   8.448 -0.2688  0.7419 -0.8382
 7022SOL    HW232526   0.573   1.729   8.341  2.5991  0.3571 -2.1453
 7023SOL     OW32527   2.717   2.154  11.325  0.8601  0.2361 -0.2179
 7023SOL    HW132528   2.684   2.225  11.380  0.1390 -1.5966  1.6987
 7023SOL    HW232529   2.806   2.189  11.326  0.6513  0.7393  0.8370
 7024SOL     OW32530   1.003   3.178   4.263  0.0016 -0.1080  0.4067
 7024SOL    HW132531   0.971   3.107   4.319 -0.6481 -0.4433 -0.3954
 7024SOL    HW232532   0.982   3.251   4.321 -0.0926  0.2495 -0.0770
 7025SOL     OW32533   3.492   2.239   4.568  0.1711 -0.1686  0.0168
 7025SOL    HW132534   3.438   2.302   4.519  0.7649  0.2134 -0.1440
 7025SOL    HW232535   3.437   2.202   4.637 -0.1474 -1.8174 -1.1148
 7026SOL     OW32536   1.453   4.148   9.113  0.3293  0.2979  0.2641
 7026SOL    HW132537   1.384   4.214   9.124  0.1898 -0.0268  1.3316
 7026SOL    HW232538   1.449   4.109   9.200 -1.2003  0.2038  0.1647
 7027SOL     OW32539   1.429   1.581   0.543  0.2945  0.2266  0.3948
 7027SOL    HW132540   1.415   1.526   0.620  2.0529 -0.6371  0.0874
 7027SOL    HW232541   1.522   1.604   0.549  0.5916 -0.5552 -1.1044
 7028SOL     OW32542   1.874   1.630   6.704  0.0574  0.2245  0.3889
 7028SOL    HW132543   1.876   1.687   6.627 -0.1236  0.6097  0.6723
 7028SOL    HW232544   1.872   1.696   6.774  0.3554 -1.0694  1.6222
 7029SOL     OW32545   1.160   0.209  13.287 -0.2184  0.5856 -0.1881
 7029SOL    HW132546   1.208   0.282  13.325  0.1041  0.5279 -0.4857
 7029SOL    HW232547   1.113   0.179  13.365  4.1296  3.2422  3.3901
 7030SOL     OW32548   4.620   1.828   5.633 -0.1798  0.2200 -0.4997
 7030SOL    HW132549   4.638   1.852   5.724  2.2771  2.1416 -1.5082
 7030SOL    HW232550   4.565   1.900   5.601  0.1017 -0.3072 -2.1650
 7031SOL     OW32551   0.127   1.744  10.499  0.0072 -0.1305  0.2864
 7031SOL    HW132552   0.221   1.744  10.519  0.3886 -0.8080 -1.4129
 7031SOL    HW232553   0.126   1.804  10.424 -0.7076 -2.1076 -1.2780
 7032SOL     OW32554   0.545   2.370   0.628  0.4408  0.4531 -0.1986
 7032SOL    HW132555   0.486   2.440   0.601 -0.2944 -0.9411 -2.2070
 7032SOL    HW232556   0.623   2.416   0.660 -0.8740  2.1023  0.6354
 7033SOL     OW32557   1.428   3.905   1.063  0.3430 -0.5103  0.2349
 7033SOL    HW132558   1.446   3.936   0.974 -0.9823  0.0214  0.1477
 7033SOL    HW232559   1.410   3.984   1.113  3.6013  2.3234 -3.0882
 7034SOL     OW32560   2.712   0.695   4.975 -0.3566 -0.3624 -0.4974
 7034SOL    HW132561   2.745   0.632   5.040  1.2856  0.0693 -0.9121
 7034SOL    HW232562   2.707   0.770   5.034 -1.2795 -1.2796  0.6072
 7035SOL     OW32563   1.076   1.994   6.092 -0.7439 -0.0739 -0.1727
 7035SOL    HW132564   0.997   2.002   6.145 -0.1866  0.7838  0.5333
 7035SOL    HW232565   1.059   2.066   6.032  1.9395 -0.1907 -1.0940
 7036SOL     OW32566   4.151   1.053  17.705  0.2134  0.4150  0.0673
 7036SOL    HW132567   4.206   1.115   0.048 -0.0003  0.7931 -0.1681
 7036SOL    HW232568   4.160   0.974   0.052 -2.6423 -0.0641 -0.1689
 7037SOL     OW32569   4.456   3.233   4.382 -0.3385  0.1308  0.2155
 7037SOL    HW132570   4.404   3.196   4.310 -1.0091  2.1997 -0.3409
 7037SOL    HW232571   4.439   3.326   4.369  1.1641  0.7019  2.2284
 7038SOL     OW32572   0.472   1.514   3.801 -0.3829 -0.2884 -0.0453
 7038SOL    HW132573   0.460   1.466   3.719 -2.0086 -1.5214  0.9155
 7038SOL    HW232574   0.566   1.532   3.795 -0.1783 -0.6365  2.0474
 7039SOL     OW32575   0.496   2.020  13.786  0.0166  0.0204  0.2781
 7039SOL    HW132576   0.451   2.026  13.702 -1.3778 -2.1720  0.8903
 7039SOL    HW232577   0.588   2.037  13.763  0.2929  0.0000  1.3405
 7040SOL     OW32578   2.251   3.873   5.274 -0.0092 -0.0528 -0.5773
 7040SOL    HW132579   2.319   3.940   5.283 -0.1665 -0.2381  2.0760
 7040SOL    HW232580   2.222   3.890   5.184 -0.4597 -0.1412 -0.4518
 7041SOL     OW32581   4.518   2.399  10.677 -0.1268 -0.0407 -0.7756
 7041SOL    HW132582   4.497   2.383  10.585 -1.7589  2.5642 -0.8625
 7041SOL    HW232583   4.612   2.417  10.670  0.0668 -0.3728  1.2554
 7042SOL     OW32584   3.674   1.965   0.825  0.2576  0.0558 -0.0308
 7042SOL    HW132585   3.634   1.896   0.772  1.1203 -1.3560  1.1661
 7042SOL    HW232586   3.621   1.961   0.905  0.1555 -0.0620 -0.1056
 7043SOL     OW32587   1.736   0.390   1.563 -0.0776  0.2316 -0.4356
 7043SOL    HW132588   1.789   0.353   1.492 -0.2166 -2.7415  1.0288
 7043SOL    HW232589   1.709   0.473   1.523 -2.0397 -0.4142 -0.4602
 7044SOL     OW32590   1.543   2.444   3.049  0.4699  0.0990 -0.6486
 7044SOL    HW132591   1.550   2.471   2.957 -1.5099 -1.2747 -1.2125
 7044SOL    HW232592   1.487   2.515   3.080  0.2367 -0.5306  0.3678
 7045SOL     OW32593   0.529   4.473   6.710 -0.3186 -0.2556 -0.5835
 7045SOL    HW132594   0.615   4.447   6.676 -0.5167  0.1835 -1.4082
 7045SOL    HW232595   0.550   4.566   6.722 -1.6489  0.1748 -1.6301
 7046SOL     OW32596   2.160   1.534   5.112 -0.1271 -0.0569 -0.6918
 7046SOL    HW132597   2.076   1.499   5.142  0.1945 -0.0569  0.1971
 7046SOL    HW232598   2.172   1.509   5.020  1.6794  0.5603 -0.6217
 7047SOL     OW32599   3.165   3.709  13.485  0.1617 -0.5479 -0.5234
 7047SOL    HW132600   3.161   3.647  13.558  5.8956  0.0127  0.2075
 7047SOL    HW232601   3.170   3.647  13.413 -0.4606 -0.2327 -0.8359
 7048SOL     OW32602   1.163   2.727   1.169  0.0227  0.9115 -0.3075
 7048SOL    HW132603   1.144   2.706   1.078 -0.8367  0.3922 -0.0167
 7048SOL    HW232604   1.258   2.740   1.167  0.2441 -0.6465  0.4872
 7049SOL     OW32605   3.928   2.359   3.111 -0.4279 -0.1576  0.4922
 7049SOL    HW132606   4.015   2.383   3.142  0.1945 -3.1042  1.1123
 7049SOL    HW232607   3.881   2.396   3.186  0.7703 -0.6792  1.5066
 7050SOL     OW32608   3.947   0.621   6.291 -0.4972 -0.6294 -0.0303
 7050SOL    HW132609   3.988   0.680   6.354 -0.0675 -2.4860  1.4268
 7050SOL    HW232610   3.876   0.673   6.252  0.7587  0.8873 -0.2893
 7051SOL     OW32611   3.440   0.472  15.363 -0.3374 -0.2700  0.3191
 7051SOL    HW132612   3.503   0.520  15.416 -0.0931 -0.5593  0.2919
 7051SOL    HW232613   3.408   0.541  15.305  0.5755 -0.5952 -0.5680
 7052SOL     OW32614   3.905   3.893  14.491 -0.6115 -0.0439 -0.2134
 7052SOL    HW132615   3.954   3.962  14.446  1.6110 -0.7390  1.1252
 7052SOL    HW232616   3.937   3.826  14.431  0.4931  0.4657 -0.1977
 7053SOL     OW32617   2.252   3.185   4.127  0.0593 -0.5707 -0.2423
 7053SOL    HW132618   2.321   3.247   4.150  1.6196 -2.6849  0.8296
 7053SOL    HW232619   2.244   3.116   4.193  0.8839  1.6343  2.1230
 7054SOL     OW32620   0.228   4.593   4.387  0.1017  0.1420  0.1378
 7054SOL    HW132621   0.205   4.685   4.400  0.9388  0.8615 -3.3174
 7054SOL    HW232622   0.190   4.555   4.466 -1.3246  1.9546  0.3341
 7055SOL     OW32623   0.036   3.103   1.573 -0.0691  0.1748  0.4884
 7055SOL    HW132624   4.693   3.040   1.551  1.0532 -0.3513 -1.5587
 7055SOL    HW232625   4.715   3.186   1.563 -1.4473 -0.8062 -1.1682
 7056SOL     OW32626   1.557   1.863   6.041 -0.5720  0.5844 -0.9239
 7056SOL    HW132627   1.543   1.872   6.135 -0.7282 -0.2878 -0.8667
 7056SOL    HW232628   1.649   1.891   6.037 -0.3990  0.6311  3.0948
 7057SOL     OW32629   4.324   2.724  15.254  0.3108  0.2532 -0.2496
 7057SOL    HW132630   4.277   2.711  15.336  0.7643 -0.2036 -0.0638
 7057SOL    HW232631   4.290   2.806  15.217 -0.8322  0.8969  2.2271
 7058SOL     OW32632   3.356   2.847  17.535 -0.0924  0.3924 -0.2787
 7058SOL    HW132633   3.411   2.817  17.607 -0.3918  1.0933  0.2448
 7058SOL    HW232634   3.302   2.771  17.514  0.2259  0.4141 -1.2037
 7059SOL     OW32635   3.135   4.228   8.484  0.5656  0.1789 -0.4030
 7059SOL    HW132636   3.141   4.290   8.556  1.3818 -1.2862  0.7952
 7059SOL    HW232637   3.207   4.247   8.424 -0.4967 -1.7322 -2.3172
 7060SOL     OW32638   0.373   0.104   7.808 -0.3747  0.2010  0.0214
 7060SOL    HW132639   0.455   0.073   7.770  0.1278  0.0941  1.1760
 7060SOL    HW232640   0.335   0.025   7.848 -0.1934  0.2842  0.3529
 7061SOL     OW32641   0.238   0.974  16.975  0.3602 -0.2627  0.0902
 7061SOL    HW132642   0.305   1.009  17.034  1.8822  0.2961 -1.9977
 7061SOL    HW232643   0.157   0.955  17.024 -1.2518  0.4267 -2.3194
 7062SOL     OW32644   0.549   0.127   8.129 -0.7987 -0.5511  0.5505
 7062SOL    HW132645   0.628   0.086   8.096 -0.7513  0.1053 -0.1489
 7062SOL    HW232646   0.521   0.044   8.166  0.2756 -1.5217 -0.8314
 7063SOL     OW32647   1.969   1.623   0.788 -0.3681  0.0524  0.2001
 7063SOL    HW132648   1.971   1.586   0.876 -0.4987  0.2680  0.2941
 7063SOL    HW232649   1.957   1.716   0.806  1.4374 -0.1622  2.4637
 7064SOL     OW32650   0.781   0.480   8.188  0.2388  0.2198  0.4479
 7064SOL    HW132651   0.820   0.448   8.269 -1.4964  2.0058  1.9992
 7064SOL    HW232652   0.814   0.569   8.197  2.5289 -0.4817 -0.9926
 7065SOL     OW32653   2.786   2.825   5.553 -0.2439  0.1619 -0.0700
 7065SOL    HW132654   2.734   2.799   5.629 -0.3035  1.3327  0.2921
 7065SOL    HW232655   2.814   2.914   5.573  3.2839 -0.8903 -0.2420
 7066SOL     OW32656   3.978   0.908   7.114  0.6647 -0.0862  0.8973
 7066SOL    HW132657   4.031   0.862   7.048 -1.7080 -0.5571 -0.6975
 7066SOL    HW232658   4.051   0.936   7.168  0.5723  1.0994  0.3913
 7067SOL     OW32659   0.016   2.459   3.430  0.1352  0.4179  0.0595
 7067SOL    HW132660   0.090   2.400   3.419 -1.0564 -0.4778 -3.1925
 7067SOL    HW232661   4.724   2.432   3.520  0.0426 -1.7569 -0.6065
 7068SOL     OW32662   0.768   1.638   9.782 -0.6902 -0.2062 -0.4298
 7068SOL    HW132663   0.762   1.543   9.774  0.6334 -0.2804 -0.5333
 7068SOL    HW232664   0.674   1.655   9.778 -0.3899  1.5025 -0.2245
 7069SOL     OW32665   0.508   0.650   8.248 -0.3694  0.2249  0.0742
 7069SOL    HW132666   0.557   0.603   8.315 -0.2557  1.9843  1.1979
 7069SOL    HW232667   0.466   0.582   8.194  0.6957  0.2507 -0.7910
 7070SOL     OW32668   3.653   2.737   4.374  0.0720 -0.2825 -0.6320
 7070SOL    HW132669   3.660   2.791   4.295  2.5708  0.8020  0.3181
 7070SOL    HW232670   3.570   2.693   4.360 -1.3581  2.3916 -0.5473
 7071SOL     OW32671   2.111   4.459   4.700 -0.1732 -0.0328  0.1154
 7071SOL    HW132672   2.170   4.450   4.775  2.0506 -1.3448 -1.8143
 7071SOL    HW232673   2.035   4.415   4.740  0.2430 -1.6282 -0.8588
 7072SOL     OW32674   1.930   2.684   8.571  0.1011 -0.1620  0.4409
 7072SOL    HW132675   1.975   2.734   8.639  0.8038  0.6023 -0.5843
 7072SOL    HW232676   1.903   2.604   8.615 -1.4974 -0.1557 -0.5048
 7073SOL     OW32677   3.351   0.285   2.429  0.3155 -0.1630  0.0616
 7073SOL    HW132678   3.380   0.193   2.429  0.4669 -0.1127  0.7320
 7073SOL    HW232679   3.259   0.277   2.404  0.0783  0.7633  0.6598
 7074SOL     OW32680   4.415   0.213  17.259  0.2475  0.2448 -0.3830
 7074SOL    HW132681   4.480   0.193  17.192 -0.0167  0.9460 -0.8583
 7074SOL    HW232682   4.458   0.204  17.344 -0.5383  1.8048  0.1773
 7075SOL     OW32683   3.914   1.997  13.329  0.3915  0.4711 -0.1846
 7075SOL    HW132684   3.896   1.956  13.244  0.2915  2.4110 -1.0929
 7075SOL    HW232685   3.987   1.947  13.365 -0.5037 -0.6733  0.0414
 7076SOL     OW32686   0.435   3.764  16.174  0.3070 -0.0080 -0.0499
 7076SOL    HW132687   0.429   3.782  16.080  0.0862 -0.5151 -0.1328
 7076SOL    HW232688   0.419   3.670  16.164  1.4417 -0.0786 -1.2464
 7077SOL     OW32689   1.626   1.791  12.502 -0.4195 -0.0148  0.1532
 7077SOL    HW132690   1.652   1.705  12.471  0.4694  0.1039  0.5589
 7077SOL    HW232691   1.568   1.754  12.568  1.5574  0.0759  1.9414
 7078SOL     OW32692   4.342   2.260   6.503 -0.3984  0.0719 -0.4634
 7078SOL    HW132693   4.421   2.311   6.518 -0.4348 -0.3476  1.2456
 7078SOL    HW232694   4.324   2.239   6.595 -0.0921  0.1237 -0.3940
 7079SOL     OW32695   1.841   0.249   4.958  0.6756  0.1283 -0.2650
 7079SOL    HW132696   1.808   0.170   4.999 -0.6014  0.1873 -1.1932
 7079SOL    HW232697   1.794   0.269   4.877  1.8954  1.0370 -0.7554
 7080SOL     OW32698   1.986   4.016  11.241 -0.0275 -0.3340 -0.4044
 7080SOL    HW132699   2.022   4.091  11.287  1.5383 -0.5573 -1.2530
 7080SOL    HW232700   1.896   4.048  11.233  0.4403  0.9459 -0.5482
 7081SOL     OW32701   3.391   2.236   3.001  0.3730 -0.0768  0.1054
 7081SOL    HW132702   3.321   2.199   2.947  0.0409  2.4235 -1.1597
 7081SOL    HW232703   3.471   2.195   2.968  0.4433 -0.1473  0.3571
 7082SOL     OW32704   0.204   2.001   5.499  0.2916  0.0228  0.2462
 7082SOL    HW132705   0.253   1.965   5.425  1.8503 -1.6406  2.0748
 7082SOL    HW232706   0.244   2.087   5.491 -0.5296  0.4175  0.3764
 7083SOL     OW32707   0.768   3.947   8.761  0.0174  0.0465  0.2491
 7083SOL    HW132708   0.692   3.935   8.703 -0.6314  1.1993  0.8751
 7083SOL    HW232709   0.776   4.042   8.760  1.3898 -0.0730 -0.8831
 7084SOL     OW32710   1.120   1.791   4.705 -0.0165 -0.5483  0.0297
 7084SOL    HW132711   1.187   1.842   4.658 -0.2927 -1.9291 -1.8694
 7084SOL    HW232712   1.163   1.781   4.790  1.2382  0.5569 -0.4633
 7085SOL     OW32713   0.884   4.212  10.716 -0.4519  0.6466  0.4188
 7085SOL    HW132714   0.914   4.280  10.777  1.2444 -0.1466  0.4671
 7085SOL    HW232715   0.805   4.189  10.764 -0.1471 -0.1019  0.5550
 7086SOL     OW32716   4.601   3.090   5.862 -0.1649 -0.0846 -0.0116
 7086SOL    HW132717   4.679   3.067   5.914 -0.5623  1.5793  1.3050
 7086SOL    HW232718   4.636   3.111   5.775 -3.8620 -1.2361 -1.7551
 7087SOL     OW32719   4.547   2.414   3.213  0.0622  0.5086  0.5954
 7087SOL    HW132720   4.614   2.461   3.261  1.4217 -0.2579 -0.5478
 7087SOL    HW232721   4.582   2.326   3.225 -1.8337 -0.6196 -2.0905
 7088SOL     OW32722   2.854   1.989   8.338 -0.4275  0.2472 -0.0662
 7088SOL    HW132723   2.883   2.078   8.320  1.5118 -0.1383  1.0978
 7088SOL    HW232724   2.761   2.008   8.335 -0.6659 -1.3951 -2.7017
 7089SOL     OW32725   0.744   0.784   2.484  0.1047 -0.3714 -0.4146
 7089SOL    HW132726   0.726   0.713   2.546  0.6025  1.6876  2.0907
 7089SOL    HW232727   0.663   0.835   2.476 -0.5442 -1.0748  1.6890
 7090SOL     OW32728   1.960   1.829   1.896  0.5072 -0.3768  0.0914
 7090SOL    HW132729   2.025   1.795   1.958  1.1492 -1.2107 -1.0455
 7090SOL    HW232730   1.972   1.772   1.820 -0.8672 -1.4150  0.6602
 7091SOL     OW32731   1.359   2.386  15.436  0.0482  0.4539  0.1666
 7091SOL    HW132732   1.291   2.376  15.503  2.3270 -1.3837  2.1883
 7091SOL    HW232733   1.366   2.482  15.442  1.5369  0.4450 -1.3859
 7092SOL     OW32734   1.338   3.875   4.919  0.2139 -0.4349  0.1413
 7092SOL    HW132735   1.306   3.844   4.835  0.9881 -1.5454  0.2640
 7092SOL    HW232736   1.431   3.863   4.904  0.7189  2.0462  1.1487
 7093SOL     OW32737   0.266   2.379   2.292 -0.0700 -0.1556  0.0034
 7093SOL    HW132738   0.258   2.360   2.385  0.4206  1.7275  0.4166
 7093SOL    HW232739   0.197   2.329   2.248 -0.4944  1.0445 -0.6796
 7094SOL     OW32740   0.831   0.886   1.608 -0.4260  0.6968 -0.1095
 7094SOL    HW132741   0.809   0.948   1.677  0.1329  1.5031 -0.6642
 7094SOL    HW232742   0.744   0.883   1.566  0.2597 -1.7608 -1.3574
 7095SOL     OW32743   0.104   1.567   6.563  0.3082 -0.1980 -0.0141
 7095SOL    HW132744   0.032   1.512   6.534  0.2853  0.0375 -0.4181
 7095SOL    HW232745   0.060   1.636   6.613 -0.6885 -1.1242  0.3759
 7096SOL     OW32746   2.733   0.525   4.640 -0.8264  0.0101  0.4377
 7096SOL    HW132747   2.797   0.505   4.707  0.8869 -0.9005 -1.4679
 7096SOL    HW232748   2.659   0.557   4.692 -0.2547  0.2803  1.0840
 7097SOL     OW32749   0.512   3.073   7.771  0.0522  0.0376  0.1736
 7097SOL    HW132750   0.499   3.045   7.681 -0.6883  1.1756 -0.0751
 7097SOL    HW232751   0.445   3.025   7.820 -0.5159  0.0022 -0.6371
 7098SOL     OW32752   2.954   2.507   4.575  0.0211 -0.4227 -0.2682
 7098SOL    HW132753   3.046   2.511   4.549  0.3440 -1.1951  0.7900
 7098SOL    HW232754   2.917   2.563   4.507 -2.6624 -2.7268 -0.7393
 7099SOL     OW32755   4.001   2.119   8.751  0.6292 -0.3976  0.4438
 7099SOL    HW132756   3.995   2.084   8.662  0.9265  1.4280 -0.2912
 7099SOL    HW232757   4.008   2.036   8.800  0.8900 -0.5645  0.1252
 7100SOL     OW32758   0.928   2.253   4.202 -0.2698  0.3824 -0.2665
 7100SOL    HW132759   0.946   2.167   4.164  1.3075 -0.1705  1.7387
 7100SOL    HW232760   0.867   2.283   4.135 -0.8630  2.4209  1.1717
 7101SOL     OW32761   0.283   0.322   4.022  1.1190 -0.0012  0.2203
 7101SOL    HW132762   0.368   0.333   4.065  1.2130 -2.0314  0.5697
 7101SOL    HW232763   0.311   0.307   3.932  0.6999  0.2754  0.0444
 7102SOL     OW32764   3.795   2.177   6.565 -0.6070  0.2286  0.3413
 7102SOL    HW132765   3.846   2.123   6.504 -1.8460 -1.2330  0.6019
 7102SOL    HW232766   3.704   2.161   6.542 -0.3766 -0.2232 -0.2520
 7103SOL     OW32767   0.442   2.144   9.488 -0.4449 -0.3173 -0.8413
 7103SOL    HW132768   0.397   2.211   9.438 -0.9637 -0.0828 -0.0655
 7103SOL    HW232769   0.530   2.145   9.450  0.0642  1.3543  0.3794
 7104SOL     OW32770   2.746   2.048  16.748  0.5558 -0.0628  0.3636
 7104SOL    HW132771   2.744   2.128  16.695  0.4594 -0.1009  0.3089
 7104SOL    HW232772   2.813   1.994  16.706  0.2546 -2.1122  2.5369
 7105SOL     OW32773   1.640   0.155   3.060 -0.5210 -0.7014  0.1687
 7105SOL    HW132774   1.635   0.135   2.967  0.3101 -1.8578  0.3670
 7105SOL    HW232775   1.735   0.156   3.072 -0.2424 -0.8869 -1.9932
 7106SOL     OW32776   0.152   1.116  14.033  0.0397 -0.1316 -0.2468
 7106SOL    HW132777   0.116   1.097  13.946 -2.3896 -1.0897  0.9537
 7106SOL    HW232778   0.121   1.204  14.052 -0.1513 -0.4316  0.8474
 7107SOL     OW32779   0.474   0.260   2.184 -0.2460 -0.3113 -0.7334
 7107SOL    HW132780   0.443   0.350   2.179  0.4884 -0.2235 -3.7313
 7107SOL    HW232781   0.394   0.211   2.167  0.3756 -1.4506 -0.3747
 7108SOL     OW32782   0.969   0.392  13.242 -0.0562 -0.1766 -0.1377
 7108SOL    HW132783   1.032   0.373  13.312  0.5706  0.7207 -0.4598
 7108SOL    HW232784   0.926   0.309  13.223  0.1223 -0.2581 -0.1909
 7109SOL     OW32785   4.447   3.413   5.315  0.3507  0.1107  0.3940
 7109SOL    HW132786   4.398   3.353   5.371 -0.7505 -1.4472 -2.2306
 7109SOL    HW232787   4.533   3.407   5.356  0.2472 -2.3849  0.2436
 7110SOL     OW32788   2.343   4.124   6.849 -0.3465  0.3607 -0.4082
 7110SOL    HW132789   2.345   4.086   6.760 -0.3604 -2.0904  0.6332
 7110SOL    HW232790   2.277   4.064   6.884  0.4124 -1.2006 -1.6308
 7111SOL     OW32791   0.451   4.436  16.059 -0.0267  0.3674  0.0545
 7111SOL    HW132792   0.416   4.379  16.128 -0.2954 -0.3314 -0.6604
 7111SOL    HW232793   0.376   4.475  16.012  0.6255  0.7330 -0.6792
 7112SOL     OW32794   3.229   3.728   3.202  0.0403  0.0042 -0.1052
 7112SOL    HW132795   3.286   3.745   3.127 -0.0688  1.7963  0.2291
 7112SOL    HW232796   3.247   3.791   3.272 -0.5178 -0.0636  0.1037
 7113SOL     OW32797   3.466   0.946   6.458  0.6252  0.3225 -0.0919
 7113SOL    HW132798   3.536   0.917   6.399 -1.2494 -1.4695 -1.4794
 7113SOL    HW232799   3.496   1.034   6.477 -0.3212  0.8291 -0.9870
 7114SOL     OW32800   1.058   2.508   2.525 -0.4422  0.2619 -0.4445
 7114SOL    HW132801   1.043   2.582   2.583  0.3663  0.2628 -0.2421
 7114SOL    HW232802   1.111   2.559   2.463 -0.1052 -0.0420 -0.4095
 7115SOL     OW32803   4.173   1.217   6.239  0.0942 -0.1009  0.2845
 7115SOL    HW132804   4.203   1.126   6.246  2.7006  0.6298 -1.5195
 7115SOL    HW232805   4.124   1.221   6.157  1.0908 -0.2961 -0.3163
 7116SOL     OW32806   3.778   2.210   6.255 -0.2855  0.2059  0.5454
 7116SOL    HW132807   3.840   2.141   6.229 -0.7271 -0.1892  0.5238
 7116SOL    HW232808   3.818   2.296   6.246 -0.5332  0.2328 -0.2596
 7117SOL     OW32809   3.315   4.724   1.193  0.2136 -0.1979  0.0891
 7117SOL    HW132810   3.253   0.021   1.124  0.7471  0.7139 -0.0820
 7117SOL    HW232811   3.368   0.076   1.208  1.7908 -1.3027  0.2773
 7118SOL     OW32812   2.636   1.274  11.692  0.0641 -0.0571 -0.1856
 7118SOL    HW132813   2.558   1.218  11.699 -0.9626  0.9904 -3.1739
 7118SOL    HW232814   2.694   1.205  11.725  0.8261  1.5454  1.8233
 7119SOL     OW32815   1.506   3.733  13.830 -0.4505 -0.8636 -0.2226
 7119SOL    HW132816   1.430   3.681  13.805 -1.9055  0.6458  1.0441
 7119SOL    HW232817   1.582   3.675  13.822  1.4456  1.5095  0.6001
 7120SOL     OW32818   0.924   1.192  17.678  0.2303  0.0846  0.6767
 7120SOL    HW132819   0.891   1.212   0.059  0.7252  1.5995  0.5193
 7120SOL    HW232820   0.958   1.277  17.647  1.3219 -1.1184 -1.4154
 7121SOL     OW32821   0.935   1.872   3.580  0.1897  0.1576 -0.1735
 7121SOL    HW132822   0.914   1.852   3.671 -0.4120 -1.9793 -0.7938
 7121SOL    HW232823   1.023   1.908   3.593  0.1025  0.4817 -0.4713
 7122SOL     OW32824   3.033   1.646   5.992 -0.1631 -0.4183  0.8559
 7122SOL    HW132825   3.081   1.697   5.927 -2.3667  0.7682  0.1786
 7122SOL    HW232826   2.991   1.591   5.926 -1.0166  1.1595  0.0880
 7123SOL     OW32827   3.556   3.070   0.282  0.5140 -0.7758  0.1928
 7123SOL    HW132828   3.508   3.001   0.237 -0.3596  0.4037 -0.6848
 7123SOL    HW232829   3.498   3.086   0.357 -0.4923  1.0798 -0.9731
 7124SOL     OW32830   3.854   3.301   3.140  0.7231  0.3640 -0.4403
 7124SOL    HW132831   3.894   3.303   3.226 -2.8254 -1.1312  1.2559
 7124SOL    HW232832   3.806   3.218   3.141 -0.4463  1.0146 -2.0838
 7125SOL     OW32833   3.301   4.504   7.202  0.4799 -0.5146  0.1555
 7125SOL    HW132834   3.277   4.509   7.295 -0.0119  2.1920 -0.1358
 7125SOL    HW232835   3.394   4.490   7.216  0.8131  1.1673 -0.4109
 7126SOL     OW32836   2.818   0.960   3.946 -0.2772  0.1168  0.4039
 7126SOL    HW132837   2.836   0.910   3.867  2.5281 -1.4262  2.0388
 7126SOL    HW232838   2.801   0.893   4.013 -3.5222 -0.1096 -0.6613
 7127SOL     OW32839   1.233   4.627  12.475 -0.3894 -0.5153 -0.6452
 7127SOL    HW132840   1.311   4.626  12.531 -0.8125 -0.6272 -0.0609
 7127SOL    HW232841   1.170   4.692  12.505  1.1288  0.1034  1.2199
 7128SOL     OW32842   3.908   0.968  15.941 -0.0968 -0.1423 -0.2106
 7128SOL    HW132843   3.874   1.043  15.891 -2.8115 -1.4254 -0.2893
 7128SOL    HW232844   3.921   1.006  16.027 -1.3997  1.7475 -0.8335
 7129SOL     OW32845   2.568   2.346   1.300 -0.1243 -0.0955 -0.6325
 7129SOL    HW132846   2.521   2.337   1.384  0.7152 -0.8530 -0.2481
 7129SOL    HW232847   2.578   2.441   1.305  1.8262 -0.2361 -2.1027
 7130SOL     OW32848   4.661   2.808   0.167 -0.0041 -0.0758 -0.4037
 7130SOL    HW132849   4.630   2.776   0.082  0.9941 -2.6002  0.1842
 7130SOL    HW232850   0.013   2.753   0.172  0.9556  1.4379  1.1035
 7131SOL     OW32851   4.100   0.914   3.292  0.0161 -0.2317  0.3617
 7131SOL    HW132852   4.020   0.863   3.279 -1.6082  2.1985  0.5811
 7131SOL    HW232853   4.089   0.993   3.238 -0.8466  0.1415  1.0791
 7132SOL     OW32854   0.699   1.486   6.456 -0.5926  0.3741 -0.0624
 7132SOL    HW132855   0.777   1.434   6.473 -0.1213  1.6160  1.5237
 7132SOL    HW232856   0.739   1.551   6.397  0.8218  0.0874  0.5840
 7133SOL     OW32857   4.339   3.613  11.553  0.0886 -0.3580 -0.0515
 7133SOL    HW132858   4.415   3.583  11.503  0.5482  1.7654 -0.6348
 7133SOL    HW232859   4.283   3.653  11.487  0.0375  0.5228  0.5231
 7134SOL     OW32860   3.523   0.145   6.260 -0.3615  0.1743 -0.8325
 7134SOL    HW132861   3.544   0.112   6.347 -2.6092  0.6438 -0.0937
 7134SOL    HW232862   3.603   0.190   6.234 -0.8815  0.0004 -2.7776
 7135SOL     OW32863   1.170   4.725   5.649 -0.0945  0.0684  0.6596
 7135SOL    HW132864   1.137   4.636   5.655  0.4138  0.0087  2.4025
 7135SOL    HW232865   1.262   4.711   5.668  0.2317  0.9038 -0.3091
 7136SOL     OW32866   3.763   2.478  14.985  0.2475  0.2206 -0.5801
 7136SOL    HW132867   3.732   2.546  15.045 -0.4586 -1.0136  0.4387
 7136SOL    HW232868   3.776   2.411  15.052 -0.5262 -0.0546 -0.7132
 7137SOL     OW32869   1.748   0.072   6.966 -0.3475  0.3991  0.2039
 7137SOL    HW132870   1.656   0.098   6.957 -0.5778 -0.2408  0.6693
 7137SOL    HW232871   1.784   0.103   6.883 -1.8519  1.5075 -0.0280
 7138SOL     OW32872   0.147   4.346   2.911  0.2171  0.3914 -0.2268
 7138SOL    HW132873   0.214   4.390   2.859 -0.1279  0.8135 -0.3136
 7138SOL    HW232874   0.077   4.348   2.847 -1.0284 -1.9699  1.0659
 7139SOL     OW32875   3.552   3.630   4.556  0.1312 -0.0960 -0.0952
 7139SOL    HW132876   3.587   3.543   4.535 -1.3310 -0.9061  0.7874
 7139SOL    HW232877   3.572   3.630   4.650  1.1747  0.9524 -0.3299
 7140SOL     OW32878   1.213   2.493   8.031  0.2523 -0.2737 -0.1591
 7140SOL    HW132879   1.121   2.507   8.009 -0.0243 -0.7016  0.7192
 7140SOL    HW232880   1.265   2.550   7.975  1.1541 -0.2210  0.7227
 7141SOL     OW32881   1.046   1.497   8.757 -0.0678 -0.0926  0.4699
 7141SOL    HW132882   1.000   1.581   8.769  0.3829  0.2416 -0.1344
 7141SOL    HW232883   1.085   1.483   8.844  0.9391 -1.1575 -0.1623
 7142SOL     OW32884   4.425   3.984   4.844  0.7340 -0.5816 -0.2364
 7142SOL    HW132885   4.397   3.893   4.852 -1.3836  0.3427  2.8293
 7142SOL    HW232886   4.409   3.998   4.751  0.3664  0.9009  0.0496
 7143SOL     OW32887   2.194   1.868   9.255  0.3945 -0.1885  0.0072
 7143SOL    HW132888   2.243   1.789   9.234  0.9388  0.5631 -1.5968
 7143SOL    HW232889   2.125   1.836   9.313 -0.6376 -0.3294 -1.2999
 7144SOL     OW32890   0.729   2.406  14.692  0.5028  0.3788  0.0763
 7144SOL    HW132891   0.703   2.481  14.638  2.3445 -0.2980 -1.7592
 7144SOL    HW232892   0.823   2.408  14.676  0.4415 -2.2858 -0.5534
 7145SOL     OW32893   3.083   4.459   4.340  0.1665  0.3080 -0.3527
 7145SOL    HW132894   3.174   4.439   4.320 -0.2811 -0.6873 -1.4180
 7145SOL    HW232895   3.061   4.508   4.261  2.6415  1.1487 -0.5048
 7146SOL     OW32896   3.530   0.771   7.021 -0.1324  0.0558  0.0954
 7146SOL    HW132897   3.439   0.790   6.999  0.3423 -0.7398 -2.6032
 7146SOL    HW232898   3.563   0.853   7.057 -0.0617  0.0675  0.0039
 7147SOL     OW32899   4.726   3.037   7.683 -0.5910  0.1422  1.0628
 7147SOL    HW132900   4.653   2.977   7.668 -1.0384  0.2302  2.8976
 7147SOL    HW232901   0.040   3.040   7.597 -0.1520  2.3403  1.3379
 7148SOL     OW32902   1.440   0.073   9.817 -0.2734  0.0757 -0.6951
 7148SOL    HW132903   1.404   0.154   9.853  1.3392 -0.6518  2.5166
 7148SOL    HW232904   1.442   0.028   9.901 -0.4769 -1.3344 -1.4501
 7149SOL     OW32905   2.577   0.857   6.791  0.1551  0.0207 -0.1824
 7149SOL    HW132906   2.601   0.948   6.771  1.1773 -0.2157 -0.0486
 7149SOL    HW232907   2.632   0.820   6.723 -0.2488 -0.8135 -0.0453
 7150SOL     OW32908   4.062   4.656   4.937  0.2192 -0.3930 -0.1258
 7150SOL    HW132909   3.971   4.678   4.917 -0.5173 -3.5913 -0.3653
 7150SOL    HW232910   4.084   4.596   4.866 -0.7084  1.6831 -2.1735
 7151SOL     OW32911   2.363   2.492   0.128 -0.2087 -0.4821 -0.6718
 7151SOL    HW132912   2.354   2.434   0.052 -1.3936  1.2264 -1.8373
 7151SOL    HW232913   2.428   2.443   0.179  0.5831  1.7321  0.4533
 7152SOL     OW32914   1.799   1.693  11.294  0.3527 -0.2684 -0.2118
 7152SOL    HW132915   1.750   1.713  11.375  0.3621  1.6616 -0.6720
 7152SOL    HW232916   1.741   1.721  11.223  1.5869  2.4266 -0.1764
 7153SOL     OW32917   2.179   1.241   9.888 -0.5252  0.5471  0.6531
 7153SOL    HW132918   2.201   1.324   9.846 -1.0993 -0.0581 -0.8328
 7153SOL    HW232919   2.224   1.254   9.972  1.2071  0.7645 -0.3091
 7154SOL     OW32920   4.274   2.913   1.989 -0.2800 -0.5443  0.2118
 7154SOL    HW132921   4.317   2.960   2.061  0.1078 -1.5038  0.6136
 7154SOL    HW232922   4.334   2.924   1.916  1.2723 -0.4420  1.4994
 7155SOL     OW32923   0.426   1.446   1.097 -0.3553  0.1204  0.0916
 7155SOL    HW132924   0.398   1.356   1.117  0.5010 -0.0284  0.6059
 7155SOL    HW232925   0.493   1.442   1.028 -1.2661 -0.5043 -0.7534
 7156SOL     OW32926   2.451   3.438  13.684 -0.3229 -0.1505  0.8166
 7156SOL    HW132927   2.397   3.417  13.608  1.4925 -2.7473  0.2199
 7156SOL    HW232928   2.496   3.353  13.686  1.3142  0.6792 -0.7379
 7157SOL     OW32929   4.157   2.230  10.285  0.4513 -0.6174 -0.4633
 7157SOL    HW132930   4.182   2.264  10.372 -1.1180  0.0161 -0.2707
 7157SOL    HW232931   4.159   2.136  10.305  0.7504 -0.8446 -1.6047
 7158SOL     OW32932   0.699   4.508   6.952  0.3224  0.2721 -0.1556
 7158SOL    HW132933   0.720   4.436   7.012 -0.4991  2.2952  2.6126
 7158SOL    HW232934   0.666   4.464   6.874  1.2319  0.3083 -0.5592
 7159SOL     OW32935   0.537   0.985   8.156 -0.5608  0.5816 -0.6341
 7159SOL    HW132936   0.563   0.952   8.242 -0.2903  0.8520 -0.6123
 7159SOL    HW232937   0.443   0.979   8.172 -0.6080 -0.7007 -1.3513
 7160SOL     OW32938   2.572   2.672  16.223  0.3073  0.2400 -0.4647
 7160SOL    HW132939   2.493   2.721  16.199  0.8734  2.2954  1.9215
 7160SOL    HW232940   2.568   2.599  16.161  3.8880 -1.5971  1.4771
 7161SOL     OW32941   4.659   3.180   4.106  0.0479  0.6836 -0.1936
 7161SOL    HW132942   0.009   3.238   4.104  1.5138 -1.2687 -0.8479
 7161SOL    HW232943   4.644   3.160   4.014  0.7177 -1.1335  0.0985
 7162SOL     OW32944   2.338   4.695   2.093 -0.5858  0.3854  0.0705
 7162SOL    HW132945   2.330   0.063   2.080 -2.3570 -0.1140 -2.6406
 7162SOL    HW232946   2.404   4.702   2.161 -0.5822  0.4718  0.0575
 7163SOL     OW32947   4.112   4.050   2.650 -0.4144 -0.1248 -0.8790
 7163SOL    HW132948   4.157   4.093   2.722 -2.0270 -0.6550  0.4597
 7163SOL    HW232949   4.152   3.963   2.653  0.2716  0.2633  0.9329
 7164SOL     OW32950   4.099   2.099   3.442  0.3756 -0.2452 -0.1266
 7164SOL    HW132951   4.032   2.088   3.375  0.5195  0.7624 -0.4458
 7164SOL    HW232952   4.062   2.165   3.501  1.1198 -0.9217  1.0998
 7165SOL     OW32953   1.898   1.784   5.096 -0.1682  0.2917 -0.0178
 7165SOL    HW132954   1.898   1.710   5.157 -1.6848  1.0878  0.9763
 7165SOL    HW232955   1.914   1.741   5.013  0.8866 -0.4660  0.5802
 7166SOL     OW32956   2.957   1.481   2.831 -0.4419 -0.1551 -0.7127
 7166SOL    HW132957   2.984   1.573   2.827  1.1569 -0.4903  2.0276
 7166SOL    HW232958   3.019   1.431   2.777 -0.3350 -0.4834 -0.2859
 7167SOL     OW32959   2.089   4.641   5.581 -0.6803 -0.3361  0.1797
 7167SOL    HW132960   2.156   4.667   5.518 -2.3356 -1.5431 -2.0374
 7167SOL    HW232961   2.137   4.580   5.639  0.9590  1.1136  0.3430
 7168SOL     OW32962   2.553   3.013  13.282  0.1409 -0.0442 -0.0120
 7168SOL    HW132963   2.607   2.961  13.341  2.6945  0.3617 -1.9895
 7168SOL    HW232964   2.533   2.940  13.223 -2.6088  1.0412 -0.4330
 7169SOL     OW32965   1.979   0.400   1.186  0.3360  0.0015 -0.0695
 7169SOL    HW132966   2.072   0.407   1.166  0.0253  3.0451 -0.5351
 7169SOL    HW232967   1.973   0.306   1.203  1.5850 -0.0813 -0.0521
 7170SOL     OW32968   0.323   4.363   8.524 -0.1763 -0.3344 -0.4681
 7170SOL    HW132969   0.306   4.457   8.521  2.0181  0.1146  1.4080
 7170SOL    HW232970   0.237   4.328   8.499  0.1903 -1.4101 -0.2092
 7171SOL     OW32971   4.004   3.033   3.944 -0.0997 -0.1994 -0.6646
 7171SOL    HW132972   4.077   2.983   3.979 -0.3907  0.2269  0.5647
 7171SOL    HW232973   4.044   3.040   3.857 -1.9576 -2.2988 -1.6991
 7172SOL     OW32974   2.917   2.444  11.632 -0.7061 -0.2978 -0.2013
 7172SOL    HW132975   2.980   2.489  11.576 -1.2723  2.2460  1.2342
 7172SOL    HW232976   2.834   2.489  11.618 -0.1969  0.8754  0.5859
 7173SOL     OW32977   3.926   2.858   2.807  0.8305  0.0014 -0.3365
 7173SOL    HW132978   3.889   2.804   2.738 -0.8529 -0.3101  0.8047
 7173SOL    HW232979   3.877   2.834   2.886 -0.0065 -2.1290 -1.5250
 7174SOL     OW32980   3.560   1.170   8.669 -0.1770  0.1862  0.2627
 7174SOL    HW132981   3.567   1.196   8.577 -3.1356  0.2145  0.0680
 7174SOL    HW232982   3.474   1.130   8.679 -0.0072 -0.1804  0.2352
 7175SOL     OW32983   1.746   4.561   8.155 -0.0671 -0.1447  0.4131
 7175SOL    HW132984   1.739   4.593   8.245 -1.7736 -0.6828  0.4631
 7175SOL    HW232985   1.659   4.568   8.116  0.1479 -2.9558 -0.5745
 7176SOL     OW32986   0.838   4.207  13.611  0.5828  0.0039  0.5622
 7176SOL    HW132987   0.855   4.302  13.605  0.8355 -0.1155 -0.5826
 7176SOL    HW232988   0.781   4.194  13.535  0.3019 -2.0499  1.1361
 7177SOL     OW32989   0.148   1.303  10.893  0.2572 -0.5738  0.4130
 7177SOL    HW132990   0.141   1.302  10.797  2.3273 -0.5810  0.2615
 7177SOL    HW232991   0.072   1.350  10.926  1.7596  0.8041  1.8887
 7178SOL     OW32992   2.472   4.495  14.057  0.0357 -0.0672 -0.3464
 7178SOL    HW132993   2.392   4.540  14.086 -0.9212 -1.9714 -0.0162
 7178SOL    HW232994   2.494   4.438  14.131 -0.8094 -1.0938 -0.8817
 7179SOL     OW32995   3.585   1.890   6.939  0.6013 -0.1544  0.1701
 7179SOL    HW132996   3.571   1.983   6.959  4.0431 -0.0171  1.9501
 7179SOL    HW232997   3.617   1.863   7.025  0.6873 -0.9353 -0.1102
 7180SOL     OW32998   3.543   3.477   3.861 -0.1748  0.5379  0.0976
 7180SOL    HW132999   3.486   3.416   3.908 -2.2312  2.1950 -0.2867
 7180SOL    HW233000   3.477   3.530   3.817  0.7497  0.8413 -0.9205
 7181SOL     OW33001   1.528   0.976   2.776  0.1330  0.8177 -0.7358
 7181SOL    HW133002   1.603   0.919   2.788  0.4492  0.9652 -1.9656
 7181SOL    HW233003   1.529   0.950   2.683 -1.5718 -1.0816 -0.2150
 7182SOL     OW33004   3.430   3.313   2.774  0.2326  0.7256 -0.7060
 7182SOL    HW133005   3.391   3.260   2.704  1.4712  0.7623 -1.4328
 7182SOL    HW233006   3.488   3.245   2.809 -2.7732 -1.3418  0.1968
 7183SOL     OW33007   3.232   2.838   1.477 -0.0026 -0.6399 -0.2665
 7183SOL    HW133008   3.194   2.771   1.419  0.2417  0.1953 -1.4034
 7183SOL    HW233009   3.159   2.900   1.472  0.7651  0.3959  1.5431
 7184SOL     OW33010   1.077   2.720  14.908 -0.5473 -0.0371  0.1374
 7184SOL    HW133011   1.022   2.737  14.832 -1.7265  3.4139  1.7503
 7184SOL    HW233012   1.079   2.625  14.908  0.9008 -0.0143  1.9726
 7185SOL     OW33013   2.085   3.008   2.448 -0.6524 -0.0248  0.4860
 7185SOL    HW133014   2.022   3.059   2.500 -0.0904 -0.5111  1.6570
 7185SOL    HW233015   2.033   3.011   2.368 -0.6689 -1.0772  0.4622
 7186SOL     OW33016   2.425   1.144  11.883  0.1278  0.3026 -0.1676
 7186SOL    HW133017   2.376   1.222  11.911 -1.5213 -0.2395 -1.5158
 7186SOL    HW233018   2.430   1.097  11.966  0.3451 -0.8432 -0.8426
 7187SOL     OW33019   3.411   3.093   3.121  0.0281 -0.6996  0.3142
 7187SOL    HW133020   3.477   3.049   3.176  0.2485  1.0913  1.4661
 7187SOL    HW233021   3.468   3.160   3.084 -1.5014 -0.9508 -2.4578
 7188SOL     OW33022   1.852   4.376   6.309 -0.3419  0.0217 -0.0305
 7188SOL    HW133023   1.766   4.362   6.269  0.6244  1.3213 -2.5839
 7188SOL    HW233024   1.831   4.383   6.402  0.3400 -2.8960  0.3314
 7189SOL     OW33025   2.661   2.017  15.801 -0.1424  0.1165  0.3101
 7189SOL    HW133026   2.707   2.020  15.717 -0.3426  3.4308  0.2992
 7189SOL    HW233027   2.710   1.975  15.871  2.0905  0.4179 -1.0581
 7190SOL     OW33028   3.425   2.881   1.231  0.0348 -0.4073  0.7198
 7190SOL    HW133029   3.404   2.970   1.259  0.7258 -0.1016  0.2795
 7190SOL    HW233030   3.351   2.845   1.182  0.1158 -0.2785  0.4987
 7191SOL     OW33031   3.036   1.568   7.352 -0.6580  0.2255 -0.0440
 7191SOL    HW133032   2.994   1.569   7.438 -0.4758  1.2775  0.0281
 7191SOL    HW233033   3.093   1.644   7.357  0.4098 -0.7401  2.5380
 7192SOL     OW33034   1.663   0.542   6.237  0.3304  0.2229 -0.1772
 7192SOL    HW133035   1.678   0.478   6.168 -0.6768 -1.5300  1.2200
 7192SOL    HW233036   1.751   0.548   6.274 -0.0917  0.9182  0.7247
 7193SOL     OW33037   2.575   1.997   8.326 -0.7591  0.1357 -0.6395
 7193SOL    HW133038   2.508   1.952   8.377 -0.2273 -1.0793 -1.0285
 7193SOL    HW233039   2.531   2.047   8.257 -1.2566  2.4279  1.3217
 7194SOL     OW33040   0.879   3.107  11.896  0.3667  0.4278 -0.1845
 7194SOL    HW133041   0.833   3.191  11.884 -1.4728 -0.3261  1.5931
 7194SOL    HW233042   0.862   3.095  11.990 -1.9254 -0.3337 -0.6917
 7195SOL     OW33043   1.278   0.500   3.870  0.3547 -0.7491  0.0394
 7195SOL    HW133044   1.254   0.421   3.917  1.4599  0.5970  2.8348
 7195SOL    HW233045   1.374   0.494   3.876  0.5365  2.1485  0.1832
 7196SOL     OW33046   1.449   0.663   5.607  0.0625  0.1713  0.0452
 7196SOL    HW133047   1.526   0.667   5.665  1.1422 -0.5209 -1.3327
 7196SOL    HW233048   1.446   0.756   5.585  0.8800  0.3574  0.6969
 7197SOL     OW33049   3.713   0.055   7.246 -0.2735 -0.2173  0.1070
 7197SOL    HW133050   3.693   0.074   7.154  1.2087  0.1843 -0.1369
 7197SOL    HW233051   3.773   0.127   7.265 -0.4439 -0.5407  1.8899
 7198SOL     OW33052   4.643   1.884  14.144  0.4577  0.3432 -0.3125
 7198SOL    HW133053   4.647   1.803  14.195  0.2056  1.0149  0.7529
 7198SOL    HW233054   4.553   1.893  14.112  1.1089  2.1246 -1.6243
 7199SOL     OW33055   1.511   3.978   8.590 -0.1526 -0.6342  0.3996
 7199SOL    HW133056   1.482   3.896   8.549 -2.6462 -1.2085  3.3105
 7199SOL    HW233057   1.559   3.951   8.667 -2.9734 -0.0184  2.3683
 7200SOL     OW33058   0.174   3.950   6.849  0.0156 -0.3250  0.0120
 7200SOL    HW133059   0.256   3.999   6.843 -0.1734  0.2349  1.8539
 7200SOL    HW233060   0.114   4.023   6.832  1.0578 -0.1847 -3.0464
 7201SOL     OW33061   4.218   3.105   7.537  0.0237  0.3688 -0.2208
 7201SOL    HW133062   4.264   3.133   7.457 -0.9413 -1.2819 -1.3599
 7201SOL    HW233063   4.167   3.185   7.549 -0.0191  0.4162 -0.6926
 7202SOL     OW33064   2.464   0.951   5.615  0.6823 -0.2880 -0.3109
 7202SOL    HW133065   2.378   0.969   5.653  1.1548  0.1472  0.5534
 7202SOL    HW233066   2.456   0.982   5.525 -1.5279  0.4177  0.1320
 7203SOL     OW33067   3.597   0.367   7.544 -0.9766 -0.1272  0.0719
 7203SOL    HW133068   3.517   0.416   7.524 -1.2659 -1.2649 -1.4752
 7203SOL    HW233069   3.615   0.323   7.461  2.5128  0.9783  0.2264
 7204SOL     OW33070   3.234   2.499   4.572  0.6336 -0.6131  0.1186
 7204SOL    HW133071   3.212   2.456   4.655 -2.1507 -0.7979 -0.7072
 7204SOL    HW233072   3.308   2.550   4.604  1.5189 -2.5080  1.0834
 7205SOL     OW33073   1.141   4.693   6.846  0.0176  0.2677  0.2035
 7205SOL    HW133074   1.206   0.018   6.895 -1.2603  0.3202  1.8267
 7205SOL    HW233075   1.158   4.609   6.889  1.2748 -0.0239 -0.8737
 7206SOL     OW33076   1.948   3.598   5.594 -0.0750 -0.2547 -0.4768
 7206SOL    HW133077   2.000   3.628   5.519 -1.0169 -0.2011 -1.1099
 7206SOL    HW233078   1.868   3.569   5.550  0.3102  0.3622 -1.5853
 7207SOL     OW33079   4.369   2.589  10.813  0.2499 -0.8289 -0.3452
 7207SOL    HW133080   4.296   2.527  10.811 -2.7847  2.6997 -1.1806
 7207SOL    HW233081   4.434   2.555  10.751 -0.4893 -1.0681 -0.9926
 7208SOL     OW33082   1.541   1.829   4.665 -0.2168 -0.6262 -0.2861
 7208SOL    HW133083   1.458   1.829   4.617 -1.2490 -2.7001  1.5039
 7208SOL    HW233084   1.596   1.856   4.592 -0.3832 -4.2589 -1.7316
 7209SOL     OW33085   2.442   3.499  12.358 -0.0970  0.0662 -0.2890
 7209SOL    HW133086   2.357   3.492  12.314 -0.0055  1.7472 -0.7570
 7209SOL    HW233087   2.499   3.464  12.290 -3.4007  0.3613 -3.2049
 7210SOL     OW33088   4.088   1.643   3.588  0.5640 -0.0070 -0.1268
 7210SOL    HW133089   4.114   1.735   3.595  1.4371 -0.3687  1.2805
 7210SOL    HW233090   4.055   1.620   3.675 -1.3096  2.4791 -0.1716
 7211SOL     OW33091   2.899   3.028  15.164 -0.1417 -0.3682 -0.9343
 7211SOL    HW133092   2.923   2.937  15.180  2.7268  0.6437  0.5638
 7211SOL    HW233093   2.950   3.072  15.232 -1.0418 -1.5870  0.5157
 7212SOL     OW33094   3.733   4.034   8.441  0.6165 -0.3688  0.6623
 7212SOL    HW133095   3.828   4.048   8.435  0.4510  1.0974  1.3891
 7212SOL    HW233096   3.732   3.947   8.401 -2.7669 -0.5934  1.2118
 7213SOL     OW33097   2.890   0.752  16.484  0.3127  0.5591 -0.5117
 7213SOL    HW133098   2.890   0.665  16.443  0.5258  0.4567 -0.2955
 7213SOL    HW233099   2.804   0.749  16.526 -0.0449 -2.1698 -1.3905
 7214SOL     OW33100   3.154   2.804   4.699  0.2447  0.6605 -0.0838
 7214SOL    HW133101   3.087   2.742   4.728  2.0818  0.6489  4.0659
 7214SOL    HW233102   3.232   2.764   4.738  0.7668  0.6171 -1.1714
 7215SOL     OW33103   3.511   2.002  13.146 -0.2663 -0.1142  0.4107
 7215SOL    HW133104   3.529   1.940  13.076  2.6013  2.2141 -0.9374
 7215SOL    HW233105   3.428   1.963  13.173  1.0392 -1.4885  2.5011
 7216SOL     OW33106   3.984   2.768   8.897 -0.0384 -0.3503 -0.3084
 7216SOL    HW133107   4.017   2.729   8.817  0.0620 -1.6200  0.3495
 7216SOL    HW233108   3.911   2.817   8.859  1.0661  1.6882  0.1767
 7217SOL     OW33109   2.689   4.645   8.428 -0.1388 -0.4408 -0.2995
 7217SOL    HW133110   2.751   4.646   8.355  0.7425  0.2379  0.4677
 7217SOL    HW233111   2.685   4.551   8.447  2.0580 -0.8469 -1.8095
 7218SOL     OW33112   4.478   4.172   6.371  0.0400  0.2502  0.5838
 7218SOL    HW133113   4.464   4.189   6.278 -1.1975 -0.3910  0.6467
 7218SOL    HW233114   4.552   4.111   6.374  0.6265  0.9804  0.9781
 7219SOL     OW33115   1.013   0.027   0.889  0.0812 -0.0461 -0.3010
 7219SOL    HW133116   0.983   0.089   0.822  1.7200  0.1955 -0.8285
 7219SOL    HW233117   1.024   0.078   0.970  0.9306 -0.9588  0.1580
 7220SOL     OW33118   4.434   2.720  11.043 -0.4054 -0.0683  0.2332
 7220SOL    HW133119   4.501   2.658  11.072  0.8073  1.8756  1.6133
 7220SOL    HW233120   4.397   2.671  10.969  1.9866 -1.4155 -0.0861
 7221SOL     OW33121   0.878   3.867   7.199  0.5678  0.0506 -0.5302
 7221SOL    HW133122   0.805   3.840   7.255  0.9446 -0.6455 -0.3740
 7221SOL    HW233123   0.916   3.780   7.187  0.8175 -0.4475  3.8402
 7222SOL     OW33124   2.132   0.756   1.836  0.2325 -0.0067 -0.2870
 7222SOL    HW133125   2.169   0.670   1.817 -1.4395 -0.7106 -0.3739
 7222SOL    HW233126   2.041   0.737   1.814  0.0082 -0.4931  1.0546
 7223SOL     OW33127   2.337   0.512   9.212  0.2975  0.1621 -0.4900
 7223SOL    HW133128   2.286   0.436   9.240 -3.0566  2.0675 -1.4119
 7223SOL    HW233129   2.265   0.568   9.183  0.0717 -0.4959 -1.1790
 7224SOL     OW33130   1.533   3.775   7.194 -0.0009  0.1029  0.1069
 7224SOL    HW133131   1.608   3.742   7.144  0.2554 -0.1188  0.6352
 7224SOL    HW233132   1.545   3.869   7.181 -0.9002  0.3181  0.8110
 7225SOL     OW33133   4.243   0.023   7.545  0.0212 -0.1701  0.5793
 7225SOL    HW133134   4.335   0.025   7.573 -0.0183  0.6899  0.6319
 7225SOL    HW233135   4.212   4.685   7.609  0.4984 -1.0222 -0.0420
 7226SOL     OW33136   0.474   2.139   4.160 -0.6383  0.7377 -0.3513
 7226SOL    HW133137   0.484   2.098   4.246 -1.0320  0.2481 -0.5358
 7226SOL    HW233138   0.496   2.069   4.099 -0.6811 -0.6068  1.1579
 7227SOL     OW33139   4.455   1.639  12.785  0.0085  0.1388 -0.3152
 7227SOL    HW133140   4.518   1.632  12.713  0.0503 -1.7070 -0.1159
 7227SOL    HW233141   4.502   1.680  12.858  3.1948 -1.2259 -1.6077
 7228SOL     OW33142   1.625   2.996   9.843 -0.4955  0.1827 -0.1397
 7228SOL    HW133143   1.642   3.085   9.874 -0.0878 -0.2658  0.9334
 7228SOL    HW233144   1.571   3.007   9.765 -0.5491  3.5200  0.3469
 7229SOL     OW33145   0.587   0.488   5.694  0.4651  0.1454  0.2643
 7229SOL    HW133146   0.554   0.556   5.754  0.9066  1.2593 -0.7465
 7229SOL    HW233147   0.547   0.411   5.735  0.0133 -0.5028 -1.4188
 7230SOL     OW33148   4.083   3.128   1.317  0.2227 -0.0931 -0.1284
 7230SOL    HW133149   4.032   3.079   1.252  0.4509 -0.4543 -0.0328
 7230SOL    HW233150   4.090   3.216   1.279  1.2055 -1.1429 -2.3887
 7231SOL     OW33151   1.245   0.577  11.974 -0.2679 -0.1042 -0.6410
 7231SOL    HW133152   1.201   0.631  12.040  1.5663 -1.6784  1.9145
 7231SOL    HW233153   1.267   0.635  11.902  1.2935  1.5091  1.1290
 7232SOL     OW33154   1.770   4.038  10.102 -0.2131  0.3420 -0.5335
 7232SOL    HW133155   1.837   3.978  10.068 -0.5035 -0.8323  0.9447
 7232SOL    HW233156   1.816   4.120  10.088  0.1980  0.2533  0.2325
 7233SOL     OW33157   3.259   4.247  14.287 -0.0477  0.6306 -0.2700
 7233SOL    HW133158   3.203   4.314  14.249  1.4167  1.6949 -0.5390
 7233SOL    HW233159   3.348   4.281  14.279  1.2882 -3.4537 -3.0840
 7234SOL     OW33160   0.846   3.165   5.035  0.0688 -0.9123  0.1027
 7234SOL    HW133161   0.935   3.179   5.066 -0.9154 -0.7175  2.8786
 7234SOL    HW233162   0.812   3.107   5.103 -0.6080 -0.7055 -0.0515
 7235SOL     OW33163   1.183   0.382   6.709 -0.1057 -0.3896  0.4178
 7235SOL    HW133164   1.138   0.439   6.772  0.6165 -1.1157  1.5805
 7235SOL    HW233165   1.140   0.416   6.630 -0.4853 -0.4614  0.5896
 7236SOL     OW33166   1.599   3.253   7.451 -0.2420  0.0910  0.5472
 7236SOL    HW133167   1.667   3.199   7.492 -0.3754  0.8950  1.8616
 7236SOL    HW233168   1.542   3.191   7.406  1.6599 -0.8690 -0.5362
 7237SOL     OW33169   4.488   2.033   5.504  0.2717 -0.2205 -0.3181
 7237SOL    HW133170   4.558   2.097   5.506 -0.1074  0.1268  1.4645
 7237SOL    HW233171   4.489   2.015   5.410  4.0688  0.2637 -0.3487
 7238SOL     OW33172   1.146   4.300   0.460 -0.0076 -0.4125 -0.5625
 7238SOL    HW133173   1.230   4.340   0.436 -0.0712 -0.8364 -1.5241
 7238SOL    HW233174   1.111   4.363   0.523  3.1080  2.8417 -2.1086
 7239SOL     OW33175   2.479   1.483   1.744 -0.0288 -0.0200  0.0354
 7239SOL    HW133176   2.514   1.571   1.758 -0.9479  0.0942  1.6178
 7239SOL    HW233177   2.393   1.489   1.786 -0.2083 -1.7563 -0.0600
 7240SOL     OW33178   2.739   4.416   6.539  0.2083 -0.2305 -0.1322
 7240SOL    HW133179   2.656   4.415   6.491 -0.8529  0.5505  1.6824
 7240SOL    HW233180   2.709   4.428   6.629 -0.9199  0.3922 -0.5960
 7241SOL     OW33181   0.267   2.569   2.547  0.6498 -0.3898  0.3781
 7241SOL    HW133182   0.307   2.531   2.625 -2.1532 -0.7453  1.6688
 7241SOL    HW233183   0.178   2.577   2.581  0.5853  0.7905 -0.0671
 7242SOL     OW33184   0.495   3.132   7.358  0.0052  0.3053  0.1570
 7242SOL    HW133185   0.568   3.193   7.346 -0.1242  0.5909  0.8047
 7242SOL    HW233186   0.429   3.179   7.307 -0.4661 -1.7235 -1.0899
 7243SOL     OW33187   4.639   4.600   7.743 -0.2198  0.3138  0.2564
 7243SOL    HW133188   4.552   4.641   7.744 -0.8930 -1.1427  1.8128
 7243SOL    HW233189   4.659   4.606   7.836  1.5181 -1.1170 -0.0290
 7244SOL     OW33190   1.001   3.870   7.889  0.5262  0.0292  0.0208
 7244SOL    HW133191   1.094   3.880   7.904  0.9995 -0.0692 -2.9001
 7244SOL    HW233192   0.989   3.775   7.902 -0.1744  0.0221 -0.6927
 7245SOL     OW33193   0.511   0.654  13.526 -0.1299  0.4048  0.2440
 7245SOL    HW133194   0.483   0.597  13.598  0.6515 -0.9834 -0.5399
 7245SOL    HW233195   0.525   0.735  13.575  1.3530 -0.2133  0.8380
 7246SOL     OW33196   2.991   1.858   5.116  0.1446  0.5583 -0.1799
 7246SOL    HW133197   3.000   1.819   5.029  1.3166  1.2987 -0.4030
 7246SOL    HW233198   2.973   1.949   5.092  2.1000  1.5111  1.9312
 7247SOL     OW33199   0.279   4.703  12.724  0.4314 -0.1129 -0.5351
 7247SOL    HW133200   0.237   0.016  12.648  0.6524  0.9305 -0.1163
 7247SOL    HW233201   0.232   0.028  12.790  1.4999 -1.1917  1.0628
 7248SOL     OW33202   0.087   3.747  10.682 -0.0659 -0.5994  1.0398
 7248SOL    HW133203   0.173   3.723  10.647 -0.5076 -1.5763  0.6204
 7248SOL    HW233204   0.095   3.838  10.655 -1.1762 -0.5870  0.7343
 7249SOL     OW33205   3.148   4.540  12.578 -0.4844  0.3793 -0.2792
 7249SOL    HW133206   3.057   4.516  12.597 -0.6572  1.1455 -0.1216
 7249SOL    HW233207   3.137   4.604  12.509 -0.3581  0.7474  0.0425
 7250SOL     OW33208   2.274   2.413   7.234 -0.0477  0.1090  0.7113
 7250SOL    HW133209   2.187   2.394   7.198  1.9465 -2.5368 -2.7144
 7250SOL    HW233210   2.269   2.356   7.311  1.7422 -0.6733  0.2379
 7251SOL     OW33211   1.197   0.080   6.547 -0.1858 -0.6551 -0.6290
 7251SOL    HW133212   1.193   0.061   6.641 -1.8882 -1.0360 -0.7886
 7251SOL    HW233213   1.130   0.146   6.529 -0.3608 -0.7144 -0.1850
 7252SOL     OW33214   3.201   2.791   8.185 -0.1371  0.7771 -0.4054
 7252SOL    HW133215   3.184   2.870   8.237 -1.2031 -0.7226  1.4979
 7252SOL    HW233216   3.127   2.794   8.125 -3.3960 -1.9137  3.5308
 7253SOL     OW33217   1.749   4.567   5.846 -0.0538  0.0166  0.2073
 7253SOL    HW133218   1.754   4.540   5.754  0.9434  1.8331 -0.2656
 7253SOL    HW233219   1.714   4.652   5.820  2.7372  1.4959  1.3338
 7254SOL     OW33220   0.709   1.150  15.913  0.0025  0.1143 -0.1654
 7254SOL    HW133221   0.791   1.199  15.909  0.8213 -1.1523  1.0152
 7254SOL    HW233222   0.702   1.116  15.824 -1.9895  0.7560 -0.2503
 7255SOL     OW33223   4.247   0.470   2.629  0.2708 -0.3549 -0.0476
 7255SOL    HW133224   4.307   0.407   2.589 -0.7623 -0.1305 -1.9020
 7255SOL    HW233225   4.251   0.543   2.567 -0.2816 -0.2730  0.0154
 7256SOL     OW33226   0.648   1.783  15.391 -0.1538  0.1622 -0.7540
 7256SOL    HW133227   0.704   1.706  15.406 -0.8660 -0.4425 -1.2242
 7256SOL    HW233228   0.592   1.736  15.330  0.2645 -1.8510  0.4098
 7257SOL     OW33229   1.458   4.554  17.437  0.0739 -0.7628  0.1041
 7257SOL    HW133230   1.394   4.482  17.438 -1.4784  0.6291  0.1340
 7257SOL    HW233231   1.466   4.568  17.343 -0.5866  2.1228  0.5055
 7258SOL     OW33232   0.956   2.587   7.976 -0.2863 -0.1995  0.2270
 7258SOL    HW133233   0.956   2.680   7.953  1.4833 -0.2741 -0.0802
 7258SOL    HW233234   0.920   2.552   7.895 -1.1263  0.3317  0.3703
 7259SOL     OW33235   0.062   0.117   6.759  0.0665  0.0971  0.5233
 7259SOL    HW133236   0.083   0.204   6.726 -0.6732 -0.2395 -0.8576
 7259SOL    HW233237   0.059   0.145   6.850  1.4399 -0.0789  0.6243
 7260SOL     OW33238   1.761   0.970   2.367 -1.1269  0.9766 -0.2846
 7260SOL    HW133239   1.672   0.976   2.402 -1.4030 -0.0056 -0.8116
 7260SOL    HW233240   1.798   0.917   2.437  1.4453  1.0542 -1.5918
 7261SOL     OW33241   3.992   3.739   7.411 -0.5096  0.3425 -0.3721
 7261SOL    HW133242   4.023   3.796   7.341  0.6101  1.3548  0.9461
 7261SOL    HW233243   4.049   3.664   7.396  0.5369  1.1088 -0.1867
 7262SOL     OW33244   4.359   0.331  10.938 -0.2708  0.1879 -0.1885
 7262SOL    HW133245   4.341   0.424  10.921 -0.8641 -0.0257 -0.7697
 7262SOL    HW233246   4.292   0.313  11.004  0.5988 -1.6454  0.1870
 7263SOL     OW33247   3.591   4.307   2.981  0.2071  0.3675 -0.9912
 7263SOL    HW133248   3.617   4.348   3.063  0.3976  1.8756 -1.8056
 7263SOL    HW233249   3.521   4.262   3.029 -0.3008  2.3386  0.1245
 7264SOL     OW33250   2.431   0.386   2.824  0.4932  0.1473  0.1648
 7264SOL    HW133251   2.441   0.419   2.914 -0.7604  1.7681 -0.3016
 7264SOL    HW233252   2.396   0.461   2.776  1.2632  1.2848  1.3711
 7265SOL     OW33253   1.544   2.340   1.383 -0.2038  0.3973 -0.6661
 7265SOL    HW133254   1.512   2.250   1.391  0.6326  0.1761  0.2998
 7265SOL    HW233255   1.601   2.347   1.460 -0.1356 -0.2794 -0.6498
 7266SOL     OW33256   0.698   3.252  14.154 -0.1742  0.0553 -0.2466
 7266SOL    HW133257   0.614   3.281  14.120  1.5687  0.4559 -4.1654
 7266SOL    HW233258   0.704   3.159  14.133  0.3036  0.2991 -1.1854
 7267SOL     OW33259   3.594   0.702   2.527  0.0516  0.1673 -0.1096
 7267SOL    HW133260   3.548   0.785   2.533  0.7201  0.4286  1.7005
 7267SOL    HW233261   3.554   0.647   2.595 -0.1965  1.5175  0.8229
 7268SOL     OW33262   4.539   2.569   7.932 -0.1612  0.2383 -0.5615
 7268SOL    HW133263   4.566   2.478   7.942 -0.5574  0.5652  3.5589
 7268SOL    HW233264   4.475   2.572   8.003  0.1170 -0.3674 -0.2874
 7269SOL     OW33265   2.858   4.708   3.066  0.7392 -1.0165  0.1995
 7269SOL    HW133266   2.882   4.658   2.988 -2.7724 -0.5958 -1.1773
 7269SOL    HW233267   2.775   0.011   3.028  0.3087 -0.1396  1.7934
 7270SOL     OW33268   2.346   2.084   9.355 -0.6820  0.1923  0.0657
 7270SOL    HW133269   2.275   2.029   9.322  0.1429  0.3592 -1.9833
 7270SOL    HW233270   2.422   2.025   9.359  0.5663  1.8242  0.5314
 7271SOL     OW33271   0.124   4.106   7.763  0.0330 -0.1852 -0.0687
 7271SOL    HW133272   0.157   4.020   7.735  0.0314 -0.1661 -0.1283
 7271SOL    HW233273   0.181   4.122   7.839  1.2808 -0.6610 -0.8919
 7272SOL     OW33274   2.362   3.029  14.526 -0.3703 -0.2247  0.1869
 7272SOL    HW133275   2.420   3.058  14.597 -1.8089  0.9449  0.8700
 7272SOL    HW233276   2.334   2.947  14.566 -0.2033 -1.5679 -2.4696
 7273SOL     OW33277   0.794   2.993   1.186  0.1812  0.7231  0.3170
 7273SOL    HW133278   0.872   2.964   1.138  0.1712  1.0862  0.0807
 7273SOL    HW233279   0.735   3.031   1.120  0.7025 -0.1055 -0.6279
 7274SOL     OW33280   1.279   4.468  10.140  0.0063  0.5558 -0.7897
 7274SOL    HW133281   1.290   4.512  10.225  1.7468  1.1489 -1.3296
 7274SOL    HW233282   1.229   4.391  10.169  3.8333 -1.7003 -0.2112
 7275SOL     OW33283   1.161   0.425   5.002 -0.9115  0.1515  0.0249
 7275SOL    HW133284   1.130   0.375   4.926  1.3936 -2.6900  0.9234
 7275SOL    HW233285   1.236   0.461   4.956  0.9519  0.6348  3.4376
 7276SOL     OW33286   4.679   1.466   4.661  0.1751 -0.5437  0.3008
 7276SOL    HW133287   4.615   1.417   4.608 -1.0278  1.6093 -0.2537
 7276SOL    HW233288   4.618   1.509   4.721  1.4660 -0.8299  1.7833
 7277SOL     OW33289   4.649   0.349  10.871  0.5309  0.0771  0.3239
 7277SOL    HW133290   4.705   0.426  10.862  0.1845  0.0975 -1.7033
 7277SOL    HW233291   4.564   0.380  10.904  1.0996  0.9722  0.9593
 7278SOL     OW33292   2.549   3.468   0.653  0.4451  0.3601 -0.7204
 7278SOL    HW133293   2.493   3.506   0.586 -0.5406  1.2732  0.6292
 7278SOL    HW233294   2.491   3.409   0.702  1.2156 -0.7323 -1.1083
 7279SOL     OW33295   4.421   0.026   9.341 -0.2383 -0.3703  0.4004
 7279SOL    HW133296   4.365   0.048   9.415  0.3579  1.9771  0.1600
 7279SOL    HW233297   4.387   0.089   9.277  0.9917  3.3660  3.4036
 7280SOL     OW33298   4.702   1.565  12.142 -0.5763 -0.0746  0.7456
 7280SOL    HW133299   0.043   1.504  12.172 -0.2043  1.2333  2.5270
 7280SOL    HW233300   4.622   1.512  12.143 -0.7304  0.1086 -2.1408
 7281SOL     OW33301   2.839   3.910  11.272 -0.1984 -0.2536  0.1455
 7281SOL    HW133302   2.911   3.969  11.250  0.0475 -1.3244 -1.9342
 7281SOL    HW233303   2.787   3.915  11.192 -2.5084 -2.8727  1.4673
 7282SOL     OW33304   0.867   0.871  13.641 -0.4035 -0.2318  0.4752
 7282SOL    HW133305   0.826   0.916  13.716 -1.1880  0.7871 -0.5515
 7282SOL    HW233306   0.912   0.945  13.600  0.7109 -0.5871  1.0598
 7283SOL     OW33307   4.371   3.717   4.347  0.2117  0.6416 -0.2584
 7283SOL    HW133308   4.283   3.732   4.380  0.5530 -0.4965  1.1409
 7283SOL    HW233309   4.417   3.801   4.348  0.9611  0.2389 -0.5757
 7284SOL     OW33310   1.204   1.238   3.138  0.2521  0.2064  0.3541
 7284SOL    HW133311   1.203   1.155   3.090 -0.9848 -0.2196  1.1039
 7284SOL    HW233312   1.234   1.205   3.222 -0.0432  0.0879  0.4136
 7285SOL     OW33313   2.869   2.295   9.602 -0.3428  0.0713  0.3428
 7285SOL    HW133314   2.880   2.375   9.653 -2.3859  1.2119 -0.9604
 7285SOL    HW233315   2.855   2.232   9.672  0.8024 -1.2909 -0.6680
 7286SOL     OW33316   3.650   0.556   3.238  0.1708 -0.4896  0.3837
 7286SOL    HW133317   3.569   0.508   3.252 -0.7835 -0.1877 -3.9922
 7286SOL    HW233318   3.618   0.616   3.170  1.4321  0.1558  0.3596
 7287SOL     OW33319   4.041   1.535  17.023 -0.2244 -0.4189 -0.4152
 7287SOL    HW133320   4.127   1.555  17.060  0.2206  1.7375 -2.6780
 7287SOL    HW233321   3.981   1.595  17.066 -0.6270 -1.4842  0.5197
 7288SOL     OW33322   1.774   3.473   3.027 -0.0108 -0.3514 -0.0803
 7288SOL    HW133323   1.824   3.485   2.946  1.3300  0.5022  0.8633
 7288SOL    HW233324   1.688   3.495   2.993 -0.1213  1.2401  1.2377
 7289SOL     OW33325   1.233   2.611   5.504  0.0563 -0.2528 -0.0885
 7289SOL    HW133326   1.195   2.698   5.511  3.6471  1.3321 -0.4221
 7289SOL    HW233327   1.201   2.595   5.415 -0.0549  1.8760 -0.4233
 7290SOL     OW33328   0.483   1.528   0.660  0.0143  0.5351 -0.2458
 7290SOL    HW133329   0.516   1.439   0.672  0.7107  0.6450 -1.2931
 7290SOL    HW233330   0.441   1.523   0.574 -1.2753  1.7774  0.2973
 7291SOL     OW33331   2.869   3.439   8.363 -0.1603 -0.2779 -0.5888
 7291SOL    HW133332   2.807   3.369   8.378  1.3469 -2.0143 -2.4886
 7291SOL    HW233333   2.951   3.389   8.370  0.1278  0.4125  1.1675
 7292SOL     OW33334   1.050   1.156   7.455 -0.0081 -0.3589  0.2535
 7292SOL    HW133335   0.996   1.164   7.376  0.8813 -0.0398 -0.3162
 7292SOL    HW233336   0.984   1.193   7.514 -0.9093 -0.1028 -0.9148
 7293SOL     OW33337   1.015   0.219  14.521  0.2029 -0.1092  0.3045
 7293SOL    HW133338   1.070   0.211  14.599 -1.6232 -0.2031  1.5842
 7293SOL    HW233339   1.034   0.138  14.472 -0.0324 -2.7373  4.5587
 7294SOL     OW33340   3.198   3.319   4.381  0.0593 -0.5280  0.4066
 7294SOL    HW133341   3.201   3.224   4.384  1.0267 -0.5346 -0.4775
 7294SOL    HW233342   3.134   3.332   4.312 -0.4120 -4.0854  0.2227
 7295SOL     OW33343   3.526   3.556   0.127 -0.3509 -0.4525 -0.4575
 7295SOL    HW133344   3.511   3.503   0.049 -0.1393  1.0817 -1.5436
 7295SOL    HW233345   3.604   3.515   0.164 -1.7738 -3.2789 -0.5692
 7296SOL     OW33346   0.956   2.315   7.425  0.1225 -0.1163 -0.0534
 7296SOL    HW133347   1.044   2.338   7.454 -0.6026  0.6073  1.5970
 7296SOL    HW233348   0.906   2.396   7.415 -1.6992 -1.1533  0.6077
 7297SOL     OW33349   0.975   1.537   6.934  0.0856 -0.4814 -0.3344
 7297SOL    HW133350   0.947   1.569   6.848 -2.1229 -0.8604  0.2514
 7297SOL    HW233351   0.902   1.489   6.973  0.8620 -2.3587 -1.1517
 7298SOL     OW33352   2.882   1.970   3.647  0.1405  0.1609  0.2035
 7298SOL    HW133353   2.849   1.943   3.561 -0.0136  0.3021  0.2186
 7298SOL    HW233354   2.932   2.047   3.618  0.2949  0.1628  0.4785
 7299SOL     OW33355   3.063   4.285   2.930 -0.5772 -0.0935 -0.1297
 7299SOL    HW133356   3.040   4.366   2.976 -0.5756 -1.0511  1.5815
 7299SOL    HW233357   3.052   4.230   3.008 -3.8394 -0.0186 -0.5598
 7300SOL     OW33358   4.462   4.320   5.820 -0.5874 -0.0536  0.7585
 7300SOL    HW133359   4.470   4.411   5.792  0.5362 -0.9748 -1.8778
 7300SOL    HW233360   4.543   4.285   5.785 -0.3803  0.9637  0.2268
 7301SOL     OW33361   4.183   2.697  11.433  0.1652 -0.8253  0.6486
 7301SOL    HW133362   4.156   2.768  11.491 -2.3733 -1.9853  0.8981
 7301SOL    HW233363   4.273   2.721  11.411 -0.7357  3.3039  1.5871
 7302SOL     OW33364   4.005   4.709   8.651 -0.0183  0.0170 -0.2358
 7302SOL    HW133365   4.004   0.077   8.662 -0.9308 -0.0357  0.1564
 7302SOL    HW233366   3.973   4.684   8.738 -0.1940 -0.9058 -0.5646
 7303SOL     OW33367   2.862   2.762   8.727  0.3399  0.2032 -0.1435
 7303SOL    HW133368   2.902   2.796   8.808  0.3648 -0.9760  0.3338
 7303SOL    HW233369   2.774   2.734   8.750  0.2680  0.5281 -0.0244
 7304SOL     OW33370   2.912   3.679   7.039  0.4261  0.2656  0.2044
 7304SOL    HW133371   3.006   3.679   7.053  0.3659  0.7256  0.5897
 7304SOL    HW233372   2.904   3.651   6.948  0.0713 -1.3298  0.7241
 7305SOL     OW33373   4.350   2.417   1.326 -0.2217 -0.2595 -0.2624
 7305SOL    HW133374   4.356   2.365   1.406  0.8832  2.2431  1.2778
 7305SOL    HW233375   4.312   2.351   1.267 -1.0728 -1.1018  1.2272
 7306SOL     OW33376   0.536   1.189   6.503  0.5217 -0.0395  0.5383
 7306SOL    HW133377   0.613   1.156   6.456  1.2211  0.8114  1.0773
 7306SOL    HW233378   0.490   1.106   6.499 -1.4375  1.0323  0.9787
 7307SOL     OW33379   3.158   0.900   4.882  0.0070  0.2859  0.6292
 7307SOL    HW133380   3.198   0.844   4.815 -0.4136  0.0480  0.5757
 7307SOL    HW233381   3.069   0.864   4.874  0.5719 -1.2095  1.1164
 7308SOL     OW33382   2.156   0.323   9.288  0.5738 -0.2505 -0.3971
 7308SOL    HW133383   2.189   0.273   9.363 -0.1563 -1.1438 -0.6696
 7308SOL    HW233384   2.065   0.294   9.288  0.8210 -0.9992 -1.8807
 7309SOL     OW33385   3.463   1.105   3.162  0.3341  0.2323  0.1083
 7309SOL    HW133386   3.468   1.178   3.102  1.6552  0.2196  0.2124
 7309SOL    HW233387   3.545   1.060   3.141  1.0221  1.6294 -0.1475
 7310SOL     OW33388   0.829   1.078   3.041  0.0552  0.5757  0.2073
 7310SOL    HW133389   0.745   1.081   2.996  0.6846 -3.5856 -1.2395
 7310SOL    HW233390   0.816   1.149   3.104 -1.1534 -0.8517  1.5785
 7311SOL     OW33391   1.775   1.021   5.579  0.3654 -0.2010  0.9327
 7311SOL    HW133392   1.822   0.940   5.561 -1.1630 -0.7582 -0.5316
 7311SOL    HW233393   1.682   0.996   5.577  0.2483  0.2992  0.0220
 7312SOL     OW33394   1.518   3.175   6.358 -0.0074  0.0823 -0.5444
 7312SOL    HW133395   1.487   3.122   6.431  1.5811  1.5532  1.2262
 7312SOL    HW233396   1.564   3.117   6.298 -0.2436 -0.5438 -0.1097
 7313SOL     OW33397   1.183   2.210  17.499  0.3888  0.3055  0.4316
 7313SOL    HW133398   1.177   2.302  17.525  0.7095  0.4057  0.1537
 7313SOL    HW233399   1.246   2.187  17.567  1.0171  0.5199 -0.0820
 7314SOL     OW33400   0.253   0.681   7.193 -0.0984 -0.8246  0.1306
 7314SOL    HW133401   0.314   0.716   7.257  0.0751 -0.1291 -0.4098
 7314SOL    HW233402   0.306   0.621   7.140 -1.7750 -0.0943 -2.3657
 7315SOL     OW33403   2.289   4.376   4.877 -0.5773 -0.5404  0.2075
 7315SOL    HW133404   2.339   4.368   4.795  0.0396  0.3119  0.5025
 7315SOL    HW233405   2.333   4.312   4.933 -2.5607 -2.4283 -0.3889
 7316SOL     OW33406   1.598   0.070   2.254 -0.3939 -0.4124 -0.2377
 7316SOL    HW133407   1.589   4.701   2.256  1.0342 -0.5457 -0.4515
 7316SOL    HW233408   1.682   0.074   2.299 -0.1246  0.2384 -0.7917
 7317SOL     OW33409   0.588   0.923  12.665 -0.2469 -0.7446 -0.2437
 7317SOL    HW133410   0.530   0.849  12.685 -1.3942  0.2715  0.1891
 7317SOL    HW233411   0.541   0.958  12.589 -1.0274 -2.3114 -0.4833
 7318SOL     OW33412   4.106   0.324   1.191  0.7439 -0.1431 -0.2224
 7318SOL    HW133413   4.059   0.407   1.179  0.6765  0.0854  1.6374
 7318SOL    HW233414   4.110   0.301   1.098  1.7716  2.7010 -0.9046
 7319SOL     OW33415   0.172   2.797   4.674 -0.4760 -0.0799 -0.4419
 7319SOL    HW133416   0.158   2.835   4.588 -0.7267  0.2243 -0.2654
 7319SOL    HW233417   0.116   2.722   4.654 -1.7102  0.3802  1.2441
 7320SOL     OW33418   0.853   2.968  17.289  0.0143 -0.0648 -0.0205
 7320SOL    HW133419   0.939   3.010  17.280  0.6603 -1.2467  0.6824
 7320SOL    HW233420   0.814   2.994  17.205 -1.1845  1.4435  1.0070
 7321SOL     OW33421   1.595   4.303   6.226 -0.2310 -0.2273 -0.0794
 7321SOL    HW133422   1.589   4.374   6.161  2.5156 -1.9720 -2.2719
 7321SOL    HW233423   1.516   4.320   6.276 -0.4697  1.3542 -0.9835
 7322SOL     OW33424   2.692   3.251   8.469  0.0142 -0.5378 -0.2547
 7322SOL    HW133425   2.679   3.196   8.546  1.0803 -0.4183  0.0087
 7322SOL    HW233426   2.639   3.321   8.507  0.4272 -0.4867  0.2190
 7323SOL     OW33427   2.348   4.620   1.206 -0.3892  0.0056 -0.4911
 7323SOL    HW133428   2.352   4.624   1.110  1.9411 -1.4336 -0.4647
 7323SOL    HW233429   2.325   4.529   1.221  2.2754 -0.5041  0.4608
 7324SOL     OW33430   0.733   0.700   7.626 -0.1412 -0.3452 -0.4308
 7324SOL    HW133431   0.736   0.755   7.704 -1.6897  0.1581 -0.7345
 7324SOL    HW233432   0.647   0.661   7.615 -1.8500  3.6327 -1.3368
 7325SOL     OW33433   1.060   4.190   2.574  0.4533  0.2357 -0.2455
 7325SOL    HW133434   1.042   4.271   2.526  0.2138  0.2658 -0.1054
 7325SOL    HW233435   1.152   4.210   2.591  0.3360  1.3531 -0.8713
 7326SOL     OW33436   3.312   3.490   7.609 -0.4833  0.5966  0.1936
 7326SOL    HW133437   3.359   3.499   7.526 -0.0502  0.3491  0.4149
 7326SOL    HW233438   3.237   3.549   7.596 -0.7938  0.5277  1.6845
 7327SOL     OW33439   1.419   4.406  12.258 -0.1555 -0.2555  0.0590
 7327SOL    HW133440   1.347   4.448  12.307 -0.7466 -0.3942 -0.6935
 7327SOL    HW233441   1.383   4.321  12.283  0.1495 -0.6787 -0.9712
 7328SOL     OW33442   2.921   3.996   5.838  0.5453 -0.3418  0.5722
 7328SOL    HW133443   2.898   3.999   5.930 -0.8440  0.7581  0.1933
 7328SOL    HW233444   2.878   3.915   5.811 -0.6018  0.4742 -0.0215
 7329SOL     OW33445   4.364   0.751   5.180 -0.0593  0.0324 -0.0982
 7329SOL    HW133446   4.406   0.705   5.253 -1.3300  1.1003  1.3243
 7329SOL    HW233447   4.346   0.838   5.216 -0.9139 -0.2390  0.1241
 7330SOL     OW33448   3.942   1.696   8.195  0.7555 -0.2880 -0.2436
 7330SOL    HW133449   3.855   1.655   8.199 -1.1214  3.4383 -2.5350
 7330SOL    HW233450   3.919   1.782   8.158  1.7762 -0.5990 -1.5838
 7331SOL     OW33451   3.510   1.580   9.411 -0.1335  0.6112 -0.5331
 7331SOL    HW133452   3.450   1.590   9.337  0.2671  1.1361 -0.7895
 7331SOL    HW233453   3.557   1.662   9.397 -0.4412  1.0109  0.7723
 7332SOL     OW33454   1.750   4.329   5.214  0.5235  0.0504  0.8308
 7332SOL    HW133455   1.818   4.369   5.268  2.1114 -1.2455 -0.2076
 7332SOL    HW233456   1.746   4.379   5.132 -1.6486  1.4535  1.8056
 7333SOL     OW33457   3.904   0.988   2.541  0.0775  0.6428 -0.1396
 7333SOL    HW133458   3.954   1.040   2.478  2.8642  1.2079  2.5138
 7333SOL    HW233459   3.935   1.027   2.623 -1.3751 -0.7142  1.0572
 7334SOL     OW33460   2.178   2.791   7.314  0.2961  0.1718  0.0551
 7334SOL    HW133461   2.084   2.774   7.311  0.0337  1.2443  2.0901
 7334SOL    HW233462   2.181   2.881   7.283  1.7355  0.4389  0.9678
 7335SOL     OW33463   0.539   3.519   7.369 -0.2010  0.4276  0.1923
 7335SOL    HW133464   0.577   3.432   7.385 -2.0230 -0.3111  0.4735
 7335SOL    HW233465   0.552   3.540   7.277  0.4906 -2.1558 -0.2960
 7336SOL     OW33466   3.802   3.317   7.609  0.4315 -0.1534 -0.1307
 7336SOL    HW133467   3.739   3.293   7.676  0.6318  2.1522  0.8846
 7336SOL    HW233468   3.769   3.280   7.527  0.3869  0.6897 -0.4885
 7337SOL     OW33469   0.880   0.580   2.131 -0.2287  0.2868 -0.0230
 7337SOL    HW133470   0.836   0.620   2.056 -1.3468 -0.6904  0.1032
 7337SOL    HW233471   0.890   0.656   2.189  1.5137  0.0548 -0.0136
 7338SOL     OW33472   4.366   1.726   8.374 -0.1394  0.8228 -0.1111
 7338SOL    HW133473   4.296   1.720   8.439  1.1552 -2.1119  1.0103
 7338SOL    HW233474   4.448   1.727   8.422  0.1832 -0.0725 -0.6520
 7339SOL     OW33475   0.984   1.731   7.322  0.1463 -0.1820  0.3765
 7339SOL    HW133476   0.987   1.802   7.258 -0.0661 -0.3215  0.2094
 7339SOL    HW233477   0.969   1.780   7.402 -0.2240 -0.0437  0.2266
 7340SOL     OW33478   2.592   0.038   2.202  0.2840  0.4787 -0.1946
 7340SOL    HW133479   2.659   0.047   2.134  0.1982  0.3471 -0.2934
 7340SOL    HW233480   2.626   4.698   2.263  2.1981  4.3996  3.0559
 7341SOL     OW33481   4.254   3.125   9.083 -0.3376 -0.4291  0.2579
 7341SOL    HW133482   4.188   3.065   9.050  0.0759 -1.1689  0.7724
 7341SOL    HW233483   4.207   3.198   9.124  0.1858  0.6258 -1.0006
 7342SOL     OW33484   2.313   0.954   9.492 -0.0845 -0.3379  0.1580
 7342SOL    HW133485   2.326   0.936   9.585 -0.4389  1.6160  0.5928
 7342SOL    HW233486   2.254   1.029   9.492  1.1817  0.6595  0.1223
 7343SOL     OW33487   2.923   1.353   8.534 -0.0892  0.1025 -0.4501
 7343SOL    HW133488   2.960   1.426   8.583  1.9874  0.0982 -2.0160
 7343SOL    HW233489   2.986   1.283   8.553  2.5367  2.7241  0.6149
 7344SOL     OW33490   2.460   1.536   6.245  0.5426  0.4665  0.1872
 7344SOL    HW133491   2.463   1.473   6.317 -1.3840 -1.5536 -1.4847
 7344SOL    HW233492   2.493   1.479   6.175  1.4063 -1.4447  2.1639
 7345SOL     OW33493   2.363   3.619   5.327 -0.2984  0.2591 -0.4458
 7345SOL    HW133494   2.359   3.714   5.336 -0.7429  0.4509 -2.7539
 7345SOL    HW233495   2.272   3.590   5.319 -0.8117  2.1254 -1.4473
 7346SOL     OW33496   0.965   1.883  11.048 -0.0105 -0.1241 -0.1989
 7346SOL    HW133497   0.969   1.848  11.137  1.7304  0.3159 -0.0921
 7346SOL    HW233498   0.872   1.905  11.053  0.2573  1.3734 -1.7525
 7347SOL     OW33499   1.150   3.951   9.161 -0.2008 -0.3418 -0.4622
 7347SOL    HW133500   1.205   3.921   9.089  0.7102 -1.5104  0.7176
 7347SOL    HW233501   1.065   3.937   9.119  0.2559 -0.8555 -1.2135
 7348SOL     OW33502   3.218   0.598   8.055  0.3202 -0.0882 -0.0529
 7348SOL    HW133503   3.248   0.689   8.056  3.0114 -1.0336  3.3831
 7348SOL    HW233504   3.268   0.564   7.981  0.4883 -2.8992  1.3721
 7349SOL     OW33505   2.690   3.241  16.011 -0.4322  0.1434  0.0014
 7349SOL    HW133506   2.699   3.148  15.990 -0.1542 -0.0081  0.7851
 7349SOL    HW233507   2.626   3.239  16.082 -0.3963 -3.3751 -0.0694
 7350SOL     OW33508   0.581   2.480   1.820  0.3218  0.6342 -0.2264
 7350SOL    HW133509   0.579   2.422   1.744 -0.6785 -1.3642  1.3161
 7350SOL    HW233510   0.620   2.424   1.887  0.7784  0.7570 -0.3909
 7351SOL     OW33511   3.718   1.381   0.653  0.2812  0.5185 -0.4146
 7351SOL    HW133512   3.751   1.331   0.577 -2.0888 -2.4905  0.5163
 7351SOL    HW233513   3.799   1.388   0.703  0.2952  3.0229 -0.7857
 7352SOL     OW33514   3.721   3.873   4.635  0.5404  0.5867  1.0244
 7352SOL    HW133515   3.809   3.835   4.635  0.7240  1.0187 -0.8195
 7352SOL    HW233516   3.673   3.790   4.644  0.5288  0.7133  2.0825
 7353SOL     OW33517   2.280   1.821   6.812  0.2422 -0.3324  0.2238
 7353SOL    HW133518   2.202   1.789   6.857  1.0368 -1.1876  1.0111
 7353SOL    HW233519   2.273   1.767   6.733 -1.5678  0.3888 -0.1035
 7354SOL     OW33520   1.439   0.224   6.635  0.2319  0.1624 -0.5475
 7354SOL    HW133521   1.447   0.251   6.543 -0.4114 -0.1963 -0.7125
 7354SOL    HW233522   1.363   0.271   6.670 -0.4447 -0.6779 -0.8975
 7355SOL     OW33523   3.342   2.506   3.714 -0.1903  0.1276  0.5073
 7355SOL    HW133524   3.340   2.443   3.786  4.6727 -1.4282 -0.7340
 7355SOL    HW233525   3.376   2.589   3.747 -1.5609  0.4702  1.0308
 7356SOL     OW33526   1.772   2.394  16.088  0.1478  0.4148  0.3920
 7356SOL    HW133527   1.696   2.447  16.063 -0.1291 -1.0613 -1.8732
 7356SOL    HW233528   1.804   2.438  16.167 -1.8812  0.9754  0.9090
 7357SOL     OW33529   3.751   4.287   4.691 -0.4030  0.1884 -0.0010
 7357SOL    HW133530   3.684   4.252   4.633 -0.1735 -1.1235  0.5233
 7357SOL    HW233531   3.754   4.222   4.762 -1.3707 -0.5560 -0.6455
 7358SOL     OW33532   0.808   2.671   0.466  0.8586  0.2023 -0.3890
 7358SOL    HW133533   0.871   2.620   0.414 -1.5509 -1.9581 -1.2283
 7358SOL    HW233534   0.754   2.704   0.394  0.8770  1.6288  0.2655
 7359SOL     OW33535   1.769   4.244   5.566 -0.0932  0.0044 -0.2707
 7359SOL    HW133536   1.817   4.307   5.513  0.3517 -1.2308 -1.3356
 7359SOL    HW233537   1.843   4.199   5.608  0.3379  2.0012  1.1111
 7360SOL     OW33538   3.322   0.289   3.100 -0.1702 -0.4009  0.3192
 7360SOL    HW133539   3.359   0.362   3.049 -0.0459 -2.1522 -2.1059
 7360SOL    HW233540   3.337   0.329   3.186 -0.6496  0.0444  0.1923
 7361SOL     OW33541   0.997   0.615   9.090 -0.0209 -0.4754  0.3216
 7361SOL    HW133542   0.956   0.568   9.162 -1.6177 -0.0907 -0.3306
 7361SOL    HW233543   0.939   0.689   9.076  1.6949  0.2193 -3.3875
 7362SOL     OW33544   2.780   4.398   3.220 -0.5872  0.4198  0.5784
 7362SOL    HW133545   2.868   4.405   3.257 -0.4610  2.4082 -0.0666
 7362SOL    HW233546   2.741   4.472   3.266 -1.0557  2.2360 -2.7023
 7363SOL     OW33547   3.580   2.898   9.943 -0.3384 -0.2407 -0.0503
 7363SOL    HW133548   3.523   2.832   9.982 -0.7773 -0.1552 -0.5444
 7363SOL    HW233549   3.663   2.853   9.924 -0.6618 -0.9744  0.2666
 7364SOL     OW33550   0.884   1.627  16.993  0.2881  0.2104  0.0598
 7364SOL    HW133551   0.926   1.698  16.945 -3.0543  1.6721 -0.6816
 7364SOL    HW233552   0.896   1.560  16.927  2.3778  0.5800  0.0692
 7365SOL     OW33553   2.049   1.597  13.922  0.2520 -0.1560 -0.4451
 7365SOL    HW133554   2.059   1.675  13.868  1.1481 -0.4313 -0.6646
 7365SOL    HW233555   2.101   1.531  13.877  0.6898  0.0635 -0.2615
 7366SOL     OW33556   1.221   2.046  10.578  0.0015 -0.1032  0.1207
 7366SOL    HW133557   1.276   1.982  10.624 -0.7525 -1.5784 -1.0275
 7366SOL    HW233558   1.254   2.047  10.488  3.5510 -2.4515  1.3662
 7367SOL     OW33559   1.427   1.431   3.104  0.7677 -0.1259  0.1654
 7367SOL    HW133560   1.376   1.359   3.141  1.4342 -0.2436  0.8678
 7367SOL    HW233561   1.452   1.391   3.021 -2.1014 -2.4870  0.4364
 7368SOL     OW33562   0.945   3.063   2.478  0.2967 -0.3498  0.6605
 7368SOL    HW133563   0.939   3.129   2.408 -1.7156  1.3297  2.4120
 7368SOL    HW233564   1.018   3.098   2.529  0.3781  0.3905  0.0445
 7369SOL     OW33565   0.417   4.474   9.593  0.3111 -0.2176  0.0114
 7369SOL    HW133566   0.362   4.408   9.635 -1.0328  1.2580  0.5579
 7369SOL    HW233567   0.348   4.541   9.592 -1.7203 -2.2608  1.5711
 7370SOL     OW33568   2.284   1.390   7.031 -0.3471  0.1653 -0.2217
 7370SOL    HW133569   2.361   1.334   7.023  0.0747  1.0987 -2.6378
 7370SOL    HW233570   2.238   1.344   7.102  0.8412  0.8999  1.0282
 7371SOL     OW33571   2.945   1.664   0.910  0.2236  0.5165  0.3938
 7371SOL    HW133572   2.925   1.690   0.820  0.5862 -0.8692 -0.0795
 7371SOL    HW233573   2.922   1.571   0.905  1.1397  0.3201 -0.0695
 7372SOL     OW33574   0.551   1.101   2.336  0.2470  0.3976 -0.1428
 7372SOL    HW133575   0.612   1.079   2.266 -1.0741 -1.7641 -0.6154
 7372SOL    HW233576   0.496   1.165   2.290  1.2138 -0.1603 -2.0714
 7373SOL     OW33577   4.392   3.876   5.806  0.1890 -0.4742 -0.1679
 7373SOL    HW133578   4.421   3.955   5.762 -1.7620 -0.0464 -0.6851
 7373SOL    HW233579   4.470   3.821   5.794 -0.5221 -1.3325 -0.8646
 7374SOL     OW33580   2.541   3.270   7.635 -0.0494 -0.0517 -0.3152
 7374SOL    HW133581   2.570   3.265   7.726 -1.6944  2.3764  0.3699
 7374SOL    HW233582   2.486   3.192   7.629 -1.5326  1.0447 -1.1275
 7375SOL     OW33583   0.037   4.253  15.605  0.0801 -0.3604  0.1719
 7375SOL    HW133584   0.113   4.198  15.621  0.4525  0.1799  0.2387
 7375SOL    HW233585   4.716   4.193  15.548  2.8311 -1.2738 -1.1387
 7376SOL     OW33586   3.762   4.466   6.346 -0.0306  0.6111  0.0862
 7376SOL    HW133587   3.791   4.475   6.256 -0.4331 -0.2064 -0.1203
 7376SOL    HW233588   3.680   4.516   6.352 -1.5411 -1.7108 -1.6670
 7377SOL     OW33589   1.678   3.138  14.046  0.4093  0.5955 -0.0171
 7377SOL    HW133590   1.606   3.196  14.072  1.7207  1.4798  1.6538
 7377SOL    HW233591   1.675   3.069  14.112  0.8252  0.7688  0.1821
 7378SOL     OW33592   1.111   4.332   7.681  0.2404 -0.5335 -0.0827
 7378SOL    HW133593   1.045   4.267   7.705  0.3315 -0.7053 -0.2949
 7378SOL    HW233594   1.193   4.291   7.709  0.7402 -0.2724 -1.1520
 7379SOL     OW33595   0.499   2.137   9.983  0.1132 -0.0946 -0.1049
 7379SOL    HW133596   0.515   2.066  10.044  2.3355 -0.2738 -0.8769
 7379SOL    HW233597   0.417   2.119   9.937 -0.0496 -1.4519  0.7489
 7380SOL     OW33598   4.604   3.934   8.295  0.6303  0.1304  0.4532
 7380SOL    HW133599   4.531   3.940   8.357  0.5319  2.2292  0.1415
 7380SOL    HW233600   4.634   3.845   8.313  2.3487  0.6979  0.3774
 7381SOL     OW33601   1.146   2.839  15.502 -0.2319  0.0250 -0.1023
 7381SOL    HW133602   1.106   2.905  15.558  0.6129  0.5391 -0.0969
 7381SOL    HW233603   1.218   2.877  15.452 -0.8488 -0.9003 -1.6988
 7382SOL     OW33604   3.170   1.520   8.101 -0.8747 -0.3202 -0.4334
 7382SOL    HW133605   3.247   1.576   8.092 -0.5259 -0.7526 -0.1900
 7382SOL    HW233606   3.129   1.570   8.172  1.4966 -1.8856  2.0487
 7383SOL     OW33607   2.246   3.029   4.333 -0.4757 -0.2858 -0.0987
 7383SOL    HW133608   2.173   2.976   4.363 -1.0209  0.8829  0.6130
 7383SOL    HW233609   2.250   3.095   4.402 -2.1405 -0.5249  0.2136
 7384SOL     OW33610   0.905   2.254   0.404  0.0445 -0.5564  0.2397
 7384SOL    HW133611   0.977   2.234   0.344  1.3719 -0.7686  1.9082
 7384SOL    HW233612   0.904   2.350   0.404  1.3726 -0.5474  1.2109
 7385SOL     OW33613   2.474   3.440  17.525 -0.4282 -0.0157  0.2878
 7385SOL    HW133614   2.392   3.441  17.575  0.4568  0.3787  1.7072
 7385SOL    HW233615   2.529   3.491  17.583  1.6956  0.3474 -2.0507
 7386SOL     OW33616   2.470   1.988  12.694  0.4074  0.0791  0.3431
 7386SOL    HW133617   2.539   1.922  12.692  1.1585  0.8437  1.3560
 7386SOL    HW233618   2.400   1.922  12.695 -0.0303  0.5260 -0.8177
 7387SOL     OW33619   0.865   2.790   8.990  0.2817 -0.1239  0.5452
 7387SOL    HW133620   0.936   2.753   9.043 -1.0522 -1.8119  1.1689
 7387SOL    HW233621   0.881   2.752   8.904 -1.9648  1.0611 -0.3938
 7388SOL     OW33622   1.643   1.791  11.092  0.1503 -0.4976  0.2636
 7388SOL    HW133623   1.674   1.877  11.121 -1.6939  0.2560 -0.0347
 7388SOL    HW233624   1.553   1.818  11.072  1.2509  3.4297  0.5753
 7389SOL     OW33625   1.731   0.355   8.261 -0.1087 -0.2029 -0.1488
 7389SOL    HW133626   1.728   0.383   8.352 -2.4522  0.2677 -0.3685
 7389SOL    HW233627   1.826   0.356   8.253  0.0974 -1.9450  2.2185
 7390SOL     OW33628   3.099   2.616  13.508  0.2246  0.0285 -0.5705
 7390SOL    HW133629   3.058   2.541  13.551  0.7975 -0.7369 -1.3744
 7390SOL    HW233630   3.179   2.575  13.476 -0.3581 -1.5853  0.0521
 7391SOL     OW33631   3.384   4.284   7.775 -0.0341 -0.7034 -0.1231
 7391SOL    HW133632   3.458   4.250   7.825  0.4629  1.1458  0.4080
 7391SOL    HW233633   3.327   4.208   7.768 -0.3744 -0.3899 -0.8899
 7392SOL     OW33634   4.623   4.060   6.102  0.5682  0.6774 -0.3817
 7392SOL    HW133635   4.539   4.014   6.100  0.1920  1.3777 -0.6338
 7392SOL    HW233636   4.691   3.994   6.092 -1.3321 -1.1433 -1.2599
 7393SOL     OW33637   0.018   1.440  10.273 -0.6004  0.3461  0.2800
 7393SOL    HW133638   4.653   1.411  10.276 -0.8851  1.2499  0.3958
 7393SOL    HW233639   0.049   1.385  10.201  0.5223 -2.2195  2.7228
 7394SOL     OW33640   3.242   4.237   3.571  0.0230 -0.0040 -0.2716
 7394SOL    HW133641   3.240   4.205   3.481  1.8620  0.2496 -0.4105
 7394SOL    HW233642   3.255   4.156   3.619  2.1399  1.5033  1.6915
 7395SOL     OW33643   2.260   2.157   7.365 -0.1211 -0.6571 -0.2097
 7395SOL    HW133644   2.198   2.138   7.436 -0.5881  0.2243 -0.3745
 7395SOL    HW233645   2.236   2.088   7.304 -0.0298 -2.3740  1.7041
 7396SOL     OW33646   3.682   0.223   2.974 -0.2802  0.2249  0.2054
 7396SOL    HW133647   3.667   0.243   2.882  1.6363 -1.7446 -0.5306
 7396SOL    HW233648   3.695   0.128   2.970  1.5858  0.5138 -0.4746
 7397SOL     OW33649   2.122   2.189  10.933  0.5242 -0.2197  0.1232
 7397SOL    HW133650   2.181   2.121  10.964  3.1567  1.6253 -0.9136
 7397SOL    HW233651   2.101   2.149  10.849 -2.6720 -1.0995  1.2987
 7398SOL     OW33652   1.815   3.303   6.451  0.0497  0.5557 -0.1710
 7398SOL    HW133653   1.789   3.252   6.374  3.1202 -1.2606  0.0104
 7398SOL    HW233654   1.790   3.393   6.430  0.9745  0.6280 -0.9511
 7399SOL     OW33655   2.042   1.020  11.756 -0.1849 -0.6556  0.8758
 7399SOL    HW133656   2.127   1.049  11.787 -1.4240  0.9031  2.7668
 7399SOL    HW233657   2.016   0.954  11.821  2.6092 -2.7851 -0.1862
 7400SOL     OW33658   1.540   0.293   4.998 -0.2888  0.1728  0.9540
 7400SOL    HW133659   1.597   0.223   5.028  0.5674  0.2086 -0.6041
 7400SOL    HW233660   1.504   0.330   5.080 -0.2997 -1.3090  1.6198
 7401SOL     OW33661   0.234   3.714   7.171  0.1634  0.1876 -0.0178
 7401SOL    HW133662   0.329   3.728   7.173  0.2212 -0.0773 -1.1389
 7401SOL    HW233663   0.209   3.707   7.079  2.0771  1.9320 -0.6737
 7402SOL     OW33664   2.899   4.014   8.392  0.3615  0.2025 -0.0527
 7402SOL    HW133665   2.842   3.940   8.414  1.5867 -0.5792  0.4822
 7402SOL    HW233666   2.850   4.095   8.403  1.1988  0.6210  0.5667
 7403SOL     OW33667   2.731   4.565   8.126  0.7510 -0.0138 -0.0563
 7403SOL    HW133668   2.781   4.639   8.159  0.6721  0.3832 -0.8189
 7403SOL    HW233669   2.675   4.600   8.057 -0.5366 -1.9710 -0.0273
 7404SOL     OW33670   2.506   4.062   5.964 -0.0279  0.4462 -0.7606
 7404SOL    HW133671   2.574   4.098   5.906  0.3152 -1.8126 -1.7475
 7404SOL    HW233672   2.565   4.014   6.022 -3.1813 -2.4181  0.0352
 7405SOL     OW33673   2.523   2.449   7.584 -0.3439 -0.0338 -0.3214
 7405SOL    HW133674   2.446   2.427   7.636  1.3040  1.7186  2.8532
 7405SOL    HW233675   2.477   2.511   7.528 -1.8258 -2.7779 -2.1379
 7406SOL     OW33676   4.235   4.029   2.896 -0.1958  0.3420  0.1976
 7406SOL    HW133677   4.275   4.074   2.970  1.1963  2.3366 -1.7422
 7406SOL    HW233678   4.187   3.959   2.939 -0.9876  0.4325 -0.5419
 7407SOL     OW33679   2.152   2.377  16.720 -0.3864  0.2335 -0.0569
 7407SOL    HW133680   2.247   2.390  16.711 -0.1807 -0.9513  0.3583
 7407SOL    HW233681   2.147   2.282  16.710 -1.5060  0.0210  2.5648
 7408SOL     OW33682   4.321   1.794  11.081  0.1798  0.0211 -0.0153
 7408SOL    HW133683   4.405   1.771  11.122  1.2741 -1.7650 -3.3160
 7408SOL    HW233684   4.310   1.755  10.995  1.2367 -0.5506  0.1105
 7409SOL     OW33685   3.599   0.614   2.841  0.0646 -0.5775 -0.5683
 7409SOL    HW133686   3.671   0.563   2.877  2.0234  2.6437  0.0764
 7409SOL    HW233687   3.555   0.552   2.782  0.9716 -1.1630 -0.6275
 7410SOL     OW33688   1.007   4.682   7.524 -0.4533 -0.6060  0.3133
 7410SOL    HW133689   1.033   0.024   7.585 -2.4609 -1.3515  2.0363
 7410SOL    HW233690   0.932   4.634   7.561 -0.1275 -2.0580 -0.8920
 7411SOL     OW33691   0.373   3.488   2.403 -0.3964 -0.8815  0.2805
 7411SOL    HW133692   0.343   3.402   2.375 -0.8576 -0.0543 -1.7266
 7411SOL    HW233693   0.313   3.498   2.477 -2.7295  0.1489 -1.7572
 7412SOL     OW33694   3.359   3.844  12.437  0.1312  0.9212 -0.1373
 7412SOL    HW133695   3.314   3.863  12.355  0.0544 -0.2116 -0.3661
 7412SOL    HW233696   3.449   3.842  12.406 -0.1377 -1.9004 -0.8066
 7413SOL     OW33697   1.503   0.746  10.299  0.5684 -0.4178 -0.3042
 7413SOL    HW133698   1.475   0.726  10.210  0.6710 -0.7968 -0.2503
 7413SOL    HW233699   1.474   0.676  10.357  0.5237  0.9863  1.3848
 7414SOL     OW33700   3.937   4.327   8.085  0.0039 -0.0934  0.3015
 7414SOL    HW133701   4.016   4.373   8.057  0.9305 -1.8566  0.0373
 7414SOL    HW233702   3.923   4.372   8.168  3.2825  1.1239  0.1818
 7415SOL     OW33703   0.813   1.979  10.590 -0.0736  0.1303  0.3985
 7415SOL    HW133704   0.881   1.984  10.657 -0.3700  0.1253  0.7011
 7415SOL    HW233705   0.768   2.062  10.606 -0.5298  0.0109 -0.2443
 7416SOL     OW33706   2.350   2.174   8.467  0.3867  0.2721 -0.1988
 7416SOL    HW133707   2.308   2.232   8.530 -0.7193 -0.3952 -0.3336
 7416SOL    HW233708   2.419   2.229   8.430  2.1122 -0.0931  2.4912
 7417SOL     OW33709   4.609   2.693  15.364 -0.0055  0.2481 -0.0877
 7417SOL    HW133710   4.650   2.667  15.282 -2.9820  0.0199 -1.5187
 7417SOL    HW233711   4.571   2.780  15.355  0.1155  0.1624 -1.3855
 7418SOL     OW33712   3.290   4.437   3.381 -0.4322  0.2384  0.0100
 7418SOL    HW133713   3.195   4.433   3.367 -0.8643  1.9987  2.3965
 7418SOL    HW233714   3.300   4.404   3.470 -0.1989 -1.0614 -0.4952
 7419SOL     OW33715   1.668   2.656   5.007 -0.1203 -0.0892 -0.3232
 7419SOL    HW133716   1.723   2.662   5.085 -0.5804  0.3776 -0.0407
 7419SOL    HW233717   1.744   2.654   4.947  0.0597  0.1430 -0.1030
 7420SOL     OW33718   1.562   2.604   7.137 -0.3205 -0.0743  0.3407
 7420SOL    HW133719   1.557   2.633   7.046  0.6149 -0.3842  0.1889
 7420SOL    HW233720   1.632   2.541   7.122  1.8748  2.5968 -0.7437
 7421SOL     OW33721   1.181   0.779   6.132  0.0536 -0.3757  0.3477
 7421SOL    HW133722   1.179   0.709   6.067  1.6478  0.0211 -0.1151
 7421SOL    HW233723   1.267   0.818   6.115 -1.4619  1.7937 -2.3272
 7422SOL     OW33724   0.829   3.554  13.439  0.4341 -0.7864  0.5540
 7422SOL    HW133725   0.869   3.637  13.465 -0.2179  0.2391 -1.6395
 7422SOL    HW233726   0.737   3.577  13.453  1.3180  2.3657  1.2021
 7423SOL     OW33727   2.483   2.922  16.865 -0.0365  0.1226 -0.4083
 7423SOL    HW133728   2.426   2.847  16.848 -0.4710  0.3232  0.1522
 7423SOL    HW233729   2.504   2.954  16.777 -2.6572  1.0402 -0.7030
 7424SOL     OW33730   0.122   1.355   8.284 -0.1162 -0.0130 -0.1494
 7424SOL    HW133731   0.217   1.349   8.292 -0.1681 -1.4784 -0.5872
 7424SOL    HW233732   0.120   1.293   8.211 -1.1624  0.7327 -0.7467
 7425SOL     OW33733   0.255   3.959   6.479 -0.1172 -0.2244 -0.0771
 7425SOL    HW133734   0.288   4.048   6.483 -2.4448  0.7078 -1.1918
 7425SOL    HW233735   0.162   3.967   6.502  0.5799  1.1292  2.1488
 7426SOL     OW33736   2.726   4.053  12.875  0.4480 -0.0818 -0.2520
 7426SOL    HW133737   2.746   4.143  12.901 -1.3810  0.2003  0.1299
 7426SOL    HW233738   2.802   4.006  12.910 -0.3198  0.2298  1.8138
 7427SOL     OW33739   0.575   3.744  11.107 -0.1158  0.1988  0.4596
 7427SOL    HW133740   0.667   3.747  11.135 -0.3835 -1.3048  1.4836
 7427SOL    HW233741   0.535   3.819  11.152  0.6145 -0.0640  1.5680
 7428SOL     OW33742   2.066   0.354   7.193 -0.2435 -0.1616  0.2314
 7428SOL    HW133743   2.021   0.300   7.128  0.9948  0.4689 -1.1661
 7428SOL    HW233744   2.000   0.367   7.261 -0.7529  0.6847 -0.4176
 7429SOL     OW33745   0.674   0.894   8.389  0.3854 -0.7522  0.3205
 7429SOL    HW133746   0.727   0.972   8.379  2.2834 -2.0878 -0.0802
 7429SOL    HW233747   0.734   0.819   8.398  0.8970 -0.3968 -0.0998
 7430SOL     OW33748   3.540   2.508   0.598  0.3660  0.2479 -0.0054
 7430SOL    HW133749   3.583   2.422   0.590 -0.1085 -0.0063  0.1962
 7430SOL    HW233750   3.546   2.514   0.694  0.4265 -0.7820  0.0555
 7431SOL     OW33751   0.083   1.384   6.843 -0.0956  0.1828  0.4108
 7431SOL    HW133752   0.154   1.320   6.840  1.5642  1.8435  3.4878
 7431SOL    HW233753   0.005   1.348   6.800  0.6750 -1.7071  0.6168
 7432SOL     OW33754   0.794   4.354   2.807 -0.2261 -0.0028 -0.0017
 7432SOL    HW133755   0.849   4.379   2.882 -1.5495  0.1473  0.9253
 7432SOL    HW233756   0.771   4.262   2.818  0.9626 -0.3600 -0.4708
 7433SOL     OW33757   1.612   0.172   4.660  0.3728 -0.0200  0.0080
 7433SOL    HW133758   1.662   0.119   4.722 -1.0468 -1.1248  0.1876
 7433SOL    HW233759   1.669   0.181   4.584 -1.2503 -0.8303 -1.2913
 7434SOL     OW33760   4.418   2.911  13.749  0.6746  0.0371 -0.2001
 7434SOL    HW133761   4.504   2.893  13.712  0.5268  0.1547 -0.6063
 7434SOL    HW233762   4.405   2.823  13.785 -0.9065 -0.5463 -2.1480
 7435SOL     OW33763   0.462   3.781   4.236 -0.8189 -0.1468 -0.1200
 7435SOL    HW133764   0.410   3.824   4.303 -0.2603 -0.0936  0.2776
 7435SOL    HW233765   0.441   3.689   4.251 -2.2229  0.0019 -1.2290
 7436SOL     OW33766   1.595   2.040   2.716 -0.1784 -0.2342 -0.4483
 7436SOL    HW133767   1.640   2.084   2.788  0.3048  0.6661 -1.3002
 7436SOL    HW233768   1.593   2.110   2.651  1.3948 -0.2374 -0.5010
 7437SOL     OW33769   0.908   0.515   7.500 -0.1803 -0.7232 -0.3331
 7437SOL    HW133770   0.997   0.544   7.519 -0.7992 -1.4440  3.6871
 7437SOL    HW233771   0.854   0.586   7.533  1.3979 -0.1945  1.1157
 7438SOL     OW33772   4.137   2.878  11.620 -0.1442  0.8948  0.0855
 7438SOL    HW133773   4.144   2.972  11.640  2.5241  0.5559  0.7567
 7438SOL    HW233774   4.193   2.847  11.690 -1.0965 -1.1872 -0.0874
 7439SOL     OW33775   4.504   0.778  17.258  0.0597  0.5045 -0.0190
 7439SOL    HW133776   4.418   0.774  17.300 -0.3615  0.1437 -0.9377
 7439SOL    HW233777   4.562   0.780  17.334 -1.3783  0.0958  1.0906
 7440SOL     OW33778   0.123   2.358  13.485  0.1891  0.1641 -0.1444
 7440SOL    HW133779   0.075   2.439  13.468  1.9279  1.3722  0.6318
 7440SOL    HW233780   0.145   2.339  13.393 -0.5760  0.0466 -0.2990
 7441SOL     OW33781   1.713   2.671  16.609  0.3687 -0.3867 -0.5863
 7441SOL    HW133782   1.624   2.638  16.595 -0.8254  1.7782  1.9215
 7441SOL    HW233783   1.707   2.754  16.562 -1.3653 -0.4980 -0.5803
 7442SOL     OW33784   2.668   0.803   3.676  0.3061 -0.2768  0.4195
 7442SOL    HW133785   2.694   0.808   3.584 -1.5501 -1.6842 -0.1824
 7442SOL    HW233786   2.648   0.710   3.677  0.9693 -0.4318 -1.1367
 7443SOL     OW33787   1.097   3.462  13.982  0.2807  0.2156 -0.0274
 7443SOL    HW133788   1.134   3.390  14.032 -1.0091 -1.1273 -1.0149
 7443SOL    HW233789   1.013   3.466  14.027  0.9363  3.9261  0.8343
 7444SOL     OW33790   0.458   1.846  10.212  0.4590 -0.1003 -0.0331
 7444SOL    HW133791   0.412   1.791  10.149  0.5043 -1.0519  0.7711
 7444SOL    HW233792   0.550   1.825  10.197  0.3659  0.1558 -0.9967
 7445SOL     OW33793   4.658   1.664   2.070  0.7279 -0.5589  0.0100
 7445SOL    HW133794   4.712   1.742   2.083  0.2986 -0.0356 -1.4464
 7445SOL    HW233795   4.623   1.645   2.157  1.9279  0.1458  0.6530
 7446SOL     OW33796   3.998   3.009   8.254 -0.2477 -1.0209 -0.0775
 7446SOL    HW133797   4.013   2.922   8.290 -0.5783 -1.0260  0.0520
 7446SOL    HW233798   4.023   2.988   8.164  1.5577 -2.4959  0.7794
 7447SOL     OW33799   1.815   1.657   3.200 -0.0860 -0.0028 -0.1094
 7447SOL    HW133800   1.811   1.735   3.255 -1.1463  0.8321 -1.3423
 7447SOL    HW233801   1.808   1.691   3.110  0.9177  3.0784  0.9838
 7448SOL     OW33802   0.837   2.786  14.767  0.0885  0.4494  0.0223
 7448SOL    HW133803   0.773   2.745  14.709 -1.8110 -0.3686  2.6712
 7448SOL    HW233804   0.775   2.800  14.839  1.0392  1.3166  0.6821
 7449SOL     OW33805   1.164   3.690   3.391 -0.0916 -0.3002 -0.0875
 7449SOL    HW133806   1.251   3.710   3.425  0.3805 -0.0572 -1.4021
 7449SOL    HW233807   1.177   3.598   3.370  0.6935 -0.5772  1.6347
 7450SOL     OW33808   4.471   2.595   1.132 -0.8234 -0.2738 -0.3315
 7450SOL    HW133809   4.559   2.579   1.097 -1.3152 -2.2572 -0.6573
 7450SOL    HW233810   4.482   2.573   1.224 -0.8281  0.4345 -0.1590
 7451SOL     OW33811   4.311   1.897   2.553  0.0811  0.4391 -0.4494
 7451SOL    HW133812   4.325   1.991   2.540  1.4365  0.6514  2.5293
 7451SOL    HW233813   4.401   1.869   2.538  0.6399  0.4217  2.9054
 7452SOL     OW33814   1.528   3.062   0.830 -0.3540  0.0598  0.9153
 7452SOL    HW133815   1.573   3.144   0.850 -1.1277  0.3035  1.6637
 7452SOL    HW233816   1.446   3.097   0.795  0.9258  2.3190  0.2222
 7453SOL     OW33817   1.047   0.148   5.455  0.0451  0.3318 -0.1333
 7453SOL    HW133818   1.088   0.076   5.503 -0.1603  0.1111 -0.2872
 7453SOL    HW233819   1.009   0.192   5.531 -3.1513  0.2606 -1.6985
 7454SOL     OW33820   2.838   1.713   8.019 -0.1969  0.0297 -0.3491
 7454SOL    HW133821   2.908   1.770   8.050  1.0278 -2.3654  1.3432
 7454SOL    HW233822   2.880   1.685   7.937 -2.8176  0.1242 -1.7293
 7455SOL     OW33823   1.014   3.505   3.020  0.5937  0.6681 -0.1827
 7455SOL    HW133824   0.998   3.587   3.067 -2.5543 -1.5187  2.5398
 7455SOL    HW233825   1.001   3.439   3.088  2.7786 -0.6735 -1.0525
 7456SOL     OW33826   3.629   1.983   8.667 -0.3689  0.2514  0.1292
 7456SOL    HW133827   3.702   2.044   8.681 -0.9979  0.9146  0.4810
 7456SOL    HW233828   3.668   1.901   8.637 -1.1804 -0.2332  0.4156
 7457SOL     OW33829   1.647   1.530   7.939  0.0773 -0.4349 -0.0240
 7457SOL    HW133830   1.564   1.509   7.896  0.3197  0.7076 -1.0373
 7457SOL    HW233831   1.651   1.469   8.013  0.7774 -0.4519 -0.0783
 7458SOL     OW33832   4.307   2.505  15.009 -0.3939 -0.7878 -0.3483
 7458SOL    HW133833   4.221   2.546  15.000  0.0791  0.0251 -1.1431
 7458SOL    HW233834   4.315   2.473  14.920 -0.0256 -3.3585  0.5901
 7459SOL     OW33835   2.489   0.872   8.703 -0.6141  0.0636  0.1886
 7459SOL    HW133836   2.541   0.876   8.783  1.2993  0.7096 -1.1041
 7459SOL    HW233837   2.540   0.811   8.649 -0.7858  1.5500 -1.6420
 7460SOL     OW33838   0.830   2.000   0.067 -0.2364 -0.0702  0.2555
 7460SOL    HW133839   0.805   2.055  17.699 -0.2452  0.7479  0.8661
 7460SOL    HW233840   0.753   1.986   0.122 -0.4415 -1.4140 -0.3791
 7461SOL     OW33841   0.838   1.759   2.571 -0.5922  0.1265 -0.0669
 7461SOL    HW133842   0.882   1.803   2.644 -3.4390  0.3472  1.5103
 7461SOL    HW233843   0.846   1.813   2.492 -2.0340  1.3739  0.6485
 7462SOL     OW33844   2.175   4.088   8.631  0.4626 -0.1510 -0.0827
 7462SOL    HW133845   2.169   4.184   8.633 -0.8053 -0.2322 -0.3632
 7462SOL    HW233846   2.270   4.085   8.620  0.2958  0.8363 -1.7338
 7463SOL     OW33847   3.711   1.872  16.967 -0.1495 -0.0239 -0.2591
 7463SOL    HW133848   3.801   1.852  16.989 -0.3059  1.3090  1.6006
 7463SOL    HW233849   3.703   1.963  16.997  0.0094 -0.8741  2.3722
 7464SOL     OW33850   0.835   2.227   8.086  0.0042  0.3321 -0.1998
 7464SOL    HW133851   0.777   2.233   8.010  1.8368  0.1230 -1.5948
 7464SOL    HW233852   0.858   2.136   8.100 -1.9910 -0.1223  0.0649
 7465SOL     OW33853   0.823   2.477  14.943 -0.2225 -0.1075  0.3678
 7465SOL    HW133854   0.778   2.464  14.860 -3.4082 -0.4146  2.1226
 7465SOL    HW233855   0.789   2.563  14.967  1.6283  0.5775  0.5202
 7466SOL     OW33856   2.039   0.086   8.708  0.1352  0.1206  0.1104
 7466SOL    HW133857   1.961   0.089   8.763 -1.1711 -1.0677 -1.6686
 7466SOL    HW233858   2.105   0.064   8.774  2.0008  0.6328 -1.5741
 7467SOL     OW33859   2.454   0.854  13.602  0.1236 -0.0995  0.0586
 7467SOL    HW133860   2.446   0.941  13.643 -0.4661  0.3629 -1.0319
 7467SOL    HW233861   2.442   0.803  13.682  2.0151  0.2168  0.5339
 7468SOL     OW33862   4.722   3.831   5.550  0.0236 -0.2642  0.1077
 7468SOL    HW133863   4.665   3.896   5.507  0.5930  0.8281  0.9988
 7468SOL    HW233864   4.689   3.747   5.518  1.5656 -0.7211 -0.2633
 7469SOL     OW33865   3.898   4.389  11.371 -0.0528  0.6264  0.3243
 7469SOL    HW133866   3.869   4.458  11.312 -0.6075  0.4775  0.4174
 7469SOL    HW233867   3.964   4.346  11.317  1.7729  1.8692  1.5881
 7470SOL     OW33868   2.952   1.469   5.780  0.2460  0.2879  0.0677
 7470SOL    HW133869   3.003   1.393   5.751 -1.0593 -0.0699 -1.2749
 7470SOL    HW233870   2.881   1.429   5.829 -0.1376  0.8495 -0.0254
 7471SOL     OW33871   2.277   4.615   8.692  0.0443  0.0026 -0.3059
 7471SOL    HW133872   2.352   4.593   8.747  1.7819  0.4576 -2.4967
 7471SOL    HW233873   2.290   4.709   8.680  2.6645 -0.0028  2.3271
 7472SOL     OW33874   0.625   1.359   0.080  0.1825 -0.1947 -0.3007
 7472SOL    HW133875   0.552   1.299   0.096 -1.4133  0.8818 -3.4689
 7472SOL    HW233876   0.606   1.395  17.699 -1.6055 -1.3476 -0.3906
 7473SOL     OW33877   4.667   4.579   8.644  0.3006  0.1276  0.5583
 7473SOL    HW133878   4.642   4.526   8.569 -0.5120  2.2753 -0.6781
 7473SOL    HW233879   4.642   4.667   8.618 -3.2644  0.3540  4.7217
 7474SOL     OW33880   2.465   4.714   4.505 -0.2453 -0.4125  0.2596
 7474SOL    HW133881   2.541   4.689   4.453 -1.3736 -3.0400 -0.1498
 7474SOL    HW233882   2.402   4.654   4.463  0.6474 -1.2509  0.1097
 7475SOL     OW33883   0.054   2.029   2.333 -0.0888  0.1885 -0.4636
 7475SOL    HW133884   0.059   2.122   2.307 -0.9317  0.6184  0.9251
 7475SOL    HW233885   0.024   1.987   2.253 -1.9120  1.6927 -0.5769
 7476SOL     OW33886   1.198   3.427   3.306  0.1236 -0.3929 -0.0631
 7476SOL    HW133887   1.255   3.392   3.374 -0.0120  1.0584  0.7913
 7476SOL    HW233888   1.124   3.366   3.314  0.0390 -0.5547 -2.1199
 7477SOL     OW33889   2.168   2.503   6.178  0.2134  0.1506  0.3731
 7477SOL    HW133890   2.192   2.533   6.266  0.5023  0.9355  0.0249
 7477SOL    HW233891   2.248   2.460   6.148  0.5492  0.3954  0.9194
 7478SOL     OW33892   1.337   4.132   5.706 -0.2872 -0.0395 -0.1004
 7478SOL    HW133893   1.371   4.108   5.619 -0.7838  1.7502 -0.7961
 7478SOL    HW233894   1.409   4.171   5.754 -1.6189  0.4474  1.5052
 7479SOL     OW33895   0.071   2.000  10.047 -0.7843 -0.3662  0.0956
 7479SOL    HW133896   0.070   1.906  10.063  1.2354 -0.5930 -1.0984
 7479SOL    HW233897   4.709   2.035  10.062 -2.0717 -2.6418 -2.1140
 7480SOL     OW33898   3.729   2.862   8.804  0.0667  0.6251 -0.1900
 7480SOL    HW133899   3.657   2.922   8.823 -1.1599 -0.6426 -0.8713
 7480SOL    HW233900   3.689   2.785   8.764 -0.6874  0.1622  1.4364
 7481SOL     OW33901   3.848   0.747   8.422  0.4285 -0.2086 -0.2148
 7481SOL    HW133902   3.834   0.816   8.487 -0.5700 -1.9011  1.3510
 7481SOL    HW233903   3.806   0.787   8.346  0.8021 -0.9655 -0.8123
 7482SOL     OW33904   2.834   4.309  17.446 -0.6287 -0.1319 -0.5224
 7482SOL    HW133905   2.908   4.348  17.493 -0.2948 -2.4822  0.9212
 7482SOL    HW233906   2.770   4.301  17.517  2.4075 -2.1920  2.0412
 7483SOL     OW33907   4.126   0.345   0.830 -0.0639 -0.8460 -0.3599
 7483SOL    HW133908   4.063   0.406   0.790 -0.9997 -0.4025  1.8189
 7483SOL    HW233909   4.189   0.342   0.758 -1.3408 -0.9080 -1.4889
 7484SOL     OW33910   0.977   3.825   4.123 -0.3855 -0.4985  0.1559
 7484SOL    HW133911   1.009   3.814   4.213 -0.3967  1.4125  0.3884
 7484SOL    HW233912   1.034   3.892   4.086 -0.3457 -0.9086 -0.5151
 7485SOL     OW33913   1.492   4.421   5.073 -0.2035 -0.4938 -0.5105
 7485SOL    HW133914   1.443   4.342   5.049  0.6959 -1.4586  0.8218
 7485SOL    HW233915   1.448   4.481   5.013  0.1808 -1.3716 -1.6672
 7486SOL     OW33916   2.208   2.084   2.491 -0.4637  0.1700 -0.1325
 7486SOL    HW133917   2.228   2.154   2.429 -0.6558  0.7187  0.4182
 7486SOL    HW233918   2.240   2.005   2.447  2.2274  1.2953 -0.1769
 7487SOL     OW33919   1.675   0.015   0.236  0.1691  0.0489  0.2886
 7487SOL    HW133920   1.633   0.087   0.188  2.2282 -0.4843 -2.2782
 7487SOL    HW233921   1.733   4.703   0.170  1.5517  1.6855  0.5627
 7488SOL     OW33922   2.226   3.346  17.282 -0.0339  0.1164  0.2742
 7488SOL    HW133923   2.272   3.396  17.214 -0.3818  0.7230  0.4862
 7488SOL    HW233924   2.228   3.403  17.359  1.5809 -0.6210  0.7718
 7489SOL     OW33925   3.285   0.023   9.411 -0.3944 -0.3629 -0.1340
 7489SOL    HW133926   3.224   0.096   9.398  1.9479  1.0366 -3.2994
 7489SOL    HW233927   3.364   0.077   9.412 -1.4663  1.2503 -2.7428
 7490SOL     OW33928   0.324   0.069   4.139 -0.3469 -0.1153  0.2116
 7490SOL    HW133929   0.275   0.041   4.062 -1.8349  3.4773 -0.1547
 7490SOL    HW233930   0.351   0.159   4.122  0.6414 -0.6743 -1.1136
 7491SOL     OW33931   0.533   0.957   9.424 -0.3992  0.0436  0.0425
 7491SOL    HW133932   0.527   0.994   9.336 -0.8452  1.1326  0.5262
 7491SOL    HW233933   0.523   0.863   9.410  0.1211  0.0258 -0.2099
 7492SOL     OW33934   0.274   1.872  11.260  0.1454  0.2867  0.2319
 7492SOL    HW133935   0.266   1.870  11.356  0.8550 -0.5660  0.2740
 7492SOL    HW233936   0.268   1.782  11.228 -0.2231  0.6973 -0.8434
 7493SOL     OW33937   0.620   2.596  10.099  0.1179 -0.5577 -0.8973
 7493SOL    HW133938   0.646   2.533  10.031 -3.2010 -0.6795 -2.0316
 7493SOL    HW233939   0.525   2.590  10.094  0.2195 -1.1605 -2.0118
 7494SOL     OW33940   3.425   2.990  14.917 -0.0204  0.3931 -0.4222
 7494SOL    HW133941   3.462   2.913  14.960 -1.4896 -1.4127 -2.4099
 7494SOL    HW233942   3.472   2.997  14.834  0.8907 -3.5630 -0.2387
 7495SOL     OW33943   0.476   0.669   9.387 -0.3055  0.0924  0.2595
 7495SOL    HW133944   0.442   0.600   9.443  0.2035 -1.0658 -0.8633
 7495SOL    HW233945   0.430   0.674   9.303 -0.5731 -0.7972  0.3565
 7496SOL     OW33946   4.609   1.109  15.030  0.1630 -0.5750 -0.0031
 7496SOL    HW133947   4.628   1.187  15.082 -0.3466  0.5276 -1.4799
 7496SOL    HW233948   4.695   1.068  15.037  0.0699 -0.5463  1.3139
 7497SOL     OW33949   1.538   0.121   8.516 -0.2674  0.0065  0.4359
 7497SOL    HW133950   1.485   0.047   8.547  2.1005 -0.4524  3.3968
 7497SOL    HW233951   1.621   0.075   8.524 -0.6552 -0.7230  0.2560
 7498SOL     OW33952   1.503   2.116   8.847  0.0374  0.2608 -0.2325
 7498SOL    HW133953   1.463   2.149   8.928  0.5241 -0.0409  0.1271
 7498SOL    HW233954   1.432   2.131   8.785  0.6733 -0.4235 -1.1243
 7499SOL     OW33955   3.309   2.468  17.543 -0.3621 -0.2928 -0.2497
 7499SOL    HW133956   3.283   2.378  17.526  0.2241 -0.4780 -0.1614
 7499SOL    HW233957   3.284   2.472  17.635  2.0855  4.2395  0.2443
 7500SOL     OW33958   2.521   3.157   6.513 -0.4276  0.1411 -0.0169
 7500SOL    HW133959   2.576   3.082   6.536 -0.1441  0.2761 -0.2527
 7500SOL    HW233960   2.435   3.125   6.540 -0.4062 -0.7010 -0.9658
 7501SOL     OW33961   1.441   0.802   3.870 -0.4164  0.1740  0.0381
 7501SOL    HW133962   1.525   0.833   3.838 -0.6286  0.1283 -0.5478
 7501SOL    HW233963   1.450   0.709   3.893  1.3893  0.5871  1.0511
 7502SOL     OW33964   1.424   2.254  12.132  0.6463 -0.0629  0.0217
 7502SOL    HW133965   1.345   2.207  12.106  0.6687 -0.1761  0.1565
 7502SOL    HW233966   1.500   2.209  12.093  0.8423 -0.8531  1.3138
 7503SOL     OW33967   0.061   2.001   8.922 -0.1768 -0.5064 -0.0977
 7503SOL    HW133968   4.723   2.005   8.993  0.3610 -0.0716  0.3600
 7503SOL    HW233969   0.130   2.063   8.946 -1.3712  0.9224 -0.3406
 7504SOL     OW33970   0.583   3.429   8.441 -0.6526 -0.2248 -0.6706
 7504SOL    HW133971   0.508   3.488   8.442 -0.3315  0.1273  1.9124
 7504SOL    HW233972   0.630   3.454   8.362 -0.4963  1.2595 -0.1036
 7505SOL     OW33973   3.343   1.388   7.393 -0.6033 -0.0364 -0.6787
 7505SOL    HW133974   3.380   1.458   7.339 -0.3432 -0.3807 -0.9506
 7505SOL    HW233975   3.275   1.362   7.332 -0.6902  1.6156 -1.2702
 7506SOL     OW33976   1.643   2.074  12.034  0.1343 -0.5240  0.3521
 7506SOL    HW133977   1.721   2.079  12.089 -0.1317  1.0002  0.5909
 7506SOL    HW233978   1.597   2.008  12.085  0.3128 -0.9922 -0.0924
 7507SOL     OW33979   0.132   0.385   9.411 -0.0117  0.1222  0.2927
 7507SOL    HW133980   0.225   0.394   9.389 -0.2431  1.1269 -0.2656
 7507SOL    HW233981   0.108   0.318   9.347  1.3569  0.2920 -0.4154
 7508SOL     OW33982   4.711   1.525   8.440  0.1665  0.0091 -1.0224
 7508SOL    HW133983   4.682   1.611   8.409 -0.0012  0.1347 -0.5199
 7508SOL    HW233984   0.051   1.504   8.374  2.3212  2.3834  0.3703
 7509SOL     OW33985   4.446   2.678   5.647  0.3410 -0.2034  0.2976
 7509SOL    HW133986   4.467   2.616   5.577  2.5824 -0.1238  0.8748
 7509SOL    HW233987   4.533   2.692   5.685  0.3415 -0.8228  0.5181
 7510SOL     OW33988   3.453   2.872   9.634  0.0403 -0.0413 -0.0549
 7510SOL    HW133989   3.498   2.854   9.551  0.3429  1.4630 -0.2098
 7510SOL    HW233990   3.461   2.790   9.682  1.2824  0.6323  0.8775
 7511SOL     OW33991   0.718   0.022   4.696  0.6386 -0.3485  0.1971
 7511SOL    HW133992   0.802   0.022   4.650  1.1341 -0.2436  1.0839
 7511SOL    HW233993   0.715   0.115   4.720 -1.0928 -0.3488 -0.0488
 7512SOL     OW33994   1.218   4.028  10.111 -0.4079  0.0610  0.2540
 7512SOL    HW133995   1.313   4.039  10.099 -0.4684  2.2298  1.8883
 7512SOL    HW233996   1.200   3.975  10.034  1.6501  0.1326 -0.2892
 7513SOL     OW33997   1.737   4.358  17.213 -0.3754  0.6354 -0.2950
 7513SOL    HW133998   1.654   4.316  17.191  0.3647 -1.2933  0.5293
 7513SOL    HW233999   1.748   4.330  17.304 -0.3506  3.0010  0.4175
 7514SOL     OW34000   2.068   3.574   5.320  0.3516 -0.4967  0.0689
 7514SOL    HW134001   1.994   3.514   5.314  0.1675 -0.1376 -1.1279
 7514SOL    HW234002   2.043   3.635   5.250  0.2339 -0.3321  0.2523
 7515SOL     OW34003   4.427   0.122  17.519 -0.3624  0.6885  0.7431
 7515SOL    HW134004   4.348   0.169  17.545 -1.2610  0.0235 -0.8011
 7515SOL    HW234005   4.387   0.038  17.499  1.4020  0.1290 -0.4180
 7516SOL     OW34006   2.618   3.485   9.170 -0.9696 -0.9944  0.9094
 7516SOL    HW134007   2.533   3.496   9.213 -0.8417  0.5665  0.7632
 7516SOL    HW234008   2.606   3.394   9.143  1.9918 -0.6574 -1.5141
 7517SOL     OW34009   3.828   0.673  15.374 -0.2917 -0.2906  0.1787
 7517SOL    HW134010   3.884   0.622  15.432  1.7632  2.8762  0.9968
 7517SOL    HW234011   3.746   0.655  15.419 -0.3056 -2.0397 -0.5246
 7518SOL     OW34012   0.140   1.191  16.459  0.3684  0.3827  0.1134
 7518SOL    HW134013   0.207   1.126  16.438  2.7140  1.5175  4.1141
 7518SOL    HW234014   0.119   1.157  16.546 -0.5458 -0.2491 -0.3449
 7519SOL     OW34015   0.744   1.999   5.460 -0.0215 -0.2878 -0.1862
 7519SOL    HW134016   0.828   2.026   5.498  0.1309  2.8937 -2.7974
 7519SOL    HW234017   0.779   1.932   5.402 -1.6952 -2.0308  0.8432
 7520SOL     OW34018   3.619   4.263   6.618  0.7813 -0.1479  0.0796
 7520SOL    HW134019   3.633   4.350   6.582 -0.9097 -0.3856 -1.1491
 7520SOL    HW234020   3.677   4.207   6.567  1.0616 -0.8943  1.2215
 7521SOL     OW34021   1.772   2.719   4.381 -0.0125  0.4510 -0.0478
 7521SOL    HW134022   1.743   2.630   4.361 -0.3573  0.1891  1.5952
 7521SOL    HW234023   1.821   2.726   4.299  0.3578  1.2414  0.2445
 7522SOL     OW34024   0.510   1.601   9.147 -0.0555 -0.3368 -0.7360
 7522SOL    HW134025   0.454   1.645   9.083  0.6399 -0.9423 -1.7638
 7522SOL    HW234026   0.476   1.638   9.228  1.9570 -1.6021  0.6774
 7523SOL     OW34027   0.516   0.296   4.146 -0.2389 -0.2480 -0.4686
 7523SOL    HW134028   0.541   0.311   4.237  0.1209  3.1652 -1.1180
 7523SOL    HW234029   0.583   0.352   4.107 -0.4795 -0.3085 -0.9700
 7524SOL     OW34030   0.967   4.427  10.840  0.1244  0.4164 -0.4183
 7524SOL    HW134031   1.022   4.504  10.828  0.9287 -0.2705 -1.1781
 7524SOL    HW234032   0.906   4.449  10.910 -0.4259  0.1796 -0.8227
 7525SOL     OW34033   0.915   3.294   9.709 -0.8371  1.1059  0.0355
 7525SOL    HW134034   0.881   3.228   9.648  1.0357  0.2555 -0.0956
 7525SOL    HW234035   0.919   3.250   9.793  0.0325 -1.4665 -1.3643
 7526SOL     OW34036   0.503   4.541  17.378 -0.0278 -0.1142 -0.1996
 7526SOL    HW134037   0.537   4.478  17.314 -1.0668  1.0781 -1.9423
 7526SOL    HW234038   0.481   4.616  17.322  0.1291 -0.4466 -0.7069
 7527SOL     OW34039   2.910   0.842  13.210  0.0462 -0.2557 -0.1019
 7527SOL    HW134040   2.978   0.800  13.262 -0.4137 -0.4066  0.3817
 7527SOL    HW234041   2.859   0.892  13.275 -1.8010 -2.8403  0.4276
 7528SOL     OW34042   1.609   1.252   7.353 -0.6756  0.6356 -0.3528
 7528SOL    HW134043   1.514   1.247   7.341 -0.5706 -0.2386 -0.7761
 7528SOL    HW234044   1.652   1.309   7.290  1.7799 -0.2416  0.5419
 7529SOL     OW34045   1.124   0.713  10.847  0.4775 -0.1222 -0.4083
 7529SOL    HW134046   1.050   0.653  10.850  0.2238  0.2073 -0.1440
 7529SOL    HW234047   1.109   0.757  10.931  0.7449 -0.2986 -0.2668
 7530SOL     OW34048   0.890   2.532   5.448  0.1431  0.5277 -0.1851
 7530SOL    HW134049   0.896   2.454   5.503 -1.2094  0.8327  0.3942
 7530SOL    HW234050   0.871   2.509   5.357  2.3854  1.3007 -0.8498
 7531SOL     OW34051   3.435   0.313   7.920 -0.1786 -0.0159  0.3660
 7531SOL    HW134052   3.529   0.330   7.908 -0.1767 -0.1017  0.2614
 7531SOL    HW234053   3.423   0.237   7.863 -0.8260 -0.7240  1.4463
 7532SOL     OW34054   3.522   0.416  14.009  0.2373  0.1797  0.8250
 7532SOL    HW134055   3.448   0.475  14.022  0.2455  0.5341 -0.7577
 7532SOL    HW234056   3.526   0.414  13.913 -0.3023  2.1421  0.7737
 7533SOL     OW34057   0.699   0.769   2.872 -0.1151  0.0375  0.2896
 7533SOL    HW134058   0.662   0.731   2.792  1.5634  1.1054 -0.9957
 7533SOL    HW234059   0.792   0.750   2.865 -0.2762 -0.8748  0.6383
 7534SOL     OW34060   2.328   0.536   5.787  0.0020  0.3210  0.0820
 7534SOL    HW134061   2.324   0.491   5.703  0.6781 -1.0468  0.7657
 7534SOL    HW234062   2.248   0.588   5.786  0.1760  0.5886  0.1477
 7535SOL     OW34063   1.276   1.511   1.601 -0.2911 -0.2974  0.1447
 7535SOL    HW134064   1.184   1.523   1.624  0.6811  0.0472  3.7510
 7535SOL    HW234065   1.324   1.512   1.684  0.1736  3.2749 -0.1357
 7536SOL     OW34066   2.119   0.366   7.819 -0.1256 -0.1377  0.7986
 7536SOL    HW134067   2.163   0.302   7.874 -0.6312 -0.1169  1.2254
 7536SOL    HW234068   2.041   0.371   7.874 -0.4974 -1.2441  0.3722
 7537SOL     OW34069   3.376   1.004   7.199 -0.4102 -0.1447 -0.7918
 7537SOL    HW134070   3.410   1.077   7.148  1.7761 -1.1345 -0.7364
 7537SOL    HW234071   3.336   0.947   7.132  0.3295  0.0087 -1.3601
 7538SOL     OW34072   0.379   2.284   5.836 -0.4403 -0.0479 -0.0793
 7538SOL    HW134073   0.445   2.216   5.826  0.8457  0.7869  2.9045
 7538SOL    HW234074   0.318   2.231   5.887  1.2495 -1.4629  0.4587
 7539SOL     OW34075   2.313   0.733   0.781  0.1310 -0.3203 -0.9258
 7539SOL    HW134076   2.350   0.696   0.701 -1.2868 -0.5805 -1.4571
 7539SOL    HW234077   2.221   0.708   0.776 -0.2644  1.0228 -0.4869
 7540SOL     OW34078   1.570   1.839  12.187  0.4373  0.1182  0.4534
 7540SOL    HW134079   1.631   1.793  12.130  0.5687  0.0921  0.6140
 7540SOL    HW234080   1.601   1.831  12.277 -1.1204 -0.6451  0.9251
 7541SOL     OW34081   2.355   3.720   8.170 -0.1951  0.0780  0.3680
 7541SOL    HW134082   2.406   3.651   8.212 -1.4047 -0.6768  0.5950
 7541SOL    HW234083   2.419   3.753   8.106 -1.0662 -0.9327 -1.0269
 7542SOL     OW34084   0.995   0.911  17.150  0.0557  0.1995  0.7817
 7542SOL    HW134085   0.902   0.901  17.172  0.5181  0.6069  2.9007
 7542SOL    HW234086   0.973   0.941  17.061  0.5099 -1.1764  0.1971
 7543SOL     OW34087   0.194   1.139   8.121  0.3618 -0.0849  0.1452
 7543SOL    HW134088   0.245   1.069   8.162 -1.3366 -1.0351  0.6274
 7543SOL    HW234089   0.237   1.143   8.036  2.1783 -0.3241  1.0628
 7544SOL     OW34090   1.991   3.467   0.089 -0.1448  0.2474  0.1410
 7544SOL    HW134091   2.039   3.548   0.104 -1.9923  1.7389 -2.1129
 7544SOL    HW234092   2.050   3.403   0.129  0.1389  0.7499  0.5250
 7545SOL     OW34093   3.152   2.346  12.782 -0.1488 -0.2162  0.1016
 7545SOL    HW134094   3.246   2.355  12.800 -0.2848  0.3967  0.5066
 7545SOL    HW234095   3.126   2.437  12.791  0.5061 -0.0797  0.6268
 7546SOL     OW34096   1.946   1.777   9.343  0.1266 -0.3099 -0.3967
 7546SOL    HW134097   1.889   1.769   9.267  1.3363  1.2206 -1.4577
 7546SOL    HW234098   1.892   1.843   9.386  1.1684  0.7164 -0.6959
 7547SOL     OW34099   1.633   3.418   7.061  0.3176  0.3628  0.0963
 7547SOL    HW134100   1.644   3.444   6.970 -0.8790  1.2688  0.2024
 7547SOL    HW234101   1.706   3.356   7.067  1.1297  1.2167 -0.8609
 7548SOL     OW34102   1.734   4.593   4.189  0.5387  0.1121 -0.1742
 7548SOL    HW134103   1.664   4.528   4.189 -0.1491  0.8504 -0.3203
 7548SOL    HW234104   1.724   4.634   4.275  1.3091 -0.6538  0.2746
 7549SOL     OW34105   4.722   0.562   4.993 -0.1065 -0.0786 -0.1168
 7549SOL    HW134106   4.660   0.568   4.920  0.6887 -1.1549 -0.8924
 7549SOL    HW234107   0.076   0.572   4.942 -1.3640 -0.0014 -2.1186
 7550SOL     OW34108   1.403   0.580   5.155 -0.4304  0.5052 -0.2135
 7550SOL    HW134109   1.378   0.670   5.174 -1.9260  0.0641 -0.0579
 7550SOL    HW234110   1.394   0.570   5.060 -1.3535  1.5674 -0.2430
 7551SOL     OW34111   1.404   4.557   3.556 -0.3920 -0.5494 -0.4606
 7551SOL    HW134112   1.410   4.613   3.479 -0.2617  1.2023  0.8226
 7551SOL    HW234113   1.491   4.569   3.595 -1.0972  2.5485  0.1602
 7552SOL     OW34114   0.971   0.673  11.889  0.1766  0.1301 -0.1257
 7552SOL    HW134115   1.028   0.746  11.911  1.6159 -0.9005 -0.4614
 7552SOL    HW234116   0.940   0.711  11.807  1.8260  2.9221  0.5630
 7553SOL     OW34117   2.910   3.633   7.762  0.8847  0.0236 -0.1684
 7553SOL    HW134118   2.888   3.540   7.759  1.9721 -0.2126 -0.9798
 7553SOL    HW234119   3.000   3.631   7.795  0.1275  0.7808  1.9600
 7554SOL     OW34120   2.252   3.633   7.875 -0.2927  0.0103 -0.1291
 7554SOL    HW134121   2.156   3.634   7.874 -0.2801  0.3267 -1.8011
 7554SOL    HW234122   2.269   3.666   7.963 -0.5707  0.5405 -0.2714
 7555SOL     OW34123   2.727   2.142   4.851 -0.1629 -0.1936 -0.2241
 7555SOL    HW134124   2.695   2.071   4.795 -0.0914 -0.8541  0.5810
 7555SOL    HW234125   2.655   2.204   4.836 -0.6202 -0.8560 -0.7571
 7556SOL     OW34126   2.568   4.590  10.850  0.1445  0.4956 -0.1464
 7556SOL    HW134127   2.656   4.563  10.824  0.2003  1.3011 -0.7724
 7556SOL    HW234128   2.545   4.666  10.797  0.4043  1.8797  1.7351
 7557SOL     OW34129   0.509   0.506   4.786  0.3541 -0.3672 -0.1359
 7557SOL    HW134130   0.468   0.576   4.735  0.2887 -0.9989 -0.9474
 7557SOL    HW234131   0.587   0.557   4.806 -1.3965  1.4668  1.9733
 7558SOL     OW34132   4.089   2.827   9.980 -1.0009  0.0983  0.1779
 7558SOL    HW134133   4.075   2.818  10.074 -1.6341 -0.8844 -0.0082
 7558SOL    HW234134   4.109   2.920   9.978  0.2133 -0.1783 -0.7925
 7559SOL     OW34135   1.694   1.148  10.291 -0.2501  0.2237 -0.2102
 7559SOL    HW134136   1.775   1.194  10.271 -0.0061 -0.1229 -0.0315
 7559SOL    HW234137   1.640   1.193  10.226 -1.1709 -1.1676 -0.4335
 7560SOL     OW34138   0.715   3.273   6.134  0.6117 -0.2246  0.0625
 7560SOL    HW134139   0.769   3.199   6.107  1.9845  0.8077 -0.0108
 7560SOL    HW234140   0.646   3.272   6.068  1.6051  2.0638 -1.0202
 7561SOL     OW34141   0.610   0.327   2.829  0.0751 -0.3523 -0.1040
 7561SOL    HW134142   0.682   0.266   2.847  0.0141  0.3776  2.7595
 7561SOL    HW234143   0.579   0.341   2.919 -1.2448 -2.4760 -0.2339
 7562SOL     OW34144   4.551   2.119   2.815  0.1860  0.1532 -0.2337
 7562SOL    HW134145   4.498   2.095   2.891 -0.3631  0.1599 -0.6098
 7562SOL    HW234146   4.625   2.063   2.840  1.4281  1.7188 -0.4419
 7563SOL     OW34147   1.936   0.716   3.000 -0.2738  0.0662 -0.1265
 7563SOL    HW134148   2.021   0.753   2.977  0.0714  0.1451  1.2641
 7563SOL    HW234149   1.907   0.676   2.918 -0.0022 -1.6527  0.6178
 7564SOL     OW34150   0.447   3.597  10.925  0.0240 -0.3936 -0.8071
 7564SOL    HW134151   0.467   3.670  10.866  0.1615 -0.5403 -0.9417
 7564SOL    HW234152   0.485   3.627  11.007  0.0263 -1.0453 -0.5697
 7565SOL     OW34153   0.845   0.741  15.825  0.0374  0.2704  0.3686
 7565SOL    HW134154   0.805   0.659  15.795  0.5438  0.5021 -0.9602
 7565SOL    HW234155   0.934   0.706  15.821  0.2360  0.8999 -0.6365
 7566SOL     OW34156   0.199   3.247   5.944  0.0023  0.1027  0.2184
 7566SOL    HW134157   0.282   3.211   5.912  0.8899  1.7291  0.6699
 7566SOL    HW234158   0.166   3.276   5.859  1.0278  0.9570  0.1061
 7567SOL     OW34159   2.279   2.086  11.453  0.2168 -0.3065 -0.2804
 7567SOL    HW134160   2.356   2.083  11.397  0.2591  2.2796 -0.3628
 7567SOL    HW234161   2.246   1.997  11.451 -1.7520  0.3688  2.1148
 7568SOL     OW34162   1.891   1.920   4.600  0.8035  0.1766  0.2913
 7568SOL    HW134163   1.895   1.987   4.669 -3.4941  0.4096  0.3182
 7568SOL    HW234164   1.981   1.925   4.567  0.5868 -2.3617 -0.6459
 7569SOL     OW34165   2.018   1.752  16.413  0.3700 -0.3291  0.4592
 7569SOL    HW134166   2.011   1.666  16.371 -1.2635 -0.6314  1.3477
 7569SOL    HW234167   2.044   1.810  16.342  2.5210 -1.5796  0.2449
 7570SOL     OW34168   0.340   0.841   2.741  0.2451 -0.2761  0.1736
 7570SOL    HW134169   0.377   0.929   2.739 -0.2161 -0.0570  1.5620
 7570SOL    HW234170   0.247   0.862   2.743 -0.0612 -1.5069 -0.9611
 7571SOL     OW34171   0.872   0.608   9.664  0.0318  0.0949  0.4015
 7571SOL    HW134172   0.916   0.654   9.735 -2.6570  0.2498  1.9457
 7571SOL    HW234173   0.900   0.656   9.585  1.6476  0.3986  1.1501
 7572SOL     OW34174   2.176   4.370   7.219  0.4274  0.2246  0.5773
 7572SOL    HW134175   2.082   4.389   7.223  0.3351 -0.5405  2.0905
 7572SOL    HW234176   2.213   4.433   7.281  0.4925  0.9966 -0.2431
 7573SOL     OW34177   4.288   2.820   3.599  0.0200  0.2641 -0.4163
 7573SOL    HW134178   4.251   2.774   3.674  0.4117  1.0156  0.2269
 7573SOL    HW234179   4.318   2.746   3.545 -1.0715  1.8991 -3.2820
 7574SOL     OW34180   4.668   2.797   9.340  0.5202 -0.3943  0.0556
 7574SOL    HW134181   0.002   2.748   9.396  2.7399  1.1516 -0.9523
 7574SOL    HW234182   4.605   2.732   9.310 -0.9440  0.8095  0.5416
 7575SOL     OW34183   2.819   0.319  13.799  0.0740  0.5366 -0.2583
 7575SOL    HW134184   2.853   0.256  13.863 -1.2189 -1.8767 -1.9734
 7575SOL    HW234185   2.753   0.366  13.850  0.0110 -0.7029  0.8211
 7576SOL     OW34186   2.442   2.909  16.568 -0.6554  0.0708 -0.5218
 7576SOL    HW134187   2.373   2.860  16.523 -0.2333 -0.1243 -0.9539
 7576SOL    HW234188   2.524   2.861  16.562 -0.4234  0.4645 -0.5315
 7577SOL     OW34189   4.097   3.193   8.793  0.5507 -0.0684 -0.5217
 7577SOL    HW134190   4.035   3.135   8.748 -1.5200  0.3082  1.8853
 7577SOL    HW234191   4.083   3.147   8.876  3.5779  1.0152  0.5774
 7578SOL     OW34192   1.711   0.957  14.188 -0.4354 -0.4109 -0.0707
 7578SOL    HW134193   1.639   1.013  14.160  1.4106  1.6687 -0.6480
 7578SOL    HW234194   1.728   0.900  14.113  0.5403  0.2275 -0.3384
 7579SOL     OW34195   1.208   0.543  16.611  0.3946  0.1806  0.1944
 7579SOL    HW134196   1.287   0.596  16.603 -0.0547  1.1910  2.5762
 7579SOL    HW234197   1.220   0.529  16.705  1.1850  1.9736  0.3378
 7580SOL     OW34198   1.948   3.108   4.242  0.5119 -0.1704 -0.3384
 7580SOL    HW134199   1.959   3.019   4.209  0.4472 -0.3397  0.0913
 7580SOL    HW234200   2.022   3.136   4.188  1.6077 -2.1085  0.1609
 7581SOL     OW34201   3.130   1.589  10.829 -0.0292  0.4785  0.0429
 7581SOL    HW134202   3.146   1.661  10.767 -1.5806  0.2508 -0.6180
 7581SOL    HW234203   3.211   1.545  10.804 -1.8863 -2.6256 -0.4829
 7582SOL     OW34204   1.586   3.398   0.393 -0.0084  0.2372  0.6143
 7582SOL    HW134205   1.581   3.492   0.411 -1.5423  0.6452 -1.9033
 7582SOL    HW234206   1.639   3.383   0.315  0.8916  1.0474  1.0723
 7583SOL     OW34207   0.782   2.609  10.315  0.4437  0.2546 -0.1038
 7583SOL    HW134208   0.767   2.558  10.394  1.3895 -1.4279 -1.0056
 7583SOL    HW234209   0.705   2.589  10.262  0.8974  0.1941 -0.7403
 7584SOL     OW34210   2.969   2.051   0.466  0.6350 -0.5934  0.5252
 7584SOL    HW134211   2.986   2.093   0.551 -1.9574 -0.9741  1.2496
 7584SOL    HW234212   2.875   2.035   0.458  0.5892 -0.7875  1.4135
 7585SOL     OW34213   0.875   2.826   2.573  0.2028 -0.0335  0.4702
 7585SOL    HW134214   0.791   2.813   2.529  0.7806  0.9421 -0.9013
 7585SOL    HW234215   0.916   2.903   2.533 -0.6857 -1.5324 -3.3493
 7586SOL     OW34216   1.714   3.617  17.399 -0.1921 -0.5550 -0.4428
 7586SOL    HW134217   1.784   3.568  17.356  1.5214  0.5596  1.0792
 7586SOL    HW234218   1.751   3.704  17.409  0.4050 -0.6957 -1.4141
 7587SOL     OW34219   1.909   3.444  16.918  0.2158  0.2109  0.7477
 7587SOL    HW134220   1.936   3.525  16.961 -3.2350  0.8254  1.7402
 7587SOL    HW234221   1.876   3.397  16.994  0.4681  2.9595  2.5452
 7588SOL     OW34222   2.514   1.517  11.636 -0.1009  0.4645 -0.4165
 7588SOL    HW134223   2.582   1.558  11.691  0.3793  1.5281 -1.8197
 7588SOL    HW234224   2.547   1.427  11.639 -0.6901  0.3040  1.2009
 7589SOL     OW34225   0.915   3.393   3.645 -0.5775  0.2576  0.3098
 7589SOL    HW134226   0.913   3.302   3.617  1.8228  0.8808 -1.8151
 7589SOL    HW234227   0.832   3.427   3.610 -1.0302  0.5629  1.6591
 7590SOL     OW34228   2.473   1.387  10.357  0.1765 -0.4466 -0.1449
 7590SOL    HW134229   2.509   1.474  10.374  0.4391 -0.7935  1.0816
 7590SOL    HW234230   2.554   1.337  10.351  0.7612  0.6157 -1.1086
 7591SOL     OW34231   3.299   2.107   6.080  0.4399  0.1868 -0.4304
 7591SOL    HW134232   3.272   2.182   6.027 -1.1767  1.9434  2.8099
 7591SOL    HW234233   3.378   2.137   6.125 -1.2203  1.9258  1.3511
 7592SOL     OW34234   1.504   2.971   7.251 -0.2229 -0.2500  0.6246
 7592SOL    HW134235   1.454   2.943   7.328 -0.5565  0.7017  0.7498
 7592SOL    HW234236   1.433   2.959   7.187  0.2404 -0.1917  0.0956
 7593SOL     OW34237   4.279   2.374   1.041 -0.4873 -0.1872 -0.2221
 7593SOL    HW134238   4.342   2.442   1.065  0.9437 -0.5209 -3.0043
 7593SOL    HW234239   4.206   2.425   1.007  0.1280  0.3307 -0.7670
 7594SOL     OW34240   1.906   4.007   5.328 -0.2337  0.4662 -0.5876
 7594SOL    HW134241   1.911   4.062   5.250  2.7736  0.3341 -0.5100
 7594SOL    HW234242   1.863   3.930   5.290 -0.5952  0.8055 -0.8640
 7595SOL     OW34243   3.158   1.258   8.205 -0.2940  0.3200  0.5878
 7595SOL    HW134244   3.067   1.233   8.215 -0.0588 -0.4216  0.8550
 7595SOL    HW234245   3.159   1.350   8.178 -0.8559  0.1102 -0.1397
 7596SOL     OW34246   1.803   2.790   3.504 -0.2034  0.6522 -0.3647
 7596SOL    HW134247   1.869   2.724   3.485 -2.1723 -1.1427 -1.0729
 7596SOL    HW234248   1.846   2.874   3.493  2.6374 -0.9146 -1.0657
 7597SOL     OW34249   3.749   0.670   4.588  0.0366 -0.2156  0.2186
 7597SOL    HW134250   3.699   0.589   4.600  1.1266 -0.6327  1.8819
 7597SOL    HW234251   3.781   0.676   4.678 -1.2073  1.6635  0.5302
 7598SOL     OW34252   2.686   3.233   4.641  0.3308  0.1671  0.1217
 7598SOL    HW134253   2.750   3.296   4.609  0.3141 -0.3289 -0.8873
 7598SOL    HW234254   2.697   3.226   4.736  1.0192  3.7893  0.3246
 7599SOL     OW34255   1.443   3.173  17.268  0.2171  0.1940  0.0676
 7599SOL    HW134256   1.356   3.194  17.303 -0.3440 -0.8280 -0.7272
 7599SOL    HW234257   1.470   3.104  17.328  1.1080 -1.5601 -2.3502
 7600SOL     OW34258   3.596   4.362   4.142 -0.5322 -0.0030  0.0092
 7600SOL    HW134259   3.630   4.357   4.052 -1.4082 -1.5267 -0.2395
 7600SOL    HW234260   3.583   4.269   4.163  3.7621  0.1918  3.4460
 7601SOL     OW34261   3.451   1.028   4.125  0.2913  0.0989  0.0203
 7601SOL    HW134262   3.453   1.117   4.089  0.0288  0.2942  0.4997
 7601SOL    HW234263   3.366   1.032   4.167 -0.7734  0.1932 -2.1624
 7602SOL     OW34264   1.187   1.158  17.461  0.1636  0.2203  0.0363
 7602SOL    HW134265   1.172   1.241  17.506  0.9660  0.1155  0.4956
 7602SOL    HW234266   1.276   1.159  17.427 -0.9056 -1.7590 -2.7819
 7603SOL     OW34267   2.790   0.160   4.564  0.0181 -0.1321 -0.0460
 7603SOL    HW134268   2.768   0.086   4.507  3.7975  0.1602 -1.8451
 7603SOL    HW234269   2.779   0.230   4.500 -0.3091 -0.1663 -0.0289
 7604SOL     OW34270   4.670   1.199   1.976 -0.2475  0.3034  0.5114
 7604SOL    HW134271   0.002   1.138   2.020 -3.3795 -3.2683 -0.3102
 7604SOL    HW234272   4.608   1.140   1.934 -1.0517  2.0407 -0.7555
 7605SOL     OW34273   2.838   1.584   7.536  0.7388  0.0346 -0.1291
 7605SOL    HW134274   2.764   1.586   7.596 -1.0027  0.0506 -2.3061
 7605SOL    HW234275   2.798   1.524   7.474  0.2564  0.3269 -0.1027
 7606SOL     OW34276   0.915   2.001   0.587 -0.4055  0.7675  0.0322
 7606SOL    HW134277   0.864   2.043   0.517 -1.8946 -0.5656  0.3043
 7606SOL    HW234278   0.932   2.072   0.649 -0.0855  2.1466 -1.6426
 7607SOL     OW34279   2.390   4.635  12.864 -0.3896  0.3097  0.2168
 7607SOL    HW134280   2.411   4.685  12.786  1.6303 -0.8433  0.0288
 7607SOL    HW234281   2.399   4.709  12.925  2.7491 -0.4034  0.5986
 7608SOL     OW34282   3.173   2.866   3.254 -0.5368  0.0009  0.1429
 7608SOL    HW134283   3.194   2.874   3.160  0.3624  0.8293  0.4129
 7608SOL    HW234284   3.122   2.944   3.276  2.1981  1.4651  1.2820
 7609SOL     OW34285   1.405   4.218   4.582  0.8131  0.4367 -0.4563
 7609SOL    HW134286   1.333   4.155   4.575  1.8228 -0.4374 -2.9341
 7609SOL    HW234287   1.357   4.301   4.571 -0.5652 -0.3814 -0.6532
 7610SOL     OW34288   0.436   0.758  16.978  0.0139  0.0799  0.2768
 7610SOL    HW134289   0.391   0.739  17.060 -0.0633 -1.7935 -0.1975
 7610SOL    HW234290   0.411   0.850  16.966 -2.2312 -0.3812  1.5255
 7611SOL     OW34291   1.912   4.715   3.776 -0.8059  0.1932 -0.6667
 7611SOL    HW134292   1.892   0.027   3.861 -3.1563 -1.0927 -0.6494
 7611SOL    HW234293   2.004   4.695   3.791 -0.1046  2.8648 -1.2981
 7612SOL     OW34294   2.051   2.854   8.744  0.5616  0.1533 -0.0194
 7612SOL    HW134295   2.082   2.838   8.833  0.2208 -2.7780 -0.4395
 7612SOL    HW234296   2.089   2.940   8.726  0.6336  0.3382  1.0462
 7613SOL     OW34297   0.936   2.536  12.949  0.3267  0.7990 -0.3474
 7613SOL    HW134298   0.944   2.621  12.991  1.4206  0.6960 -0.3378
 7613SOL    HW234299   0.946   2.472  13.019 -1.9128 -0.8899 -1.5603
 7614SOL     OW34300   1.822   2.687   4.780 -0.0595 -0.1583  0.3934
 7614SOL    HW134301   1.856   2.773   4.758 -1.6513  0.7704  1.5426
 7614SOL    HW234302   1.879   2.619   4.744  0.5778  0.1704  0.8014
 7615SOL     OW34303   4.713   1.979   8.098  0.2693 -0.4337 -0.1601
 7615SOL    HW134304   0.075   1.940   8.098  1.2614  1.8451  0.7886
 7615SOL    HW234305   4.669   1.903   8.136  0.2475  0.2763  1.2297
 7616SOL     OW34306   3.203   1.735   0.935 -0.4589  0.2881  0.2923
 7616SOL    HW134307   3.265   1.734   0.863  0.5269  0.0092  1.1540
 7616SOL    HW234308   3.142   1.667   0.906 -0.7396 -0.1688  1.9511
 7617SOL     OW34309   3.009   1.316   5.211  0.8220  1.1218  0.7130
 7617SOL    HW134310   3.044   1.399   5.242 -0.9205  3.1364 -2.6605
 7617SOL    HW234311   3.071   1.254   5.250  1.6651  1.0735 -0.7027
 7618SOL     OW34312   2.787   2.403   4.763 -0.1397 -0.1959  0.3003
 7618SOL    HW134313   2.803   2.315   4.796 -0.7238 -0.5758 -0.4104
 7618SOL    HW234314   2.852   2.424   4.696  2.6834 -2.4781  2.3495
 7619SOL     OW34315   0.859   2.108   9.484  0.4074 -0.0278  0.2313
 7619SOL    HW134316   0.947   2.088   9.454  1.3751  1.2093  2.2429
 7619SOL    HW234317   0.856   2.059   9.566  2.5922  0.2524  0.4653
 7620SOL     OW34318   2.151   0.528   4.146  0.2742  0.7526 -0.6623
 7620SOL    HW134319   2.090   0.598   4.168 -1.1582 -0.9527  0.7996
 7620SOL    HW234320   2.229   0.550   4.197 -0.0940 -2.0065  1.0746
 7621SOL     OW34321   1.797   1.261  15.053  0.4378 -0.6579  0.0845
 7621SOL    HW134322   1.718   1.244  15.003  1.4680 -4.7940 -0.1026
 7621SOL    HW234323   1.798   1.182  15.107 -1.2608 -0.7019  0.0443
 7622SOL     OW34324   0.611   3.251   4.937  0.2055  0.7645 -0.4676
 7622SOL    HW134325   0.619   3.346   4.927  0.0066  0.8846  0.5221
 7622SOL    HW234326   0.691   3.228   4.984  0.5043  4.3478  0.7756
 7623SOL     OW34327   1.452   2.098  14.765  0.0698  0.2516 -0.0009
 7623SOL    HW134328   1.379   2.146  14.805  0.9153  1.1814  0.4198
 7623SOL    HW234329   1.408   2.072  14.685 -0.7950 -0.8111  0.8210
 7624SOL     OW34330   1.691   2.804   8.551  0.4580 -0.0190 -0.2033
 7624SOL    HW134331   1.775   2.765   8.572  0.4296 -0.4782 -0.9438
 7624SOL    HW234332   1.690   2.884   8.604  0.0136  0.1659 -0.4890
 7625SOL     OW34333   2.456   0.784   2.848 -0.2131  0.1798  0.1649
 7625SOL    HW134334   2.532   0.831   2.883  0.2882 -0.4036 -0.1488
 7625SOL    HW234335   2.484   0.764   2.759  2.0115  0.8270  0.7274
 7626SOL     OW34336   3.452   2.543  14.910 -0.2852  0.2305  0.1422
 7626SOL    HW134337   3.368   2.551  14.865 -0.6425 -3.5384  0.1059
 7626SOL    HW234338   3.464   2.629  14.950 -0.0309  0.3216 -0.1307
 7627SOL     OW34339   1.459   0.243   9.396 -0.0642 -0.0115  0.6336
 7627SOL    HW134340   1.457   0.152   9.427 -2.2406  0.2738  1.3545
 7627SOL    HW234341   1.462   0.226   9.302  0.2309  2.4311  0.2089
 7628SOL     OW34342   1.586   0.752   6.697 -0.4729  0.1369  0.1131
 7628SOL    HW134343   1.672   0.793   6.711 -1.8069  1.0213  5.6499
 7628SOL    HW234344   1.555   0.751   6.787  3.7384  0.5567  1.5603
 7629SOL     OW34345   2.043   2.763   2.611  0.9164 -0.2213 -0.3478
 7629SOL    HW134346   2.050   2.818   2.533 -1.0698  2.7625  1.5710
 7629SOL    HW234347   2.058   2.824   2.683  1.3548 -2.5510  1.5160
 7630SOL     OW34348   3.872   0.883   5.728 -0.1426 -0.2650  0.0835
 7630SOL    HW134349   3.920   0.931   5.795 -1.0384  1.3216 -0.4048
 7630SOL    HW234350   3.868   0.791   5.753  1.0728  0.1224  1.7185
 7631SOL     OW34351   4.347   1.911   1.375 -0.7152 -0.3390 -0.1938
 7631SOL    HW134352   4.370   1.950   1.459 -0.0372 -1.2737  0.0582
 7631SOL    HW234353   4.299   1.981   1.331  0.2506  0.4973  0.0720
 7632SOL     OW34354   3.238   3.507   8.898  0.3199 -0.1311 -0.2578
 7632SOL    HW134355   3.177   3.487   8.968  1.0739 -1.5878 -0.0146
 7632SOL    HW234356   3.192   3.562   8.835 -2.0343 -2.1629 -0.3080
 7633SOL     OW34357   4.355   1.258  11.771 -0.6166 -0.2169  0.0945
 7633SOL    HW134358   4.361   1.279  11.678  1.5387  0.6008  0.4095
 7633SOL    HW234359   4.264   1.262  11.799 -0.0559  1.0942  1.7730
 7634SOL     OW34360   3.989   1.825  12.152  0.2650  0.1702 -0.4262
 7634SOL    HW134361   4.005   1.776  12.232 -0.5655 -1.4335 -1.2465
 7634SOL    HW234362   3.901   1.859  12.167 -0.9020 -2.4133 -1.5241
 7635SOL     OW34363   2.521   1.281   8.242 -0.1654 -0.2161 -0.1072
 7635SOL    HW134364   2.582   1.310   8.310 -1.1517 -0.8280  1.0484
 7635SOL    HW234365   2.579   1.283   8.166  1.3948  0.0951  1.0891
 7636SOL     OW34366   2.660   4.197  14.756 -0.0970 -0.4563 -0.4500
 7636SOL    HW134367   2.698   4.116  14.789 -2.4095 -1.2902  0.1252
 7636SOL    HW234368   2.576   4.181  14.797 -0.6262  2.2381 -0.4963
 7637SOL     OW34369   3.329   1.865   3.664 -0.1492  0.3628 -0.3476
 7637SOL    HW134370   3.358   1.801   3.599 -0.2993 -0.3478  0.2816
 7637SOL    HW234371   3.261   1.905   3.610  0.2507  1.9591  0.3635
 7638SOL     OW34372   0.118   2.540  15.948 -0.8455 -0.1853  0.3329
 7638SOL    HW134373   0.132   2.560  16.041 -0.2016  0.2723  0.1416
 7638SOL    HW234374   0.205   2.550  15.910 -1.7381  0.3343 -1.5511
 7639SOL     OW34375   1.105   1.017   5.545  0.1864  0.0470 -0.1812
 7639SOL    HW134376   1.181   1.040   5.492 -0.1716  2.8864  0.5340
 7639SOL    HW234377   1.042   1.010   5.473 -1.1374  0.1144  0.9685
 7640SOL     OW34378   1.197   1.956   3.625 -0.2778 -0.0123 -0.0204
 7640SOL    HW134379   1.189   2.027   3.560 -0.0357  0.4734  0.4860
 7640SOL    HW234380   1.229   2.001   3.703 -2.0874 -1.0571  1.3342
 7641SOL     OW34381   3.684   1.603   3.585 -0.5862  0.1442 -0.4350
 7641SOL    HW134382   3.599   1.645   3.599 -0.5326 -0.0604  0.5127
 7641SOL    HW234383   3.740   1.679   3.567 -1.2011  0.1259 -2.3957
 7642SOL     OW34384   0.938   1.278   7.678  0.3841 -0.3315  0.0480
 7642SOL    HW134385   0.943   1.359   7.729 -0.0452 -0.1370 -0.2202
 7642SOL    HW234386   1.015   1.235   7.714  0.6527  0.1310  0.0187
 7643SOL     OW34387   4.612   3.882   4.416  0.4885  0.3586  0.1025
 7643SOL    HW134388   4.612   3.906   4.323 -2.6083 -1.0443 -0.2625
 7643SOL    HW234389   4.553   3.948   4.451  2.5058  2.4869 -0.5719
 7644SOL     OW34390   2.450   3.062   8.636  0.5020  0.5604  0.5733
 7644SOL    HW134391   2.387   3.071   8.708  0.7142  2.1200  0.5627
 7644SOL    HW234392   2.435   3.146   8.592  1.3919  0.9433  1.0064
 7645SOL     OW34393   2.108   4.213   8.276  0.2637 -0.6676 -0.8829
 7645SOL    HW134394   2.164   4.136   8.268  0.8513 -0.4688  1.2344
 7645SOL    HW234395   2.157   4.269   8.336 -0.9591 -0.0473 -0.4688
 7646SOL     OW34396   4.395   4.599   5.892  0.6136 -0.2360 -0.5936
 7646SOL    HW134397   4.451   4.586   5.969 -1.3752 -0.0111  0.9036
 7646SOL    HW234398   4.313   4.577   5.937  0.5324  2.4984  0.6000
 7647SOL     OW34399   2.006   4.004   4.405 -0.9378 -0.3417  0.2094
 7647SOL    HW134400   2.097   4.030   4.395 -1.3987  0.1320 -2.8916
 7647SOL    HW234401   2.022   3.914   4.434 -0.7458 -0.9262 -1.7134
 7648SOL     OW34402   1.299   4.694   8.864  0.2501  0.2357  0.5789
 7648SOL    HW134403   1.242   0.033   8.904  1.7421  1.1558  1.2388
 7648SOL    HW234404   1.233   4.629   8.843  0.9199 -0.4168  0.4755
 7649SOL     OW34405   3.961   1.999   5.045  0.3596  0.1971 -0.0209
 7649SOL    HW134406   3.941   1.944   5.121 -1.0896  0.1606 -0.4229
 7649SOL    HW234407   3.901   1.975   4.974 -0.7302  0.7154  0.7170
 7650SOL     OW34408   1.187   2.459  17.623 -0.1249 -0.6022  0.3198
 7650SOL    HW134409   1.196   2.552  17.642 -0.4552 -0.8796  1.8131
 7650SOL    HW234410   1.237   2.431  17.699  0.5832  2.5046  0.9955
 7651SOL     OW34411   2.015   0.783   1.312 -0.0859  0.1557  0.1400
 7651SOL    HW134412   2.005   0.852   1.247  1.0241 -0.7074 -0.9275
 7651SOL    HW234413   1.983   0.820   1.395 -0.1038 -0.6682  0.5079
 7652SOL     OW34414   3.812   0.681   4.851 -0.2437 -0.1799  0.6106
 7652SOL    HW134415   3.872   0.741   4.895 -1.3648  0.9189  0.6552
 7652SOL    HW234416   3.808   0.600   4.901 -1.3655 -1.0770 -0.9115
 7653SOL     OW34417   3.889   0.722   3.088 -0.0542 -0.2375 -0.1626
 7653SOL    HW134418   3.794   0.733   3.088 -0.0796 -0.5474  1.9576
 7653SOL    HW234419   3.906   0.677   3.171  0.6382  1.7146  0.7533
 7654SOL     OW34420   1.505   2.204   4.755  0.2385 -0.2115  0.1668
 7654SOL    HW134421   1.422   2.164   4.731 -0.5049  1.2786  0.2784
 7654SOL    HW234422   1.513   2.275   4.692 -1.5671 -1.4687 -1.4727
 7655SOL     OW34423   4.613   4.319  10.095 -0.2013 -0.2389 -0.3096
 7655SOL    HW134424   4.698   4.355  10.120  0.1197  0.7524 -2.8074
 7655SOL    HW234425   4.597   4.256  10.165 -0.2122  1.1920  1.0013
 7656SOL     OW34426   4.603   4.062   5.413  0.0413 -0.2801 -0.2961
 7656SOL    HW134427   4.676   4.124   5.421 -0.4154  0.5618 -2.8537
 7656SOL    HW234428   4.600   4.053   5.318 -0.3064  3.4924 -0.6714
 7657SOL     OW34429   1.155   1.854   5.222 -0.0669 -0.2989 -0.2707
 7657SOL    HW134430   1.175   1.932   5.171  0.6149 -0.8011 -0.7767
 7657SOL    HW234431   1.236   1.804   5.217 -0.2060 -0.6932  1.2714
 7658SOL     OW34432   3.305   2.593   2.424 -0.1127  0.5834  0.1722
 7658SOL    HW134433   3.250   2.527   2.381 -0.1701  0.6286  0.1751
 7658SOL    HW234434   3.359   2.622   2.352  1.1341 -0.3208  0.7381
 7659SOL     OW34435   2.359   0.983  15.450 -0.2685  0.5236 -0.2714
 7659SOL    HW134436   2.453   0.990  15.466  0.0375 -0.8101 -1.4525
 7659SOL    HW234437   2.327   1.065  15.486  1.6052  0.8241  0.7111
 7660SOL     OW34438   4.238   2.854   5.986  0.3562  0.1654  0.1879
 7660SOL    HW134439   4.195   2.801   6.053 -2.2647 -0.7222 -2.1881
 7660SOL    HW234440   4.173   2.852   5.915 -2.7784  2.1458  2.9892
 7661SOL     OW34441   0.846   1.758  17.210  0.3526  0.0745  0.1481
 7661SOL    HW134442   0.878   1.718  17.129 -2.6952  0.5348 -1.2807
 7661SOL    HW234443   0.847   1.853  17.197 -0.5293  0.0940  0.2146
 7662SOL     OW34444   4.652   2.897  11.300  0.4030 -0.2012  0.0447
 7662SOL    HW134445   4.702   2.964  11.347 -0.1902  0.8547 -0.8419
 7662SOL    HW234446   4.619   2.948  11.227 -1.8129 -2.0073 -0.2272
 7663SOL     OW34447   3.409   0.809   9.819  0.2720  0.6050  0.2478
 7663SOL    HW134448   3.343   0.806   9.750  0.5099  2.6022 -0.0808
 7663SOL    HW234449   3.427   0.902   9.801 -2.6657  1.4807  1.8173
 7664SOL     OW34450   0.395   0.396   6.410 -0.5392 -0.0772  0.0544
 7664SOL    HW134451   0.421   0.463   6.473  1.7433  0.0951 -1.0737
 7664SOL    HW234452   0.329   0.351   6.463  0.0507 -0.6378  0.3119
 7665SOL     OW34453   2.613   0.554  14.816  0.0597 -0.0167  0.0970
 7665SOL    HW134454   2.539   0.499  14.841 -1.0967  1.6228  0.2893
 7665SOL    HW234455   2.663   0.545  14.897  0.7855  0.7075 -0.2708
 7666SOL     OW34456   4.206   0.941  10.672  0.0540 -0.0176 -0.6170
 7666SOL    HW134457   4.189   0.955  10.765 -0.0225 -0.9898 -0.4819
 7666SOL    HW234458   4.299   0.961  10.666 -0.4858  2.7994  0.7572
 7667SOL     OW34459   0.672   4.172  15.021  0.6352 -0.2127 -0.2442
 7667SOL    HW134460   0.762   4.176  14.988  0.1224  1.4683 -1.4235
 7667SOL    HW234461   0.652   4.079  15.011 -0.1583 -0.2175  1.5095
 7668SOL     OW34462   4.417   0.289   8.613 -0.7427  0.4785 -0.0800
 7668SOL    HW134463   4.354   0.221   8.637 -0.0789 -0.6511 -1.5560
 7668SOL    HW234464   4.490   0.228   8.602 -0.7187  0.6188 -0.6729
 7669SOL     OW34465   4.593   1.748   3.972 -0.8382  0.5028  0.5894
 7669SOL    HW134466   4.525   1.689   3.941 -0.3986 -1.4639  3.3505
 7669SOL    HW234467   4.566   1.833   3.935  3.2170  0.8416 -1.5547
 7670SOL     OW34468   0.642   0.732  14.863 -0.4117  0.6373 -0.2785
 7670SOL    HW134469   0.673   0.646  14.833  2.8660  0.7688  2.6642
 7670SOL    HW234470   0.654   0.728  14.957  1.1923 -1.6926 -0.5659
 7671SOL     OW34471   1.992   3.567   4.710  0.0858 -0.4711  0.1109
 7671SOL    HW134472   1.937   3.497   4.676 -0.3233  0.7485 -1.6798
 7671SOL    HW234473   2.080   3.528   4.714 -0.2271 -1.0719  1.1838
 7672SOL     OW34474   0.125   3.117   7.450 -0.1052  0.2893 -0.0683
 7672SOL    HW134475   0.220   3.133   7.446  0.0034 -0.8324 -1.8286
 7672SOL    HW234476   0.099   3.181   7.383 -0.3094  0.9225  0.6165
 7673SOL     OW34477   0.395   2.446   1.599 -0.0605 -0.1694  0.2510
 7673SOL    HW134478   0.356   2.407   1.521 -1.8281  0.0491  1.0392
 7673SOL    HW234479   0.466   2.495   1.558 -0.2967  0.0817  0.1485
 7674SOL     OW34480   0.554   3.169   5.531  0.4442  0.0914 -0.1502
 7674SOL    HW134481   0.568   3.247   5.476  0.7440  1.9979  2.6340
 7674SOL    HW234482   0.573   3.103   5.464 -3.3075  0.8828 -1.9777
 7675SOL     OW34483   4.258   3.123   8.553 -0.1326  0.1216 -0.1466
 7675SOL    HW134484   4.183   3.159   8.506 -1.3031 -2.3765 -0.1933
 7675SOL    HW234485   4.233   3.126   8.646  0.7561 -1.0308  0.1237
 7676SOL     OW34486   1.042   0.155   2.547 -0.8014 -0.0218 -0.5449
 7676SOL    HW134487   0.956   0.114   2.540  0.1613 -2.0086 -0.7257
 7676SOL    HW234488   1.100   0.079   2.540  0.4805  0.7505  1.5599
 7677SOL     OW34489   3.835   0.725   2.421 -0.4339  0.8288  0.1845
 7677SOL    HW134490   3.751   0.693   2.456  0.2097  1.0017  1.9007
 7677SOL    HW234491   3.830   0.819   2.438 -0.7388  0.6825  0.8878
 7678SOL     OW34492   2.498   3.256  16.207  0.4665  0.6383  0.6931
 7678SOL    HW134493   2.486   3.350  16.215 -2.1912  0.3910 -0.3453
 7678SOL    HW234494   2.459   3.230  16.290 -0.6213  1.9404  0.5700
 7679SOL     OW34495   2.662   2.007   5.701  0.8006 -0.1355 -0.1184
 7679SOL    HW134496   2.686   1.931   5.647 -1.2589 -0.4515 -0.6024
 7679SOL    HW234497   2.753   2.027   5.720  0.3262  2.8993 -1.1317
 7680SOL     OW34498   4.260   1.457  17.253 -0.1872  0.3199  0.0067
 7680SOL    HW134499   4.198   1.409  17.198 -0.8381 -0.9317  1.8474
 7680SOL    HW234500   4.341   1.409  17.232 -0.3074 -0.3189  0.9866
 7681SOL     OW34501   0.615   1.062   3.463  0.3459  0.4031 -0.3908
 7681SOL    HW134502   0.606   0.972   3.431 -3.6514 -0.0080  1.9037
 7681SOL    HW234503   0.596   1.042   3.555  0.2156 -0.5130 -0.6169
 7682SOL     OW34504   4.477   3.818   8.496  0.3948  0.6403 -0.1166
 7682SOL    HW134505   4.398   3.767   8.512  0.4419  0.4909 -0.3663
 7682SOL    HW234506   4.524   3.743   8.458 -1.5679 -1.4697  1.6222
 7683SOL     OW34507   2.300   4.013   8.286 -0.1064  0.5674  0.1656
 7683SOL    HW134508   2.342   3.927   8.275 -0.2680  0.3155  1.5221
 7683SOL    HW234509   2.369   4.059   8.333  1.0966 -0.6755 -0.3681
 7684SOL     OW34510   3.702   0.176   6.650 -0.4100 -0.5062  0.3691
 7684SOL    HW134511   3.754   0.254   6.631 -2.7900  0.1104 -3.5417
 7684SOL    HW234512   3.779   0.118   6.643 -1.9246 -2.2882 -1.5856
 7685SOL     OW34513   1.472   0.679  11.265 -0.0745 -0.0668 -0.0426
 7685SOL    HW134514   1.426   0.622  11.204 -2.3299  1.5327  0.1551
 7685SOL    HW234515   1.564   0.670  11.240 -0.2909  0.4592 -1.0326
 7686SOL     OW34516   4.333   3.693  16.231  0.2309 -0.3481  0.4535
 7686SOL    HW134517   4.246   3.725  16.254 -0.0943 -0.6508 -0.3985
 7686SOL    HW234518   4.371   3.659  16.313 -1.4569 -2.2266  0.4455
 7687SOL     OW34519   1.860   3.397  10.662  0.1180  0.3560  0.4228
 7687SOL    HW134520   1.855   3.351  10.746  2.2918 -1.4159 -0.4291
 7687SOL    HW234521   1.867   3.319  10.608 -0.3228  0.5525  0.0780
 7688SOL     OW34522   1.981   3.697   8.503  0.0132  0.0196  0.2232
 7688SOL    HW134523   2.026   3.686   8.419  0.3912 -1.0474  0.5633
 7688SOL    HW234524   1.951   3.787   8.492 -0.2703  0.0749  1.3926
 7689SOL     OW34525   0.343   1.673   5.588  0.1292 -0.7163  0.1909
 7689SOL    HW134526   0.276   1.690   5.653  0.8565  1.9730  0.2130
 7689SOL    HW234527   0.408   1.742   5.601 -1.6891  1.3940 -2.1571
 7690SOL     OW34528   1.978   0.897   9.204 -0.1278  0.2891  0.3492
 7690SOL    HW134529   1.900   0.932   9.247 -0.6979 -0.9543  0.3164
 7690SOL    HW234530   2.015   0.977   9.165  1.0067  0.3429  1.5198
 7691SOL     OW34531   3.806   1.691  10.565  0.1796 -0.4542  0.5409
 7691SOL    HW134532   3.719   1.719  10.592 -1.3774 -2.4402 -2.3747
 7691SOL    HW234533   3.797   1.696  10.469 -0.6391  0.6486  0.6726
 7692SOL     OW34534   0.690   2.185   7.869 -0.1104  0.0132 -0.5183
 7692SOL    HW134535   0.757   2.176   7.800  0.3097 -4.6579  0.4948
 7692SOL    HW234536   0.654   2.097   7.863  1.1453 -0.4426 -1.4983
 7693SOL     OW34537   1.526   1.826   8.367  0.4244 -0.1264  0.4358
 7693SOL    HW134538   1.501   1.788   8.451  3.0463 -0.5202  1.0341
 7693SOL    HW234539   1.466   1.899   8.382  2.7769  2.2555 -1.7538
 7694SOL     OW34540   4.455   3.690   6.074  0.9832 -0.1092 -0.3908
 7694SOL    HW134541   4.496   3.607   6.099  0.7106  0.1022  0.7747
 7694SOL    HW234542   4.402   3.660   6.000  2.6658 -2.3758 -0.6814
 7695SOL     OW34543   2.463   2.879   7.452  0.1585 -0.2334 -0.2691
 7695SOL    HW134544   2.397   2.842   7.394 -1.1737 -0.5605  1.4302
 7695SOL    HW234545   2.437   2.843   7.537  0.8242  0.0286  0.0442
 7696SOL     OW34546   0.315   4.338  16.294  0.0607  0.5624  0.3990
 7696SOL    HW134547   0.239   4.332  16.351 -0.4138  2.3151 -0.0508
 7696SOL    HW234548   0.334   4.245  16.296  1.1282  0.6764 -3.3572
 7697SOL     OW34549   4.439   3.558   4.595  0.1289  0.2921  0.2343
 7697SOL    HW134550   4.410   3.600   4.514 -0.4412  1.4104  1.0268
 7697SOL    HW234551   4.532   3.542   4.581  0.7934  1.9462  2.7559
 7698SOL     OW34552   4.473   2.977   6.487  0.1750  0.3054  0.0469
 7698SOL    HW134553   4.539   2.919   6.526  1.6255  1.2412 -1.0203
 7698SOL    HW234554   4.424   2.920   6.428 -0.8602  1.1725  0.0831
 7699SOL     OW34555   1.600   1.483   7.538  0.5472  0.0312 -0.0411
 7699SOL    HW134556   1.593   1.392   7.511  0.8528 -0.2008  0.6703
 7699SOL    HW234557   1.510   1.517   7.537 -0.3121 -2.2423  0.8962
 7700SOL     OW34558   4.608   0.674   2.505 -0.2110 -0.3485 -0.1371
 7700SOL    HW134559   4.660   0.685   2.426  2.4427 -1.3967  1.4811
 7700SOL    HW234560   4.522   0.703   2.475 -0.3918  2.1515  2.7232
 7701SOL     OW34561   2.299   3.539   4.781  0.3589  0.0083 -0.0173
 7701SOL    HW134562   2.362   3.602   4.746 -0.1133  0.3414 -0.2546
 7701SOL    HW234563   2.358   3.463   4.786  0.3147  0.0035  0.4604
 7702SOL     OW34564   0.390   3.525  15.787 -0.0760 -0.0595  0.4048
 7702SOL    HW134565   0.454   3.589  15.756 -1.0032  0.1607 -1.0759
 7702SOL    HW234566   0.431   3.497  15.869 -0.2740  0.5460  0.7094
 7703SOL     OW34567   0.943   2.739   9.579  0.4093 -0.0924  0.6413
 7703SOL    HW134568   0.942   2.806   9.511 -1.6093  0.6382  1.3938
 7703SOL    HW234569   0.916   2.800   9.648 -2.3221  0.7272 -1.1582
 7704SOL     OW34570   1.147   2.900   8.941  0.3172  0.0518  0.0924
 7704SOL    HW134571   1.229   2.951   8.939 -1.3132  2.5456 -2.5120
 7704SOL    HW234572   1.151   2.854   8.857  1.7659  1.8605 -0.8508
 7705SOL     OW34573   2.758   2.133   2.835  0.6437  0.7062  0.0880
 7705SOL    HW134574   2.720   2.187   2.766 -0.1979  0.0201  0.0253
 7705SOL    HW234575   2.694   2.063   2.839  1.4570 -0.2527 -3.3471
 7706SOL     OW34576   2.349   1.301   1.595 -0.2076  0.0260 -0.4299
 7706SOL    HW134577   2.422   1.251   1.560  0.3373  0.3536  0.2187
 7706SOL    HW234578   2.395   1.363   1.653  1.5536 -1.5533 -0.1352
 7707SOL     OW34579   4.297   1.215   1.212  0.4962  0.0345 -0.1582
 7707SOL    HW134580   4.352   1.190   1.139  2.2400  0.5129  0.9838
 7707SOL    HW234581   4.325   1.307   1.219 -5.2815  1.8885 -0.7063
 7708SOL     OW34582   1.636   1.346   5.267 -0.5774  0.7739 -0.8139
 7708SOL    HW134583   1.684   1.398   5.331  0.0040 -1.2063  0.3561
 7708SOL    HW234584   1.693   1.270   5.256  1.3756  2.0710  0.3700
 7709SOL     OW34585   0.952   1.566   4.957  0.0233 -0.0040 -0.4260
 7709SOL    HW134586   0.940   1.500   4.889 -0.1195 -0.2703 -0.1391
 7709SOL    HW234587   1.047   1.557   4.965 -0.0401 -0.4242 -0.1444
 7710SOL     OW34588   2.174   0.703   2.090  0.3498 -0.1266 -0.1458
 7710SOL    HW134589   2.170   0.735   2.000 -1.3289  0.8286  0.2557
 7710SOL    HW234590   2.086   0.683   2.124  0.0051  1.3570 -0.1515
 7711SOL     OW34591   2.798   2.978   4.286  0.5521 -0.0349 -0.0719
 7711SOL    HW134592   2.721   2.943   4.330 -1.0182  4.8388  1.1225
 7711SOL    HW234593   2.851   2.899   4.283 -0.3314 -0.5696 -1.8700
 7712SOL     OW34594   0.593   0.070   2.393 -0.1173  0.5815  0.2206
 7712SOL    HW134595   0.602   0.081   2.487  2.9325  0.9436 -0.1028
 7712SOL    HW234596   0.544   0.149   2.369 -1.0188  0.6310  2.2845
 7713SOL     OW34597   0.374   1.060  16.366 -0.4860 -0.0147 -0.2681
 7713SOL    HW134598   0.431   0.987  16.390 -0.9332 -0.3658 -0.2837
 7713SOL    HW234599   0.426   1.104  16.299 -0.9657 -1.0079 -1.2806
 7714SOL     OW34600   4.560   0.911   9.954 -0.2212  0.3039  0.0489
 7714SOL    HW134601   4.479   0.959   9.934 -0.3805 -0.9903 -2.4545
 7714SOL    HW234602   4.629   0.970   9.924 -0.9488 -0.0023 -2.2723
 7715SOL     OW34603   1.034   0.678  15.522  0.4892  0.3688 -0.2375
 7715SOL    HW134604   1.064   0.660  15.611  0.6464 -0.1225 -0.3879
 7715SOL    HW234605   1.100   0.745  15.503  1.0471 -0.5530 -1.5564
 7716SOL     OW34606   1.260   2.788  12.533  0.9271  0.2502 -0.0278
 7716SOL    HW134607   1.351   2.770  12.513  0.7369  0.1624 -0.8150
 7716SOL    HW234608   1.241   2.839  12.454  1.8411 -0.5496 -0.7718
 7717SOL     OW34609   3.340   3.532   5.657 -0.0862 -0.1627 -0.3365
 7717SOL    HW134610   3.345   3.444   5.620 -0.9500  0.3708 -1.7128
 7717SOL    HW234611   3.366   3.514   5.747  1.5225 -0.1692 -0.8088
 7718SOL     OW34612   4.686   2.952   3.414 -0.4733  0.1021 -0.8444
 7718SOL    HW134613   0.021   2.937   3.342  0.6968  1.6807 -0.1826
 7718SOL    HW234614   0.026   2.946   3.483 -1.5027  2.6918  0.3601
 7719SOL     OW34615   4.022   2.997   4.992 -0.4091 -0.4247 -0.1538
 7719SOL    HW134616   4.093   2.984   5.055 -0.9257  0.4927  0.6312
 7719SOL    HW234617   3.945   2.984   5.047  0.2898  0.6336  1.1069
 7720SOL     OW34618   1.509   3.716   0.703  0.1586 -0.2427  0.2972
 7720SOL    HW134619   1.529   3.690   0.613 -0.7963  0.2953 -0.0751
 7720SOL    HW234620   1.415   3.698   0.710  0.6114 -2.6943  0.0200
 7721SOL     OW34621   1.003   1.515   1.075 -0.1565  0.8639  0.0784
 7721SOL    HW134622   0.923   1.543   1.120 -0.0719  1.2694 -0.0270
 7721SOL    HW234623   1.062   1.581   1.110  0.5711  0.2009  0.0801
 7722SOL     OW34624   1.238   1.161   9.384  0.3246  0.4873  0.0343
 7722SOL    HW134625   1.247   1.121   9.471 -0.3348 -1.5760 -0.8713
 7722SOL    HW234626   1.219   1.085   9.330  0.2215 -0.1339  0.9471
 7723SOL     OW34627   0.429   1.188   3.958  0.3242 -0.1565 -0.2066
 7723SOL    HW134628   0.524   1.200   3.950  0.2595  2.5503  3.2336
 7723SOL    HW234629   0.422   1.097   3.984  0.7926 -0.3743 -0.8439
 7724SOL     OW34630   4.247   3.586   1.120  0.0608  0.0899  0.1107
 7724SOL    HW134631   4.328   3.561   1.165 -0.7209 -1.5185  0.6397
 7724SOL    HW234632   4.185   3.589   1.193 -0.3058  1.0092 -0.2340
 7725SOL     OW34633   1.767   0.573   4.104 -0.7461  0.2235 -0.3491
 7725SOL    HW134634   1.680   0.561   4.143 -0.5902 -0.0845 -0.0925
 7725SOL    HW234635   1.755   0.505   4.038  0.2279 -0.6485  0.3622
 7726SOL     OW34636   1.485   1.680   9.060  0.5291  0.4019 -0.0854
 7726SOL    HW134637   1.419   1.694   8.991 -1.2287 -1.2403  1.2411
 7726SOL    HW234638   1.443   1.617   9.118  2.7304 -0.4701  0.5375
 7727SOL     OW34639   4.677   3.361   1.567 -0.2730 -0.1887 -0.2993
 7727SOL    HW134640   0.008   3.438   1.557 -1.0976  0.2945 -1.3642
 7727SOL    HW234641   4.627   3.378   1.647 -0.6841 -0.6806 -0.4491
 7728SOL     OW34642   0.294   0.435  12.177  0.0258  0.4049 -0.1517
 7728SOL    HW134643   0.303   0.366  12.111 -0.5146 -0.0040  0.1995
 7728SOL    HW234644   0.384   0.468  12.186  0.0087  0.6452 -0.8921
 7729SOL     OW34645   1.532   1.359   4.062  0.3128  0.8133 -0.0141
 7729SOL    HW134646   1.536   1.265   4.080  0.7277  0.5770 -1.3492
 7729SOL    HW234647   1.527   1.365   3.967 -0.1271 -0.8444 -0.1006
 7730SOL     OW34648   1.528   4.561   5.296 -0.4172 -0.1423 -0.8029
 7730SOL    HW134649   1.461   4.622   5.265 -0.2510  0.8352  0.7600
 7730SOL    HW234650   1.538   4.496   5.227 -0.8790 -1.2432  0.1590
 7731SOL     OW34651   4.637   3.056   6.289 -0.9591  0.1805 -0.3760
 7731SOL    HW134652   4.692   3.065   6.366 -0.9225 -0.9272 -0.2774
 7731SOL    HW234653   4.552   3.077   6.328 -0.6069 -1.7987  1.4315
 7732SOL     OW34654   0.208   3.079   7.871  0.3806  0.1361 -0.0477
 7732SOL    HW134655   0.186   3.008   7.930  0.7191  0.7144  0.7687
 7732SOL    HW234656   0.146   3.052   7.803 -0.7282 -0.5072  1.2222
 7733SOL     OW34657   4.640   0.897   3.887  0.0327 -0.6314  0.0802
 7733SOL    HW134658   4.708   0.830   3.883  0.1716 -0.5517  1.0079
 7733SOL    HW234659   4.572   0.865   3.828  1.2745 -1.2564 -1.0241
 7734SOL     OW34660   2.325   1.999   3.380 -0.2526 -0.3382  0.3739
 7734SOL    HW134661   2.266   1.972   3.451 -1.6842 -1.6949 -1.3423
 7734SOL    HW234662   2.267   1.993   3.304 -1.2943  1.0417  1.0616
 7735SOL     OW34663   0.073   3.576   5.822  0.0127 -0.0301 -0.3190
 7735SOL    HW134664   4.711   3.600   5.796 -0.3602 -1.0441  0.0173
 7735SOL    HW234665   0.064   3.486   5.791 -1.2618  0.0064 -0.0374
 7736SOL     OW34666   3.225   1.416  14.581  0.4024  0.4174 -0.0551
 7736SOL    HW134667   3.133   1.437  14.597  0.8622  1.5936  0.9217
 7736SOL    HW234668   3.229   1.327  14.616  3.1062  1.0172  1.1294
 7737SOL     OW34669   4.039   1.548   3.866 -0.1875 -0.1072  0.0444
 7737SOL    HW134670   4.082   1.485   3.924  0.1702 -0.7466 -0.9254
 7737SOL    HW234671   3.954   1.507   3.850 -0.3594 -0.1615  1.0945
 7738SOL     OW34672   3.174   2.849   2.244  0.2389  0.0356  1.1770
 7738SOL    HW134673   3.188   2.844   2.149 -1.8048 -1.0882  0.9377
 7738SOL    HW234674   3.138   2.763   2.267 -0.4852  0.3075  1.0241
 7739SOL     OW34675   0.738   3.908  16.003 -0.4415 -0.5648 -0.6968
 7739SOL    HW134676   0.809   3.966  15.978 -0.9389 -0.4830 -1.9257
 7739SOL    HW234677   0.778   3.849  16.067 -0.4406 -2.3110 -2.2728
 7740SOL     OW34678   1.857   4.316   9.311  0.1125  0.3947 -0.1423
 7740SOL    HW134679   1.767   4.336   9.284  0.3556  0.9100 -0.5669
 7740SOL    HW234680   1.911   4.313   9.232  1.2892 -1.0935  0.7069
 7741SOL     OW34681   2.600   3.986   8.323  0.0048 -0.0886  0.0271
 7741SOL    HW134682   2.627   3.917   8.263 -0.7648  0.5992 -1.1123
 7741SOL    HW234683   2.641   4.059   8.276  0.7693 -1.0183 -0.7440
 7742SOL     OW34684   3.468   2.378  11.027 -0.3235  0.0221 -0.1927
 7742SOL    HW134685   3.490   2.404  11.116 -2.2484 -1.3649  0.6663
 7742SOL    HW234686   3.458   2.283  11.037  0.5891 -0.3101 -2.2302
 7743SOL     OW34687   2.830   4.184   7.128  0.2317  0.1677  0.0399
 7743SOL    HW134688   2.851   4.129   7.053 -2.2554  1.7182 -1.7789
 7743SOL    HW234689   2.745   4.145   7.148  1.4663 -2.4473  0.3248
 7744SOL     OW34690   4.635   0.494   3.397  0.2695  0.5443  0.0375
 7744SOL    HW134691   4.572   0.562   3.421 -0.5527 -0.6149  1.1629
 7744SOL    HW234692   4.617   0.481   3.304 -0.8070  4.7905 -0.3752
 7745SOL     OW34693   1.884   4.218   1.820  1.1019  0.6737 -0.4476
 7745SOL    HW134694   1.975   4.235   1.844  1.0842 -0.0920  0.1758
 7745SOL    HW234695   1.878   4.162   1.742  2.8898  1.8709 -1.4350
 7746SOL     OW34696   4.100   2.397   9.822 -0.6332  0.0188 -0.0754
 7746SOL    HW134697   4.146   2.327   9.869  0.5353  0.3091 -0.7715
 7746SOL    HW234698   4.035   2.341   9.780 -0.1854 -2.4379  2.4507
 7747SOL     OW34699   1.220   1.113   3.776  0.3967  0.4866 -0.3712
 7747SOL    HW134700   1.198   1.164   3.698  1.0237  3.8003  1.6179
 7747SOL    HW234701   1.311   1.089   3.760 -0.2933 -2.7898  0.5153
 7748SOL     OW34702   2.117   1.858  17.497 -0.2330 -0.1313  0.5154
 7748SOL    HW134703   2.055   1.907  17.442  1.8200 -0.5109 -2.1088
 7748SOL    HW234704   2.076   1.843  17.582 -1.6673  2.0821  0.2398
 7749SOL     OW34705   2.385   2.604  12.617 -0.1913  0.6243  0.3961
 7749SOL    HW134706   2.417   2.649  12.539 -2.2735  0.4458 -0.5673
 7749SOL    HW234707   2.354   2.679  12.669 -1.9824  0.3345 -0.2599
 7750SOL     OW34708   3.387   0.557   7.448 -0.4662 -0.4378 -0.0482
 7750SOL    HW134709   3.388   0.652   7.455 -1.0820 -0.1666 -3.4588
 7750SOL    HW234710   3.355   0.541   7.359 -1.6596 -0.5277  0.3889
 7751SOL     OW34711   4.536   0.646   6.475 -0.0052  0.4361 -0.4832
 7751SOL    HW134712   4.466   0.598   6.519 -0.6159  0.8597 -0.9876
 7751SOL    HW234713   4.503   0.735   6.492  4.6313  1.7281  1.6147
 7752SOL     OW34714   1.468   1.448  11.582 -0.4903 -0.2402 -0.4109
 7752SOL    HW134715   1.488   1.539  11.606  0.3336 -1.0276  1.9128
 7752SOL    HW234716   1.553   1.421  11.547  0.4738  0.3593  1.4154
 7753SOL     OW34717   4.084   3.727  11.732 -0.7700 -0.6769  0.1003
 7753SOL    HW134718   4.082   3.821  11.711  0.9206 -0.5244  0.6351
 7753SOL    HW234719   4.023   3.695  11.665 -0.5253 -0.4594 -0.2319
 7754SOL     OW34720   1.333   2.153   4.199 -0.6560  0.0315 -0.2644
 7754SOL    HW134721   1.292   2.239   4.185  1.1995  0.7958 -0.9277
 7754SOL    HW234722   1.279   2.120   4.271 -0.8730  2.2913  0.6148
 7755SOL     OW34723   3.229   3.596   2.669 -0.0490  0.1126  0.1552
 7755SOL    HW134724   3.211   3.681   2.711  0.6493 -0.1014  0.8833
 7755SOL    HW234725   3.324   3.591   2.681  0.1587  0.2390 -1.4294
 7756SOL     OW34726   1.694   4.527  17.529  0.1502 -0.5813 -0.3715
 7756SOL    HW134727   1.606   4.554  17.505 -0.1731 -1.5190 -0.2372
 7756SOL    HW234728   1.671   4.434  17.528 -1.2420 -0.2310  0.1424
 7757SOL     OW34729   0.721   1.281   0.484 -0.0857  0.0255 -0.3780
 7757SOL    HW134730   0.782   1.354   0.499 -1.4566  0.9800  0.4680
 7757SOL    HW234731   0.673   1.288   0.566 -2.1267 -0.4732 -1.5460
 7758SOL     OW34732   3.712   1.932   2.723 -0.5601 -0.0004 -0.3300
 7758SOL    HW134733   3.802   1.921   2.692 -0.7568  0.6857 -1.1660
 7758SOL    HW234734   3.715   1.860   2.785  3.2487  2.2029  2.0519
 7759SOL     OW34735   4.538   3.070   8.609  0.0484  0.6555 -0.0902
 7759SOL    HW134736   4.498   3.062   8.696  0.0150 -0.3367 -0.1921
 7759SOL    HW234737   4.459   3.094   8.560  0.1392 -0.4772 -0.7885
 7760SOL     OW34738   0.262   3.953   3.867 -0.2765 -0.1387  0.2095
 7760SOL    HW134739   0.207   3.884   3.830  0.1939 -0.7388  0.6367
 7760SOL    HW234740   0.299   3.998   3.791 -1.0670 -0.3898 -0.3311
 7761SOL     OW34741   1.282   1.429   2.719  0.3577 -0.2957 -0.6854
 7761SOL    HW134742   1.336   1.373   2.664  0.1905 -2.0876  0.9602
 7761SOL    HW234743   1.265   1.363   2.787 -1.7412  0.4329 -0.4777
 7762SOL     OW34744   4.460   4.596   8.821 -0.0370 -0.0259 -0.2381
 7762SOL    HW134745   4.450   4.512   8.865  0.1362 -0.2848 -0.6882
 7762SOL    HW234746   4.513   4.577   8.743  1.1275 -2.0567  1.0559
 7763SOL     OW34747   3.373   0.788   8.343 -0.1935  0.3712  0.0391
 7763SOL    HW134748   3.434   0.716   8.360  1.1781  1.4200 -0.4220
 7763SOL    HW234749   3.374   0.793   8.248  1.1532 -0.4845  0.0104
 7764SOL     OW34750   4.426   0.646   3.507 -0.1701 -0.0938 -0.4018
 7764SOL    HW134751   4.364   0.576   3.487 -0.9521  0.1597  1.1702
 7764SOL    HW234752   4.399   0.715   3.447  1.3088  1.8155  1.1003
 7765SOL     OW34753   2.257   4.441   6.560 -0.2450  0.6822  0.1423
 7765SOL    HW134754   2.210   4.434   6.476 -1.6502  0.3951  0.9555
 7765SOL    HW234755   2.337   4.391   6.544 -0.5330  0.7541 -1.5776
 7766SOL     OW34756   4.527   4.086   3.718  0.3603  0.0500  0.0265
 7766SOL    HW134757   4.616   4.113   3.737  0.4864 -0.9080  0.8290
 7766SOL    HW234758   4.495   4.166   3.676 -0.9992 -0.6594 -0.3093
 7767SOL     OW34759   2.631   0.126   5.551 -0.4104 -0.4051  0.4917
 7767SOL    HW134760   2.707   0.118   5.608 -0.6286  3.7235  1.3976
 7767SOL    HW234761   2.623   0.222   5.549 -0.1614 -0.3828  0.4653
 7768SOL     OW34762   0.828   2.591   7.708 -0.0836 -0.0560 -0.5478
 7768SOL    HW134763   0.759   2.607   7.643  0.5467  0.1921 -1.1591
 7768SOL    HW234764   0.907   2.563   7.661 -0.8550 -0.6530 -1.4991
 7769SOL     OW34765   3.932   3.110   4.763  0.6411  0.1766 -0.6752
 7769SOL    HW134766   3.864   3.049   4.736 -1.3673  1.4866  1.4647
 7769SOL    HW234767   3.952   3.077   4.851  2.8274  1.1759 -0.7853
 7770SOL     OW34768   1.144   2.257   2.564 -0.5141  0.4523  0.6098
 7770SOL    HW134769   1.100   2.341   2.582 -0.6359  1.1973 -3.0553
 7770SOL    HW234770   1.174   2.290   2.479 -1.1995  0.4666  0.3696
 7771SOL     OW34771   1.238   3.558   7.284 -0.2694  0.3138  0.2407
 7771SOL    HW134772   1.326   3.524   7.303 -1.3696 -1.6919  1.7015
 7771SOL    HW234773   1.261   3.618   7.213 -1.2483 -1.1291 -1.2716
 7772SOL     OW34774   2.311   2.314   9.814 -0.0211 -0.1711  0.4997
 7772SOL    HW134775   2.270   2.265   9.885 -0.0121 -0.0393  0.5967
 7772SOL    HW234776   2.236   2.359   9.774 -0.5212 -1.9049 -0.5089
 7773SOL     OW34777   1.541   1.515  12.766  1.1032 -0.0580 -0.4076
 7773SOL    HW134778   1.508   1.588  12.714 -0.5557 -0.3978  0.1915
 7773SOL    HW234779   1.608   1.554  12.822 -0.5853  0.0008  1.5691
 7774SOL     OW34780   2.140   4.491   7.862  0.0065 -0.1239  0.4038
 7774SOL    HW134781   2.116   4.582   7.845 -0.0404 -0.4618 -1.3118
 7774SOL    HW234782   2.079   4.469   7.934 -1.6770  1.0091 -0.6693
 7775SOL     OW34783   4.639   2.610   1.752  0.4708 -0.4393 -0.0213
 7775SOL    HW134784   4.638   2.531   1.807  0.4050 -0.7711 -0.4974
 7775SOL    HW234785   4.661   2.573   1.667 -1.8330 -1.0605 -0.3640
 7776SOL     OW34786   0.039   3.736   9.516  0.3475 -0.2598 -0.1575
 7776SOL    HW134787   0.051   3.821   9.473  1.9492 -0.4698 -0.1317
 7776SOL    HW234788   0.092   3.676   9.463  0.5911  0.5489 -0.8255
 7777SOL     OW34789   0.494   4.045  15.775  0.0819 -0.5383  0.3715
 7777SOL    HW134790   0.528   4.057  15.687 -1.8714  0.7671 -0.2208
 7777SOL    HW234791   0.495   4.140  15.789 -0.2166 -0.6379  1.0916
 7778SOL     OW34792   4.352   0.793   2.443 -0.2396  0.0953 -0.1652
 7778SOL    HW134793   4.265   0.774   2.478 -0.0816  1.7279  1.1121
 7778SOL    HW234794   4.392   0.833   2.520  0.2601 -2.7067  1.0588
 7779SOL     OW34795   2.393   2.280  17.652  0.3711 -0.0812 -0.1867
 7779SOL    HW134796   2.427   2.306  17.566  0.2932 -1.5453 -0.6624
 7779SOL    HW234797   2.390   2.184  17.646  1.6270 -0.1648  0.3778
 7780SOL     OW34798   0.325   1.787   0.418 -0.4593 -0.0156 -0.2816
 7780SOL    HW134799   0.330   1.692   0.403  0.8070  0.4555 -2.7951
 7780SOL    HW234800   0.407   1.791   0.468 -0.3467  2.8491 -0.6900
 7781SOL     OW34801   2.304   3.948   2.118 -1.0107 -0.1781 -0.2179
 7781SOL    HW134802   2.289   3.915   2.207  0.2728 -0.7010 -0.2105
 7781SOL    HW234803   2.383   3.903   2.089  0.0694  2.0583 -0.7607
 7782SOL     OW34804   3.686   1.484  12.154  0.2515 -0.7334 -0.0603
 7782SOL    HW134805   3.764   1.536  12.135 -0.7664  1.4442  1.6672
 7782SOL    HW234806   3.630   1.511  12.081  1.0977  0.1109 -0.3963
 7783SOL     OW34807   1.066   4.370  11.713 -0.3252 -0.1962  0.3446
 7783SOL    HW134808   1.146   4.330  11.678  0.5118  2.3848 -0.7641
 7783SOL    HW234809   1.056   4.441  11.650 -0.0097 -0.0104  0.5011
 7784SOL     OW34810   2.926   2.483  10.789  0.5900 -0.0638  0.1888
 7784SOL    HW134811   2.908   2.465  10.881  3.4656 -0.6886  0.6327
 7784SOL    HW234812   2.915   2.578  10.794  1.8312  0.0550  0.5862
 7785SOL     OW34813   3.426   1.960   2.407 -0.2905 -0.0031  0.3435
 7785SOL    HW134814   3.519   1.964   2.387 -0.2466  1.6794  0.9146
 7785SOL    HW234815   3.400   2.007   2.328  0.5548  0.1411  0.1503
 7786SOL     OW34816   1.232   1.376   0.173  0.9163  0.0501  0.1816
 7786SOL    HW134817   1.296   1.377   0.244 -0.3794 -1.7144  1.4071
 7786SOL    HW234818   1.186   1.455   0.199 -0.0186 -0.7344  0.9219
 7787SOL     OW34819   2.867   2.027   3.087 -0.2350 -0.0777  0.2423
 7787SOL    HW134820   2.855   2.083   3.010  0.7965 -1.9443 -1.2636
 7787SOL    HW234821   2.785   1.979   3.077  0.2466 -1.4968  3.0568
 7788SOL     OW34822   3.646   3.950   7.431  0.3885  0.9843 -0.0537
 7788SOL    HW134823   3.551   3.955   7.420  0.1857 -2.3270  0.1938
 7788SOL    HW234824   3.651   3.886   7.501  0.0965 -0.5622 -1.4501
 7789SOL     OW34825   2.872   1.086  11.375  0.0830 -0.1875  0.2670
 7789SOL    HW134826   2.888   1.071  11.282 -0.6139 -1.5249  0.3667
 7789SOL    HW234827   2.812   1.014  11.395 -0.4074  0.5951  1.6056
 7790SOL     OW34828   3.563   3.787   6.236  0.6423  0.2508  0.7814
 7790SOL    HW134829   3.657   3.794   6.223  0.8379 -1.2028  1.4319
 7790SOL    HW234830   3.544   3.839   6.314 -0.8608  0.1798  0.4798
 7791SOL     OW34831   2.797   1.225   3.285  0.4240  0.3880 -0.0875
 7791SOL    HW134832   2.767   1.295   3.344 -1.3126 -1.2132  0.9117
 7791SOL    HW234833   2.843   1.279   3.221  0.9828  1.5177  1.2591
 7792SOL     OW34834   2.036   3.648  17.265 -0.5173 -0.1836 -0.6036
 7792SOL    HW134835   1.975   3.665  17.193  0.1476  0.6854 -0.9549
 7792SOL    HW234836   2.117   3.688  17.234  0.5718 -0.1217  2.3317
 7793SOL     OW34837   4.021   1.185   4.085 -0.0604 -0.0256 -0.3085
 7793SOL    HW134838   4.117   1.179   4.083 -0.1187 -1.2697  0.1377
 7793SOL    HW234839   3.988   1.229   4.163  3.1542  1.3697  0.2738
 7794SOL     OW34840   4.199   1.595  16.538  0.0493  0.6025 -0.3206
 7794SOL    HW134841   4.169   1.536  16.469 -2.4108  0.7419  0.6064
 7794SOL    HW234842   4.138   1.668  16.532  0.5683  0.9807 -0.9718
 7795SOL     OW34843   4.260   2.159   4.280 -0.3254  0.1243 -0.2947
 7795SOL    HW134844   4.173   2.150   4.240 -1.5470  0.8029  2.1991
 7795SOL    HW234845   4.275   2.066   4.299  2.4648  0.7073  0.3450
 7796SOL     OW34846   2.831   0.869   1.181  0.3686 -0.0531  0.3462
 7796SOL    HW134847   2.920   0.851   1.152  0.6108 -2.0555  2.3534
 7796SOL    HW234848   2.792   0.782   1.182  0.5449 -0.1377 -0.2204
 7797SOL     OW34849   4.391   0.272   5.536  0.5141 -0.3914 -0.9494
 7797SOL    HW134850   4.350   0.229   5.611  0.9825 -0.0521 -0.4997
 7797SOL    HW234851   4.472   0.303   5.576  1.8114 -1.3852 -2.7834
 7798SOL     OW34852   0.835   4.040   1.726 -0.2600  0.1725 -0.5901
 7798SOL    HW134853   0.886   3.972   1.681 -0.0713 -0.8283  1.1337
 7798SOL    HW234854   0.773   3.994   1.782  0.8230 -1.5408 -0.8042
 7799SOL     OW34855   3.744   4.041   4.834 -0.0237 -0.0883  0.1043
 7799SOL    HW134856   3.837   4.020   4.841  0.8290  3.4506 -0.6004
 7799SOL    HW234857   3.722   3.977   4.766 -1.0609 -0.0122  0.3635
 7800SOL     OW34858   0.927   1.202   4.269  0.1214 -0.5144 -0.2935
 7800SOL    HW134859   0.874   1.274   4.236 -0.6294 -0.6713  0.5759
 7800SOL    HW234860   0.931   1.219   4.363 -0.5026 -2.0292  0.0071
 7801SOL     OW34861   4.184   1.431   6.878 -0.1322  0.1623 -0.1781
 7801SOL    HW134862   4.179   1.523   6.851  1.3791  0.6256  1.1365
 7801SOL    HW234863   4.163   1.435   6.971  1.0364 -1.2620  0.1451
 7802SOL     OW34864   3.661   2.890   0.539  0.0070  0.0930 -0.2284
 7802SOL    HW134865   3.685   2.925   0.453  2.1738 -3.6900 -1.1193
 7802SOL    HW234866   3.745   2.860   0.574 -0.7187 -2.5924 -0.8128
 7803SOL     OW34867   2.191   3.921   2.854  0.4916 -0.0389  0.5668
 7803SOL    HW134868   2.220   4.005   2.890 -1.7111  0.6875  0.6739
 7803SOL    HW234869   2.108   3.954   2.819 -1.4792 -2.5137  2.8903
 7804SOL     OW34870   1.854   4.675   2.305 -0.6402 -0.0650  0.2767
 7804SOL    HW134871   1.873   0.017   2.241  1.2333  1.2022  2.1498
 7804SOL    HW234872   1.885   4.595   2.262  0.8144  0.5491  0.1697
 7805SOL     OW34873   4.601   3.662   6.445  0.5387  0.2561 -0.5402
 7805SOL    HW134874   4.691   3.676   6.418  0.1664  3.3828 -0.1484
 7805SOL    HW234875   4.570   3.592   6.387  1.1896 -1.2263  0.9107
 7806SOL     OW34876   2.639   0.908  11.527  0.2144  0.0660  1.1744
 7806SOL    HW134877   2.694   0.941  11.598  1.9207 -0.4801  0.0990
 7806SOL    HW234878   2.550   0.901  11.561 -0.0945 -1.5056 -0.0123
 7807SOL     OW34879   4.337   1.904   6.572 -0.4037 -0.2390  0.4780
 7807SOL    HW134880   4.348   1.975   6.509 -0.0889 -2.1760 -1.6367
 7807SOL    HW234881   4.408   1.845   6.547 -1.5887 -1.3442 -0.2528
 7808SOL     OW34882   0.235   1.288   0.378 -0.1863 -0.3763  0.0998
 7808SOL    HW134883   0.175   1.344   0.427 -0.4110 -0.6678  0.1652
 7808SOL    HW234884   0.254   1.226   0.449 -0.2881 -1.6491 -0.9709
 7809SOL     OW34885   1.879   2.602   6.455 -0.2364 -0.0988 -0.1809
 7809SOL    HW134886   1.865   2.618   6.548  0.4681  2.0264 -0.4370
 7809SOL    HW234887   1.955   2.545   6.456  0.8207  1.3693  3.1359
 7810SOL     OW34888   1.105   0.274   3.080 -0.1998  0.6974  0.3438
 7810SOL    HW134889   1.126   0.257   2.988  1.3016 -1.0025  0.9996
 7810SOL    HW234890   1.027   0.222   3.098 -0.0546  0.1730 -0.5450
 7811SOL     OW34891   1.195   4.164   7.913 -0.2683  0.5899 -0.3335
 7811SOL    HW134892   1.126   4.140   7.975 -1.0178 -2.6835 -2.4577
 7811SOL    HW234893   1.231   4.076   7.906 -0.2297  0.5989 -0.2520
 7812SOL     OW34894   3.252   2.928  14.233 -0.1373 -0.4321  0.4992
 7812SOL    HW134895   3.206   3.012  14.237  1.0034  0.2112  0.2136
 7812SOL    HW234896   3.184   2.875  14.273  0.2952 -0.8247  0.7118
 7813SOL     OW34897   4.573   3.500   4.274 -0.0165 -0.1044  0.0153
 7813SOL    HW134898   4.583   3.566   4.205 -1.4700  1.7006  1.5207
 7813SOL    HW234899   4.479   3.485   4.289  0.0318  1.9496  2.3963
 7814SOL     OW34900   0.551   0.204   3.359  0.0988  0.2023 -0.2395
 7814SOL    HW134901   0.621   0.257   3.398  1.8986 -2.1608 -0.2140
 7814SOL    HW234902   0.516   0.164   3.439 -1.9885  2.4082 -0.0393
 7815SOL     OW34903   3.293   1.087   8.787 -0.0950 -0.2298 -0.5012
 7815SOL    HW134904   3.263   1.091   8.878 -2.1938 -0.7205 -1.1689
 7815SOL    HW234905   3.210   1.086   8.740 -0.2948 -1.5979 -0.1257
 7816SOL     OW34906   2.889   1.756  15.444  0.0151 -0.4931 -0.0284
 7816SOL    HW134907   2.856   1.842  15.471  1.2575  0.2640 -0.8890
 7816SOL    HW234908   2.808   1.726  15.404 -0.2213  0.1943 -0.0670
 7817SOL     OW34909   2.014   1.419   0.358 -0.2609  0.0964  0.6009
 7817SOL    HW134910   1.963   1.466   0.424  0.0178 -1.1699  1.7209
 7817SOL    HW234911   1.966   1.339   0.338  4.2585 -2.8128  1.3996
 7818SOL     OW34912   3.590   0.803  15.757  0.4040  0.7680  0.5662
 7818SOL    HW134913   3.526   0.738  15.785 -0.2197  1.2929  0.3355
 7818SOL    HW234914   3.656   0.799  15.827 -0.7452  0.1739  1.6181
 7819SOL     OW34915   2.388   2.908   1.104 -0.1544 -0.2257 -0.1385
 7819SOL    HW134916   2.465   2.926   1.159  0.6142  0.6988 -1.5038
 7819SOL    HW234917   2.326   2.980   1.114 -0.5841 -0.3159 -2.3465
 7820SOL     OW34918   0.761   1.032   5.074 -0.3996 -0.5913  0.1808
 7820SOL    HW134919   0.702   1.018   5.000  0.4798 -2.7072 -0.1314
 7820SOL    HW234920   0.796   0.943   5.083 -0.2626 -0.8361 -2.7231
 7821SOL     OW34921   3.623   3.062  13.415  0.3559 -0.1744 -0.2895
 7821SOL    HW134922   3.642   3.078  13.507 -2.5276 -0.0102  0.2804
 7821SOL    HW234923   3.700   3.007  13.400 -0.5222 -1.2363 -0.9210
 7822SOL     OW34924   1.850   3.092  13.779  0.1358 -0.3380  0.4749
 7822SOL    HW134925   1.902   3.011  13.783 -0.2632 -0.5767  0.8548
 7822SOL    HW234926   1.817   3.099  13.869 -0.4749  0.8539  0.1532
 7823SOL     OW34927   3.542   2.502  13.923  0.1309  0.2465  0.4394
 7823SOL    HW134928   3.622   2.465  13.885  0.9656  0.5806  1.8439
 7823SOL    HW234929   3.564   2.588  13.959  0.2133  1.3108 -2.1514
 7824SOL     OW34930   0.341   1.917  15.648  0.3583  0.0329 -0.1723
 7824SOL    HW134931   0.374   1.933  15.559  0.4033 -0.8589 -0.3172
 7824SOL    HW234932   0.348   1.821  15.640 -0.7788  0.1346 -2.3794
 7825SOL     OW34933   0.453   1.490   4.258  0.0262 -0.0010  0.3469
 7825SOL    HW134934   0.421   1.569   4.301 -0.5304  0.1692 -0.3898
 7825SOL    HW234935   0.380   1.432   4.241  0.4676 -0.7849  1.1056
 7826SOL     OW34936   1.426   2.509   5.664 -0.2926  0.1492 -0.4611
 7826SOL    HW134937   1.367   2.554   5.604 -0.2021  0.0430 -0.6328
 7826SOL    HW234938   1.418   2.414   5.651  0.0955 -0.0926  1.0938
 7827SOL     OW34939   3.443   1.900  17.293  0.0010 -0.1179 -0.1493
 7827SOL    HW134940   3.452   1.829  17.357 -1.6256 -1.0334 -0.9466
 7827SOL    HW234941   3.518   1.888  17.235  0.4045 -2.8329  0.8998
 7828SOL     OW34942   3.929   3.081   5.887  0.7225  0.0563 -0.1582
 7828SOL    HW134943   3.869   3.089   5.813 -0.0551 -2.3146  0.2299
 7828SOL    HW234944   3.985   3.026   5.831 -0.0355 -3.3979  2.5103
 7829SOL     OW34945   4.636   0.907   2.949 -0.6419 -0.5385  0.0127
 7829SOL    HW134946   4.648   1.000   2.968 -0.5476 -0.1877 -1.7685
 7829SOL    HW234947   4.646   0.883   3.041  0.4647  1.5636  0.4482
 7830SOL     OW34948   1.381   3.488   8.407  0.0265  0.3591 -0.0967
 7830SOL    HW134949   1.414   3.491   8.317 -3.0082  0.4088 -1.2069
 7830SOL    HW234950   1.414   3.575   8.431 -1.7415  0.4637  1.9218
 7831SOL     OW34951   2.611   0.529   3.691  0.7053  0.0978  0.3905
 7831SOL    HW134952   2.563   0.512   3.773  0.3562  1.7204  0.5139
 7831SOL    HW234953   2.572   0.462   3.634  2.4904  0.2280 -0.9736
 7832SOL     OW34954   0.139   2.498   8.682 -0.0636  0.0338 -0.1214
 7832SOL    HW134955   0.219   2.459   8.647 -0.3255 -0.9452  0.3541
 7832SOL    HW234956   0.105   2.435   8.746 -0.8120 -0.5497 -1.1041
 7833SOL     OW34957   0.535   4.309  15.818 -0.2150 -0.4096 -0.2075
 7833SOL    HW134958   0.486   4.345  15.893 -1.3927  0.7280 -1.5177
 7833SOL    HW234959   0.615   4.360  15.807 -0.2922 -0.5850 -1.6197
 7834SOL     OW34960   1.750   1.571  15.941 -0.4253  0.4435  0.1374
 7834SOL    HW134961   1.773   1.478  15.939  1.2000  0.8143  1.9321
 7834SOL    HW234962   1.823   1.611  15.893 -0.7506  1.0480  0.1419
 7835SOL     OW34963   0.111   3.813  14.824 -0.2302 -0.0669 -0.1988
 7835SOL    HW134964   0.056   3.891  14.821 -1.1738 -0.8443 -3.1594
 7835SOL    HW234965   0.191   3.859  14.852  0.7152 -1.7973 -0.0916
 7836SOL     OW34966   2.779   4.303  12.964 -0.8423  0.2622 -0.3774
 7836SOL    HW134967   2.866   4.289  13.002 -0.8420  0.3480 -0.3460
 7836SOL    HW234968   2.780   4.393  12.931 -0.5873  0.0585 -0.9326
 7837SOL     OW34969   4.313   0.034  11.966  0.2239 -0.2744 -0.0047
 7837SOL    HW134970   4.315   0.126  11.941  1.2199 -0.1351  0.6005
 7837SOL    HW234971   4.230   4.726  11.933  0.0473  0.1014  0.0477
 7838SOL     OW34972   4.497   1.563   6.064  0.3524  0.4667  0.2004
 7838SOL    HW134973   4.474   1.472   6.046 -0.0798  0.0834  2.8333
 7838SOL    HW234974   4.582   1.544   6.104 -0.7973 -1.5891  1.6678
 7839SOL     OW34975   2.602   4.618  16.282  0.3392 -0.2723 -0.7481
 7839SOL    HW134976   2.650   4.692  16.246  0.3702  0.8503  1.5546
 7839SOL    HW234977   2.525   4.664  16.317 -0.2411 -1.3657 -0.5683
 7840SOL     OW34978   3.951   0.401  12.662  0.4212 -0.8402 -0.2594
 7840SOL    HW134979   3.896   0.479  12.659  1.4045 -0.2594 -2.5773
 7840SOL    HW234980   3.981   0.408  12.572  1.8317  1.3702  0.3847
 7841SOL     OW34981   2.988   2.810   8.966 -0.0774  0.6187  0.4422
 7841SOL    HW134982   2.946   2.819   9.051  1.6489  0.7220  1.2979
 7841SOL    HW234983   3.051   2.743   8.994  0.0457 -0.0140 -1.3149
 7842SOL     OW34984   3.285   1.802   6.923 -0.0433  0.1487  0.0943
 7842SOL    HW134985   3.368   1.820   6.967  1.0334 -0.2276 -1.8271
 7842SOL    HW234986   3.217   1.848   6.973  0.7352  0.8051  0.5538
 7843SOL     OW34987   0.422   1.736   4.645  0.3005 -0.2394 -0.2947
 7843SOL    HW134988   0.350   1.674   4.644 -0.8591  1.0743  1.2431
 7843SOL    HW234989   0.421   1.754   4.551 -1.0019  1.1045 -0.0262
 7844SOL     OW34990   3.466   0.922   8.989  0.0532  0.5071 -0.4268
 7844SOL    HW134991   3.427   0.849   9.038  2.5912  0.2349  1.2020
 7844SOL    HW234992   3.398   0.945   8.926 -1.7211 -1.8447  0.6245
 7845SOL     OW34993   3.587   0.243   3.512  0.4866  0.2098  0.1469
 7845SOL    HW134994   3.653   0.183   3.547  0.1765 -1.1630 -1.6218
 7845SOL    HW234995   3.600   0.215   3.422  0.9527 -0.4672  0.4247
 7846SOL     OW34996   2.313   2.127   5.424  0.2554 -0.1836  0.1027
 7846SOL    HW134997   2.356   2.181   5.491  1.3035  0.6869 -1.2941
 7846SOL    HW234998   2.382   2.072   5.388 -0.6557 -2.2024  1.4296
 7847SOL     OW34999   3.774   3.300   6.547 -0.1523 -1.0272 -0.0302
 7847SOL    HW135000   3.807   3.335   6.630  2.3039 -1.0822 -0.9821
 7847SOL    HW235001   3.828   3.228   6.515 -0.4276 -1.8796  1.3950
 7848SOL     OW35002   3.597   3.622   2.993  0.5803 -0.2016 -0.1113
 7848SOL    HW135003   3.570   3.590   2.907 -0.4771  2.3660 -0.7187
 7848SOL    HW235004   3.686   3.653   2.979  1.5666 -2.7277  0.5891
 7849SOL     OW35005   4.313   4.079   8.097 -0.0633  0.2512 -0.0076
 7849SOL    HW135006   4.244   4.058   8.160 -1.1589 -0.4634 -1.4341
 7849SOL    HW235007   4.284   4.027   8.022 -2.2792  0.7970  0.4664
 7850SOL     OW35008   3.160   2.502   7.585 -0.3025 -0.9138 -0.1087
 7850SOL    HW135009   3.089   2.506   7.522  0.7339  0.8121 -1.1606
 7850SOL    HW235010   3.232   2.522   7.525  0.3936  0.5917  1.2171
 7851SOL     OW35011   3.765   4.377  12.729 -0.0243  0.4642  0.1386
 7851SOL    HW135012   3.719   4.447  12.681 -1.6369  1.2887  2.8765
 7851SOL    HW235013   3.700   4.307  12.727 -0.2109  0.6877 -1.9920
 7852SOL     OW35014   2.240   3.751   3.273  0.4095  0.1065 -0.6739
 7852SOL    HW135015   2.194   3.828   3.238 -0.7988 -0.0509  0.5590
 7852SOL    HW235016   2.283   3.788   3.350  0.5641 -0.1561 -0.6343
 7853SOL     OW35017   2.614   1.147   5.755 -0.0370 -0.7649  0.5461
 7853SOL    HW135018   2.703   1.114   5.768  0.2916 -0.0001  0.2232
 7853SOL    HW235019   2.576   1.072   5.710  0.8768 -0.3959 -0.8500
 7854SOL     OW35020   3.347   2.506   6.728  0.0448 -0.4693 -0.5148
 7854SOL    HW135021   3.286   2.479   6.659 -0.1650 -0.6053 -0.2762
 7854SOL    HW235022   3.380   2.419   6.752 -1.1498 -0.6285  0.5227
 7855SOL     OW35023   1.219   4.015   4.558 -0.1836 -0.9279  0.3188
 7855SOL    HW135024   1.220   3.931   4.605  0.4524  0.0895  2.1219
 7855SOL    HW235025   1.128   4.038   4.540  1.1730  3.1208 -1.2472
 7856SOL     OW35026   2.383   0.669   9.859  0.3039 -0.5485  0.3499
 7856SOL    HW135027   2.417   0.660   9.948  0.7223  2.5637  0.5178
 7856SOL    HW235028   2.460   0.700   9.811 -0.4460 -0.0004 -0.4979
 7857SOL     OW35029   3.253   3.319   5.487  0.0134  0.2067  0.3539
 7857SOL    HW135030   3.188   3.333   5.418 -0.0636 -0.4978  0.2847
 7857SOL    HW235031   3.216   3.259   5.551  0.9932  0.8693  1.5422
 7858SOL     OW35032   2.853   1.988   8.618 -0.0475  0.0410 -0.2516
 7858SOL    HW135033   2.872   1.990   8.524  1.0021  1.1255 -0.0241
 7858SOL    HW235034   2.886   1.903   8.645 -1.8586 -1.0745 -1.5579
 7859SOL     OW35035   1.493   1.055   3.023 -0.3472 -0.3814  0.1355
 7859SOL    HW135036   1.499   1.000   2.945  0.8141 -1.8977  1.2894
 7859SOL    HW235037   1.541   1.132   2.994 -1.5322  0.1446 -0.4142
 7860SOL     OW35038   0.818   4.419  11.801 -0.1084 -0.4519 -0.1647
 7860SOL    HW135039   0.889   4.393  11.743  0.8397 -1.1531  1.2943
 7860SOL    HW235040   0.867   4.426  11.883  3.5006 -0.3980 -2.3248
 7861SOL     OW35041   0.952   1.341   3.069  0.5931  0.3219  0.4492
 7861SOL    HW135042   0.993   1.416   3.025  0.2404 -0.4316 -1.1796
 7861SOL    HW235043   1.026   1.296   3.110  0.0033 -1.8973 -0.9440
 7862SOL     OW35044   0.149   0.709  12.921  0.1891  0.1097 -0.8613
 7862SOL    HW135045   0.163   0.792  12.966 -1.5172 -0.1329  0.1334
 7862SOL    HW235046   0.168   0.726  12.828  0.0090 -1.0120 -1.1047
 7863SOL     OW35047   2.934   0.377   1.403 -0.1438 -0.2077 -0.5651
 7863SOL    HW135048   2.996   0.356   1.333  0.4920 -0.4233  0.0609
 7863SOL    HW235049   2.957   0.468   1.421  0.4077 -0.5187  0.2996
 7864SOL     OW35050   2.250   0.372   3.490 -0.1239  0.3474  0.3910
 7864SOL    HW135051   2.166   0.408   3.517 -1.5181 -0.9024 -2.2232
 7864SOL    HW235052   2.300   0.452   3.474 -1.9952  1.2537 -1.0147
 7865SOL     OW35053   0.490   0.872   7.225  0.0340 -0.0814 -0.6782
 7865SOL    HW135054   0.584   0.861   7.208  0.2893 -1.9861  1.8364
 7865SOL    HW235055   0.476   0.816   7.301 -2.3174  1.7236  0.2083
 7866SOL     OW35056   1.662   2.383   7.384 -0.3632 -0.2622 -0.0148
 7866SOL    HW135057   1.754   2.358   7.379  0.1856  1.9625 -0.8269
 7866SOL    HW235058   1.654   2.389   7.288 -0.7501  3.4036  0.2382
 7867SOL     OW35059   4.719   2.653   2.628 -0.0316  0.3985 -0.1762
 7867SOL    HW135060   4.698   2.573   2.677  3.2663 -0.2721  0.1605
 7867SOL    HW235061   4.631   2.680   2.602 -1.5908 -2.8505  1.6642
 7868SOL     OW35062   2.538   3.573   5.869  0.2360 -1.0304 -0.2455
 7868SOL    HW135063   2.533   3.522   5.789  1.2263 -1.1747 -0.2101
 7868SOL    HW235064   2.447   3.601   5.878  1.0631  1.9837 -1.2530
 7869SOL     OW35065   1.720   3.473   8.100 -0.3879  0.0683 -0.1648
 7869SOL    HW135066   1.732   3.567   8.088  0.9569 -0.1097 -0.2191
 7869SOL    HW235067   1.708   3.458   8.193 -0.0554  0.4132 -0.0692
 7870SOL     OW35068   4.371   2.810   8.025  0.8778 -0.0714 -0.2373
 7870SOL    HW135069   4.415   2.827   8.108  2.2518 -1.9488 -0.5831
 7870SOL    HW235070   4.444   2.829   7.967  0.7279 -1.3000 -0.8393
 7871SOL     OW35071   0.802   0.523  12.947 -0.0416 -0.3242 -0.1261
 7871SOL    HW135072   0.765   0.488  12.866 -0.2375  0.4920 -0.3841
 7871SOL    HW235073   0.724   0.569  12.978 -0.5062 -0.6218 -0.8841
 7872SOL     OW35074   2.284   4.721  15.988 -0.5498  0.2176 -0.5851
 7872SOL    HW135075   2.241   0.034  15.912 -0.1643  0.7594 -0.5228
 7872SOL    HW235076   2.204   4.703  16.038 -1.7910  0.5715 -2.4584
 7873SOL     OW35077   2.782   0.081   3.737  0.0024  0.0373  0.0290
 7873SOL    HW135078   2.722   0.153   3.756  0.9350  0.8510 -0.1096
 7873SOL    HW235079   2.728   0.002   3.741  0.1521 -0.0854 -0.3453
 7874SOL     OW35080   1.577   3.593   9.085  0.1856  0.1332  0.3294
 7874SOL    HW135081   1.545   3.620   9.171 -0.4223 -3.2517  1.1517
 7874SOL    HW235082   1.502   3.608   9.028  0.9816  0.7420 -0.5645
 7875SOL     OW35083   2.542   0.603   5.935 -0.8868  0.2657  0.8508
 7875SOL    HW135084   2.460   0.555   5.919 -0.6702 -0.2407  1.2425
 7875SOL    HW235085   2.548   0.631   5.844 -2.4911  2.3559  1.3821
 7876SOL     OW35086   3.853   3.483   1.809  0.2699 -0.0358 -0.5059
 7876SOL    HW135087   3.851   3.407   1.751 -0.2500  0.3164 -0.9439
 7876SOL    HW235088   3.901   3.446   1.884  0.5652  1.1189 -0.1251
 7877SOL     OW35089   0.452   1.851  13.029 -0.2199 -0.2443  0.3909
 7877SOL    HW135090   0.537   1.891  13.012  1.0375 -2.4733  1.4267
 7877SOL    HW235091   0.425   1.826  12.941 -0.5444 -1.8955  0.9638
 7878SOL     OW35092   2.031   4.088   3.725  0.1657 -0.2738  0.5282
 7878SOL    HW135093   1.981   4.108   3.646 -3.1861 -1.3854  2.3644
 7878SOL    HW235094   2.114   4.123   3.693 -0.0145  0.0008  0.3632
 7879SOL     OW35095   0.095   3.957   9.369 -0.1463 -0.1415 -0.3141
 7879SOL    HW135096   0.128   3.883   9.318 -1.2049 -0.2919 -0.7788
 7879SOL    HW235097   0.171   4.012   9.387 -0.3798 -0.0488  0.3822
 7880SOL     OW35098   2.432   0.989   2.638 -0.5314  0.8095  0.1990
 7880SOL    HW135099   2.502   0.955   2.581 -0.0898  2.2149 -0.0878
 7880SOL    HW235100   2.487   0.992   2.716  2.6515  2.9938 -2.1562
 7881SOL     OW35101   1.207   1.481   9.006  0.8350 -0.4274 -0.5464
 7881SOL    HW135102   1.286   1.460   9.057  0.1808 -1.0229  0.2245
 7881SOL    HW235103   1.146   1.506   9.075  1.5750 -2.3021  0.7911
 7882SOL     OW35104   3.438   2.173   9.791  0.0951 -0.0227  0.6212
 7882SOL    HW135105   3.426   2.125   9.873 -1.7277 -1.2518 -0.3436
 7882SOL    HW235106   3.350   2.190   9.756  1.0664 -0.3441 -1.9649
 7883SOL     OW35107   0.484   1.929   8.923  0.5746  0.0839  0.1273
 7883SOL    HW135108   0.527   1.888   8.848  0.6899  0.0208  0.2278
 7883SOL    HW235109   0.553   1.939   8.987  0.9271 -0.6806 -0.1315
 7884SOL     OW35110   1.146   0.051   4.126  0.7301  0.1408 -0.0585
 7884SOL    HW135111   1.115   0.032   4.037 -0.1251 -3.5821  1.0313
 7884SOL    HW235112   1.237   0.026   4.111 -0.3277 -2.8254 -1.5326
 7885SOL     OW35113   3.416   3.198   0.825  0.5131  0.7144 -0.3337
 7885SOL    HW135114   3.466   3.123   0.859  1.5558  1.4645 -0.2194
 7885SOL    HW235115   3.443   3.260   0.893 -4.0811  0.2365  1.8890
 7886SOL     OW35116   0.164   2.936   3.236  0.3609  0.3520  0.0786
 7886SOL    HW135117   0.212   3.017   3.220 -2.7444  2.1480 -0.0751
 7886SOL    HW235118   0.224   2.867   3.208  0.6051  0.7464 -0.3476
 7887SOL     OW35119   3.464   0.005   2.429 -0.2259  0.3793  0.1756
 7887SOL    HW135120   3.509   0.001   2.345 -0.6852 -1.3073  0.0007
 7887SOL    HW235121   3.446   4.638   2.443  2.1852 -0.3973 -2.0027
 7888SOL     OW35122   3.478   0.635  14.912  0.0623 -0.8377 -0.1939
 7888SOL    HW135123   3.416   0.574  14.953  0.9833 -1.7608 -0.1469
 7888SOL    HW235124   3.468   0.597  14.825  0.3682  2.0551 -1.4820
 7889SOL     OW35125   1.391   1.086   5.970  0.0425  0.0472  0.2557
 7889SOL    HW135126   1.377   1.002   5.925  1.0414 -0.6108  1.1815
 7889SOL    HW235127   1.411   1.054   6.058 -1.1820 -0.4845  0.3421
 7890SOL     OW35128   0.602   2.522   4.603  0.9257  0.2408 -0.2990
 7890SOL    HW135129   0.576   2.430   4.597  0.1723  0.3848  0.9207
 7890SOL    HW235130   0.516   2.558   4.583  1.7476  2.2701 -0.2694
 7891SOL     OW35131   4.504   2.996  10.928 -1.0116 -0.4877 -0.2816
 7891SOL    HW135132   4.488   2.910  10.968  0.4340 -0.4576  0.3744
 7891SOL    HW235133   4.470   2.974  10.842 -2.1640 -0.6961  0.2245
 7892SOL     OW35134   3.151   2.933   3.895  0.3026 -0.3446  0.0311
 7892SOL    HW135135   3.211   2.919   3.822 -0.0868  0.0885 -0.3709
 7892SOL    HW235136   3.074   2.893   3.855  0.2761  0.9010 -1.1311
 7893SOL     OW35137   2.223   0.493   1.760 -0.2476 -0.2766 -0.1978
 7893SOL    HW135138   2.313   0.465   1.742 -0.7011 -0.9044 -1.5001
 7893SOL    HW235139   2.180   0.407   1.762 -0.2934 -0.2989 -1.6923
 7894SOL     OW35140   3.899   3.701  15.199 -0.2631  0.1123  0.1105
 7894SOL    HW135141   3.990   3.710  15.228  0.3564 -0.7200 -1.5323
 7894SOL    HW235142   3.901   3.618  15.152 -0.6792  0.7715 -1.0911
 7895SOL     OW35143   1.154   4.339   5.665 -0.1545 -0.0910 -0.0425
 7895SOL    HW135144   1.202   4.268   5.708  0.2118 -0.0847 -0.4491
 7895SOL    HW235145   1.220   4.360   5.600 -0.9798  1.0003 -0.5377
 7896SOL     OW35146   1.970   0.140   2.135  0.2971 -0.7722 -0.1049
 7896SOL    HW135147   2.017   0.223   2.132 -1.5292  0.2004 -1.7836
 7896SOL    HW235148   1.905   0.152   2.066 -0.3148  3.4971  1.2278
 7897SOL     OW35149   4.315   2.836  17.045  0.5588 -0.5996  0.2833
 7897SOL    HW135150   4.322   2.868  17.135 -2.3267 -0.0775  0.3192
 7897SOL    HW235151   4.223   2.810  17.046  0.4480 -0.2307 -0.3812
 7898SOL     OW35152   1.982   2.630   5.987 -0.0754  0.3005  0.2379
 7898SOL    HW135153   1.934   2.687   6.047  0.3942  1.3614 -0.3972
 7898SOL    HW235154   2.046   2.593   6.048  1.6681 -0.9392 -2.3215
 7899SOL     OW35155   1.058   4.526   9.992  0.6639 -0.4431  0.8694
 7899SOL    HW135156   1.123   4.460  10.016  1.8892  0.7394  0.7670
 7899SOL    HW235157   1.008   4.481   9.924 -0.6865  2.5116 -0.0881
 7900SOL     OW35158   3.955   0.435  12.397  0.1742  0.2927  0.4827
 7900SOL    HW135159   4.016   0.444  12.324  0.5588 -0.5792  0.6949
 7900SOL    HW235160   3.884   0.484  12.356 -0.5022  0.8295  2.3098
 7901SOL     OW35161   1.104   4.166   5.204 -0.4568 -0.4193 -0.2054
 7901SOL    HW135162   1.173   4.160   5.271 -2.4261  1.2416  1.9583
 7901SOL    HW235163   1.108   4.079   5.164  0.0126  0.2082 -1.5030
 7902SOL     OW35164   3.844   3.618   4.822  0.4015  0.1932 -0.4633
 7902SOL    HW135165   3.916   3.644   4.878 -1.0378 -1.0079  1.9387
 7902SOL    HW235166   3.882   3.540   4.782  0.6184 -0.2326  0.5660
 7903SOL     OW35167   4.600   1.262   5.359  0.2501 -0.3277  0.1032
 7903SOL    HW135168   4.635   1.203   5.425  0.7757  0.8274  0.8662
 7903SOL    HW235169   4.616   1.206   5.284  0.5952 -0.1185  0.0222
 7904SOL     OW35170   3.292   3.877   7.188 -0.0469 -0.5367 -0.0171
 7904SOL    HW135171   3.354   3.887   7.261 -1.1667  1.7931  0.6053
 7904SOL    HW235172   3.208   3.895   7.229  0.9224 -0.3258  1.8719
 7905SOL     OW35173   4.181   3.425  12.567 -0.2170 -0.3689 -0.0760
 7905SOL    HW135174   4.275   3.411  12.552  0.0780  2.3064 -0.7341
 7905SOL    HW235175   4.148   3.389  12.485 -0.4678 -0.2945 -0.0060
 7906SOL     OW35176   3.306   2.804   5.173 -0.0570 -0.6917  0.2392
 7906SOL    HW135177   3.364   2.879   5.157 -0.5597 -0.1869  0.7574
 7906SOL    HW235178   3.356   2.734   5.131  1.3977  0.1553  0.5658
 7907SOL     OW35179   0.809   4.542   5.211 -0.3096 -0.3302  0.0280
 7907SOL    HW135180   0.727   4.553   5.163  0.7153 -0.9277 -1.8565
 7907SOL    HW235181   0.834   4.451   5.199  0.2346 -0.0566 -0.8255
 7908SOL     OW35182   2.976   1.177   0.519 -0.4958 -0.0280 -0.1643
 7908SOL    HW135183   2.900   1.193   0.462 -0.6411 -0.5647 -0.1182
 7908SOL    HW235184   2.922   1.145   0.591 -0.6736 -0.7779 -0.6262
 7909SOL     OW35185   3.136   1.994   3.203 -0.3961  0.4427  0.6158
 7909SOL    HW135186   3.110   1.902   3.199 -0.6137  0.6138 -1.7803
 7909SOL    HW235187   3.069   2.023   3.141 -1.2324 -0.1942  1.2225
 7910SOL     OW35188   4.370   0.679   7.450 -0.4366 -0.3444 -0.0443
 7910SOL    HW135189   4.446   0.726   7.482 -1.4396  0.1439  1.6233
 7910SOL    HW235190   4.403   0.623   7.379 -0.6480 -1.4095  0.6862
 7911SOL     OW35191   2.142   3.518  16.744  0.3220  1.0145  0.0634
 7911SOL    HW135192   2.102   3.535  16.658 -1.1405 -3.3071 -0.1024
 7911SOL    HW235193   2.071   3.470  16.786  0.6924  1.4484  1.1908
 7912SOL     OW35194   3.423   3.555  14.161  0.3506 -0.5651 -0.1196
 7912SOL    HW135195   3.428   3.504  14.242  1.7327 -1.1434 -0.5674
 7912SOL    HW235196   3.362   3.624  14.188  0.8179 -0.1114 -0.2340
 7913SOL     OW35197   0.869   0.353   1.533  0.1380  0.0114 -0.3581
 7913SOL    HW135198   0.781   0.316   1.529 -0.8027  2.1875  0.5022
 7913SOL    HW235199   0.845   0.444   1.517 -1.3147 -0.2185  0.4737
 7914SOL     OW35200   0.903   2.636   1.722  0.3437 -0.0791 -0.3323
 7914SOL    HW135201   0.844   2.712   1.724  0.3633 -0.0858  0.9115
 7914SOL    HW235202   0.903   2.613   1.815 -0.0726  0.7646 -0.1195
 7915SOL     OW35203   3.684   0.138   6.993  0.0150  0.0466 -0.0494
 7915SOL    HW135204   3.650   0.058   6.953 -0.5118  0.5716 -0.6366
 7915SOL    HW235205   3.617   0.202   6.974  0.8080  1.0533  0.5390
 7916SOL     OW35206   4.575   0.940  11.963  1.2958  0.6455  0.2192
 7916SOL    HW135207   4.569   0.955  12.057  2.0497  0.3385  0.3185
 7916SOL    HW235208   4.668   0.961  11.949  1.5308 -0.4585  0.1472
 7917SOL     OW35209   3.498   3.175   0.566 -0.2370  0.4596 -0.1918
 7917SOL    HW135210   3.565   3.106   0.561  0.0668  0.7848 -0.5748
 7917SOL    HW235211   3.468   3.181   0.657  2.9672  1.4018  0.8061
 7918SOL     OW35212   2.303   3.138  10.309 -0.2013  0.4074  0.4209
 7918SOL    HW135213   2.373   3.115  10.370 -0.4112  0.3055  0.6238
 7918SOL    HW235214   2.255   3.191  10.372 -1.4130 -0.7529  0.4712
 7919SOL     OW35215   1.270   4.258   4.994  0.0522  0.3018  0.0834
 7919SOL    HW135216   1.232   4.234   4.910  1.4856  1.7112 -0.9498
 7919SOL    HW235217   1.197   4.247   5.055 -0.3201  1.2775 -0.2027
 7920SOL     OW35218   0.777   3.707   6.495 -0.1391  0.5373  0.4674
 7920SOL    HW135219   0.698   3.725   6.444 -0.3173  1.0719  0.9318
 7920SOL    HW235220   0.769   3.761   6.574  0.5529  0.1940  0.7758
 7921SOL     OW35221   1.808   4.431   6.579  0.0460  0.4210  0.4461
 7921SOL    HW135222   1.817   4.381   6.660 -1.6959  0.4783  0.6813
 7921SOL    HW235223   1.808   4.522   6.610 -0.2550 -0.2328  2.3860
 7922SOL     OW35224   1.428   3.563   8.819  0.5212  0.5572 -0.6925
 7922SOL    HW135225   1.384   3.647   8.832  1.3476  1.3475 -2.8623
 7922SOL    HW235226   1.353   3.506   8.800  1.9584 -1.2151 -1.0165
 7923SOL     OW35227   0.101   1.150   5.888  0.2019 -0.7149 -0.0841
 7923SOL    HW135228   0.178   1.192   5.926  0.9723 -1.7440 -0.5071
 7923SOL    HW235229   0.136   1.062   5.871  1.3976 -0.3691  0.5460
 7924SOL     OW35230   2.460   1.671   3.664  0.7942  0.1818 -0.0934
 7924SOL    HW135231   2.480   1.696   3.574  1.5615  0.6015  0.1920
 7924SOL    HW235232   2.512   1.591   3.668  0.0899 -0.1682  1.9968
 7925SOL     OW35233   4.067   0.301   5.842  0.8110 -0.3522 -0.0698
 7925SOL    HW135234   4.019   0.350   5.909 -1.5196 -0.7563 -1.4456
 7925SOL    HW235235   4.033   0.341   5.763 -0.4255 -0.6985  0.2898
 7926SOL     OW35236   4.422   3.283   3.130  0.2771 -0.2338  0.1801
 7926SOL    HW135237   4.347   3.298   3.072  1.3464  0.8448 -0.9330
 7926SOL    HW235238   4.478   3.256   3.057  0.5425 -0.7173  0.5642
 7927SOL     OW35239   2.617   1.013  15.532  0.1367 -0.2271 -0.3468
 7927SOL    HW135240   2.693   1.068  15.511  0.9407 -0.4905  1.8723
 7927SOL    HW235241   2.642   0.934  15.484  0.6015 -0.5526  0.4414
 7928SOL     OW35242   2.675   2.500  12.966  0.2724 -0.0428 -0.1053
 7928SOL    HW135243   2.592   2.517  13.010  0.8441  1.1709  0.5103
 7928SOL    HW235244   2.645   2.469  12.880  0.3317 -0.6917  0.1110
 7929SOL     OW35245   0.475   2.434   8.173 -0.0374  0.0126 -0.1153
 7929SOL    HW135246   0.521   2.371   8.117  0.4124 -0.6748  1.0373
 7929SOL    HW235247   0.510   2.515   8.137 -1.4103  0.3700 -0.6659
 7930SOL     OW35248   4.708   4.023   6.515  0.4830 -0.1597  0.7000
 7930SOL    HW135249   4.619   3.988   6.523 -0.5067  1.2309 -3.8256
 7930SOL    HW235250   4.721   4.069   6.598 -0.9340 -0.2701  0.9864
 7931SOL     OW35251   1.438   0.232   3.651  0.3024  0.5315 -0.1505
 7931SOL    HW135252   1.403   0.321   3.642  1.4579  1.0259  0.2278
 7931SOL    HW235253   1.516   0.231   3.596 -0.0380  0.2240 -0.6229
 7932SOL     OW35254   0.388   3.161   5.072 -0.0127 -0.0338 -0.0406
 7932SOL    HW135255   0.342   3.143   4.989 -1.4764  0.5669  0.6452
 7932SOL    HW235256   0.469   3.195   5.036 -0.6832 -0.9016 -2.3873
 7933SOL     OW35257   3.081   2.457   4.047 -0.1281 -0.3367 -0.0600
 7933SOL    HW135258   3.060   2.518   3.976  1.9069 -0.3638 -0.6742
 7933SOL    HW235259   2.992   2.443   4.078 -0.7191  0.6889 -1.3011
 7934SOL     OW35260   0.447   2.615   8.654  0.1357 -0.5764  0.0353
 7934SOL    HW135261   0.438   2.521   8.635  2.1710 -0.5176 -1.2186
 7934SOL    HW235262   0.531   2.636   8.613  0.0577  1.2905  0.8639
 7935SOL     OW35263   0.464   3.438   7.053 -0.3999 -0.2740 -0.5051
 7935SOL    HW135264   0.495   3.498   6.985  1.3460 -0.0703  0.4658
 7935SOL    HW235265   0.380   3.479   7.070 -0.2876 -0.5935  0.8113
 7936SOL     OW35266   2.681   2.729   3.290 -0.2801  0.5943  0.0666
 7936SOL    HW135267   2.634   2.646   3.281  2.0724 -0.7354  0.0816
 7936SOL    HW235268   2.749   2.708   3.225 -0.0675  1.0010  0.1615
 7937SOL     OW35269   1.024   3.894   0.625  0.2043 -0.5654  0.0421
 7937SOL    HW135270   1.081   3.963   0.658  0.0033  0.4723 -1.7674
 7937SOL    HW235271   1.086   3.825   0.600  0.3325 -1.1972  2.0902
 7938SOL     OW35272   2.058   4.506   5.108 -0.0104  0.1493  0.4461
 7938SOL    HW135273   2.088   4.419   5.135  0.1512 -0.5074 -1.8418
 7938SOL    HW235274   2.136   4.530   5.059  0.5622 -0.9448  0.8245
 7939SOL     OW35275   2.423   0.636   0.562  0.3675 -0.1337  0.0678
 7939SOL    HW135276   2.470   0.557   0.587 -0.4143 -0.2338  1.1786
 7939SOL    HW235277   2.368   0.603   0.491 -0.1401  2.3408 -0.6878
 7940SOL     OW35278   2.731   2.432   7.907 -0.0278 -0.0403 -0.1088
 7940SOL    HW135279   2.824   2.442   7.928 -0.5973  0.0358  2.4165
 7940SOL    HW235280   2.733   2.423   7.812 -2.0542 -2.4526  0.0847
 7941SOL     OW35281   1.836   2.311   2.713  0.0713 -0.1823 -0.3038
 7941SOL    HW135282   1.826   2.392   2.662 -0.2331  1.2029  1.9610
 7941SOL    HW235283   1.860   2.239   2.655  1.7161 -0.2667  0.4938
 7942SOL     OW35284   3.225   2.704   1.061 -0.0819  0.6274 -0.0953
 7942SOL    HW135285   3.210   2.619   1.021 -2.0488  1.3865 -0.9852
 7942SOL    HW235286   3.240   2.745   0.976  0.6486 -0.0811 -0.2987
 7943SOL     OW35287   1.032   4.336  12.622 -0.3595  0.2623 -0.2825
 7943SOL    HW135288   1.121   4.313  12.646  0.2515  0.8500 -1.9732
 7943SOL    HW235289   0.979   4.258  12.641  0.0004 -0.0788 -0.6743
 7944SOL     OW35290   2.294   3.128   1.260  0.0560  0.6938 -1.0274
 7944SOL    HW135291   2.322   3.140   1.351  0.8625 -0.7666 -1.0767
 7944SOL    HW235292   2.199   3.128   1.273  0.1835  3.8463 -0.2360
 7945SOL     OW35293   2.924   2.413   3.175 -0.6251 -0.3515  0.1058
 7945SOL    HW135294   2.934   2.508   3.171 -0.6232 -0.4098 -1.3069
 7945SOL    HW235295   3.009   2.382   3.206 -0.2715  1.5267  1.0639
 7946SOL     OW35296   2.699   4.645   4.380 -0.0863  0.2020 -0.3479
 7946SOL    HW135297   2.724   4.680   4.294 -0.3705 -0.1473 -0.5706
 7946SOL    HW235298   2.722   4.553   4.364 -2.6431 -0.7559  1.5552
 7947SOL     OW35299   0.813   1.620   5.181  1.1877  0.0845  0.5459
 7947SOL    HW135300   0.816   1.604   5.086  1.0330 -1.4664  0.7993
 7947SOL    HW235301   0.888   1.678   5.193  1.1548  0.3657 -0.5728
 7948SOL     OW35302   2.637   1.009   2.860  0.1719 -0.2224 -0.1116
 7948SOL    HW135303   2.703   1.010   2.791 -0.3742 -1.2297 -0.6483
 7948SOL    HW235304   2.666   1.089   2.905 -0.3261  0.5270 -1.1217
 7949SOL     OW35305   1.998   3.107   1.265  0.0723 -0.4018  0.2765
 7949SOL    HW135306   2.003   3.074   1.175  2.1633  1.7722 -0.4106
 7949SOL    HW235307   1.918   3.061   1.291 -1.1962  0.8643 -1.4218
 7950SOL     OW35308   4.377   0.555  13.815 -0.1092  0.0614 -0.6557
 7950SOL    HW135309   4.434   0.481  13.835  1.0873  0.5223 -2.3108
 7950SOL    HW235310   4.383   0.557  13.719 -1.6527 -1.6757 -0.7787
 7951SOL     OW35311   0.751   2.283   2.946 -0.2818  0.1692  0.0685
 7951SOL    HW135312   0.661   2.253   2.941 -0.6742  1.5985 -1.3769
 7951SOL    HW235313   0.785   2.238   2.869 -1.6869  1.1379 -1.1221
 7952SOL     OW35314   2.116   4.065   3.265  0.9837  0.6595 -0.3019
 7952SOL    HW135315   2.122   4.135   3.200 -2.2939  0.8977 -0.3804
 7952SOL    HW235316   2.074   3.998   3.211 -0.5524 -1.8196  3.9646
 7953SOL     OW35317   0.834   4.655   2.450 -0.0589 -0.2457 -0.2605
 7953SOL    HW135318   0.858   4.688   2.363  1.0640  0.3389  0.2839
 7953SOL    HW235319   0.758   4.712   2.459 -1.7909 -2.7764  1.1783
 7954SOL     OW35320   0.688   1.041   6.872 -0.2593  0.8025  0.1937
 7954SOL    HW135321   0.617   0.977   6.868  0.5034 -0.2009  2.3849
 7954SOL    HW235322   0.758   0.979   6.891 -0.9843  0.7790  2.8261
 7955SOL     OW35323   2.413   4.192   8.863 -0.0437  0.0542 -0.1262
 7955SOL    HW135324   2.433   4.137   8.787  2.0586  1.5786 -0.6913
 7955SOL    HW235325   2.366   4.133   8.922  1.4325 -1.0588 -0.0447
 7956SOL     OW35326   2.958   1.340  10.301  0.1313 -0.4197  0.4236
 7956SOL    HW135327   2.895   1.303  10.363 -2.0679  2.0761 -0.3077
 7956SOL    HW235328   2.898   1.394  10.249  3.6504  1.8322 -1.2481
 7957SOL     OW35329   2.212   0.221   8.030  0.2960  0.0358 -0.1588
 7957SOL    HW135330   2.306   0.205   8.025  0.6371  2.1690 -0.5042
 7957SOL    HW235331   2.224   0.304   8.077 -0.8284  0.7483 -1.1262
 7958SOL     OW35332   1.742   1.350  11.493 -0.0115  0.1518  0.1736
 7958SOL    HW135333   1.831   1.386  11.489  0.8582 -2.1483 -0.8041
 7958SOL    HW235334   1.757   1.265  11.452  0.0392 -0.3444  1.2123
 7959SOL     OW35335   0.330   2.435   7.622  0.1658 -0.1875  0.5339
 7959SOL    HW135336   0.355   2.528   7.621  0.3155 -0.2356  0.0410
 7959SOL    HW235337   0.240   2.436   7.654 -0.1997  2.6026 -0.5810
 7960SOL     OW35338   1.385   4.019   9.332 -0.3372 -0.6048 -0.4523
 7960SOL    HW135339   1.294   4.023   9.301 -1.2732 -1.3147  2.1475
 7960SOL    HW235340   1.382   4.031   9.427  0.1887  0.2460 -0.5492
 7961SOL     OW35341   2.517   4.563   1.410 -0.4733  0.2351  0.0021
 7961SOL    HW135342   2.458   4.542   1.482  1.5816  0.4794  1.7471
 7961SOL    HW235343   2.459   4.589   1.338 -0.7728 -0.8483 -0.1402
 7962SOL     OW35344   4.675   4.096  15.379  0.2005 -0.3110 -0.8953
 7962SOL    HW135345   4.700   4.081  15.288 -1.2554 -1.5363 -1.1107
 7962SOL    HW235346   4.580   4.101  15.366  0.0451  0.3006  0.4767
 7963SOL     OW35347   3.916   2.091  16.057 -0.1131 -0.1954 -0.0663
 7963SOL    HW135348   3.947   2.152  15.991  1.2335 -1.4488 -0.5728
 7963SOL    HW235349   3.918   2.119  16.148  0.8507  0.1219 -0.1958
 7964SOL     OW35350   1.227   1.498   6.984 -0.1877 -0.3066 -0.3736
 7964SOL    HW135351   1.132   1.509   6.974  0.3187  1.7077 -2.9434
 7964SOL    HW235352   1.237   1.490   6.889 -1.0227 -1.2220 -0.3886
 7965SOL     OW35353   0.237   3.455   6.561  0.2764 -0.1696  0.1523
 7965SOL    HW135354   0.233   3.513   6.485  1.7945 -0.4191 -0.1186
 7965SOL    HW235355   0.155   3.410   6.545  1.1339 -0.6328 -2.9819
 7966SOL     OW35356   1.068   2.820   7.816 -0.6539 -0.2679 -0.7027
 7966SOL    HW135357   1.000   2.887   7.808 -1.5644 -1.0224  0.6751
 7966SOL    HW235358   1.143   2.872   7.844 -2.7816  1.2468  2.0636
 7967SOL     OW35359   4.370   3.928   6.112  0.4250  0.1819 -0.1059
 7967SOL    HW135360   4.297   3.928   6.050 -0.0312 -0.5740  0.4258
 7967SOL    HW235361   4.408   3.841   6.099 -2.0821 -0.9026 -0.2400
 7968SOL     OW35362   3.917   0.105  17.390  0.5458 -0.0087  0.2342
 7968SOL    HW135363   3.840   0.048  17.381  0.3723  0.1721  0.5975
 7968SOL    HW235364   3.962   0.061  17.462  0.5331 -0.0100  0.2416
 7969SOL     OW35365   2.722   2.722  14.978  0.5729  0.1402 -0.1473
 7969SOL    HW135366   2.636   2.686  15.001  0.7149  1.8712  3.1352
 7969SOL    HW235367   2.753   2.632  14.973  3.2226  0.9981  0.8509
 7970SOL     OW35368   1.611   3.449   7.832 -0.6878  0.3126 -0.4135
 7970SOL    HW135369   1.648   3.366   7.804 -1.0210  0.6039 -1.7208
 7970SOL    HW235370   1.616   3.445   7.927  2.0365  0.6092 -0.5231
 7971SOL     OW35371   1.339   1.916   4.473 -0.7337 -0.7316  0.1800
 7971SOL    HW135372   1.271   1.884   4.414 -0.9228 -0.8341  0.4524
 7971SOL    HW235373   1.410   1.916   4.409 -1.6682  1.0817 -0.8559
 7972SOL     OW35374   1.830   0.381  16.691 -0.4107  0.0210 -0.5301
 7972SOL    HW135375   1.879   0.340  16.620  0.2567 -0.6771  0.3297
 7972SOL    HW235376   1.903   0.428  16.731  0.3026 -0.8565 -0.7855
 7973SOL     OW35377   1.691   0.064   5.081  0.1379  0.1297  0.2031
 7973SOL    HW135378   1.718   4.700   5.061  1.7075  0.8971 -1.1742
 7973SOL    HW235379   1.694   0.064   5.176  1.0185  3.1910  0.1820
 7974SOL     OW35380   1.792   2.949  15.327 -0.0100  0.2545 -0.4785
 7974SOL    HW135381   1.786   2.862  15.367  0.6345  0.9152  1.0989
 7974SOL    HW235382   1.721   2.991  15.376  1.9449 -1.2294  3.6734
 7975SOL     OW35383   3.994   1.638  15.783 -0.4436  0.2440 -0.6393
 7975SOL    HW135384   3.982   1.682  15.866  1.1845  1.8058 -1.2348
 7975SOL    HW235385   4.058   1.686  15.730 -0.9340  0.0048 -1.4505
 7976SOL     OW35386   4.511   2.581   9.234  0.4037 -0.5979 -0.4135
 7976SOL    HW135387   4.556   2.553   9.154 -0.0386  0.4991 -1.0449
 7976SOL    HW235388   4.425   2.539   9.225 -0.3323  1.0463 -1.1262
 7977SOL     OW35389   3.514   0.545  12.230  0.2295 -0.0780 -0.3047
 7977SOL    HW135390   3.512   0.639  12.246 -0.6923 -0.1462 -0.0643
 7977SOL    HW235391   3.573   0.522  12.302  0.7301  1.4914 -0.2151
 7978SOL     OW35392   1.402   2.706   2.635 -0.0731 -0.3642  0.1846
 7978SOL    HW135393   1.358   2.786   2.664 -0.2557 -0.3665 -0.0744
 7978SOL    HW235394   1.492   2.738   2.637 -0.5146  1.0885 -2.5028
 7979SOL     OW35395   0.382   3.268  15.678 -0.4373  0.6607 -0.5289
 7979SOL    HW135396   0.370   3.357  15.710  0.3843  0.6006 -0.0533
 7979SOL    HW235397   0.458   3.229  15.722 -0.7338  1.0532  0.3358
 7980SOL     OW35398   3.032   0.807   2.694 -0.5132  0.6566 -0.1798
 7980SOL    HW135399   2.986   0.777   2.773 -0.6039  0.8575 -0.1552
 7980SOL    HW235400   3.063   0.725   2.658  0.3955  0.7903  0.3004
 7981SOL     OW35401   3.025   1.124  14.769  0.3088 -0.1098  0.2728
 7981SOL    HW135402   3.115   1.144  14.746  1.1026 -3.3372  0.6119
 7981SOL    HW235403   3.021   1.028  14.771 -0.4014 -0.1108 -1.8939
 7982SOL     OW35404   1.488   4.084   8.299  0.1801  0.4118  0.2221
 7982SOL    HW135405   1.498   4.161   8.355  1.2548 -1.1359  2.1711
 7982SOL    HW235406   1.504   4.007   8.354 -3.1956 -1.0208 -0.7540
 7983SOL     OW35407   3.745   0.451   5.026 -0.2304 -0.2768 -0.1613
 7983SOL    HW135408   3.797   0.412   4.956 -0.5758  0.3071 -0.7340
 7983SOL    HW235409   3.795   0.439   5.107 -1.2931  2.8044  0.9174
 7984SOL     OW35410   1.507   1.506  10.981 -0.2182 -0.1411  0.6093
 7984SOL    HW135411   1.563   1.574  11.019  1.9746 -1.6400  0.0337
 7984SOL    HW235412   1.471   1.557  10.908 -0.9144 -1.4640  0.0285
 7985SOL     OW35413   3.706   0.597  12.460  0.5005 -0.0877  0.1775
 7985SOL    HW135414   3.786   0.574  12.508  0.9853  1.7379  0.2508
 7985SOL    HW235415   3.704   0.692  12.471  0.3612  0.2216 -2.5221
 7986SOL     OW35416   0.135   0.249   3.701  0.2820 -0.1338 -0.7193
 7986SOL    HW135417   0.218   0.261   3.746  0.0534 -3.0014  0.4964
 7986SOL    HW235418   0.140   0.287   3.613  0.9368  1.5811  0.0652
 7987SOL     OW35419   0.499   1.100   3.693  0.4293 -0.1640 -0.6297
 7987SOL    HW135420   0.502   1.195   3.681 -0.7422 -0.0877 -0.3132
 7987SOL    HW235421   0.412   1.079   3.725  0.9523 -0.3992  0.6314
 7988SOL     OW35422   2.312   4.569   9.518  0.0593 -0.2143  0.2805
 7988SOL    HW135423   2.283   4.493   9.569  0.7063 -1.7600 -1.6713
 7988SOL    HW235424   2.406   4.575   9.535 -0.1292  1.7709  0.6194
 7989SOL     OW35425   0.944   1.502   9.109  0.7947 -0.2167  0.0188
 7989SOL    HW135426   0.940   1.408   9.096  1.7219 -0.3663  0.8018
 7989SOL    HW235427   0.921   1.509   9.202  0.4173 -1.2385 -0.0017
 7990SOL     OW35428   0.858   4.274   5.293 -0.2499  0.3613  0.1758
 7990SOL    HW135429   0.802   4.203   5.263  1.2669  0.1356 -2.1545
 7990SOL    HW235430   0.938   4.221   5.291 -2.0211 -2.2259 -1.0880
 7991SOL     OW35431   3.403   1.271   3.591  0.2912  0.5808  0.6957
 7991SOL    HW135432   3.444   1.202   3.539 -2.3706 -0.0169 -0.5828
 7991SOL    HW235433   3.457   1.275   3.670  2.0871  0.3986 -0.5403
 7992SOL     OW35434   3.482   1.062  11.254 -0.8064 -0.5916  1.2256
 7992SOL    HW135435   3.486   1.144  11.304  0.5885  0.0765  0.0224
 7992SOL    HW235436   3.460   1.001  11.325 -1.5458 -3.0381 -1.1133
 7993SOL     OW35437   4.282   2.863   6.872 -0.0483  0.0592 -0.1070
 7993SOL    HW135438   4.219   2.900   6.934 -0.3346  0.8625 -0.8550
 7993SOL    HW235439   4.268   2.923   6.798  1.9562  0.4339 -0.1857
 7994SOL     OW35440   1.711   2.056   1.541  0.0512  0.0580  0.6240
 7994SOL    HW135441   1.686   1.982   1.486 -1.2308  0.8492  0.1384
 7994SOL    HW235442   1.703   2.029   1.632  2.5967 -0.4441  0.7141
 7995SOL     OW35443   2.036   2.332  15.687 -0.3665 -0.1722 -0.4513
 7995SOL    HW135444   2.117   2.282  15.676  0.1203  0.6110 -0.4462
 7995SOL    HW235445   2.016   2.311  15.778 -0.6429  1.4051 -0.1439
 7996SOL     OW35446   1.918   0.338   4.482  0.2965  0.0162 -0.4260
 7996SOL    HW135447   1.957   0.426   4.479  0.6216 -0.1437 -0.7554
 7996SOL    HW235448   1.987   0.295   4.533 -0.2627 -0.4771 -0.0890
 7997SOL     OW35449   3.627   1.965  14.268  0.0893  0.2110  0.2489
 7997SOL    HW135450   3.554   2.027  14.267  0.2826  0.4338 -0.2692
 7997SOL    HW235451   3.583   1.892  14.310 -0.2934  0.8346  0.9368
 7998SOL     OW35452   1.096   2.912   4.149  0.5592  0.0349 -0.0106
 7998SOL    HW135453   1.097   2.997   4.194 -0.8397  0.9927 -1.8103
 7998SOL    HW235454   1.042   2.857   4.205 -0.5202 -0.3529 -1.4551
 7999SOL     OW35455   3.236   0.120  17.250 -0.5229 -0.0008  0.1771
 7999SOL    HW135456   3.156   0.148  17.294 -0.2445  0.8316  0.1426
 7999SOL    HW235457   3.264   0.203  17.212 -0.2194 -1.1825 -2.2116
 8000SOL     OW35458   2.906   4.640   7.829  0.1405  0.0242  0.6545
 8000SOL    HW135459   2.819   4.615   7.796  0.3950  0.0623 -0.0401
 8000SOL    HW235460   2.923   4.556   7.872 -0.3387 -0.6497 -0.4788
 8001SOL     OW35461   3.047   0.181  13.611  0.7029  0.3526 -0.1612
 8001SOL    HW135462   3.009   0.136  13.687  0.9584  0.0276 -0.2272
 8001SOL    HW235463   3.011   0.269  13.621  2.0327  0.8523  0.2010
 8002SOL     OW35464   0.383   4.362   5.613  0.0940  0.4338 -0.1260
 8002SOL    HW135465   0.328   4.425   5.566 -0.7503 -1.1232 -1.2218
 8002SOL    HW235466   0.463   4.365   5.560 -0.6982 -0.7960 -1.3890
 8003SOL     OW35467   2.747   0.591   6.128 -0.2520  0.3302 -0.0521
 8003SOL    HW135468   2.810   0.662   6.113  0.5708 -0.4784 -0.3959
 8003SOL    HW235469   2.683   0.608   6.059  0.1316  0.9723 -0.2524
 8004SOL     OW35470   4.466   3.105  17.050  0.1875  0.5870 -0.7890
 8004SOL    HW135471   4.375   3.100  17.023  0.3248  0.6981 -1.2749
 8004SOL    HW235472   4.451   3.138  17.139 -0.0309 -3.6461  0.7660
 8005SOL     OW35473   0.185   1.940  14.564  0.3101 -0.3263 -0.3681
 8005SOL    HW135474   0.104   1.900  14.597  0.6209  0.0427  0.8410
 8005SOL    HW235475   0.155   1.947  14.473  1.5239  3.4133 -0.4447
 8006SOL     OW35476   0.752   2.980   5.223  0.5403  0.4615  0.6499
 8006SOL    HW135477   0.661   2.954   5.239  0.3663  1.2776  0.9610
 8006SOL    HW235478   0.792   2.941   5.301 -0.7324 -0.4785  0.8288
 8007SOL     OW35479   1.853   3.956   8.159  0.0257  0.0936 -0.1360
 8007SOL    HW135480   1.902   3.965   8.241 -0.3611  3.0004 -0.2149
 8007SOL    HW235481   1.893   4.022   8.102 -0.9084 -0.4500 -1.4051
 8008SOL     OW35482   2.559   3.519   2.371 -0.1609  0.0154  0.0714
 8008SOL    HW135483   2.562   3.608   2.336 -0.7782  1.2129  3.0111
 8008SOL    HW235484   2.653   3.507   2.359 -0.4078 -0.3437 -1.4771
 8009SOL     OW35485   1.141   0.023   7.282 -0.2193 -0.7024 -0.2638
 8009SOL    HW135486   1.080   0.094   7.264  1.1429  0.8490  1.2310
 8009SOL    HW235487   1.096   4.704   7.353  2.3786 -0.0826  1.7821
 8010SOL     OW35488   3.667   0.811   2.098  0.5791 -0.4259 -0.3289
 8010SOL    HW135489   3.642   0.720   2.110  0.4383  0.1688  3.7090
 8010SOL    HW235490   3.649   0.848   2.184  1.2544  0.1847 -0.4457
 8011SOL     OW35491   2.725   0.571   7.820 -0.5026 -0.1877 -0.0963
 8011SOL    HW135492   2.726   0.571   7.916  1.1323  0.3317 -0.1227
 8011SOL    HW235493   2.820   0.572   7.810 -0.2388  0.0935  2.4174
 8012SOL     OW35494   0.599   0.518   8.465  0.3264  0.1205 -0.3853
 8012SOL    HW135495   0.549   0.526   8.546  2.8685 -0.5394  1.2471
 8012SOL    HW235496   0.586   0.428   8.434 -0.4045 -0.1726  0.7755
 8013SOL     OW35497   3.839   3.774   0.074  0.0137  0.4584  0.4130
 8013SOL    HW135498   3.860   3.755   0.166 -0.3287 -1.5170  0.0817
 8013SOL    HW235499   3.828   3.688   0.034  0.1489  0.5172  0.2509
 8014SOL     OW35500   1.337   2.652   3.849  0.1057 -0.2266 -0.3921
 8014SOL    HW135501   1.383   2.659   3.766  1.5661  0.4561  0.4677
 8014SOL    HW235502   1.381   2.584   3.900  1.2530 -0.2194 -1.3627
 8015SOL     OW35503   3.640   3.218   5.033  0.2979 -0.3440 -0.5766
 8015SOL    HW135504   3.594   3.297   5.062  0.3065 -0.0534 -1.3480
 8015SOL    HW235505   3.728   3.253   5.042  0.4463 -0.5952 -1.0643
 8016SOL     OW35506   1.020   0.669   4.978  0.4637 -0.3080 -0.0952
 8016SOL    HW135507   1.018   0.575   4.991  0.6482 -0.2159  0.5836
 8016SOL    HW235508   1.023   0.669   4.882  1.3212 -0.6424 -0.0675
 8017SOL     OW35509   3.968   4.662  12.425  0.0871  0.2034 -0.0306
 8017SOL    HW135510   4.034   4.709  12.375  1.8146 -1.5757  0.5540
 8017SOL    HW235511   3.997   4.684  12.513  1.4029 -0.9204 -0.1802
 8018SOL     OW35512   2.143   1.932   4.569 -0.6447 -0.0496  0.4059
 8018SOL    HW135513   2.195   1.874   4.626  1.5388  1.1895 -0.3235
 8018SOL    HW235514   2.177   1.923   4.480 -2.4192 -2.4384 -0.0192
 8019SOL     OW35515   2.251   4.214   9.203  0.5231  0.1089 -0.1121
 8019SOL    HW135516   2.344   4.230   9.186  0.7195  1.5018  2.3303
 8019SOL    HW235517   2.224   4.302   9.230 -0.6282 -0.8630  1.8874
 8020SOL     OW35518   1.075   2.378  15.044  0.6683 -0.2361 -0.0661
 8020SOL    HW135519   0.995   2.418  15.009 -0.1419 -1.3489  0.5526
 8020SOL    HW235520   1.052   2.332  15.124  0.5498  4.0907  2.4205
 8021SOL     OW35521   4.543   1.557   8.970  0.1690 -0.4394 -0.7431
 8021SOL    HW135522   4.469   1.570   9.030  0.3037  1.1499 -0.9046
 8021SOL    HW235523   4.526   1.472   8.930 -1.7468  0.0378 -0.9685
 8022SOL     OW35524   4.595   4.629   9.125  0.2920  0.3830  0.0508
 8022SOL    HW135525   4.552   4.646   9.209  1.6613 -1.3156  1.0712
 8022SOL    HW235526   4.556   4.694   9.066 -0.4243 -1.2260 -1.2441
 8023SOL     OW35527   4.392   1.628  10.878  0.2491 -0.0011 -0.0288
 8023SOL    HW135528   4.358   1.652  10.792  0.7350  0.1024 -0.1929
 8023SOL    HW235529   4.481   1.594  10.863 -0.9936 -1.9093 -3.0274
 8024SOL     OW35530   2.436   0.611   3.049 -0.4740  0.1459 -0.8254
 8024SOL    HW135531   2.349   0.611   3.089 -0.0099  0.4944  0.2080
 8024SOL    HW235532   2.427   0.673   2.977 -0.8343 -1.2860 -1.9876
 8025SOL     OW35533   3.584   3.621  10.966  0.0528  0.0378  0.4507
 8025SOL    HW135534   3.612   3.685  10.901 -1.5956  0.9147  0.6000
 8025SOL    HW235535   3.544   3.688  11.023 -0.3649 -0.6652  0.9862
 8026SOL     OW35536   1.865   1.243   7.212 -0.5319  0.2043 -0.0649
 8026SOL    HW135537   1.796   1.192   7.253 -1.3746 -0.0376 -1.8142
 8026SOL    HW235538   1.825   1.253   7.126 -0.1478 -0.4470 -0.3234
 8027SOL     OW35539   3.162   4.141   5.417 -0.5018 -0.2704  0.0911
 8027SOL    HW135540   3.111   4.183   5.348  1.1935 -0.3096 -1.1799
 8027SOL    HW235541   3.202   4.221   5.453 -0.0532 -0.5553  0.2356
 8028SOL     OW35542   3.509   1.654   6.297 -0.6414  0.2352  0.3116
 8028SOL    HW135543   3.519   1.560   6.283 -0.7825 -0.0202  1.9366
 8028SOL    HW235544   3.593   1.693   6.272 -0.1751 -1.0076 -0.0419
 8029SOL     OW35545   3.962   1.325  11.106 -0.3380  0.5961  0.9091
 8029SOL    HW135546   3.919   1.410  11.117  0.3294  1.2253 -1.4570
 8029SOL    HW235547   3.900   1.277  11.161 -1.5539  1.3658  0.1797
 8030SOL     OW35548   4.626   0.081   4.774 -0.9351 -0.0940 -0.0174
 8030SOL    HW135549   4.712   0.104   4.739 -0.7460 -1.5324 -0.4910
 8030SOL    HW235550   4.652   0.023   4.846  0.0800  0.3333 -0.0413
 8031SOL     OW35551   4.033   3.607   8.087 -0.4831 -0.0945  0.5280
 8031SOL    HW135552   4.031   3.545   8.160  0.3648  0.8663  1.3539
 8031SOL    HW235553   3.942   3.633   8.073  0.1236  1.6433 -0.1569
 8032SOL     OW35554   1.524   0.516   2.560  0.3905 -0.4149 -0.8307
 8032SOL    HW135555   1.492   0.431   2.593 -0.6532 -0.0174 -0.7980
 8032SOL    HW235556   1.445   0.568   2.576  0.1104 -0.8879 -0.6812
 8033SOL     OW35557   0.884   0.279  10.858  0.4976  0.0499 -0.2699
 8033SOL    HW135558   0.858   0.316  10.942  1.7616  1.0383 -0.3188
 8033SOL    HW235559   0.796   0.291  10.822  0.2579  2.0399  0.9758
 8034SOL     OW35560   0.734   0.327   9.017  0.6576 -0.1483 -0.4494
 8034SOL    HW135561   0.658   0.385   9.013  0.1782 -0.7361  0.1677
 8034SOL    HW235562   0.799   0.367   9.075  0.5184 -0.4823 -0.0644
 8035SOL     OW35563   0.955   0.771   2.306 -0.3784 -0.1321  0.3065
 8035SOL    HW135564   0.870   0.771   2.350 -0.9797  1.0113 -0.8795
 8035SOL    HW235565   1.006   0.726   2.374 -1.0138 -1.8737 -0.3546
 8036SOL     OW35566   2.715   0.030  14.155 -0.0281 -0.1455 -0.6349
 8036SOL    HW135567   2.789   0.066  14.106 -0.7989  3.3606  0.7757
 8036SOL    HW235568   2.671   0.112  14.177  1.5868 -0.1298  2.5672
 8037SOL     OW35569   2.164   2.769   3.265  0.4390 -0.4623 -0.3484
 8037SOL    HW135570   2.122   2.850   3.236 -1.0348 -0.4135  1.9033
 8037SOL    HW235571   2.255   2.791   3.285  0.9192 -0.1475 -2.8597
 8038SOL     OW35572   1.414   2.295   2.643  0.5038 -0.5454 -0.0675
 8038SOL    HW135573   1.321   2.276   2.651  0.7064 -1.8160 -0.6852
 8038SOL    HW235574   1.442   2.266   2.556  0.5918 -0.6577 -0.0024
 8039SOL     OW35575   1.073   3.084  15.003  0.3160  0.0732  0.1214
 8039SOL    HW135576   1.053   3.100  14.910  0.0621 -2.2006 -0.2170
 8039SOL    HW235577   1.080   3.173  15.037 -2.2466  0.3154  0.0008
 8040SOL     OW35578   2.224   2.120  16.644  0.2784 -0.0327  0.2904
 8040SOL    HW135579   2.290   2.071  16.694  0.3213 -0.6728 -0.3957
 8040SOL    HW235580   2.171   2.045  16.618 -1.2454  0.7148  1.2236
 8041SOL     OW35581   0.015   4.531   2.307 -0.4538  0.5204 -0.1722
 8041SOL    HW135582   0.006   4.538   2.212  0.2321  0.2183 -0.2664
 8041SOL    HW235583   0.089   4.591   2.320  0.8761 -1.3112  0.8206
 8042SOL     OW35584   3.666   2.161   5.003 -0.4897  0.2197  0.3728
 8042SOL    HW135585   3.727   2.149   4.931  0.7804  1.1008  1.3041
 8042SOL    HW235586   3.628   2.074   5.012  1.4970 -0.5612  1.2922
 8043SOL     OW35587   1.356   2.185   2.087  0.3218  0.4334 -0.3405
 8043SOL    HW135588   1.439   2.141   2.069  1.6790  2.2422  1.6102
 8043SOL    HW235589   1.300   2.121   2.043 -1.0574  2.6421 -1.8062
 8044SOL     OW35590   2.098   0.524  16.505 -0.8879 -0.2194 -0.4079
 8044SOL    HW135591   2.152   0.582  16.451  1.0812  0.0847  1.8785
 8044SOL    HW235592   2.155   0.513  16.581 -2.6111 -0.3001  0.8881
 8045SOL     OW35593   0.488   2.995   6.056  0.0258  0.5272  0.1426
 8045SOL    HW135594   0.528   3.024   6.138  1.9343 -0.3143 -0.4912
 8045SOL    HW235595   0.462   3.081   6.022 -3.2031 -0.4584  0.1037
 8046SOL     OW35596   2.136   3.953   4.091  0.1071 -0.1051 -0.0737
 8046SOL    HW135597   2.204   3.994   4.144  3.0150 -0.9670 -3.1013
 8046SOL    HW235598   2.101   4.035   4.057 -0.9591 -0.6484 -0.2822
 8047SOL     OW35599   1.566   4.029   9.865  0.2707 -0.7578  0.7056
 8047SOL    HW135600   1.541   3.957   9.808  0.4435  0.7699 -1.3151
 8047SOL    HW235601   1.652   4.011   9.904 -0.0350  0.5423  1.9904
 8048SOL     OW35602   3.312   0.006   9.102 -0.1089 -0.3539  0.7135
 8048SOL    HW135603   3.324   0.027   9.195 -0.0474  0.0179  0.6208
 8048SOL    HW235604   3.284   4.641   9.104 -0.0119 -0.3984 -0.1866
 8049SOL     OW35605   4.206   0.835  13.739 -0.8681  0.4495 -0.6689
 8049SOL    HW135606   4.147   0.761  13.755 -0.1423 -0.4211 -2.0108
 8049SOL    HW235607   4.267   0.825  13.812 -1.1058  0.1999 -0.5080
 8050SOL     OW35608   0.928   3.601  17.162 -0.1138  0.6650 -0.0839
 8050SOL    HW135609   0.872   3.544  17.214  0.6010  2.2642  2.4180
 8050SOL    HW235610   0.906   3.562  17.078  2.9654 -0.0097 -0.5988
 8051SOL     OW35611   0.760   4.456   8.384  0.1842 -0.8738 -0.6997
 8051SOL    HW135612   0.710   4.392   8.434 -1.6457 -0.0220 -1.4071
 8051SOL    HW235613   0.849   4.442   8.416  0.4129  0.5364 -0.7095
 8052SOL     OW35614   1.829   0.111   1.899  0.0089 -0.3689 -0.5687
 8052SOL    HW135615   1.840   0.093   1.806 -0.8956 -2.2004 -0.3220
 8052SOL    HW235616   1.734   0.121   1.905 -0.3329 -2.5887 -2.3319
 8053SOL     OW35617   2.030   0.721   4.336 -0.3122 -0.3845  0.0532
 8053SOL    HW135618   2.022   0.659   4.409  3.5628  2.3735  2.8436
 8053SOL    HW235619   2.100   0.778   4.369  2.2483 -2.7675 -1.2402
 8054SOL     OW35620   0.683   2.957  12.408 -0.1743 -0.6698 -0.2872
 8054SOL    HW135621   0.609   2.896  12.409 -0.5858 -0.1611  1.4804
 8054SOL    HW235622   0.750   2.891  12.423 -0.7514 -0.8876  1.3778
 8055SOL     OW35623   3.431   1.548   3.969 -0.1431 -0.2035  0.1314
 8055SOL    HW135624   3.375   1.626   3.970  1.0901  0.7112 -1.1598
 8055SOL    HW235625   3.500   1.573   3.907 -1.0276  2.2432  0.1369
 8056SOL     OW35626   0.886   1.702   8.418 -0.1548  0.6941  0.3915
 8056SOL    HW135627   0.893   1.768   8.348  0.0122 -0.1777 -0.4135
 8056SOL    HW235628   0.792   1.710   8.430 -0.3222  0.2871 -0.6651
 8057SOL     OW35629   2.879   3.417   4.585 -0.1947  0.1851  0.0752
 8057SOL    HW135630   2.925   3.407   4.668  0.2002  2.5128  0.1180
 8057SOL    HW235631   2.947   3.462   4.535  1.3538 -2.7027 -0.4343
 8058SOL     OW35632   3.087   3.177   4.027 -0.1006  0.9719  0.2909
 8058SOL    HW135633   2.998   3.182   3.993 -0.0694 -0.6392 -0.0483
 8058SOL    HW235634   3.106   3.097   3.978 -1.2099  0.6366  0.3976
 8059SOL     OW35635   3.965   1.839   1.084 -0.2288  0.2353  0.4001
 8059SOL    HW135636   3.952   1.915   1.027 -0.1273 -0.4301 -0.5094
 8059SOL    HW235637   3.892   1.786   1.053 -1.0833  1.6284  0.0338
 8060SOL     OW35638   0.253   3.357   3.274  0.0879 -0.1737  0.4991
 8060SOL    HW135639   0.220   3.444   3.251 -0.9377 -0.1828  1.8983
 8060SOL    HW235640   0.207   3.298   3.214 -0.6417  0.1194  0.7721
 8061SOL     OW35641   0.045   4.179   8.405  0.2439  0.1944  0.4813
 8061SOL    HW135642   0.012   4.106   8.353  1.0145  1.0164 -1.1529
 8061SOL    HW235643   0.121   4.207   8.354 -0.0889 -0.3625 -0.3205
 8062SOL     OW35644   1.924   1.664  17.209 -0.5042  0.1764 -0.5196
 8062SOL    HW135645   1.860   1.605  17.248  1.1589 -1.7175 -0.6453
 8062SOL    HW235646   1.921   1.738  17.269 -1.2469  0.5011 -0.9638
 8063SOL     OW35647   4.423   4.070  10.720  0.5867 -0.1150 -0.0659
 8063SOL    HW135648   4.494   4.076  10.783  0.1602 -1.6501  0.5636
 8063SOL    HW235649   4.380   3.986  10.738 -0.7023  0.5310 -0.1489
 8064SOL     OW35650   1.714   1.118   9.028 -0.0531  0.2794  0.4422
 8064SOL    HW135651   1.696   1.123   9.122 -0.8036  1.6782  0.2242
 8064SOL    HW235652   1.803   1.154   9.024  0.8177 -2.0583 -1.1767
 8065SOL     OW35653   4.062   2.376  13.731 -0.1493 -0.0927 -1.2868
 8065SOL    HW135654   4.029   2.363  13.820  0.6353 -2.5581 -1.3548
 8065SOL    HW235655   4.062   2.472  13.733 -3.0331 -0.1352 -0.1493
 8066SOL     OW35656   1.189   3.420   1.935  0.0883  0.5672  0.0348
 8066SOL    HW135657   1.142   3.490   1.890  0.8430 -0.4007 -2.2370
 8066SOL    HW235658   1.238   3.387   1.860  1.2051  0.6097  0.7381
 8067SOL     OW35659   2.277   2.575   3.596 -0.2688  0.1865 -0.5401
 8067SOL    HW135660   2.186   2.575   3.626  0.9686 -0.8685  3.1641
 8067SOL    HW235661   2.266   2.529   3.513 -1.9009  0.3364 -0.4190
 8068SOL     OW35662   1.427   3.573   6.300 -0.3678 -0.2719  0.0824
 8068SOL    HW135663   1.506   3.572   6.245 -1.1164 -1.9998 -0.9554
 8068SOL    HW235664   1.412   3.666   6.319  0.6717  0.1509 -1.1939
 8069SOL     OW35665   0.160   3.408  12.748 -0.6333 -0.3599 -0.0588
 8069SOL    HW135666   0.097   3.393  12.818 -2.5155 -1.2716 -1.9276
 8069SOL    HW235667   0.100   3.416  12.674 -1.3632  1.9585  0.7789
 8070SOL     OW35668   4.539   2.663  10.539 -0.0091  0.0022 -0.4162
 8070SOL    HW135669   4.569   2.749  10.508 -0.2547 -0.2958 -1.4633
 8070SOL    HW235670   4.450   2.649  10.508 -1.2113  3.2014  1.5227
 8071SOL     OW35671   3.838   3.966  15.157 -0.3489  0.1690 -0.6894
 8071SOL    HW135672   3.883   3.999  15.234  0.4129  0.2683 -1.1727
 8071SOL    HW235673   3.864   3.874  15.162  0.1386  0.2900 -0.8905
 8072SOL     OW35674   1.521   1.639   2.282 -0.0231 -0.6780  0.0633
 8072SOL    HW135675   1.506   1.701   2.353  0.5453 -0.6508  0.1526
 8072SOL    HW235676   1.432   1.636   2.246  0.1289  0.2500 -0.3994
 8073SOL     OW35677   0.074   3.242  17.364  0.2794 -0.5529 -0.1068
 8073SOL    HW135678   0.129   3.311  17.401 -0.6015  0.1365 -0.0724
 8073SOL    HW235679   0.019   3.211  17.436  0.7453 -0.7152  0.1806
 8074SOL     OW35680   2.808   1.984   6.886 -1.2034 -0.1345 -0.1598
 8074SOL    HW135681   2.847   2.059   6.840  0.1704 -1.0420 -0.4552
 8074SOL    HW235682   2.822   2.023   6.972  0.7019  1.2710 -1.1087
 8075SOL     OW35683   0.989   2.611  15.533  0.0416 -0.1064 -0.4521
 8075SOL    HW135684   1.047   2.536  15.545  1.3227  1.0762  0.7833
 8075SOL    HW235685   1.055   2.679  15.515  1.8017 -1.6358  0.2138
 8076SOL     OW35686   2.611   1.909   5.957 -0.1363 -0.3087  0.1326
 8076SOL    HW135687   2.659   1.964   6.019 -5.3730  3.1554  1.1480
 8076SOL    HW235688   2.624   1.955   5.874 -0.7971  1.4767  1.0135
 8077SOL     OW35689   4.008   1.180   6.483  0.0451  0.2370 -0.2639
 8077SOL    HW135690   4.041   1.261   6.522 -0.8343  0.2879  0.3752
 8077SOL    HW235691   4.027   1.194   6.390  1.6191 -0.3050 -0.0214
 8078SOL     OW35692   1.341   4.509   4.769 -0.3279  0.1263  0.2993
 8078SOL    HW135693   1.339   4.559   4.851  2.1636  0.7669 -0.0130
 8078SOL    HW235694   1.352   4.578   4.703  1.2236  0.4672  0.9059
 8079SOL     OW35695   3.912   1.294   5.231  0.7147  0.4755 -0.2110
 8079SOL    HW135696   3.873   1.209   5.252  0.7435  0.3404 -0.6973
 8079SOL    HW235697   3.833   1.348   5.229  0.6308  0.3254 -1.1174
 8080SOL     OW35698   1.808   2.374   5.932  0.9918  0.0795  0.1434
 8080SOL    HW135699   1.804   2.465   5.960 -0.1574  0.2509 -0.5580
 8080SOL    HW235700   1.792   2.369   5.838 -0.3148 -0.1296  0.3631
 8081SOL     OW35701   3.711   4.662   3.449 -0.4345  0.0070  0.2989
 8081SOL    HW135702   3.797   4.649   3.487  0.1274  0.2704 -0.8824
 8081SOL    HW235703   3.659   4.615   3.514  2.2494 -2.7257  0.4936
 8082SOL     OW35704   2.354   3.390   8.024 -0.1173 -0.5454 -0.0364
 8082SOL    HW135705   2.426   3.346   7.979  0.0362 -0.0530 -0.2755
 8082SOL    HW235706   2.318   3.450   7.958 -1.9874  1.1400  2.5166
 8083SOL     OW35707   1.510   2.587  16.237  0.3024 -0.3257 -0.2880
 8083SOL    HW135708   1.529   2.572  16.145  4.0610  0.1242  0.4191
 8083SOL    HW235709   1.414   2.587  16.235  0.3043  1.6677 -0.3524
 8084SOL     OW35710   2.627   0.897   2.421 -0.0549  0.1298 -1.0330
 8084SOL    HW135711   2.717   0.878   2.392  0.4652  1.1322 -0.0438
 8084SOL    HW235712   2.611   0.808   2.454  0.0033  0.9711  1.2299
 8085SOL     OW35713   4.437   2.747  11.330 -0.1650  0.3330  0.1873
 8085SOL    HW135714   4.510   2.805  11.307 -0.2880  0.1638 -0.6286
 8085SOL    HW235715   4.401   2.719  11.246  0.5315 -3.0407  0.9839
 8086SOL     OW35716   3.477   0.262   4.852 -0.7520 -0.1795 -0.3659
 8086SOL    HW135717   3.386   0.254   4.879 -0.8367  0.3372 -0.4870
 8086SOL    HW235718   3.526   0.232   4.929 -0.6499  3.1231  0.8521
 8087SOL     OW35719   2.914   0.310   2.784  0.5526  0.7589  0.0233
 8087SOL    HW135720   2.980   0.288   2.850  0.9375  1.5763 -0.1011
 8087SOL    HW235721   2.887   0.222   2.757  1.3449 -0.0276  1.7723
 8088SOL     OW35722   4.685   1.982  11.338  0.1105  0.2406  0.4249
 8088SOL    HW135723   0.044   1.940  11.342 -0.2908 -0.7096 -0.9647
 8088SOL    HW235724   4.627   1.906  11.335  1.2777 -0.6732  1.0220
 8089SOL     OW35725   3.288   4.542   6.901 -0.3016 -0.1211  0.1475
 8089SOL    HW135726   3.291   4.510   6.991 -1.0317 -1.0474 -0.1513
 8089SOL    HW235727   3.226   4.484   6.856 -1.8760  1.9726 -0.3540
 8090SOL     OW35728   3.629   1.802   1.282  0.0139 -0.0801  0.1669
 8090SOL    HW135729   3.559   1.778   1.221  0.9499 -0.2520 -0.8276
 8090SOL    HW235730   3.680   1.721   1.284  0.3344  0.1027 -0.6675
 8091SOL     OW35731   3.005   0.885  14.627 -0.2760  0.1562 -0.0225
 8091SOL    HW135732   2.925   0.837  14.649  1.6044 -2.7929  0.3771
 8091SOL    HW235733   2.992   0.917  14.538  1.6247 -0.3598 -0.4788
 8092SOL     OW35734   3.456   2.021  15.236  0.1857  0.1039  0.0309
 8092SOL    HW135735   3.432   1.970  15.313  0.7051  0.1607  0.2295
 8092SOL    HW235736   3.549   2.021  15.257  0.0968  0.9388  0.4417
 8093SOL     OW35737   1.622   4.487   9.248 -0.3097  0.3484  0.2601
 8093SOL    HW135738   1.541   4.449   9.283 -0.5263  1.3089  0.7757
 8093SOL    HW235739   1.594   4.573   9.216 -1.0045 -1.4584 -4.0472
 8094SOL     OW35740   3.276   2.942   3.659  0.3273 -0.5351 -0.2194
 8094SOL    HW135741   3.323   2.903   3.585  0.9684  0.9866 -0.6180
 8094SOL    HW235742   3.190   2.913   3.629  0.4950 -0.9225 -0.3303
 8095SOL     OW35743   2.190   3.051   4.933 -0.0100  0.0919 -0.0121
 8095SOL    HW135744   2.229   3.138   4.936 -2.0566  1.0173  0.3237
 8095SOL    HW235745   2.239   3.011   4.861  0.1132 -0.6087  0.4733
 8096SOL     OW35746   2.993   3.495   4.838  0.1168 -0.0511  0.2291
 8096SOL    HW135747   2.951   3.569   4.882 -1.0258 -0.3577 -0.3372
 8096SOL    HW235748   3.038   3.447   4.907  0.3404  0.4233  0.4139
 8097SOL     OW35749   0.432   1.266  10.497 -0.1914 -0.0499 -0.4992
 8097SOL    HW135750   0.380   1.339  10.462  1.2313  1.0538 -0.2961
 8097SOL    HW235751   0.488   1.312  10.560 -1.2212  1.3999 -0.6214
 8098SOL     OW35752   2.283   2.236   2.933 -0.4160 -0.2157  0.0141
 8098SOL    HW135753   2.349   2.301   2.911 -1.1927  0.3531 -0.6367
 8098SOL    HW235754   2.202   2.259   2.887 -0.2111  0.1703 -0.1571
 8099SOL     OW35755   0.931   0.141   4.279 -0.1514  0.3172  0.4830
 8099SOL    HW135756   1.006   0.097   4.239 -1.4167 -2.4896  1.2043
 8099SOL    HW235757   0.861   0.110   4.222  0.6193 -0.4282 -0.0606
 8100SOL     OW35758   1.938   1.522   3.419 -0.2391 -0.0134 -0.2795
 8100SOL    HW135759   2.025   1.512   3.382  0.1017  0.6193  0.3561
 8100SOL    HW235760   1.881   1.536   3.343  0.4566  2.4724 -0.3506
 8101SOL     OW35761   4.133   2.414  11.210 -0.7114  0.3494 -0.0874
 8101SOL    HW135762   4.085   2.335  11.186 -1.2860  1.2494 -1.9278
 8101SOL    HW235763   4.219   2.378  11.232 -0.1448  1.7713 -0.0276
 8102SOL     OW35764   1.919   3.333   5.966 -0.0602  0.0476 -0.0830
 8102SOL    HW135765   1.908   3.272   5.893 -1.3171 -2.1822  1.9823
 8102SOL    HW235766   1.857   3.300   6.030 -0.5802  1.8269  0.3335
 8103SOL     OW35767   3.574   1.124   8.415  0.4746 -0.1976 -0.2309
 8103SOL    HW135768   3.527   1.191   8.366  0.2012 -0.2199  0.0063
 8103SOL    HW235769   3.661   1.123   8.375  1.0428  1.1669  0.9628
 8104SOL     OW35770   3.992   3.301   6.991 -0.3645 -0.2352  0.1996
 8104SOL    HW135771   3.985   3.343   7.077  2.0378 -0.5209  0.5380
 8104SOL    HW235772   3.940   3.223   7.009  0.9074 -1.2987 -0.7074
 8105SOL     OW35773   4.577   4.682   4.516 -0.1405  0.0298 -0.1063
 8105SOL    HW135774   4.546   0.043   4.542  0.4772  0.5158 -0.9801
 8105SOL    HW235775   4.669   4.685   4.544 -0.6266  1.6349  1.3584
 8106SOL     OW35776   0.156   1.417  15.331 -0.3640 -0.6541  0.3001
 8106SOL    HW135777   0.146   1.508  15.302  0.7723 -1.2541 -1.9798
 8106SOL    HW235778   0.124   1.374  15.252  0.7936  0.1783 -0.6133
 8107SOL     OW35779   3.453   4.077   4.963  0.0754  0.3688  0.1102
 8107SOL    HW135780   3.540   4.098   4.929  0.6320  0.3073  1.4883
 8107SOL    HW235781   3.460   3.987   4.994 -2.6292 -0.2954 -1.2076
 8108SOL     OW35782   2.404   0.361  10.722 -0.4510  0.1580  0.1939
 8108SOL    HW135783   2.338   0.309  10.769 -0.3384 -0.6245 -0.5266
 8108SOL    HW235784   2.410   0.318  10.637 -1.2196  1.2936 -0.4297
 8109SOL     OW35785   3.723   3.263   0.962 -0.4199  0.0063 -0.0317
 8109SOL    HW135786   3.751   3.221   1.044 -2.4941  0.4262  0.8885
 8109SOL    HW235787   3.646   3.311   0.993  0.0761  1.0112 -0.3700
 8110SOL     OW35788   2.306   0.250   5.364 -1.2291  0.2309  0.4113
 8110SOL    HW135789   2.292   0.299   5.284 -1.0822  1.9406  1.4312
 8110SOL    HW235790   2.391   0.211   5.344 -0.5616  1.3610  1.0061
 8111SOL     OW35791   0.836   2.276   6.232  0.3809 -0.5336  0.2547
 8111SOL    HW135792   0.875   2.302   6.148  1.5137  2.6921  1.7889
 8111SOL    HW235793   0.877   2.332   6.298 -0.8628  0.0982  0.5021
 8112SOL     OW35794   2.185   4.387   1.702 -0.2389  0.1957  0.3441
 8112SOL    HW135795   2.187   4.474   1.664  0.0513 -0.3630 -0.9043
 8112SOL    HW235796   2.277   4.376   1.726 -0.0246  1.4573  0.0737
 8113SOL     OW35797   4.616   0.755   8.344 -0.0951 -0.2666  0.4174
 8113SOL    HW135798   4.645   0.839   8.309 -0.4919  0.3143  1.4934
 8113SOL    HW235799   4.527   0.756   8.309  0.0061  2.5368  0.2727
 8114SOL     OW35800   0.434   2.879   7.139  0.2834 -0.3473 -0.1370
 8114SOL    HW135801   0.409   2.847   7.225 -2.3507 -1.7580 -1.4277
 8114SOL    HW235802   0.363   2.938   7.113 -0.0383 -1.5079 -1.8515
 8115SOL     OW35803   2.864   0.459   5.619  0.3282 -1.0050  0.3881
 8115SOL    HW135804   2.846   0.387   5.679  0.8391  0.6463  2.5102
 8115SOL    HW235805   2.956   0.441   5.599  1.0186  0.5519  2.1275
 8116SOL     OW35806   4.071   4.474  15.650 -0.3327 -0.0242  0.2618
 8116SOL    HW135807   4.047   4.566  15.640 -1.4231 -0.2745  0.6254
 8116SOL    HW235808   4.140   4.493  15.713 -0.4747  1.3938 -0.0075
 8117SOL     OW35809   2.813   1.528   7.161 -0.0458  0.7604 -0.1832
 8117SOL    HW135810   2.860   1.571   7.233  3.6383 -1.3931 -1.2630
 8117SOL    HW235811   2.808   1.603   7.102  0.4355  1.8049  1.1090
 8118SOL     OW35812   4.098   3.521  11.875 -0.3724 -0.4135 -0.1429
 8118SOL    HW135813   4.109   3.466  11.797 -0.3597 -0.7574  0.1051
 8118SOL    HW235814   4.096   3.599  11.819  1.4248  0.0831  0.5048
 8119SOL     OW35815   2.634   1.160  10.243 -0.1072  0.2803  0.0786
 8119SOL    HW135816   2.717   1.151  10.289  0.5960  0.0417 -1.2290
 8119SOL    HW235817   2.618   1.069  10.215 -1.6110  0.5059  0.1940
 8120SOL     OW35818   1.220   0.123   3.836  0.3602  0.0018  0.2538
 8120SOL    HW135819   1.293   0.149   3.780  0.8600 -2.4533 -0.2067
 8120SOL    HW235820   1.216   0.028   3.834  0.4678  0.0261 -0.8242
 8121SOL     OW35821   3.740   1.217   5.902 -0.1662  0.0690  0.2715
 8121SOL    HW135822   3.655   1.226   5.860 -1.0453 -0.6097  1.9225
 8121SOL    HW235823   3.802   1.221   5.828 -0.1908  0.7250  0.2881
 8122SOL     OW35824   1.131   4.413  12.330 -0.0719  0.0858  0.1073
 8122SOL    HW135825   1.117   4.378  12.418  0.2171 -0.1867  0.0421
 8122SOL    HW235826   1.142   4.507  12.347  0.4165  0.4026 -1.8756
 8123SOL     OW35827   4.291   3.787   1.355 -0.6524  0.3906  0.3652
 8123SOL    HW135828   4.244   3.770   1.437 -0.4066 -0.7811  0.2677
 8123SOL    HW235829   4.377   3.751   1.376 -1.0208  0.1205  1.4333
 8124SOL     OW35830   4.545   0.306   3.596 -0.5170  0.1569  0.0498
 8124SOL    HW135831   4.621   0.335   3.647 -0.5358  1.5381 -0.6925
 8124SOL    HW235832   4.537   0.375   3.529 -0.5447 -0.2463 -0.3669
 8125SOL     OW35833   1.167   0.351   3.497 -0.3968 -0.2745  0.9883
 8125SOL    HW135834   1.130   0.432   3.530 -2.0570 -0.4588 -0.4639
 8125SOL    HW235835   1.154   0.293   3.572  1.7707 -3.3267 -0.9588
 8126SOL     OW35836   1.951   3.371   1.961  0.0738 -0.3688  0.0309
 8126SOL    HW135837   1.859   3.382   1.936 -0.2439 -3.4324 -0.1278
 8126SOL    HW235838   1.994   3.417   1.889 -0.6363 -1.3454 -1.0095
 8127SOL     OW35839   3.003   3.342  16.674 -0.0568  0.0127 -0.4340
 8127SOL    HW135840   2.934   3.407  16.678 -0.8011 -0.5709 -4.1354
 8127SOL    HW235841   2.963   3.257  16.653  3.0294 -1.7752  0.9642
 8128SOL     OW35842   1.967   3.339  17.342 -0.6392  0.3283  0.3126
 8128SOL    HW135843   1.982   3.426  17.305  0.8911 -0.0043  0.1514
 8128SOL    HW235844   2.058   3.310  17.346 -0.5225  0.6948  0.3965
 8129SOL     OW35845   4.467   0.313   0.890 -0.7538 -0.3561  0.2649
 8129SOL    HW135846   4.422   0.333   0.808  0.3083  0.0645 -0.2248
 8129SOL    HW235847   4.532   0.384   0.896  0.7321 -1.3344 -4.0700
 8130SOL     OW35848   1.259   4.588   1.955 -0.2309  0.0513  0.0776
 8130SOL    HW135849   1.231   4.667   2.000 -0.3778  1.2916 -2.2085
 8130SOL    HW235850   1.277   4.600   1.862  1.5478  1.4639  0.6063
 8131SOL     OW35851   1.034   0.421  12.982 -0.2488 -0.8796 -0.5175
 8131SOL    HW135852   1.029   0.408  13.077  4.5429 -0.2321 -0.1471
 8131SOL    HW235853   0.962   0.483  12.969  0.8205  0.0503 -2.1413
 8132SOL     OW35854   2.352   2.124   8.990  0.4543 -0.0494 -0.2901
 8132SOL    HW135855   2.355   2.207   9.037  0.7915  0.8852 -1.9629
 8132SOL    HW235856   2.355   2.152   8.899  1.8385  0.1450 -0.1948
 8133SOL     OW35857   4.182   0.173   7.336  0.2702 -0.3384  0.0775
 8133SOL    HW135858   4.267   0.204   7.303  0.5172 -3.0666 -1.8662
 8133SOL    HW235859   4.208   0.124   7.414  0.0045 -2.3459 -1.0779
 8134SOL     OW35860   2.986   1.057   7.691  0.0800 -0.5521  0.4225
 8134SOL    HW135861   2.968   1.103   7.609  1.1599 -0.4473  0.2424
 8134SOL    HW235862   2.908   1.001   7.695  0.1077 -0.7625 -2.2778
 8135SOL     OW35863   0.337   2.894   1.403  0.3355 -0.1616  0.6349
 8135SOL    HW135864   0.267   2.946   1.363  2.3853  0.6244 -1.9089
 8135SOL    HW235865   0.374   2.963   1.459  0.7726  2.4096 -2.8255
 8136SOL     OW35866   3.795   1.056   5.292 -0.2673 -0.4191  0.3085
 8136SOL    HW135867   3.701   1.076   5.284 -0.2463  0.7767  3.0414
 8136SOL    HW235868   3.777   0.963   5.304  1.3989 -1.1056 -2.7479
 8137SOL     OW35869   0.734   2.525   9.520  0.7416  0.6910 -0.0419
 8137SOL    HW135870   0.663   2.573   9.476 -0.7983  1.1267  2.9414
 8137SOL    HW235871   0.782   2.592   9.570  2.9526 -1.2556  0.4359
 8138SOL     OW35872   2.945   1.835   6.347  0.6275  0.4151  0.1711
 8138SOL    HW135873   3.017   1.890   6.380  0.3349 -0.5147  2.3778
 8138SOL    HW235874   2.939   1.871   6.259 -0.9586 -1.9931 -0.7034
 8139SOL     OW35875   2.064   1.447   7.749  0.4796  0.4332  0.1206
 8139SOL    HW135876   2.000   1.517   7.743  1.8255  1.6595  0.0150
 8139SOL    HW235877   2.071   1.425   7.841  1.7556  0.2694 -0.0157
 8140SOL     OW35878   2.271   1.445   4.855 -0.2104  0.1368 -0.3500
 8140SOL    HW135879   2.264   1.352   4.834  0.1322  0.5483 -2.3317
 8140SOL    HW235880   2.349   1.455   4.910 -1.8837  0.1073  2.0028
 8141SOL     OW35881   2.627   3.654   3.649 -0.2193  0.4484 -0.2184
 8141SOL    HW135882   2.546   3.614   3.617 -0.4552  2.4813 -2.1595
 8141SOL    HW235883   2.618   3.748   3.633  0.4277  0.7222  1.0607
 8142SOL     OW35884   3.890   2.533   9.573  0.3744  0.3370  0.6737
 8142SOL    HW135885   3.966   2.570   9.619 -0.5484  0.7599  1.8568
 8142SOL    HW235886   3.825   2.601   9.592  0.0647  0.2937 -0.2189
 8143SOL     OW35887   1.114   3.204   2.793  0.1162 -0.1188 -0.1254
 8143SOL    HW135888   1.029   3.222   2.754  0.8111 -0.7804 -1.9329
 8143SOL    HW235889   1.157   3.288   2.773 -0.0245 -0.2287 -0.8600
 8144SOL     OW35890   1.160   0.265   4.765 -0.3526  0.1433  0.1570
 8144SOL    HW135891   1.253   0.281   4.776 -0.1543 -1.1697  0.3694
 8144SOL    HW235892   1.147   0.210   4.688  1.4991  1.7036 -1.2698
 8145SOL     OW35893   3.593   0.362   8.747 -0.2443 -0.5170 -0.0317
 8145SOL    HW135894   3.566   0.445   8.709 -0.5095  0.2678  1.8689
 8145SOL    HW235895   3.617   0.320   8.665 -0.0344  2.2961 -1.4040
 8146SOL     OW35896   3.394   2.076   5.167 -0.1851  1.3195 -0.2458
 8146SOL    HW135897   3.342   2.084   5.247 -0.0427 -1.2735  0.0988
 8146SOL    HW235898   3.410   1.984   5.186 -0.9709  0.9216 -1.5170
 8147SOL     OW35899   2.851   1.378  15.065  0.1439 -0.4111  0.0377
 8147SOL    HW135900   2.891   1.387  14.978  0.3045 -1.7279 -0.0309
 8147SOL    HW235901   2.830   1.470  15.083  3.1810  0.6117 -1.6179
 8148SOL     OW35902   2.427   1.539  14.564  0.1540 -0.2169  0.2166
 8148SOL    HW135903   2.458   1.629  14.548 -1.5411 -0.1172 -2.6431
 8148SOL    HW235904   2.446   1.512  14.474  1.0673 -2.3934  1.0782
 8149SOL     OW35905   1.383   0.120   7.432 -0.3781 -0.5129  0.7142
 8149SOL    HW135906   1.339   0.204   7.421  0.8360  0.0065 -0.1501
 8149SOL    HW235907   1.319   0.065   7.387 -0.0641 -0.5383  0.3084
 8150SOL     OW35908   0.323   4.111   9.394  0.0897 -0.0439  0.5480
 8150SOL    HW135909   0.410   4.074   9.405 -0.0571  0.1584  2.3304
 8150SOL    HW235910   0.354   4.198   9.368  0.9673  0.1107  2.1196
 8151SOL     OW35911   4.303   2.743   4.512  0.3261 -0.1586  0.3412
 8151SOL    HW135912   4.381   2.743   4.457 -0.5128  0.1721 -0.8715
 8151SOL    HW235913   4.332   2.691   4.586 -1.0328 -1.1538  0.1846
 8152SOL     OW35914   1.444   2.651   4.224 -0.3417  0.4510 -0.1927
 8152SOL    HW135915   1.442   2.735   4.178 -0.0790  0.3116 -0.4576
 8152SOL    HW235916   1.455   2.590   4.151  0.3401 -0.7617  0.9410
 8153SOL     OW35917   0.033   4.507  16.230  0.1851  0.7272 -0.6436
 8153SOL    HW135918   0.045   4.533  16.321 -0.0467 -0.0724 -0.3831
 8153SOL    HW235919   0.053   4.413  16.229  1.2563  0.9456  0.1982
 8154SOL     OW35920   3.640   3.741  16.841  0.1075  0.0116  0.3597
 8154SOL    HW135921   3.696   3.739  16.918  0.7657  0.6388 -0.1082
 8154SOL    HW235922   3.580   3.810  16.867  0.2475  0.6072 -0.8999
 8155SOL     OW35923   0.505   4.522   4.011 -0.3150 -0.0143  0.6418
 8155SOL    HW135924   0.499   4.542   4.104 -0.4961 -0.3503  0.7032
 8155SOL    HW235925   0.462   4.437   4.008  0.0296 -0.1375 -1.0035
 8156SOL     OW35926   3.658   0.013   2.611 -0.1368  0.1788 -0.0177
 8156SOL    HW135927   3.596   0.032   2.540  0.5996 -1.1373 -1.0130
 8156SOL    HW235928   3.615   4.664   2.651  0.0119  1.2387  2.1176
 8157SOL     OW35929   3.684   3.423   5.839 -0.4345 -0.2598  0.1322
 8157SOL    HW135930   3.778   3.416   5.857 -0.6721 -0.1646  1.3905
 8157SOL    HW235931   3.665   3.485   5.910  3.3578  0.8668  0.1826
 8158SOL     OW35932   1.732   1.435  13.913  0.6125 -0.4199 -0.4569
 8158SOL    HW135933   1.790   1.500  13.872  0.2910  0.0709 -0.1302
 8158SOL    HW235934   1.775   1.352  13.891 -1.1568 -1.4677  0.0875
 8159SOL     OW35935   0.856   4.500  17.143 -0.5031  0.6784  0.2711
 8159SOL    HW135936   0.819   4.587  17.158 -1.6936  0.6533 -2.4476
 8159SOL    HW235937   0.788   4.445  17.183  1.7222  0.2994  3.5020
 8160SOL     OW35938   3.359   2.172   0.911  0.5874 -0.0314  0.0516
 8160SOL    HW135939   3.430   2.125   0.954  1.4716  0.5198 -0.7834
 8160SOL    HW235940   3.284   2.114   0.928  0.0510  0.9144  0.8904
 8161SOL     OW35941   2.841   2.453  14.942 -0.7185 -0.4466  0.7610
 8161SOL    HW135942   2.903   2.405  14.997 -1.0633  0.5423  2.0105
 8161SOL    HW235943   2.763   2.400  14.959  0.1969 -1.9116  0.4396
 8162SOL     OW35944   0.221   0.632   0.443 -0.2936 -0.1245  0.1193
 8162SOL    HW135945   0.185   0.657   0.528 -1.2153 -0.0639 -0.2932
 8162SOL    HW235946   0.149   0.665   0.389  0.8393  0.7693 -0.8625
 8163SOL     OW35947   2.823   2.332   0.425  0.4064  0.9570 -0.0970
 8163SOL    HW135948   2.757   2.390   0.386  1.1305  1.1690 -1.0059
 8163SOL    HW235949   2.776   2.259   0.465  0.1049  1.5966  0.7195
 8164SOL     OW35950   1.814   0.328   2.618 -0.1155  0.2719  0.1847
 8164SOL    HW135951   1.902   0.335   2.580  0.4530 -1.3797  1.2105
 8164SOL    HW235952   1.766   0.342   2.537 -1.9409  0.7134  1.3433
 8165SOL     OW35953   1.267   3.412   2.715 -0.6523  0.1851 -0.0903
 8165SOL    HW135954   1.327   3.361   2.770 -0.6903 -0.8824 -1.0577
 8165SOL    HW235955   1.326   3.434   2.643 -2.7696  0.4494 -1.7489
 8166SOL     OW35956   4.613   4.571   3.752 -0.0916  0.2200  0.0578
 8166SOL    HW135957   4.702   4.602   3.735  1.1078 -2.0030  2.3568
 8166SOL    HW235958   4.565   4.624   3.687 -0.8486 -1.2907 -0.6176
 8167SOL     OW35959   0.290   2.618   7.360 -0.1395 -0.2525 -0.0247
 8167SOL    HW135960   0.346   2.654   7.429 -2.0331 -0.6302  1.7158
 8167SOL    HW235961   0.252   2.696   7.321 -0.6794 -0.7508 -0.4830
 8168SOL     OW35962   0.099   2.804   6.833  0.2881  0.3551  0.4276
 8168SOL    HW135963   0.104   2.770   6.922  0.3889  0.6800  0.5469
 8168SOL    HW235964   0.182   2.851   6.826  0.0980  0.7412  0.8014
 8169SOL     OW35965   2.122   1.932   2.727 -0.1687 -0.0748  0.3950
 8169SOL    HW135966   2.135   1.997   2.657 -0.3933  0.4040  0.8001
 8169SOL    HW235967   2.124   1.856   2.668  0.7425  1.3444 -1.4210
 8170SOL     OW35968   3.658   1.223  14.625 -0.2342 -0.8775  0.4716
 8170SOL    HW135969   3.713   1.283  14.675 -0.1623  1.9174 -2.9907
 8170SOL    HW235970   3.614   1.173  14.694 -2.3320  1.0214  0.5188
 8171SOL     OW35971   0.280   1.685   8.995 -0.3849  0.3374 -0.1822
 8171SOL    HW135972   0.204   1.698   9.052 -1.2152  0.4183 -1.2993
 8171SOL    HW235973   0.283   1.770   8.951  2.1636 -0.0945 -0.8496
 8172SOL     OW35974   3.416   2.677   2.945 -0.1050  0.0759  0.4732
 8172SOL    HW135975   3.500   2.651   2.983  1.1583  2.2466 -0.8244
 8172SOL    HW235976   3.450   2.696   2.857 -0.7944  1.4448  0.5077
 8173SOL     OW35977   2.533   0.529   9.405 -0.1292 -0.6013  0.3130
 8173SOL    HW135978   2.480   0.483   9.469  0.8575 -1.8614  0.2155
 8173SOL    HW235979   2.465   0.531   9.338 -1.9593 -1.2883  2.1570
 8174SOL     OW35980   0.827   1.965   6.227 -0.5772  0.2707 -0.1607
 8174SOL    HW135981   0.742   1.986   6.189 -0.1285  0.0753 -1.2615
 8174SOL    HW235982   0.825   2.028   6.300  0.1629 -0.0252  0.1172
 8175SOL     OW35983   3.031   0.487  15.872  0.1430  0.0151 -0.5765
 8175SOL    HW135984   3.041   0.518  15.962 -1.8127 -1.4432  0.1326
 8175SOL    HW235985   2.990   0.566  15.835  0.2388  0.9457  1.2768
 8176SOL     OW35986   4.067   4.280   6.665 -0.3414 -0.1608 -0.2790
 8176SOL    HW135987   4.158   4.271   6.694 -0.6401  1.9366  1.3019
 8176SOL    HW235988   4.053   4.372   6.686  0.2210 -1.0490  3.9084
 8177SOL     OW35989   3.365   2.639  11.551  0.0713 -0.2324 -0.0377
 8177SOL    HW135990   3.422   2.627  11.626 -0.5576  0.3616  0.5321
 8177SOL    HW235991   3.425   2.699  11.506  2.7663 -1.5677  1.8049
 8178SOL     OW35992   4.408   1.330   6.721  0.5743 -0.1981  0.1326
 8178SOL    HW135993   4.469   1.281   6.775 -0.2183 -0.8326  0.4473
 8178SOL    HW235994   4.345   1.359   6.787 -1.0319  1.0360 -1.9221
 8179SOL     OW35995   2.316   3.704   7.260  0.5125  0.0168 -0.3390
 8179SOL    HW135996   2.387   3.708   7.324  0.4474 -1.5210 -0.1671
 8179SOL    HW235997   2.303   3.609   7.256  1.2897 -0.1241  0.4778
 8180SOL     OW35998   0.664   1.464   5.840  0.0009 -0.3130  0.1502
 8180SOL    HW135999   0.703   1.469   5.927 -1.4813 -0.0423  0.7863
 8180SOL    HW236000   0.579   1.507   5.853  1.1310  1.7850  0.6971
 8181SOL     OW36001   0.246   2.769  11.443 -0.1988  0.0423  0.1804
 8181SOL    HW136002   0.281   2.857  11.430 -1.5033  0.4431 -0.5782
 8181SOL    HW236003   0.265   2.735  11.355 -0.4267  3.4740 -1.2004
 8182SOL     OW36004   3.756   0.249   7.746 -0.1209 -0.4836  0.0934
 8182SOL    HW136005   3.700   0.278   7.673  1.0251  2.7825  0.4767
 8182SOL    HW236006   3.798   0.178   7.697 -1.8137 -1.9335  0.7589
 8183SOL     OW36007   2.469   0.160  16.133  0.6057 -0.2230  0.4089
 8183SOL    HW136008   2.553   0.116  16.117  0.9104  0.0716  1.1996
 8183SOL    HW236009   2.414   0.093  16.091  1.1849 -1.3089  1.3781
 8184SOL     OW36010   1.695   3.697   5.395  0.3001  0.3382 -0.2925
 8184SOL    HW136011   1.693   3.742   5.311 -0.2657  1.2906  0.2252
 8184SOL    HW236012   1.725   3.771   5.448  1.1759 -0.5012  0.3822
 8185SOL     OW36013   2.531   1.648   2.285  0.2906 -0.2400  0.2231
 8185SOL    HW136014   2.584   1.657   2.206 -0.9892  1.2546 -0.4572
 8185SOL    HW236015   2.454   1.602   2.250 -0.4526  0.1773  1.3124
 8186SOL     OW36016   0.600   2.988   4.068  0.7558  0.3352  0.0290
 8186SOL    HW136017   0.654   2.934   4.011  0.7047  1.5135 -1.1446
 8186SOL    HW236018   0.634   3.074   4.043  1.1499 -0.1179 -0.9771
 8187SOL     OW36019   3.830   0.111   2.278 -0.5645  0.2586  0.2688
 8187SOL    HW136020   3.747   0.064   2.289 -0.5796 -0.0328 -0.9999
 8187SOL    HW236021   3.793   0.194   2.248  0.5662  0.2048 -1.2398
 8188SOL     OW36022   1.731   0.924   0.877 -0.4598 -0.5491  0.0550
 8188SOL    HW136023   1.783   0.883   0.808 -4.0949 -0.7126 -2.6066
 8188SOL    HW236024   1.700   1.010   0.850  2.5357  0.4745 -0.0226
 8189SOL     OW36025   0.468   3.129   1.157 -0.4688  0.1205 -0.0776
 8189SOL    HW136026   0.486   3.196   1.223 -0.9334  1.7338 -1.6245
 8189SOL    HW236027   0.538   3.151   1.096 -0.3863  0.5932  0.1927
 8190SOL     OW36028   4.037   2.353   3.871  0.2510  0.2902 -0.3595
 8190SOL    HW136029   4.025   2.388   3.959  1.4413  0.3022 -0.1945
 8190SOL    HW236030   4.125   2.319   3.888 -0.0361 -0.3664 -0.1840
 8191SOL     OW36031   4.035   0.620   6.693  0.4494 -0.4802 -0.3276
 8191SOL    HW136032   4.085   0.538   6.683  0.3004 -0.3190 -2.4003
 8191SOL    HW236033   3.960   0.613   6.635 -1.0442 -2.1766  1.7959
 8192SOL     OW36034   4.514   1.847   4.196  0.3018 -0.0833 -0.5098
 8192SOL    HW136035   4.578   1.864   4.265 -0.3825  0.1200  0.0757
 8192SOL    HW236036   4.568   1.821   4.122 -1.3831 -1.5737 -1.2159
 8193SOL     OW36037   1.114   1.104   8.954 -0.5133 -0.4766  0.1790
 8193SOL    HW136038   1.200   1.132   8.986 -0.0725 -3.6191  1.7864
 8193SOL    HW236039   1.121   1.136   8.864  0.1688  0.0329  0.4106
 8194SOL     OW36040   2.649   1.682   8.294 -0.9832 -0.0939  0.0456
 8194SOL    HW136041   2.652   1.681   8.389  0.2934  0.1969 -0.0025
 8194SOL    HW236042   2.680   1.771   8.278 -0.3363  0.0575  2.1564
 8195SOL     OW36043   2.468   2.305   9.250  0.0805  0.6185  0.2613
 8195SOL    HW136044   2.434   2.220   9.277 -1.1806  0.8520 -0.6094
 8195SOL    HW236045   2.446   2.359   9.326 -2.4064  0.1064 -0.0835
 8196SOL     OW36046   0.926   2.734   4.278 -0.5148 -0.0810  0.1164
 8196SOL    HW136047   0.899   2.820   4.311 -2.3827 -0.5954 -0.0760
 8196SOL    HW236048   0.885   2.674   4.341 -0.5004  0.5769  0.7527
 8197SOL     OW36049   2.349   3.782   9.560  0.6352 -0.5262  0.4766
 8197SOL    HW136050   2.258   3.773   9.590  0.4989 -1.4554 -0.1905
 8197SOL    HW236051   2.353   3.872   9.525 -1.1974 -1.1643 -1.4358
 8198SOL     OW36052   4.595   1.289  11.406 -0.2549 -0.3237  0.6182
 8198SOL    HW136053   4.601   1.257  11.316  2.4936  0.0456  0.6777
 8198SOL    HW236054   4.576   1.382  11.394 -2.1418 -0.5983  1.4628
 8199SOL     OW36055   4.404   3.399   2.214 -0.1695 -0.8371 -0.1055
 8199SOL    HW136056   4.344   3.350   2.158 -2.2742  1.0704  0.4415
 8199SOL    HW236057   4.337   3.413   2.281 -0.4730  2.8172 -1.1691
 8200SOL     OW36058   2.519   0.175   5.216 -0.3456 -0.3222  0.5899
 8200SOL    HW136059   2.612   0.157   5.216 -0.5670 -1.4375  1.1244
 8200SOL    HW236060   2.490   0.117   5.146  0.0608  0.3388 -0.1340
 8201SOL     OW36061   4.305   2.350  11.837 -0.5684  0.0001  0.6488
 8201SOL    HW136062   4.258   2.381  11.760 -1.2689  0.0876  1.1054
 8201SOL    HW236063   4.258   2.398  11.906  0.7360  0.3817  1.2858
 8202SOL     OW36064   0.874   2.417  13.409 -0.6456 -0.2115 -0.3203
 8202SOL    HW136065   0.804   2.454  13.463  0.1861 -2.3538  2.1621
 8202SOL    HW236066   0.829   2.337  13.383 -1.3212  0.0236  0.1176
 8203SOL     OW36067   4.363   4.214   7.128 -0.0137 -0.3137 -0.5486
 8203SOL    HW136068   4.277   4.194   7.093  1.0116 -2.7573 -1.6745
 8203SOL    HW236069   4.343   4.269   7.204  0.4041 -0.9507  0.0224
 8204SOL     OW36070   3.128   4.334   6.790 -0.0379  0.5924 -0.0865
 8204SOL    HW136071   3.163   4.283   6.716 -0.9068 -1.4214  0.9006
 8204SOL    HW236072   3.095   4.265   6.848  1.5297  0.6417  0.8647
 8205SOL     OW36073   2.313   0.541  14.663 -0.6614  0.1175 -0.1660
 8205SOL    HW136074   2.364   0.472  14.707  0.3870  0.1896 -1.2857
 8205SOL    HW236075   2.274   0.591  14.735 -0.0231  0.3877 -0.0020
 8206SOL     OW36076   1.895   1.362   5.800 -0.6591  0.0495 -0.1497
 8206SOL    HW136077   1.815   1.313   5.817 -0.0457 -0.3250  1.6626
 8206SOL    HW236078   1.865   1.444   5.839  0.7974 -0.7762  2.6847
 8207SOL     OW36079   2.757   0.671   7.516  0.4073  0.2479 -0.1945
 8207SOL    HW136080   2.720   0.592   7.477  1.2049  0.8459 -2.1591
 8207SOL    HW236081   2.789   0.634   7.599  0.0619  2.3487  0.8667
 8208SOL     OW36082   3.534   4.203  14.662  0.6638  0.5366  0.5300
 8208SOL    HW136083   3.555   4.265  14.592  2.0844 -0.2515  0.2680
 8208SOL    HW236084   3.621   4.163  14.670 -0.2413 -1.3750  0.7472
 8209SOL     OW36085   1.450   1.919   2.931  0.4747  0.8252  0.1164
 8209SOL    HW136086   1.486   1.831   2.920 -1.9738 -0.2945  0.9479
 8209SOL    HW236087   1.491   1.953   2.852 -1.4453  0.2433 -1.1464
 8210SOL     OW36088   4.130   3.707   5.663 -0.7781 -0.8774 -0.4713
 8210SOL    HW136089   4.187   3.685   5.590  1.5622  1.7481  0.5711
 8210SOL    HW236090   4.064   3.764   5.623 -2.9870 -3.4291 -0.4426
 8211SOL     OW36091   3.250   4.370  12.338 -0.8465  0.1464 -0.3256
 8211SOL    HW136092   3.314   4.434  12.369  1.6851 -1.8569 -1.3842
 8211SOL    HW236093   3.206   4.348  12.420 -1.0530 -0.3559 -0.5649
 8212SOL     OW36094   0.959   2.149   5.634  0.0750  0.4631 -0.0375
 8212SOL    HW136095   0.986   2.241   5.640 -1.7969  1.0272 -0.1128
 8212SOL    HW236096   1.042   2.105   5.618  1.2905  1.9907  2.1206
 8213SOL     OW36097   2.320   3.179   4.594  0.4117  0.0096 -0.3828
 8213SOL    HW136098   2.368   3.232   4.657  0.5950  0.8644 -1.2421
 8213SOL    HW236099   2.325   3.092   4.633  2.7204  0.7238  0.9243
 8214SOL     OW36100   2.552   0.773   6.361 -0.0912 -0.3334  0.5189
 8214SOL    HW136101   2.503   0.699   6.398 -2.4628  1.3254  0.6830
 8214SOL    HW236102   2.474   0.819   6.330  0.2586  0.4730  0.8174
 8215SOL     OW36103   0.341   2.210  14.912 -0.4019 -0.3027 -0.0222
 8215SOL    HW136104   0.383   2.295  14.904  0.2509 -0.7871 -1.9242
 8215SOL    HW236105   0.312   2.203  14.821  1.0608 -0.1437 -0.5091
 8216SOL     OW36106   2.213   0.146   1.309 -0.6847 -0.4342  0.1383
 8216SOL    HW136107   2.290   0.089   1.306  1.0557  1.9630 -0.7181
 8216SOL    HW236108   2.189   0.162   1.218 -1.6897 -0.8964  0.3242
 8217SOL     OW36109   1.735   4.366   3.584 -0.3622 -0.4779 -0.3219
 8217SOL    HW136110   1.798   4.399   3.520  2.2861 -0.9713  2.0372
 8217SOL    HW236111   1.697   4.308   3.518 -0.3220 -0.7934 -0.0688
 8218SOL     OW36112   4.480   0.442   4.874 -0.2548 -0.9746 -0.0271
 8218SOL    HW136113   4.434   0.524   4.857  0.0364 -0.6627  0.7123
 8218SOL    HW236114   4.451   0.419   4.962  1.6906 -1.0355  0.6049
 8219SOL     OW36115   0.607   4.603   2.877 -0.0674  0.3627 -0.3012
 8219SOL    HW136116   0.694   4.577   2.847 -0.4518  0.5845 -1.6291
 8219SOL    HW236117   0.624   4.617   2.970  0.6081 -1.4086 -0.1738
 8220SOL     OW36118   1.417   4.709  17.698 -0.6011 -0.3195 -0.0244
 8220SOL    HW136119   1.351   4.716  17.628 -2.0126 -3.3867  0.9598
 8220SOL    HW236120   1.439   4.618  17.677 -0.5326 -0.9201  2.6128
 8221SOL     OW36121   3.564   3.631  12.476  0.2833  0.4810  0.1162
 8221SOL    HW136122   3.513   3.630  12.395 -0.3200  2.0444  0.4783
 8221SOL    HW236123   3.499   3.597  12.537  1.6804  1.0246  1.9300
 8222SOL     OW36124   1.215   1.359   3.947 -0.3429 -0.1803 -0.1401
 8222SOL    HW136125   1.262   1.398   3.873  0.2018  0.6961  0.6780
 8222SOL    HW236126   1.203   1.270   3.913  2.5242 -1.1070  1.2836
 8223SOL     OW36127   0.973   2.446   6.392  0.7261  0.1291 -0.8965
 8223SOL    HW136128   0.988   2.534   6.359  1.5424 -0.5088 -2.2331
 8223SOL    HW236129   0.897   2.461   6.447  2.8647 -0.9458  2.3813
 8224SOL     OW36130   3.289   2.606   7.097 -0.0716 -0.1273 -0.1599
 8224SOL    HW136131   3.293   2.554   7.177  0.6085  0.0482 -0.0769
 8224SOL    HW236132   3.249   2.681   7.142 -0.4224 -1.0396  1.0508
 8225SOL     OW36133   3.110   0.182   9.277 -0.3898 -0.2194 -0.2332
 8225SOL    HW136134   3.037   0.221   9.326  0.7060 -1.1326  2.1462
 8225SOL    HW236135   3.066   0.149   9.199  2.2588  3.7266 -3.4050
 8226SOL     OW36136   1.898   2.288   7.387  0.4212 -0.6636  0.1404
 8226SOL    HW136137   1.946   2.224   7.440 -2.0145  0.1442  3.3267
 8226SOL    HW236138   1.959   2.296   7.315 -2.2246  2.0530 -1.7796
 8227SOL     OW36139   0.756   2.809  17.524 -0.1678 -0.2686  0.0567
 8227SOL    HW136140   0.735   2.870  17.454 -0.7589 -0.2182  0.2825
 8227SOL    HW236141   0.827   2.766  17.476  0.1933  0.4058 -0.0049
 8228SOL     OW36142   3.739   3.990   8.130 -0.0959 -0.0272 -0.2009
 8228SOL    HW136143   3.750   3.942   8.212 -1.8920  1.0677  0.6754
 8228SOL    HW236144   3.817   4.044   8.141  0.3004 -1.1016  2.2134
 8229SOL     OW36145   3.211   0.792  16.659  0.4424 -0.1906  0.1094
 8229SOL    HW136146   3.142   0.858  16.652  1.5266  0.8638 -0.6825
 8229SOL    HW236147   3.274   0.820  16.592 -0.3016  0.4621 -0.3114
 8230SOL     OW36148   4.052   2.328   1.558 -0.1905 -0.4777 -0.2222
 8230SOL    HW136149   4.002   2.408   1.573  0.3424 -0.5317  1.7980
 8230SOL    HW236150   4.116   2.360   1.495 -0.4985 -0.3689 -0.4789
 8231SOL     OW36151   4.377   1.884   2.101  0.9194 -0.2039  0.3655
 8231SOL    HW136152   4.400   1.812   2.160 -0.5912 -0.4441  0.6596
 8231SOL    HW236153   4.426   1.847   2.027  1.0274 -0.6335  0.6507
 8232SOL     OW36154   2.925   1.835  16.884 -0.6662 -0.9498 -0.0986
 8232SOL    HW136155   2.880   1.770  16.830 -0.7983  0.0273 -1.1542
 8232SOL    HW236156   3.014   1.834  16.847 -0.5143  0.6084  0.2334
 8233SOL     OW36157   2.180   0.854   2.929  0.3287 -0.0614  0.1253
 8233SOL    HW136158   2.271   0.832   2.907  0.1597 -2.0133  1.4005
 8233SOL    HW236159   2.168   0.923   2.863 -0.9391 -0.8648 -0.4747
 8234SOL     OW36160   3.461   3.391  17.626 -0.3434  0.6654  0.0665
 8234SOL    HW136161   3.514   3.347  17.692 -1.7324 -0.2611  0.5876
 8234SOL    HW236162   3.389   3.328  17.622  0.7423 -0.4236 -2.4606
 8235SOL     OW36163   1.588   4.081   7.388  0.4169 -0.0126  0.3283
 8235SOL    HW136164   1.525   4.063   7.458 -0.1160  1.9778  0.3510
 8235SOL    HW236165   1.659   4.043   7.439 -0.1987 -1.4036  0.1572
 8236SOL     OW36166   1.021   1.001   7.160 -0.2552  0.0955  0.1170
 8236SOL    HW136167   0.962   1.069   7.191 -0.1239  0.8658 -1.3353
 8236SOL    HW236168   1.043   1.041   7.076 -0.0852  0.4891  0.3481
 8237SOL     OW36169   3.658   1.391   9.966 -0.6817 -0.0714 -0.0529
 8237SOL    HW136170   3.704   1.409   9.884  2.0765 -1.1227  1.2643
 8237SOL    HW236171   3.697   1.306   9.984  1.0315  1.1054  1.9078
 8238SOL     OW36172   1.111   0.753   8.212  0.0409 -0.3785 -0.1420
 8238SOL    HW136173   1.098   0.772   8.305  1.2682 -2.1168  0.3988
 8238SOL    HW236174   1.020   0.746   8.183  0.5548  0.9498 -2.0390
 8239SOL     OW36175   1.836   1.362   2.773  0.2997 -0.4565  0.0541
 8239SOL    HW136176   1.797   1.435   2.724 -0.8020 -1.5730 -0.7333
 8239SOL    HW236177   1.915   1.402   2.811  1.0418 -0.0619 -1.9049
 8240SOL     OW36178   0.794   2.768   1.359 -0.1510 -0.2292 -0.7531
 8240SOL    HW136179   0.803   2.850   1.310 -3.3582  0.0900 -0.8086
 8240SOL    HW236180   0.878   2.764   1.404  0.1868  1.3719 -1.2565
 8241SOL     OW36181   1.943   4.080  10.944 -0.5117 -0.2068 -0.1874
 8241SOL    HW136182   1.886   4.071  11.020  2.5457 -2.0498  1.9334
 8241SOL    HW236183   1.992   3.998  10.953 -0.4530 -0.1533 -0.0124
 8242SOL     OW36184   2.634   0.059   6.271  0.0139  0.2610  0.7358
 8242SOL    HW136185   2.588   0.133   6.310 -0.8326  0.3297 -0.3832
 8242SOL    HW236186   2.577   4.713   6.297 -0.6103 -0.3139 -2.1961
 8243SOL     OW36187   1.289   4.297   9.547 -0.8323  0.9954 -0.6291
 8243SOL    HW136188   1.369   4.348   9.562 -1.5870  1.9537  0.0967
 8243SOL    HW236189   1.315   4.215   9.589  3.2198  1.9947 -1.1737
 8244SOL     OW36190   4.219   0.904   1.555  0.2544 -0.3553  0.1244
 8244SOL    HW136191   4.159   0.929   1.625 -1.9215  0.0122 -1.8564
 8244SOL    HW236192   4.230   0.810   1.570 -1.8729 -0.6385 -0.0013
 8245SOL     OW36193   2.283   0.238  17.054  0.1063 -0.7164 -0.0024
 8245SOL    HW136194   2.331   0.219  17.134 -2.1116 -0.2138  1.4385
 8245SOL    HW236195   2.350   0.224  16.987 -0.6316  1.1300 -1.1502
 8246SOL     OW36196   2.085   3.831  10.888  0.3961  0.4890 -0.2520
 8246SOL    HW136197   2.050   3.742  10.885 -1.2397  1.1238  0.0613
 8246SOL    HW236198   2.136   3.832  10.807  1.8107  0.2639  0.6371
 8247SOL     OW36199   0.295   2.849   0.280  0.1114 -0.1060  0.6079
 8247SOL    HW136200   0.216   2.895   0.306 -0.3593 -0.2459 -0.5826
 8247SOL    HW236201   0.249   2.783   0.228  0.7427 -0.6272  0.7029
 8248SOL     OW36202   2.906   2.322   3.789  0.4681 -0.0652  0.6572
 8248SOL    HW136203   2.811   2.319   3.803  0.2710 -3.3546 -1.3183
 8248SOL    HW236204   2.928   2.260   3.857 -1.0948 -3.3961 -1.8883
 8249SOL     OW36205   1.255   1.514   8.087 -0.1481 -0.3417 -0.6139
 8249SOL    HW136206   1.344   1.481   8.091 -0.7229 -1.9584 -1.3365
 8249SOL    HW236207   1.209   1.443   8.043 -0.2667 -0.7304  0.1408
 8250SOL     OW36208   3.596   3.863   9.040  0.2339  0.1080  0.2264
 8250SOL    HW136209   3.615   3.789   9.098  1.9022 -0.3477 -0.9263
 8250SOL    HW236210   3.628   3.940   9.087  3.4272 -2.4030  2.1464
 8251SOL     OW36211   0.054   3.135  11.380 -0.1291 -0.0320 -0.2586
 8251SOL    HW136212   0.069   3.171  11.293  1.9070  0.6961  0.3875
 8251SOL    HW236213   0.139   3.149  11.422 -0.7100 -1.5363  1.4211
 8252SOL     OW36214   4.573   2.025  16.988 -0.5099  0.3682 -0.9181
 8252SOL    HW136215   4.566   1.930  16.979 -0.8686  0.2321  0.7063
 8252SOL    HW236216   4.598   2.050  16.899  1.2602 -1.8593 -1.0367
 8253SOL     OW36217   1.188   1.566  12.987  0.8193 -0.4839 -0.1552
 8253SOL    HW136218   1.257   1.632  12.987 -0.5642  0.9730  0.8020
 8253SOL    HW236219   1.227   1.491  12.942 -0.6872  0.1327 -2.5145
 8254SOL     OW36220   3.277   1.497   3.547  0.3619 -0.5324  0.3514
 8254SOL    HW136221   3.302   1.407   3.567 -0.7144 -1.1118 -0.8997
 8254SOL    HW236222   3.212   1.515   3.615 -1.0571  2.0640 -1.6752
 8255SOL     OW36223   4.052   4.010  11.748  0.1884 -0.1576  0.0609
 8255SOL    HW136224   4.036   4.073  11.678  0.3414  1.0004  1.0654
 8255SOL    HW236225   4.119   4.056  11.799  0.3595 -0.4933  0.1357
 8256SOL     OW36226   3.305   3.849  13.911 -0.5017 -0.0254 -0.1174
 8256SOL    HW136227   3.395   3.852  13.944 -1.5004  0.0172  2.5948
 8256SOL    HW236228   3.261   3.854  13.995  0.7869 -2.1031  0.6899
 8257SOL     OW36229   0.608   1.936   3.054  0.0822  0.0216 -0.5359
 8257SOL    HW136230   0.652   1.887   2.985  3.5220  1.3412  0.6986
 8257SOL    HW236231   0.670   1.941   3.128 -0.7501  0.7238  0.1064
 8258SOL     OW36232   1.388   2.872   0.602 -0.2674 -0.4431  0.0959
 8258SOL    HW136233   1.467   2.926   0.603 -0.9318  0.5347 -0.6482
 8258SOL    HW236234   1.421   2.798   0.552  0.3883 -0.4675  0.5631
 8259SOL     OW36235   4.443   4.632   5.087 -0.2836 -0.3710  0.4582
 8259SOL    HW136236   4.390   4.555   5.109 -0.6803  0.0126  0.8438
 8259SOL    HW236237   4.450   4.622   4.992 -0.9479 -0.7313  0.4439
 8260SOL     OW36238   3.356   2.407   5.552  0.2893 -0.1089  0.0083
 8260SOL    HW136239   3.323   2.439   5.637  1.6086  0.3340  0.3624
 8260SOL    HW236240   3.447   2.425   5.578  0.7183 -2.0438 -0.1816
 8261SOL     OW36241   2.333   3.021   2.552  0.5983  0.1765  0.4440
 8261SOL    HW136242   2.385   3.082   2.500 -1.1969 -0.5063 -2.1535
 8261SOL    HW236243   2.246   3.013   2.512  0.2489 -0.1608  1.2682
 8262SOL     OW36244   3.315   3.832  17.142 -0.1318 -0.1733  0.1309
 8262SOL    HW136245   3.333   3.904  17.203  0.3032  0.7543 -1.0721
 8262SOL    HW236246   3.301   3.882  17.061 -2.5012 -1.3666 -0.2022
 8263SOL     OW36247   1.507   0.728   8.169  0.3654 -1.0027 -0.5128
 8263SOL    HW136248   1.461   0.653   8.207 -0.2191 -0.5337 -0.2858
 8263SOL    HW236249   1.576   0.680   8.123  2.9312  0.1206  2.2042
 8264SOL     OW36250   3.072   3.710  10.496  0.2906 -0.1682  0.0822
 8264SOL    HW136251   2.991   3.729  10.543 -0.0861  0.9782 -1.0534
 8264SOL    HW236252   3.130   3.695  10.571  1.2134  1.7481 -0.2432
 8265SOL     OW36253   0.866   1.995   8.355  0.2826  0.4168  0.1983
 8265SOL    HW136254   0.870   1.977   8.449 -1.1447 -1.7506 -0.1525
 8265SOL    HW236255   0.777   2.025   8.338  0.3013 -0.2310 -1.0035
 8266SOL     OW36256   4.572   3.730   1.404  0.2252  0.5358  0.4844
 8266SOL    HW136257   4.609   3.807   1.446  2.5761 -2.1232  3.2481
 8266SOL    HW236258   4.648   3.700   1.355 -0.5698  2.0473 -1.7110
 8267SOL     OW36259   1.993   4.206   0.949  0.3923 -0.1442 -0.4300
 8267SOL    HW136260   1.942   4.154   1.011 -1.8596 -0.2573 -2.3700
 8267SOL    HW236261   2.027   4.279   1.000  1.4253 -1.0332  0.1435
 8268SOL     OW36262   3.083   2.197   2.544 -0.6425  0.4100 -0.1807
 8268SOL    HW136263   3.050   2.108   2.532 -2.6215  1.1445 -0.2228
 8268SOL    HW236264   3.168   2.195   2.501  0.0236  0.8065  1.1046
 8269SOL     OW36265   2.941   1.713   2.065 -0.3790 -0.4607 -0.1585
 8269SOL    HW136266   2.850   1.685   2.053 -0.6584 -0.8398  2.7915
 8269SOL    HW236267   2.985   1.680   1.988 -2.6375 -0.9589 -1.2477
 8270SOL     OW36268   0.719   1.633   3.745 -0.3089 -0.0253 -0.3623
 8270SOL    HW136269   0.690   1.700   3.683 -0.0377  1.5243  1.1912
 8270SOL    HW236270   0.771   1.569   3.698 -2.0224 -0.8543 -1.1403
 8271SOL     OW36271   0.283   4.012  14.905  0.3122  0.3369 -0.5962
 8271SOL    HW136272   0.302   4.106  14.907  0.1119  0.3848 -0.8340
 8271SOL    HW236273   0.361   3.968  14.939  2.4687  2.4158 -2.8597
 8272SOL     OW36274   4.172   1.244   2.505  0.1967  0.4250  0.1285
 8272SOL    HW136275   4.094   1.256   2.559  0.1825  1.2044 -0.0659
 8272SOL    HW236276   4.134   1.186   2.440 -0.2525 -0.0523  0.8126
 8273SOL     OW36277   0.301   0.547   5.639  0.0029  0.4069  0.2893
 8273SOL    HW136278   0.339   0.461   5.619 -0.5944  0.1774  0.1306
 8273SOL    HW236279   0.259   0.528   5.723 -1.2324  2.9049  0.2338
 8274SOL     OW36280   1.047   0.023   9.709  0.1696 -0.1931  0.1889
 8274SOL    HW136281   1.005   0.107   9.690  0.9209  0.0948 -0.1939
 8274SOL    HW236282   1.064   0.018   9.803  1.4326 -0.9055 -0.0750
 8275SOL     OW36283   4.612   0.638  10.876  0.4171 -0.1169 -0.0652
 8275SOL    HW136284   4.643   0.727  10.897 -0.8737  0.1135  0.8740
 8275SOL    HW236285   4.519   0.646  10.897  0.6183  1.9514  0.0550
 8276SOL     OW36286   3.700   2.082   0.042  0.5860  0.2159  0.1537
 8276SOL    HW136287   3.792   2.078   0.067  0.3170  2.7508  1.5494
 8276SOL    HW236288   3.664   2.119   0.123  2.3406 -0.6456  1.3282
 8277SOL     OW36289   2.344   1.922   8.169  0.2041  0.2777 -0.0121
 8277SOL    HW136290   2.413   1.898   8.107 -0.9405 -1.0188 -0.7815
 8277SOL    HW236291   2.307   1.839   8.198  0.5410 -0.1739 -0.8788
 8278SOL     OW36292   0.169   0.272   4.995  0.5188  0.6352  0.0944
 8278SOL    HW136293   0.241   0.328   5.023 -0.7284  1.0951  2.3714
 8278SOL    HW236294   0.097   0.334   4.985 -1.2707 -1.9305 -2.8692
 8279SOL     OW36295   3.387   0.367  16.255 -0.1445 -0.5633 -0.5692
 8279SOL    HW136296   3.354   0.407  16.174  0.1502 -1.9829 -1.3854
 8279SOL    HW236297   3.376   0.440  16.316 -1.5205  0.8213 -2.4621
 8280SOL     OW36298   0.792   0.879   7.423  0.1782  0.4272 -0.0088
 8280SOL    HW136299   0.761   0.808   7.479 -1.6404  1.0164 -0.2436
 8280SOL    HW236300   0.773   0.955   7.479 -1.2520 -1.9361  2.6655
 8281SOL     OW36301   2.855   3.145   7.772 -0.0007  0.0039  0.0275
 8281SOL    HW136302   2.861   3.238   7.792 -1.0324 -0.0807  0.7710
 8281SOL    HW236303   2.882   3.105   7.855  2.5402 -1.8151 -1.7140
 8282SOL     OW36304   1.603   3.665   2.447  0.0008 -0.4322 -0.5433
 8282SOL    HW136305   1.556   3.730   2.498  0.4239  1.0280 -2.0036
 8282SOL    HW236306   1.618   3.704   2.360 -2.1471  0.6497 -0.4224
 8283SOL     OW36307   1.075   1.924   9.901 -0.4056 -0.2658  0.0456
 8283SOL    HW136308   1.078   1.846   9.846 -1.4082  0.6243 -1.2715
 8283SOL    HW236309   1.112   1.992   9.844 -0.5125  0.2947  0.6521
 8284SOL     OW36310   2.334   1.462  13.348 -0.8953 -0.1475 -0.4185
 8284SOL    HW136311   2.362   1.387  13.296 -0.5395  0.5998 -1.3215
 8284SOL    HW236312   2.379   1.535  13.305 -0.2673 -0.6567 -0.6226
 8285SOL     OW36313   3.639   2.026   5.413 -0.1546 -0.5055 -0.5936
 8285SOL    HW136314   3.648   2.043   5.507 -0.3711  0.2494 -0.7066
 8285SOL    HW236315   3.629   2.115   5.378 -2.8108 -1.6954 -2.8684
 8286SOL     OW36316   0.607   2.728   0.815 -0.2361 -0.0449  0.4613
 8286SOL    HW136317   0.623   2.749   0.907  0.7521 -2.9489  0.9658
 8286SOL    HW236318   0.543   2.796   0.794 -1.2459 -0.8829  0.8476
 8287SOL     OW36319   3.605   2.769   7.587 -0.5645  0.7659  0.2664
 8287SOL    HW136320   3.629   2.736   7.500 -0.1305 -0.7135  0.9501
 8287SOL    HW236321   3.593   2.685   7.631 -1.1025  0.3132 -0.7262
 8288SOL     OW36322   4.238   1.499  12.698 -0.2288  0.0205 -0.5286
 8288SOL    HW136323   4.320   1.548  12.707 -0.4754  0.5086 -0.9846
 8288SOL    HW236324   4.277   1.411  12.700 -0.3027 -0.0076 -0.3731
 8289SOL     OW36325   2.943   2.204   0.688  0.4306 -0.0576  0.1791
 8289SOL    HW136326   2.901   2.207   0.774 -1.4863  1.9155 -0.8291
 8289SOL    HW236327   2.958   2.296   0.668  0.5255  0.1804  1.3507
 8290SOL     OW36328   3.380   4.523  12.717 -0.2695  0.1954  0.8105
 8290SOL    HW136329   3.297   4.541  12.673 -0.9801 -0.1061  1.9961
 8290SOL    HW236330   3.417   4.481  12.640 -2.2982  1.5346 -0.8941
 8291SOL     OW36331   1.939   1.948   2.308  1.1399  0.3082  0.1270
 8291SOL    HW136332   2.015   1.895   2.332  1.4854  1.3318  1.3303
 8291SOL    HW236333   1.883   1.888   2.260  1.0621  0.7539 -0.3462
 8292SOL     OW36334   3.375   1.996   9.991 -0.4910 -0.0072 -0.2380
 8292SOL    HW136335   3.299   1.972  10.043 -0.5171  1.2610  0.3007
 8292SOL    HW236336   3.384   1.923   9.930  3.0523  1.2694 -1.2281
 8293SOL     OW36337   1.126   2.601   7.251 -0.2117 -0.4939 -0.5188
 8293SOL    HW136338   1.037   2.637   7.250 -1.4319 -3.4289  2.6782
 8293SOL    HW236339   1.149   2.588   7.159  0.8262  2.6834 -0.7203
 8294SOL     OW36340   0.545   0.005   0.596  0.1042  0.3865 -0.2066
 8294SOL    HW136341   0.511   0.090   0.567  1.0784  0.1925 -1.9333
 8294SOL    HW236342   0.536   0.015   0.690  1.2079  3.1339 -0.3908
 8295SOL     OW36343   3.916   1.269   3.860  0.2122 -0.2219  0.0745
 8295SOL    HW136344   3.972   1.227   3.926 -1.5737  0.5062  2.0750
 8295SOL    HW236345   3.827   1.245   3.885 -0.7586  1.2801 -1.9957
 8296SOL     OW36346   1.677   0.732   2.650  0.1397 -0.1083  0.2031
 8296SOL    HW136347   1.634   0.661   2.602 -0.4947  1.2935 -1.2682
 8296SOL    HW236348   1.744   0.680   2.696 -0.5397  0.0673  1.3807
 8297SOL     OW36349   3.705   4.566   5.239  0.0867  0.2946  0.2062
 8297SOL    HW136350   3.694   4.494   5.301 -0.3965 -1.2492 -1.7002
 8297SOL    HW236351   3.652   4.634   5.280 -0.3190  0.1690 -0.1132
 8298SOL     OW36352   2.936   0.629   3.422  0.2922 -0.3582 -0.4804
 8298SOL    HW136353   3.003   0.611   3.356  0.2700  0.2482 -0.6714
 8298SOL    HW236354   2.962   0.713   3.459  0.4438 -1.0121  0.8929
 8299SOL     OW36355   3.488   1.246   2.546  0.1854  0.5729 -0.1908
 8299SOL    HW136356   3.574   1.255   2.586 -1.2556  0.9107  2.8718
 8299SOL    HW236357   3.443   1.330   2.556 -0.8346 -0.2101  1.8642
 8300SOL     OW36358   1.888   1.366   3.150  0.1506 -0.2879 -0.2128
 8300SOL    HW136359   1.860   1.457   3.162  3.2340  0.9947 -2.3985
 8300SOL    HW236360   1.919   1.363   3.059 -0.4593  0.8948 -0.4589
 8301SOL     OW36361   2.065   1.510   2.361 -0.4080 -0.5733  0.0216
 8301SOL    HW136362   2.045   1.435   2.418  0.7582 -0.3342  0.7472
 8301SOL    HW236363   2.100   1.468   2.282 -1.0890 -0.4476 -0.3449
 8302SOL     OW36364   0.475   3.173   4.272 -0.1176 -0.2580  0.0328
 8302SOL    HW136365   0.502   3.113   4.203  0.3999  1.8626 -1.5957
 8302SOL    HW236366   0.515   3.138   4.351  0.8217 -1.5768 -1.0292
 8303SOL     OW36367   2.618   4.685  13.144  0.3177  0.3805 -0.1795
 8303SOL    HW136368   2.551   0.017  13.110 -0.4112  0.5506  1.5522
 8303SOL    HW236369   2.692   0.018  13.150  0.0327  0.8670 -1.6645
 8304SOL     OW36370   0.827   0.167   7.884  0.5016  0.2135  0.5274
 8304SOL    HW136371   0.765   0.240   7.889  0.2461  0.0857 -0.7775
 8304SOL    HW236372   0.890   0.173   7.956  0.0270 -0.7572  1.0270
 8305SOL     OW36373   2.207   1.931  10.705  0.3173  0.2812  0.4037
 8305SOL    HW136374   2.251   1.883  10.776 -0.3246  0.4148  0.8932
 8305SOL    HW236375   2.227   1.872  10.632 -0.5646 -0.0701  0.4516
 8306SOL     OW36376   3.415   3.893   9.494  0.0488  0.2510 -0.1531
 8306SOL    HW136377   3.449   3.946   9.423 -0.7112  0.9231 -0.0137
 8306SOL    HW236378   3.334   3.859   9.455 -1.7456  3.2782  0.9214
 8307SOL     OW36379   4.702   1.901   2.562 -0.2014 -0.2034 -0.3804
 8307SOL    HW136380   4.723   1.949   2.481  2.3653 -1.0367 -0.2252
 8307SOL    HW236381   0.028   1.943   2.631 -1.8223 -2.4704  2.2105
 8308SOL     OW36382   0.774   0.068  13.808  0.2217  0.0882  0.5312
 8308SOL    HW136383   0.821   0.151  13.806 -0.2023  0.3047 -0.5021
 8308SOL    HW236384   0.841   0.000  13.814  0.0569 -0.1056  0.1989
 8309SOL     OW36385   1.681   4.152   0.590 -0.5742 -0.1827  0.0589
 8309SOL    HW136386   1.723   4.102   0.661  0.7049 -2.1917 -2.1225
 8309SOL    HW236387   1.700   4.242   0.617  0.2670 -0.3805  0.1471
 8310SOL     OW36388   3.885   2.433   9.138 -0.1040 -0.2945  0.5067
 8310SOL    HW136389   3.903   2.343   9.111  0.6653  0.6586 -2.2080
 8310SOL    HW236390   3.861   2.467   9.051  0.4114  0.5026  0.6751
 8311SOL     OW36391   2.541   1.487   4.679 -0.1956 -0.1457 -0.1764
 8311SOL    HW136392   2.515   1.571   4.718  0.4108  0.3806 -0.9053
 8311SOL    HW236393   2.524   1.518   4.590  0.5069  2.4158  0.5521
 8312SOL     OW36394   2.481   3.570   2.636  0.7174 -0.7341 -0.2512
 8312SOL    HW136395   2.553   3.633   2.639  1.0793 -1.1893  0.5628
 8312SOL    HW236396   2.486   3.543   2.545 -0.7779  2.7749 -1.3801
 8313SOL     OW36397   1.633   1.900   4.409 -0.3294 -0.5117  0.0316
 8313SOL    HW136398   1.587   1.885   4.326  0.4173  1.7629 -0.8173
 8313SOL    HW236399   1.640   1.996   4.413 -2.0470 -0.4352  1.2023
 8314SOL     OW36400   0.121   0.953  15.070  0.0601 -0.1448  0.3560
 8314SOL    HW136401   0.153   0.965  15.159  1.7342 -3.7900  0.2835
 8314SOL    HW236402   0.203   0.970  15.023  0.0207 -0.8875  0.0126
 8315SOL     OW36403   1.116   1.278  15.210 -0.1482 -0.1032  0.2915
 8315SOL    HW136404   1.145   1.304  15.123 -1.7566  2.5728  0.5595
 8315SOL    HW236405   1.028   1.255  15.179 -0.2890 -2.6576  2.6049
 8316SOL     OW36406   0.910   4.252  12.937  0.5290  0.6962 -0.2666
 8316SOL    HW136407   0.925   4.194  12.862 -2.4857  2.1436 -2.0017
 8316SOL    HW236408   0.999   4.264  12.968  0.4101 -0.9117  0.6587
 8317SOL     OW36409   4.692   2.047  16.685 -0.4411 -0.2397  0.2030
 8317SOL    HW136410   4.665   2.105  16.614 -0.3091  0.2529  0.5553
 8317SOL    HW236411   4.699   1.955  16.660  2.5191  0.2728 -0.8786
 8318SOL     OW36412   3.600   4.515   5.822 -0.4597 -0.0941  0.4252
 8318SOL    HW136413   3.576   4.547   5.909  0.9325  1.0171  0.3894
 8318SOL    HW236414   3.547   4.436   5.808 -1.5613  0.9537 -1.4769
 8319SOL     OW36415   0.636   4.280   0.624  0.1878 -0.3208  0.5783
 8319SOL    HW136416   0.695   4.333   0.571  1.8274 -1.4575  1.2536
 8319SOL    HW236417   0.673   4.289   0.712  1.1700  2.2265 -0.1155
 8320SOL     OW36418   0.068   0.384  14.227  0.3372 -0.0062 -0.0538
 8320SOL    HW136419   0.112   0.300  14.245  1.5689  0.4596 -0.8345
 8320SOL    HW236420   4.717   0.353  14.181  0.7354 -1.9931  0.6008
 8321SOL     OW36421   4.592   1.140   3.119  0.4413 -1.0967 -0.5074
 8321SOL    HW136422   4.499   1.146   3.139  0.3851 -0.3641 -1.0023
 8321SOL    HW236423   4.616   1.229   3.144 -1.5038 -0.5549 -0.6349
 8322SOL     OW36424   1.315   1.357   9.661 -0.0674  0.8543 -0.0214
 8322SOL    HW136425   1.327   1.265   9.637 -0.5903  1.0252 -0.9493
 8322SOL    HW236426   1.220   1.366   9.653 -0.4410 -3.0000 -0.0783
 8323SOL     OW36427   1.794   3.499   2.509 -0.1545 -1.0204  0.5779
 8323SOL    HW136428   1.883   3.534   2.508 -0.7779  0.5623  1.5291
 8323SOL    HW236429   1.730   3.568   2.491  1.1527 -0.7261 -3.0794
 8324SOL     OW36430   4.046   0.803   6.470 -0.0843  0.1618 -1.0105
 8324SOL    HW136431   3.977   0.862   6.501  0.5008  0.9230 -1.1519
 8324SOL    HW236432   4.070   0.751   6.547  1.4547 -0.8822 -2.2142
 8325SOL     OW36433   0.429   0.822   2.449 -0.1964 -0.1870 -0.1721
 8325SOL    HW136434   0.398   0.733   2.428 -0.4908 -0.2614  0.5988
 8325SOL    HW236435   0.363   0.866   2.501  1.3430  0.0185  1.5713
 8326SOL     OW36436   4.339   3.168   1.789  0.6633  0.8987 -0.0822
 8326SOL    HW136437   4.407   3.232   1.770  2.6527 -0.7493  1.4939
 8326SOL    HW236438   4.385   3.095   1.829 -0.8860  0.1263  0.2877
 8327SOL     OW36439   2.460   0.178  14.044 -0.1806 -0.1813  0.0703
 8327SOL    HW136440   2.378   0.212  14.081 -1.2232 -2.2456 -0.3441
 8327SOL    HW236441   2.432   0.115  13.978  0.3872  0.6542 -0.9728
 8328SOL     OW36442   4.155   1.317   1.413  0.0943  0.1361  0.0212
 8328SOL    HW136443   4.094   1.246   1.434  0.8217 -0.8353 -1.1745
 8328SOL    HW236444   4.196   1.278   1.336 -0.2337 -1.3671  0.5853
 8329SOL     OW36445   2.154   1.630   7.000 -0.5875  0.0102 -0.2474
 8329SOL    HW136446   2.205   1.552   7.021  0.4067  1.3014  2.0495
 8329SOL    HW236447   2.104   1.639   7.081  1.0902  0.3293  0.7413
 8330SOL     OW36448   3.367   2.986   4.856  0.1149  0.3002  0.3046
 8330SOL    HW136449   3.396   3.049   4.790  2.1613 -1.9330 -0.9231
 8330SOL    HW236450   3.381   2.901   4.814 -2.1676  0.5664 -0.9435
 8331SOL     OW36451   4.390   3.523   7.797  0.4986 -0.3834 -0.3607
 8331SOL    HW136452   4.393   3.605   7.747 -1.6152  0.2037  0.5123
 8331SOL    HW236453   4.477   3.490   7.772  0.6971 -0.6502  0.7195
 8332SOL     OW36454   0.116   3.319  15.796  0.0598 -0.2674  0.6021
 8332SOL    HW136455   0.046   3.332  15.859  0.5495 -1.1125  1.3134
 8332SOL    HW236456   0.173   3.261  15.846  1.6389  0.0248 -0.8561
 8333SOL     OW36457   0.855   3.284   2.286  0.3904 -0.0736 -0.5745
 8333SOL    HW136458   0.822   3.294   2.197  0.2674  0.4990 -0.4656
 8333SOL    HW236459   0.941   3.318   2.264  0.8083 -0.9497 -0.3209
 8334SOL     OW36460   3.009   1.126  12.523  0.1395 -0.0697 -0.4985
 8334SOL    HW136461   3.026   1.147  12.614  1.9475  1.7105 -1.2634
 8334SOL    HW236462   2.974   1.210  12.493  2.6494  0.7319 -1.1795
 8335SOL     OW36463   3.679   2.138   5.675 -0.9133  0.0578  0.6188
 8335SOL    HW136464   3.691   2.233   5.683  0.2823  0.1432 -2.2217
 8335SOL    HW236465   3.604   2.131   5.734  0.6059  0.5166  2.6087
 8336SOL     OW36466   3.445   1.326   5.484  0.2013  0.1513 -0.0025
 8336SOL    HW136467   3.503   1.287   5.549  2.5118  1.0927 -1.5032
 8336SOL    HW236468   3.488   1.408   5.460  0.1732  0.0034 -0.5768
 8337SOL     OW36469   1.140   3.264   0.519 -0.0570  0.7230  0.3259
 8337SOL    HW136470   1.189   3.336   0.479  0.3883 -0.3168 -1.0068
 8337SOL    HW236471   1.091   3.237   0.441  1.9179 -1.0370 -0.3347
 8338SOL     OW36472   4.458   3.069   9.251 -0.5556 -0.3871 -0.2418
 8338SOL    HW136473   4.523   3.138   9.233 -2.0093  1.7654  2.7602
 8338SOL    HW236474   4.385   3.100   9.198 -0.5999  0.5189  0.3416
 8339SOL     OW36475   2.906   1.821  10.739  0.1486  0.1396 -0.2817
 8339SOL    HW136476   2.852   1.888  10.780  1.7946  1.3654 -0.1168
 8339SOL    HW236477   2.953   1.881  10.681  1.7949 -1.5741 -0.7438
 8340SOL     OW36478   3.495   1.513  16.902  0.1916 -0.1199  0.5190
 8340SOL    HW136479   3.413   1.467  16.882 -0.7283  2.6055 -1.9937
 8340SOL    HW236480   3.456   1.597  16.926  1.3586  1.1786 -2.1258
 8341SOL     OW36481   3.590   2.307   3.763  0.1885 -0.0015 -0.4191
 8341SOL    HW136482   3.652   2.237   3.783 -0.5066 -0.6183 -0.4291
 8341SOL    HW236483   3.543   2.272   3.687 -0.7655  1.4043 -0.4675
 8342SOL     OW36484   1.499   0.685   6.057 -0.3876  0.8531 -0.3652
 8342SOL    HW136485   1.563   0.666   6.126 -1.5634 -0.0525  0.4906
 8342SOL    HW236486   1.472   0.594   6.050  0.0486  0.7124 -0.2549
 8343SOL     OW36487   4.603   2.994   4.269  0.0950 -0.1728 -0.0485
 8343SOL    HW136488   4.579   3.059   4.335  0.7336  0.4983 -0.4716
 8343SOL    HW236489   4.646   3.052   4.206 -2.3465  2.0767  0.4094
 8344SOL     OW36490   0.455   3.301  14.045  0.0120  0.2795  0.5081
 8344SOL    HW136491   0.374   3.289  14.094 -0.9903 -0.8991 -1.4456
 8344SOL    HW236492   0.448   3.396  14.038  0.1452  0.2280 -0.3280
 8345SOL     OW36493   2.490   4.654   7.980 -0.0027 -0.2986  0.5056
 8345SOL    HW136494   2.446   4.622   8.059 -2.7919  0.2511 -0.8206
 8345SOL    HW236495   2.474   0.023   7.979 -1.1310 -0.5028 -1.8730
 8346SOL     OW36496   1.844   3.686   6.835  0.4712 -0.2470  0.2989
 8346SOL    HW136497   1.775   3.669   6.900  1.0176 -0.9036  0.6996
 8346SOL    HW236498   1.848   3.782   6.832 -1.0851 -0.2097 -0.7000
 8347SOL     OW36499   1.090   4.378  15.128 -0.0728 -0.1609 -0.0301
 8347SOL    HW136500   1.146   4.446  15.089  1.2017 -0.6493  0.9554
 8347SOL    HW236501   1.016   4.376  15.068  0.5716 -0.6670 -0.8109
 8348SOL     OW36502   4.317   4.359   6.819 -0.1403 -0.4633  0.8762
 8348SOL    HW136503   4.404   4.376   6.855 -0.8138 -0.4606  2.5111
 8348SOL    HW236504   4.260   4.378   6.893 -0.2958 -1.2726  0.9622
 8349SOL     OW36505   3.505   2.247   9.298 -0.4557  0.8399  0.2503
 8349SOL    HW136506   3.514   2.153   9.314  1.2366  0.9040 -0.3520
 8349SOL    HW236507   3.430   2.265   9.355  1.0791  0.9121  2.2440
 8350SOL     OW36508   1.689   2.007   4.833  0.4700  0.3119 -0.9514
 8350SOL    HW136509   1.648   2.077   4.783  0.1963  0.8418  0.0149
 8350SOL    HW236510   1.634   1.931   4.813 -0.0101 -0.1494  2.0417
 8351SOL     OW36511   2.573   4.302   1.507 -0.2091 -0.3007 -0.3546
 8351SOL    HW136512   2.581   4.390   1.469  1.6131 -0.6827 -0.8746
 8351SOL    HW236513   2.497   4.269   1.461 -0.1728 -2.0495  0.8671
 8352SOL     OW36514   2.535   1.377   5.653 -0.0273 -0.0975  0.2908
 8352SOL    HW136515   2.568   1.296   5.691  0.5998 -0.0524 -0.1508
 8352SOL    HW236516   2.443   1.352   5.647  1.1022 -4.1620  0.0078
 8353SOL     OW36517   0.832   4.724   7.086 -0.1687 -0.1267  0.0149
 8353SOL    HW136518   0.871   4.674   7.158  1.0422  3.3393  1.7747
 8353SOL    HW236519   0.797   4.648   7.039 -0.1348 -1.1889  1.7027
 8354SOL     OW36520   3.978   1.403   8.097  0.2155  0.4312 -0.3430
 8354SOL    HW136521   4.042   1.382   8.029  1.3522 -1.1531  1.2348
 8354SOL    HW236522   3.959   1.496   8.087 -1.8493  0.0638  0.2648
 8355SOL     OW36523   3.594   3.071   5.887 -0.0492 -0.5308  0.3272
 8355SOL    HW136524   3.629   3.155   5.916 -2.5739  0.6765 -0.1573
 8355SOL    HW236525   3.521   3.067   5.949  0.3618  0.3926  0.8646
 8356SOL     OW36526   1.887   4.223   1.484  0.5325  0.1483  0.1663
 8356SOL    HW136527   1.854   4.185   1.403 -0.6189 -1.0047  1.1822
 8356SOL    HW236528   1.825   4.295   1.496  0.5383  0.6561 -2.7886
 8357SOL     OW36529   3.596   3.133   4.008 -0.7335  0.4811  0.3978
 8357SOL    HW136530   3.511   3.090   4.011 -0.2278 -0.5978 -0.6956
 8357SOL    HW236531   3.594   3.200   4.076 -0.2889  2.8048 -1.8896
 8358SOL     OW36532   0.195   2.648   4.161  0.4239 -0.2842  0.6857
 8358SOL    HW136533   0.266   2.702   4.124 -1.2123 -0.8973 -3.3072
 8358SOL    HW236534   0.232   2.561   4.148 -0.7830 -0.6573 -0.1837
 8359SOL     OW36535   0.444   4.703   8.700 -0.0747 -0.4257  0.0309
 8359SOL    HW136536   0.430   4.715   8.794 -2.1080 -1.9198 -0.0918
 8359SOL    HW236537   0.481   0.064   8.682 -2.0724  0.3653 -0.2628
 8360SOL     OW36538   1.873   3.488   7.448 -0.2794 -0.0448 -0.0785
 8360SOL    HW136539   1.799   3.519   7.501  0.1929 -0.8846  1.0780
 8360SOL    HW236540   1.859   3.395   7.429 -2.2573  0.0932  0.7232
 8361SOL     OW36541   3.615   3.179   7.871  0.4871  0.2199 -0.1377
 8361SOL    HW136542   3.577   3.262   7.842  1.8898  0.6155 -0.8795
 8361SOL    HW236543   3.621   3.134   7.787  1.1001 -1.2948  0.6985
 8362SOL     OW36544   1.778   3.095   4.908  0.2125 -0.5050  0.0340
 8362SOL    HW136545   1.818   3.041   4.976  1.3351 -0.8022 -0.8640
 8362SOL    HW236546   1.795   3.178   4.953  1.1346 -0.5837 -0.1773
 8363SOL     OW36547   0.049   4.602   5.888  0.0570  0.0374  0.4321
 8363SOL    HW136548   0.099   4.665   5.940  0.0754  0.9540 -0.7053
 8363SOL    HW236549   4.713   4.580   5.957 -1.3385  0.6254 -0.6555
 8364SOL     OW36550   4.448   4.518   7.146 -0.1404 -0.7879  0.2161
 8364SOL    HW136551   4.452   4.487   7.237 -0.4790  0.9927  0.8383
 8364SOL    HW236552   4.477   4.609   7.155 -1.5887 -0.2799 -0.2223
 8365SOL     OW36553   3.453   3.769  11.144  0.2915  0.3982  0.4027
 8365SOL    HW136554   3.488   3.815  11.220  2.7949 -1.5006  0.3727
 8365SOL    HW236555   3.389   3.837  11.120 -0.9840 -1.6547 -1.9722
 8366SOL     OW36556   3.027   1.832   8.932 -0.0265  0.3520  0.0921
 8366SOL    HW136557   2.950   1.806   8.982 -0.5574 -0.7366 -1.2644
 8366SOL    HW236558   3.017   1.787   8.848 -0.6055  1.4587 -0.4315
 8367SOL     OW36559   1.864   1.617   7.770 -0.0780  0.0664  0.1396
 8367SOL    HW136560   1.799   1.575   7.827 -0.8337 -3.1057 -3.0683
 8367SOL    HW236561   1.829   1.706   7.773  0.1827  0.1517  0.5445
 8368SOL     OW36562   2.477   4.091   8.551  0.1072  0.2111 -0.0105
 8368SOL    HW136563   2.537   4.043   8.494  1.5351  0.6803  1.0881
 8368SOL    HW236564   2.497   4.179   8.519  2.0749 -0.3352 -0.3392
 8369SOL     OW36565   4.466   1.316   8.822  0.1792 -0.1602 -0.1959
 8369SOL    HW136566   4.421   1.287   8.901  0.6886 -0.2356  0.0698
 8369SOL    HW236567   4.395   1.321   8.759  0.7911 -1.6591 -0.9821
 8370SOL     OW36568   1.661   3.046   8.305  0.3071 -0.1868  0.0843
 8370SOL    HW136569   1.754   3.052   8.324 -0.2786  0.9516  2.4911
 8370SOL    HW236570   1.637   2.976   8.365 -2.2333  1.7932  1.3897
 8371SOL     OW36571   0.472   0.221   9.164  0.4829  0.0704 -0.3379
 8371SOL    HW136572   0.463   0.147   9.104  1.9288 -0.2188 -0.1971
 8371SOL    HW236573   0.416   0.294   9.138  0.0013  0.1989  1.0632
 8372SOL     OW36574   2.418   0.437   6.155  0.1638 -0.1217 -0.0599
 8372SOL    HW136575   2.323   0.444   6.167  0.1333  0.1340 -0.4757
 8372SOL    HW236576   2.441   0.526   6.183  1.4456 -0.4387 -0.0855
 8373SOL     OW36577   0.805   2.191   7.203 -0.0909 -0.0659  0.6921
 8373SOL    HW136578   0.849   2.259   7.255  3.2978 -0.7454 -1.3079
 8373SOL    HW236579   0.751   2.154   7.273 -0.9717 -0.2377 -0.0761
 8374SOL     OW36580   2.256   3.916   5.011  0.5105  0.1756 -0.2181
 8374SOL    HW136581   2.300   3.833   4.992 -2.4206 -1.5192  0.4302
 8374SOL    HW236582   2.315   3.981   4.973  0.8281  0.8212  1.3885
 8375SOL     OW36583   3.876   2.454   6.161 -0.0286 -0.7040 -0.5479
 8375SOL    HW136584   3.961   2.474   6.123 -0.4128 -0.2166 -1.1571
 8375SOL    HW236585   3.810   2.507   6.117  0.8667  0.9028  0.0647
 8376SOL     OW36586   3.441   0.628   4.209 -0.4027  0.4079  0.5431
 8376SOL    HW136587   3.372   0.614   4.144 -0.0116  2.4839 -0.3180
 8376SOL    HW236588   3.456   0.537   4.233 -1.7689  0.3563  1.1577
 8377SOL     OW36589   2.001   3.708  14.419 -0.0633 -0.0058  0.3129
 8377SOL    HW136590   2.029   3.643  14.484 -2.3759  1.8429  3.1708
 8377SOL    HW236591   2.036   3.665  14.341 -1.0150  1.4333 -0.9139
 8378SOL     OW36592   3.192   2.852   0.824 -0.6458  0.3442  0.1127
 8378SOL    HW136593   3.100   2.843   0.799 -0.8621  1.6418  0.4657
 8378SOL    HW236594   3.190   2.948   0.829 -1.9943  0.3378 -0.3382
 8379SOL     OW36595   1.384   0.879   0.783 -0.2881 -0.5477 -0.0474
 8379SOL    HW136596   1.344   0.945   0.841 -0.3037 -2.1040  1.7173
 8379SOL    HW236597   1.345   0.799   0.818 -1.9210 -0.4977 -1.7416
 8380SOL     OW36598   0.404   3.446  10.037  0.3870  0.3247  0.4089
 8380SOL    HW136599   0.344   3.439   9.963  0.8136  0.8451  0.0088
 8380SOL    HW236600   0.489   3.434   9.994 -0.3610  0.0326 -0.9945
 8381SOL     OW36601   4.623   2.801   6.258  0.0922 -0.4842 -0.1679
 8381SOL    HW136602   4.636   2.896   6.251  0.4560 -0.4943  0.3202
 8381SOL    HW236603   4.715   2.780   6.277  0.5372  0.5683 -1.1536
 8382SOL     OW36604   0.843   3.571   1.895  0.3751  0.3409  0.3061
 8382SOL    HW136605   0.808   3.502   1.839  0.3458  0.2057  0.4931
 8382SOL    HW236606   0.788   3.573   1.973  0.4573  2.5710  0.3168
 8383SOL     OW36607   2.823   1.840   3.917  0.1160  0.4962 -0.1435
 8383SOL    HW136608   2.830   1.877   3.829  0.1582  3.9725  1.3113
 8383SOL    HW236609   2.870   1.758   3.904  0.4633  0.6565  0.0856
 8384SOL     OW36610   3.643   0.874  11.632  0.2051  0.2178 -0.2714
 8384SOL    HW136611   3.721   0.819  11.629  0.3931  0.5137 -1.0586
 8384SOL    HW236612   3.622   0.865  11.725  0.5593  1.8861 -0.0290
 8385SOL     OW36613   1.731   0.613   8.759 -0.2547 -0.4253 -0.4524
 8385SOL    HW136614   1.636   0.604   8.764 -0.3268 -0.2378 -1.4709
 8385SOL    HW236615   1.733   0.708   8.771  0.0777 -0.3620 -1.0068
 8386SOL     OW36616   1.232   3.322   6.870 -0.0712  0.0631  0.3485
 8386SOL    HW136617   1.216   3.271   6.791  0.7257  1.8486 -0.9690
 8386SOL    HW236618   1.290   3.388   6.833 -0.7255  0.0670 -0.6614
 8387SOL     OW36619   3.473   2.913   7.078  0.3040 -0.0604  0.2762
 8387SOL    HW136620   3.516   2.954   7.004 -2.3950  1.8943 -0.2233
 8387SOL    HW236621   3.416   2.850   7.033  2.9033 -1.0025 -1.6734
 8388SOL     OW36622   3.866   2.202   8.083 -0.0212 -0.1345  0.3703
 8388SOL    HW136623   3.925   2.273   8.107 -0.5883  0.9082 -1.2786
 8388SOL    HW236624   3.860   2.224   7.990 -3.4736 -2.0734  0.1350
 8389SOL     OW36625   2.934   2.921   6.982  0.0642 -0.2303 -0.1568
 8389SOL    HW136626   2.962   3.006   6.947  2.5849 -0.3623  1.6161
 8389SOL    HW236627   3.006   2.863   6.959  0.0889 -1.3105  2.6463
 8390SOL     OW36628   4.558   3.477   0.229  0.8646  0.4570  0.6128
 8390SOL    HW136629   4.535   3.442   0.315 -0.4752  0.2756  0.1797
 8390SOL    HW236630   4.633   3.528   0.257  2.3462 -1.2994 -0.1088
 8391SOL     OW36631   4.508   1.823  11.876 -0.2370 -0.3249 -0.5212
 8391SOL    HW136632   4.535   1.834  11.785 -1.1136 -0.4810 -0.8021
 8391SOL    HW236633   4.489   1.915  11.896  0.4640 -0.4197  0.5908
 8392SOL     OW36634   1.295   1.230   8.502 -0.3274  0.1880 -0.1133
 8392SOL    HW136635   1.388   1.252   8.513  0.2577 -2.3899  0.0236
 8392SOL    HW236636   1.297   1.254   8.410 -0.9598  0.0230 -0.1644
 8393SOL     OW36637   0.497   2.697   6.189  0.0120  0.3203  0.2594
 8393SOL    HW136638   0.529   2.779   6.152  0.8170 -0.2392 -0.3038
 8393SOL    HW236639   0.582   2.656   6.207 -0.4116 -0.3880  0.6759
 8394SOL     OW36640   2.628   4.634   7.746  0.0352 -0.3865  0.8150
 8394SOL    HW136641   2.559   4.620   7.682 -0.7302 -0.0815  1.5737
 8394SOL    HW236642   2.589   4.664   7.828  3.5177  3.8136  0.9752
 8395SOL     OW36643   4.657   2.580  15.764 -0.1509  0.0750 -0.2573
 8395SOL    HW136644   4.641   2.486  15.767  1.9638 -0.2498  0.6145
 8395SOL    HW236645   4.717   2.591  15.837 -0.7440  1.9439 -0.0522
 8396SOL     OW36646   3.234   1.541   0.263 -0.1704 -0.0454 -0.0400
 8396SOL    HW136647   3.276   1.463   0.297  0.6928  1.7699  3.0314
 8396SOL    HW236648   3.311   1.577   0.218  0.7097 -1.3748  0.4137
 8397SOL     OW36649   0.604   2.646   4.171 -0.5125  0.2784 -0.2338
 8397SOL    HW136650   0.607   2.555   4.200 -0.6299  0.7409  1.2034
 8397SOL    HW236651   0.687   2.672   4.211 -0.4746 -1.6567  0.9489
 8398SOL     OW36652   2.430   3.184  16.458 -0.2987  0.0098  0.2844
 8398SOL    HW136653   2.414   3.093  16.482  0.8680 -0.1936  0.2866
 8398SOL    HW236654   2.394   3.234  16.532  1.6972  0.5595  0.8894
 8399SOL     OW36655   1.219   4.723  16.939  0.4208  0.8952  0.2280
 8399SOL    HW136656   1.135   0.033  16.968  0.6122  0.5987  1.1437
 8399SOL    HW236657   1.220   0.001  16.844  0.2505  0.8485  0.2235
 8400SOL     OW36658   1.866   3.944  14.474 -0.1985  0.3075 -0.1573
 8400SOL    HW136659   1.866   3.949  14.570 -2.7938  0.1777 -0.1638
 8400SOL    HW236660   1.923   3.869  14.457  0.4518  0.5036  1.1185
 8401SOL     OW36661   2.060   3.155  17.666  0.2664 -0.1512  0.0477
 8401SOL    HW136662   2.108   3.096  17.607  0.8644  0.3411  0.0404
 8401SOL    HW236663   2.073   3.112   0.045  0.0903  0.8216  0.5614
 8402SOL     OW36664   3.972   4.643   3.194 -0.3467  0.8042  0.2103
 8402SOL    HW136665   3.943   4.704   3.125 -2.0828  0.2642  0.4667
 8402SOL    HW236666   4.018   4.700   3.255  1.8900 -1.4806  0.6397
 8403SOL     OW36667   1.453   2.793   4.461 -0.3153 -0.6305  0.2809
 8403SOL    HW136668   1.487   2.733   4.394  0.9803  1.0933 -0.6116
 8403SOL    HW236669   1.424   2.728   4.525 -0.8410 -0.1382  0.5358
 8404SOL     OW36670   4.238   3.362  16.877 -0.2284 -0.1103 -0.6043
 8404SOL    HW136671   4.287   3.442  16.893 -0.3904 -0.1501  0.0711
 8404SOL    HW236672   4.258   3.346  16.784  1.7136  0.6815 -0.3166
 8405SOL     OW36673   1.385   3.107  14.852  0.0992  0.2607 -0.8341
 8405SOL    HW136674   1.404   3.028  14.801  0.3043 -1.5899  2.1105
 8405SOL    HW236675   1.294   3.121  14.825 -0.6484  0.4453  1.8233
 8406SOL     OW36676   0.537   1.958   7.901 -0.5348  0.0537  0.2295
 8406SOL    HW136677   0.481   1.941   7.826 -3.4587 -1.0788  2.6561
 8406SOL    HW236678   0.528   1.870   7.937 -1.7486  0.9422  2.1086
 8407SOL     OW36679   3.126   0.008   6.239  0.2697  0.0641 -0.1900
 8407SOL    HW136680   3.138   4.648   6.279 -0.9972 -0.4830 -0.9812
 8407SOL    HW236681   3.209   0.050   6.262 -0.1349  1.8065 -1.9129
 8408SOL     OW36682   2.312   0.108   8.523  1.0246  0.4174 -0.4601
 8408SOL    HW136683   2.321   0.046   8.451 -1.7997  0.8998 -1.2248
 8408SOL    HW236684   2.220   0.135   8.515  0.8079 -0.7239 -1.7442
 8409SOL     OW36685   1.414   3.486   0.103  0.0689 -0.9594 -0.0281
 8409SOL    HW136686   1.390   3.402   0.063 -1.2140 -0.2595 -0.7156
 8409SOL    HW236687   1.489   3.510   0.050 -0.1503 -2.3779 -0.9952
 8410SOL     OW36688   1.430   0.478   7.947 -0.2783  0.8745  0.4149
 8410SOL    HW136689   1.511   0.466   7.898  0.4210  2.6986  1.1187
 8410SOL    HW236690   1.463   0.467   8.036  3.4919 -0.5492 -1.1270
 8411SOL     OW36691   2.457   1.998  10.077 -0.4193 -0.5538  0.1054
 8411SOL    HW136692   2.552   1.995  10.070 -0.2811  1.6833  1.0912
 8411SOL    HW236693   2.436   1.906  10.089  0.7682 -0.6772  1.1305
 8412SOL     OW36694   4.647   1.786   8.331 -0.0354  0.1485 -0.0796
 8412SOL    HW136695   4.603   1.845   8.392 -0.3795 -1.8553  1.6167
 8412SOL    HW236696   0.015   1.801   8.343 -0.3572  1.1691  1.1704
 8413SOL     OW36697   4.469   2.278  15.574 -0.0676 -0.0866 -0.3398
 8413SOL    HW136698   4.501   2.294  15.662 -1.8320 -0.2861  0.3316
 8413SOL    HW236699   4.539   2.330  15.533 -0.7767  1.0588 -0.0941
 8414SOL     OW36700   2.122   3.332   1.436  0.0195 -0.2114 -0.7043
 8414SOL    HW136701   2.107   3.344   1.530 -1.0129  2.3090 -1.1916
 8414SOL    HW236702   2.214   3.304   1.431  0.7456  2.1013 -0.4446
 8415SOL     OW36703   4.618   1.669  10.610  0.1484 -0.0182  0.0007
 8415SOL    HW136704   4.576   1.669  10.525  1.0345 -3.0481 -0.4449
 8415SOL    HW236705   4.706   1.694  10.581 -0.1846 -0.7838 -1.6452
 8416SOL     OW36706   0.942   1.420   2.097  0.4721  0.4600 -0.2683
 8416SOL    HW136707   0.965   1.458   2.013 -0.7701  1.3093 -0.2170
 8416SOL    HW236708   0.958   1.490   2.160 -0.1805  0.2388  0.1456
 8417SOL     OW36709   4.116   1.197  11.433 -0.1078  0.2446 -0.3207
 8417SOL    HW136710   4.196   1.239  11.463 -1.0796  1.1306  1.0250
 8417SOL    HW236711   4.144   1.108  11.413 -0.2598 -0.1516  1.2649
 8418SOL     OW36712   2.666   3.740   5.374 -0.1606 -1.0147  0.7407
 8418SOL    HW136713   2.599   3.742   5.305  2.8780 -0.9433 -2.1623
 8418SOL    HW236714   2.644   3.813   5.432  0.9273  0.2936 -0.5068
 8419SOL     OW36715   0.960   3.615   7.269  0.8000 -0.5170  0.4371
 8419SOL    HW136716   0.976   3.558   7.344  0.2694 -0.1658  0.8197
 8419SOL    HW236717   1.044   3.593   7.229 -0.4122 -2.9486 -0.7458
 8420SOL     OW36718   0.690   1.065   1.780  0.0787 -0.5074  0.0136
 8420SOL    HW136719   0.679   1.159   1.770  0.0963 -0.3953  0.9919
 8420SOL    HW236720   0.600   1.035   1.785 -0.1385  0.0419 -0.6497
 8421SOL     OW36721   2.620   4.170   3.305  0.0410  0.1485 -0.1010
 8421SOL    HW136722   2.689   4.233   3.285 -0.7353  1.4536  1.3571
 8421SOL    HW236723   2.637   4.113   3.229  3.9644 -0.3509  1.1215
 8422SOL     OW36724   2.791   2.808   3.006  0.2167 -0.2142  0.6710
 8422SOL    HW136725   2.770   2.772   2.919 -1.1858 -0.9192  1.3019
 8422SOL    HW236726   2.743   2.890   3.008  1.4758  0.5856 -1.6715
 8423SOL     OW36727   4.310   2.667   8.696  0.5661 -0.2042 -0.0376
 8423SOL    HW136728   4.330   2.686   8.788  1.4557 -1.2359 -0.0226
 8423SOL    HW236729   4.398   2.652   8.664  0.7130  2.9219 -1.1023
 8424SOL     OW36730   1.886   3.061   3.035  0.5346 -0.1064  0.5975
 8424SOL    HW136731   1.837   3.000   2.980  0.4957  0.9362 -0.5275
 8424SOL    HW236732   1.828   3.087   3.108 -1.1820 -2.6158  0.1248
 8425SOL     OW36733   3.497   1.083   3.416  0.3115 -0.0527 -0.2394
 8425SOL    HW136734   3.591   1.073   3.408  0.2001 -0.2725 -1.3240
 8425SOL    HW236735   3.462   1.088   3.327 -1.6507 -0.7263  0.4837
 8426SOL     OW36736   2.773   2.678   1.141 -0.1878 -0.4764  0.4115
 8426SOL    HW136737   2.712   2.701   1.072  0.7255 -0.4289 -0.3729
 8426SOL    HW236738   2.713   2.660   1.214  0.5365 -1.8385  0.6762
 8427SOL     OW36739   0.539   2.828   2.693  0.2575 -0.3444  0.5367
 8427SOL    HW136740   0.460   2.837   2.640  1.9922  0.3593 -1.8843
 8427SOL    HW236741   0.548   2.913   2.736 -1.0501 -0.5317  1.1874
 8428SOL     OW36742   0.619   1.977   0.263  0.4981  0.3674 -0.5722
 8428SOL    HW136743   0.547   2.026   0.302 -1.1316 -2.9221  0.5760
 8428SOL    HW236744   0.610   1.896   0.314  1.6066  0.0017 -0.9477
 8429SOL     OW36745   1.912   0.764   6.154  0.2850 -0.6114 -0.5012
 8429SOL    HW136746   1.983   0.772   6.218  0.3763  0.9629 -0.8041
 8429SOL    HW236747   1.845   0.825   6.184  2.3724  1.5639 -0.2113
 8430SOL     OW36748   0.563   3.486   3.734  0.1885  0.8864 -0.2395
 8430SOL    HW136749   0.617   3.506   3.658  0.0523 -2.5077 -1.2349
 8430SOL    HW236750   0.577   3.391   3.742 -1.4653  0.6546 -0.1114
 8431SOL     OW36751   4.712   4.478  13.496  1.0050  0.2383  0.1726
 8431SOL    HW136752   4.643   4.452  13.558  0.3377  2.7870  0.5072
 8431SOL    HW236753   4.686   4.418  13.427 -0.3465  0.6302  0.3322
 8432SOL     OW36754   0.325   1.067   2.117 -0.2802  0.2607  0.1628
 8432SOL    HW136755   0.260   1.099   2.180 -1.8146 -1.2901 -0.6227
 8432SOL    HW236756   0.263   1.055   2.045  0.5105  1.3532 -0.7007
 8433SOL     OW36757   3.688   3.238   4.285  0.1783  0.4263  0.2474
 8433SOL    HW136758   3.619   3.303   4.267  0.8369  0.3602 -2.5386
 8433SOL    HW236759   3.632   3.175   4.331  1.9687 -2.6032 -1.7354
 8434SOL     OW36760   0.922   4.552   2.962 -0.3549  0.0516 -0.1162
 8434SOL    HW136761   1.017   4.546   2.970 -0.2643  1.2010 -0.3398
 8434SOL    HW236762   0.899   4.591   2.878  1.9496  0.8282 -0.3889
 8435SOL     OW36763   4.203   3.811   4.056 -0.2556 -0.1636 -0.1675
 8435SOL    HW136764   4.136   3.820   3.989 -0.2478 -1.7400 -0.3788
 8435SOL    HW236765   4.202   3.715   4.058 -0.7739 -0.2029 -1.7478
 8436SOL     OW36766   0.501   0.054   3.576  0.5493 -0.2635  0.1122
 8436SOL    HW136767   0.419   0.037   3.624  0.2639  1.9009  0.4111
 8436SOL    HW236768   0.557   0.014   3.643  1.9063 -0.8324 -1.3629
 8437SOL     OW36769   0.452   2.461  12.454 -0.5163 -0.2210  0.5881
 8437SOL    HW136770   0.489   2.537  12.500 -2.1677 -0.1107  1.7128
 8437SOL    HW236771   0.379   2.500  12.405  1.0204  1.4074 -0.4139
 8438SOL     OW36772   0.584   2.705  12.504  0.0612  0.6378 -0.2135
 8438SOL    HW136773   0.659   2.691  12.446  0.7420  2.6114  0.2070
 8438SOL    HW236774   0.627   2.739  12.583 -0.5624 -0.8380  0.7720
 8439SOL     OW36775   1.240   2.696  17.686  0.2693 -0.2578 -0.1725
 8439SOL    HW136776   1.316   2.749   0.007  0.7490 -1.4858  0.8898
 8439SOL    HW236777   1.184   2.761  17.644  1.2846  0.6579 -0.1186
 8440SOL     OW36778   1.362   4.688   6.347  0.3911  0.2458  0.0310
 8440SOL    HW136779   1.297   0.021   6.385  2.1575  1.2321  1.5140
 8440SOL    HW236780   1.425   4.680   6.419  0.5753  0.9433 -0.0527
 8441SOL     OW36781   1.818   0.954   6.351 -0.6778  0.0694 -0.5521
 8441SOL    HW136782   1.796   1.044   6.327 -0.4408  0.7427  1.8083
 8441SOL    HW236783   1.879   0.956   6.425 -1.3445  0.4361 -0.0257
 8442SOL     OW36784   2.038   2.258  11.351 -0.4878  0.4732  0.2555
 8442SOL    HW136785   2.010   2.299  11.433 -2.3121  0.2141 -0.2443
 8442SOL    HW236786   2.111   2.211  11.390 -2.0743 -2.6069 -0.5228
 8443SOL     OW36787   4.185   1.863   0.491  0.2154 -0.3999 -1.1640
 8443SOL    HW136788   4.255   1.800   0.505  0.4167  0.6227  2.3448
 8443SOL    HW236789   4.159   1.847   0.400  1.4909  0.6699 -1.7215
 8444SOL     OW36790   2.455   3.194   8.223  0.1637 -0.3256  0.3152
 8444SOL    HW136791   2.414   3.280   8.232  1.1258  0.3288 -1.3681
 8444SOL    HW236792   2.547   3.221   8.230 -0.1276  1.3656 -2.2150
 8445SOL     OW36793   0.594   3.808   2.692 -0.0545  0.0478  0.1553
 8445SOL    HW136794   0.617   3.781   2.603 -1.1087  0.2256 -0.1750
 8445SOL    HW236795   0.551   3.733   2.732 -1.3919  0.8046  0.1107
 8446SOL     OW36796   4.405   2.732   4.179 -0.2764 -0.4224 -0.3851
 8446SOL    HW136797   4.428   2.759   4.090 -0.7676 -1.3705 -0.8036
 8446SOL    HW236798   4.418   2.638   4.166  0.0291  0.0577 -3.5170
 8447SOL     OW36799   3.510   2.731   9.390 -0.3627  0.0992  0.3192
 8447SOL    HW136800   3.592   2.691   9.418 -0.7605 -1.6686 -1.0415
 8447SOL    HW236801   3.452   2.656   9.404 -1.5598  0.9077 -0.3690
 8448SOL     OW36802   3.618   0.163   4.587 -0.2320 -0.1530 -0.1160
 8448SOL    HW136803   3.701   0.120   4.612 -0.7880  0.1383  2.2181
 8448SOL    HW236804   3.571   0.163   4.670 -2.5739  1.1031 -1.4357
 8449SOL     OW36805   3.227   1.915  10.240  0.4803  0.0230  0.2728
 8449SOL    HW136806   3.176   1.836  10.221  0.0185  0.5002 -0.4568
 8449SOL    HW236807   3.198   1.925  10.331 -0.7472 -0.0164 -0.1215
 8450SOL     OW36808   2.404   2.915  10.146 -0.0479  0.7784 -0.0967
 8450SOL    HW136809   2.363   2.902  10.060  0.3869  1.4738 -0.4108
 8450SOL    HW236810   2.339   2.963  10.197 -0.0613 -1.1048  1.6879
 8451SOL     OW36811   0.698   0.749  17.094  0.2054 -0.4770  0.1511
 8451SOL    HW136812   0.682   0.833  17.138 -1.5809 -0.7757  0.0669
 8451SOL    HW236813   0.607   0.721  17.080  1.0154 -2.2325 -1.6522
 8452SOL     OW36814   3.159   0.051   0.961 -0.1738 -0.4020  0.0924
 8452SOL    HW136815   3.227   0.042   0.895  2.7673  1.2340  2.8877
 8452SOL    HW236816   3.096   0.103   0.910 -0.0663 -0.7040 -0.3452
 8453SOL     OW36817   4.360   0.848   5.642  0.0244 -0.1523 -0.0553
 8453SOL    HW136818   4.455   0.847   5.637  0.1072  0.4762  1.3491
 8453SOL    HW236819   4.351   0.939   5.671  0.3124  0.3013 -1.3721
 8454SOL     OW36820   0.796   1.895   2.350 -0.3030  0.5549  0.2977
 8454SOL    HW136821   0.708   1.932   2.342 -0.8375 -0.8417 -0.3216
 8454SOL    HW236822   0.852   1.965   2.382 -0.0175  0.9771 -1.1496
 8455SOL     OW36823   1.419   3.176   8.618 -0.2591  0.1661 -0.1821
 8455SOL    HW136824   1.372   3.240   8.565  2.1794 -0.2670 -2.8774
 8455SOL    HW236825   1.413   3.096   8.566 -0.2127  0.3268 -0.4372
 8456SOL     OW36826   3.520   0.717   5.980  0.2743  0.5119  0.1445
 8456SOL    HW136827   3.512   0.760   5.895 -1.6393 -1.2246 -0.5558
 8456SOL    HW236828   3.560   0.792   6.023  1.6744  0.1837 -0.5554
 8457SOL     OW36829   0.415   1.092  17.125 -0.5652  0.4017 -0.3181
 8457SOL    HW136830   0.496   1.081  17.075  0.0218 -0.2729  0.7951
 8457SOL    HW236831   0.425   1.180  17.161  0.4677 -0.2233  0.9366
 8458SOL     OW36832   0.598   2.861   9.119 -0.2696 -0.4111 -0.5013
 8458SOL    HW136833   0.684   2.859   9.077  0.5152  0.3520  1.0327
 8458SOL    HW236834   0.551   2.884   9.039  0.8399  0.3670 -0.9400
 8459SOL     OW36835   2.504   1.437   2.622 -0.4284 -0.6611 -0.3380
 8459SOL    HW136836   2.590   1.410   2.589  0.7070 -0.9128  2.8763
 8459SOL    HW236837   2.473   1.357   2.663  0.3261 -1.6046 -1.6030
 8460SOL     OW36838   2.495   1.087   7.262 -0.1436  0.4373  0.0697
 8460SOL    HW136839   2.533   0.999   7.265 -1.8400 -0.4064 -2.1330
 8460SOL    HW236840   2.413   1.074   7.309  1.1067  0.9521  2.3876
 8461SOL     OW36841   1.365   4.485   3.848  0.0235 -0.2683  0.4504
 8461SOL    HW136842   1.440   4.429   3.866 -1.8635 -3.2273 -0.9557
 8461SOL    HW236843   1.335   4.465   3.760 -0.9133  3.7715 -0.1462
 8462SOL     OW36844   0.170   1.173   2.337 -0.3703  0.3850 -0.0389
 8462SOL    HW136845   0.178   1.211   2.424 -0.2312  1.5768 -0.5742
 8462SOL    HW236846   0.151   1.081   2.356 -2.1589  0.8042  0.2208
 8463SOL     OW36847   4.076   2.600   0.824 -0.0439  0.1896 -0.5346
 8463SOL    HW136848   4.060   2.565   0.912  1.7696  1.6370  0.3739
 8463SOL    HW236849   4.039   2.688   0.834 -3.0576 -1.1372  0.0893
 8464SOL     OW36850   2.622   2.723   8.219 -0.2879  0.1882 -0.3252
 8464SOL    HW136851   2.558   2.779   8.175  0.0283  0.3397 -0.5927
 8464SOL    HW236852   2.635   2.756   8.307 -2.4444  2.3992 -0.8403
 8465SOL     OW36853   2.565   2.880   4.362  0.2326  0.2385 -0.2374
 8465SOL    HW136854   2.474   2.873   4.391  0.3686 -0.1236  0.1003
 8465SOL    HW236855   2.544   2.884   4.269  1.2109 -1.1491 -0.5192
 8466SOL     OW36856   2.040   2.960   6.833 -0.5716  0.4456  0.5533
 8466SOL    HW136857   2.094   3.037   6.847  1.1169 -1.0185  2.0804
 8466SOL    HW236858   2.093   2.893   6.875 -1.0499 -0.0512  0.3754
 8467SOL     OW36859   3.735   3.480   8.459  0.0818 -0.2329  0.1635
 8467SOL    HW136860   3.788   3.532   8.519 -2.7351  1.7718  0.9316
 8467SOL    HW236861   3.659   3.457   8.513  1.2456  1.0224  2.3450
 8468SOL     OW36862   3.041   2.597   4.836  0.7466 -0.2354  0.0256
 8468SOL    HW136863   3.028   2.550   4.918  1.1281  2.2150  1.5235
 8468SOL    HW236864   2.968   2.550   4.797 -0.0280  2.0397 -1.2647
 8469SOL     OW36865   3.309   1.953   2.668  0.4636  0.4805 -0.1429
 8469SOL    HW136866   3.351   1.932   2.584 -0.2454 -0.6835 -0.2044
 8469SOL    HW236867   3.344   1.879   2.719  0.4209 -0.7664 -1.9030
 8470SOL     OW36868   1.201   2.401   7.508  0.3163 -0.1252  0.3218
 8470SOL    HW136869   1.276   2.405   7.449 -0.0343  0.2210 -0.1025
 8470SOL    HW236870   1.187   2.491   7.536 -1.7499 -0.9459  1.9780
 8471SOL     OW36871   4.140   4.472  11.979 -0.1051  0.3348 -0.0479
 8471SOL    HW136872   4.190   4.501  12.055 -0.5650  2.0106 -0.3594
 8471SOL    HW236873   4.126   4.382  12.005 -0.5107 -0.0990 -1.7669
 8472SOL     OW36874   1.683   1.651  12.949  0.1628  0.4865  0.4937
 8472SOL    HW136875   1.775   1.629  12.931  0.2972  1.0086  0.5309
 8472SOL    HW236876   1.700   1.725  13.008  0.9381  1.1113 -0.5029
 8473SOL     OW36877   2.189   4.405   6.127 -0.3332 -0.0904 -0.4454
 8473SOL    HW136878   2.146   4.441   6.049  1.8624 -0.1560 -1.6896
 8473SOL    HW236879   2.225   4.324   6.091 -0.4067 -0.3944  0.1711
 8474SOL     OW36880   3.368   4.249   8.345  0.1285 -0.0466  0.0409
 8474SOL    HW136881   3.359   4.173   8.288  2.6000 -1.2403  1.2469
 8474SOL    HW236882   3.431   4.307   8.303 -1.0210  2.4362  1.7450
 8475SOL     OW36883   0.306   1.645   0.843  0.4830  0.2896  0.0722
 8475SOL    HW136884   0.338   1.622   0.756  0.2603  0.9082 -0.1759
 8475SOL    HW236885   0.273   1.734   0.832  1.0536  0.4680 -0.1573
 8476SOL     OW36886   3.033   1.942   2.445 -0.1574  0.7018  0.2728
 8476SOL    HW136887   3.110   1.894   2.477 -1.7270 -1.0375  1.4267
 8476SOL    HW236888   3.062   1.961   2.356 -0.7340  3.1805  0.6075
 8477SOL     OW36889   1.691   2.389   8.222  0.3552  0.0081  0.6316
 8477SOL    HW136890   1.645   2.418   8.300 -2.0329 -0.8964 -0.4488
 8477SOL    HW236891   1.770   2.351   8.261  0.5275  1.8547  2.0541
 8478SOL     OW36892   2.433   0.814  10.847  0.4838  0.3493 -0.2579
 8478SOL    HW136893   2.469   0.887  10.796  0.8835  1.2504  1.2994
 8478SOL    HW236894   2.396   0.760  10.778 -0.0558 -2.0481  1.9258
 8479SOL     OW36895   1.492   1.897  14.240 -0.3825 -0.0518  0.8746
 8479SOL    HW136896   1.428   1.831  14.214  2.5481 -1.8916 -1.6580
 8479SOL    HW236897   1.436   1.937  14.307  0.7852 -0.3318  2.0123
 8480SOL     OW36898   1.166   1.110   0.106 -0.0377 -0.1738 -0.5229
 8480SOL    HW136899   1.210   1.191   0.130  1.3152 -0.7388 -1.1294
 8480SOL    HW236900   1.092   1.144   0.055 -1.0355 -0.5872  0.6298
 8481SOL     OW36901   1.384   3.343   8.047  0.0411 -0.1342  0.4800
 8481SOL    HW136902   1.461   3.320   8.099 -0.2577 -0.7634  0.6366
 8481SOL    HW236903   1.317   3.287   8.087 -0.4336  0.4147  0.4513
 8482SOL     OW36904   2.195   0.737  15.505 -0.1032 -0.1001  0.0467
 8482SOL    HW136905   2.165   0.781  15.584 -0.0353 -0.0649  0.0529
 8482SOL    HW236906   2.247   0.808  15.466  1.8520 -0.9463  1.1021
 8483SOL     OW36907   3.289   3.566  17.124 -0.3798 -0.3039  0.4605
 8483SOL    HW136908   3.265   3.582  17.033 -0.1007  2.3934  0.8608
 8483SOL    HW236909   3.321   3.653  17.149  0.6237 -0.4964 -0.2029
 8484SOL     OW36910   3.394   3.137   1.314  0.1940  0.3245  0.2191
 8484SOL    HW136911   3.306   3.128   1.278 -0.2293  0.5105  1.2289
 8484SOL    HW236912   3.433   3.181   1.238  0.0554 -1.3688 -0.8477
 8485SOL     OW36913   2.256   4.580   2.476 -0.0465  0.1019  0.0732
 8485SOL    HW136914   2.316   4.597   2.403  1.2252 -0.7593  0.9137
 8485SOL    HW236915   2.208   4.507   2.436  0.8879 -1.2141  1.3396
 8486SOL     OW36916   2.348   3.513  11.653  0.2803 -0.4077 -0.2054
 8486SOL    HW136917   2.443   3.507  11.663  0.6287  1.6980 -2.2483
 8486SOL    HW236918   2.325   3.495  11.744 -0.5382  0.4978 -0.2239
 8487SOL     OW36919   0.533   2.924   8.072  0.8855 -0.6083 -0.5520
 8487SOL    HW136920   0.583   2.997   8.109  1.3414 -1.0555 -0.2854
 8487SOL    HW236921   0.548   2.852   8.133 -0.5786 -1.8036 -1.5979
 8488SOL     OW36922   3.731   0.977  15.610 -0.2190 -0.3653 -0.7291
 8488SOL    HW136923   3.737   1.033  15.688 -1.0597 -0.2329 -0.7578
 8488SOL    HW236924   3.647   0.933  15.627 -0.8709  1.3402  0.5424
 8489SOL     OW36925   4.318   3.567   6.376 -0.4122  0.1590 -0.5501
 8489SOL    HW136926   4.372   3.636   6.414 -1.2312  0.6823 -0.3383
 8489SOL    HW236927   4.379   3.493   6.370  2.6679  2.5532  1.4639
 8490SOL     OW36928   0.589   1.368   9.264 -0.3040  0.2976 -0.1753
 8490SOL    HW136929   0.529   1.383   9.338 -0.1301 -1.6678  0.3601
 8490SOL    HW236930   0.576   1.449   9.214 -1.2482 -0.0710 -0.5187
 8491SOL     OW36931   4.068   1.126   4.820  0.0939 -0.0254  0.5160
 8491SOL    HW136932   4.039   1.055   4.876 -2.0791  0.4337 -0.0306
 8491SOL    HW236933   4.020   1.092   4.744 -0.2458  0.8425  0.3385
 8492SOL     OW36934   4.253   0.725   5.916 -0.0182 -0.0625 -0.0256
 8492SOL    HW136935   4.325   0.672   5.882 -1.0096 -1.9844  0.8471
 8492SOL    HW236936   4.241   0.788   5.845 -1.5434 -1.4068 -0.9627
 8493SOL     OW36937   1.384   3.168   8.889 -0.2840 -0.5375  0.0307
 8493SOL    HW136938   1.455   3.223   8.924 -2.1331  1.1938  1.0601
 8493SOL    HW236939   1.387   3.181   8.795  0.4587 -0.7173  0.0314
 8494SOL     OW36940   1.296   4.139   5.392  0.6946  0.2234 -0.0286
 8494SOL    HW136941   1.328   4.052   5.414 -1.7537 -0.6965 -0.1869
 8494SOL    HW236942   1.372   4.197   5.401 -0.1915  1.2564  0.7669
 8495SOL     OW36943   3.869   4.473   6.097 -0.3441 -0.0510 -0.0762
 8495SOL    HW136944   3.928   4.417   6.046  0.8889 -0.9069  2.2997
 8495SOL    HW236945   3.851   4.538   6.029  0.8681 -0.1461 -0.4913
 8496SOL     OW36946   1.221   4.420  17.467 -0.4258 -0.1418  0.1045
 8496SOL    HW136947   1.251   4.432  17.557  1.2325  2.2358 -0.7602
 8496SOL    HW236948   1.156   4.355  17.493 -2.2217  1.2602 -0.9389
 8497SOL     OW36949   3.465   4.022  12.820  0.3123 -0.0185  0.1339
 8497SOL    HW136950   3.535   3.961  12.843 -0.0289  0.3207  2.0913
 8497SOL    HW236951   3.498   4.090  12.762  0.3830 -0.3481 -0.2100
 8498SOL     OW36952   2.159   4.368   8.667 -0.1090 -0.1560  0.3829
 8498SOL    HW136953   2.173   4.355   8.761  0.7498  0.0313  0.2784
 8498SOL    HW236954   2.207   4.450   8.658 -0.2877 -0.1160 -0.2080
 8499SOL     OW36955   2.511   1.728   4.815  0.2376 -0.2326 -0.3639
 8499SOL    HW136956   2.586   1.737   4.757 -0.1082  0.6037 -0.6726
 8499SOL    HW236957   2.535   1.788   4.886  2.0630 -0.6847 -0.5852
 8500SOL     OW36958   0.166   2.332   0.324 -0.1243  0.7174 -0.0305
 8500SOL    HW136959   0.084   2.295   0.293  0.4942 -1.1061  0.5432
 8500SOL    HW236960   0.143   2.344   0.416  0.5728 -0.4058  0.2892
 8501SOL     OW36961   1.372   0.317   9.894  0.7404 -0.5998 -0.4310
 8501SOL    HW136962   1.453   0.360   9.919  0.8202  0.8076 -3.0953
 8501SOL    HW236963   1.335   0.381   9.832  0.0634  0.1206  0.7079
 8502SOL     OW36964   2.994   2.904   1.107  0.5489 -0.0050  0.2667
 8502SOL    HW136965   3.069   2.848   1.090 -1.1314 -2.7748  1.9997
 8502SOL    HW236966   2.929   2.840   1.135  0.5562  0.9193  2.3733
 8503SOL     OW36967   3.986   0.982   7.852 -0.4931 -0.3426 -0.5452
 8503SOL    HW136968   3.913   0.982   7.790 -0.2836 -0.2147 -0.7890
 8503SOL    HW236969   3.979   0.893   7.886 -0.6438 -0.5813 -1.2067
 8504SOL     OW36970   3.719   2.274   2.415 -0.0407  0.2588  0.9161
 8504SOL    HW136971   3.735   2.329   2.492 -1.2291  0.1098  1.2719
 8504SOL    HW236972   3.691   2.198   2.465  0.3094 -1.3261 -1.3163
 8505SOL     OW36973   2.081   1.387   8.016  0.6417 -0.0139  0.1485
 8505SOL    HW136974   2.092   1.301   8.056  1.2814 -0.2268 -0.4813
 8505SOL    HW236975   2.027   1.426   8.085 -0.3774  0.1266 -0.7277
 8506SOL     OW36976   1.679   2.072   7.179 -0.2565 -0.3129  0.2148
 8506SOL    HW136977   1.735   2.149   7.167 -0.0754 -0.3238  0.9962
 8506SOL    HW236978   1.746   2.009   7.153  1.1428  0.6888  1.4126
 8507SOL     OW36979   0.305   2.826   5.064  0.0377 -0.6820  0.8948
 8507SOL    HW136980   0.378   2.883   5.037  0.3540 -0.5116  2.1319
 8507SOL    HW236981   0.325   2.744   5.020 -0.3021  0.1265 -0.7749
 8508SOL     OW36982   4.153   4.570   4.236 -0.0516 -0.4631 -0.3008
 8508SOL    HW136983   4.117   4.593   4.322 -0.9386  1.1747 -1.1076
 8508SOL    HW236984   4.076   4.531   4.196 -1.9105  2.5610  0.2716
 8509SOL     OW36985   0.961   0.247   6.155 -0.1842  0.8137  0.4926
 8509SOL    HW136986   0.921   0.304   6.090 -1.0522 -1.8919 -1.3602
 8509SOL    HW236987   0.949   0.163   6.111 -0.7871  0.6235  1.0241
 8510SOL     OW36988   3.993   4.724   5.979 -0.2630  0.2535  0.1681
 8510SOL    HW136989   3.899   0.011   5.983 -0.3797 -0.8680  0.9976
 8510SOL    HW236990   3.998   0.017   5.885 -0.4703 -0.6935 -0.0367
 8511SOL     OW36991   1.975   0.580   8.635 -0.7139  0.2869  0.3684
 8511SOL    HW136992   1.968   0.665   8.592 -1.3782  0.1241  0.1622
 8511SOL    HW236993   1.887   0.579   8.672 -1.0443  1.7985 -0.3654
 8512SOL     OW36994   1.047   3.093   3.048  0.5174 -0.1177 -0.0447
 8512SOL    HW136995   1.081   3.123   2.964 -0.0556 -0.3427 -0.3575
 8512SOL    HW236996   1.122   3.050   3.088 -0.5676  0.2750  2.4405
 8513SOL     OW36997   1.765   0.340   3.948 -0.9000  0.4347  0.3202
 8513SOL    HW136998   1.809   0.259   3.973 -1.6907 -1.0230 -2.9790
 8513SOL    HW236999   1.802   0.362   3.862 -1.2198 -1.4392 -0.2908
 8514SOL     OW37000   2.678   0.762  10.966 -0.5848  0.0996 -0.0004
 8514SOL    HW137001   2.674   0.683  10.913  1.7011 -0.1503  0.1920
 8514SOL    HW237002   2.607   0.817  10.934 -0.9279  0.1553  0.8652
 8515SOL     OW37003   3.375   0.349   3.649 -0.1807 -0.2467  0.0277
 8515SOL    HW137004   3.443   0.289   3.618 -0.7356  0.0884 -1.7996
 8515SOL    HW237005   3.422   0.432   3.648 -1.5401  0.5081 -2.3936
 8516SOL     OW37006   1.928   2.247   5.233  0.2821 -0.7159  0.0644
 8516SOL    HW137007   1.842   2.244   5.192  0.6631 -1.4466 -0.6651
 8516SOL    HW237008   1.928   2.154   5.255 -0.1531  0.2317  4.2129
 8517SOL     OW37009   2.729   4.352   7.421  0.4406 -0.1319 -0.1147
 8517SOL    HW137010   2.680   4.372   7.500  0.1518 -0.6451 -0.1649
 8517SOL    HW237011   2.682   4.402   7.355  1.2718  0.9270  0.0974
 8518SOL     OW37012   3.433   0.991  13.120  0.0375  0.2829 -0.0223
 8518SOL    HW137013   3.431   1.083  13.093 -3.1322  0.0448 -0.6222
 8518SOL    HW237014   3.502   0.963  13.060  1.1878  0.7414  1.0980
 8519SOL     OW37015   2.673   1.085   9.920  0.3707 -0.1533 -0.3758
 8519SOL    HW137016   2.740   1.075   9.853  1.2080 -2.1530  0.7451
 8519SOL    HW237017   2.715   1.157   9.966  0.7673 -1.6831  1.6711
 8520SOL     OW37018   3.433   2.699   3.904 -0.3191 -0.2976  0.0864
 8520SOL    HW137019   3.396   2.778   3.944  3.6270  0.6412  1.8951
 8520SOL    HW237020   3.408   2.635   3.970  0.1316 -1.6199 -1.0254
 8521SOL     OW37021   1.672   4.479   7.331  0.4627 -0.3958  0.3277
 8521SOL    HW137022   1.643   4.567   7.353  2.2462  0.8688 -2.4874
 8521SOL    HW237023   1.623   4.457   7.252  0.6147 -2.0197  0.6852
 8522SOL     OW37024   4.053   2.089   7.201  0.1526 -0.1739 -0.0349
 8522SOL    HW137025   4.004   2.160   7.241 -1.5953 -0.1393 -2.2903
 8522SOL    HW237026   4.141   2.128   7.208 -0.0671  0.5092 -1.2411
 8523SOL     OW37027   1.985   4.551  13.627 -0.2473 -0.4190  0.4534
 8523SOL    HW137028   1.943   4.499  13.695  0.1441 -0.9901  0.2607
 8523SOL    HW237029   2.076   4.535  13.648 -0.3593  1.0194  1.9627
 8524SOL     OW37030   0.723   3.535   6.720 -0.1635  0.5223  0.1212
 8524SOL    HW137031   0.645   3.537   6.665  0.0641  1.3683 -0.1673
 8524SOL    HW237032   0.784   3.539   6.646  0.1637  1.9045  0.4682
 8525SOL     OW37033   4.042   3.154   1.745  0.1544 -0.8556  0.2467
 8525SOL    HW137034   4.136   3.155   1.762  0.4312 -2.0374 -1.1725
 8525SOL    HW237035   4.002   3.112   1.821 -0.8890 -0.1975  0.0562
 8526SOL     OW37036   0.623   2.264   7.005 -0.0137  0.9921  0.1050
 8526SOL    HW137037   0.537   2.280   7.044  0.6943  1.6041  1.4002
 8526SOL    HW237038   0.668   2.215   7.074  1.4500 -1.0346 -2.2869
 8527SOL     OW37039   0.816   2.084   5.875  0.4505  0.2996  0.1266
 8527SOL    HW137040   0.814   2.152   5.943 -0.9726  0.7618 -0.3599
 8527SOL    HW237041   0.885   2.106   5.814  1.4008 -0.2365  1.0113
 8528SOL     OW37042   4.697   4.150   1.722 -0.3191  0.4507  0.2917
 8528SOL    HW137043   0.021   4.231   1.721  1.7442 -0.8200  1.2719
 8528SOL    HW237044   4.678   4.138   1.815 -2.3837 -0.3556 -0.2169
 8529SOL     OW37045   3.333   4.121   2.762 -0.1124  0.2792 -0.7715
 8529SOL    HW137046   3.274   4.190   2.734 -1.6891 -0.2093  1.3259
 8529SOL    HW237047   3.323   4.053   2.696 -0.9900 -0.0107 -0.3389
 8530SOL     OW37048   1.876   0.100   4.022  0.2702  0.2071 -0.1511
 8530SOL    HW137049   1.825   0.026   4.055  0.8680  0.8062  2.1146
 8530SOL    HW237050   1.950   0.101   4.083  0.0334  0.1022  0.1378
 8531SOL     OW37051   0.886   3.734   4.568  0.2735  0.0232 -0.3275
 8531SOL    HW137052   0.868   3.819   4.606  2.4790 -0.5122  1.9207
 8531SOL    HW237053   0.851   3.676   4.636 -1.5863 -0.2266 -1.5120
 8532SOL     OW37054   3.572   1.749   7.952 -0.4462  0.2012 -0.2684
 8532SOL    HW137055   3.565   1.687   7.880 -0.7904 -0.7096  0.5540
 8532SOL    HW237056   3.658   1.782   7.926  0.5767 -1.2147  1.3155
 8533SOL     OW37057   2.752   0.636  13.497  0.9118 -0.5033  0.5312
 8533SOL    HW137058   2.693   0.617  13.424 -0.1077  1.4941  0.8460
 8533SOL    HW237059   2.775   0.728  13.483  1.4757 -0.6964  0.1798
 8534SOL     OW37060   0.035   1.453  15.613 -0.3771 -0.1080 -0.2335
 8534SOL    HW137061   0.064   1.423  15.527  1.8640  1.7278 -0.1093
 8534SOL    HW237062   0.036   1.547  15.593 -0.7211 -0.4298 -1.8055
 8535SOL     OW37063   3.670   2.658   0.959  0.1034 -0.0619 -0.0421
 8535SOL    HW137064   3.643   2.570   0.931 -0.6000  0.7909 -2.0947
 8535SOL    HW237065   3.761   2.665   0.931 -0.6810 -0.7475 -2.8191
 8536SOL     OW37066   1.792   3.251  17.551  0.1596 -0.6491 -0.3568
 8536SOL    HW137067   1.865   3.224  17.607  1.6504 -1.7757 -2.8361
 8536SOL    HW237068   1.846   3.285  17.479 -1.4480 -0.4134 -1.4416
 8537SOL     OW37069   0.870   3.238  17.434 -0.0474  0.2624  0.0968
 8537SOL    HW137070   0.827   3.152  17.435 -0.1193  0.3132  2.4264
 8537SOL    HW237071   0.854   3.268  17.345 -1.6539 -0.9856 -0.0362
 8538SOL     OW37072   0.768   4.165   7.323 -0.1157  0.1566  0.1014
 8538SOL    HW137073   0.855   4.130   7.340  0.0481  1.3731  1.6864
 8538SOL    HW237074   0.718   4.087   7.349  0.4292 -0.5192 -0.8655
 8539SOL     OW37075   4.349   0.155   6.499 -0.4478 -0.3279  0.4528
 8539SOL    HW137076   4.319   0.109   6.421  2.7566 -0.3059 -0.7800
 8539SOL    HW237077   4.337   0.093   6.571  0.1147 -2.4741 -1.2936
 8540SOL     OW37078   1.183   2.024   5.610  0.2182 -0.6885 -0.3563
 8540SOL    HW137079   1.185   1.975   5.528  2.6407  1.2764 -1.4628
 8540SOL    HW237080   1.234   1.964   5.664  1.4290  0.9617  0.3251
 8541SOL     OW37081   3.701   2.749  13.797 -0.6141 -0.0332 -0.1920
 8541SOL    HW137082   3.769   2.682  13.788 -0.1675  0.4030 -0.0388
 8541SOL    HW237083   3.643   2.696  13.741  0.0426 -0.7950 -0.1537
 8542SOL     OW37084   2.499   0.725   1.493  0.6290 -0.3376 -0.4216
 8542SOL    HW137085   2.407   0.700   1.493  0.2276  1.1146 -0.1302
 8542SOL    HW237086   2.545   0.642   1.491  1.8790  0.3130  1.5790
 8543SOL     OW37087   1.457   0.289   6.377  0.5105 -0.1169  0.1176
 8543SOL    HW137088   1.534   0.251   6.335  0.1601 -0.3799 -0.2853
 8543SOL    HW237089   1.385   0.261   6.321  0.3070  0.3698  0.1391
 8544SOL     OW37090   2.125   1.308   2.149 -0.3244 -0.0367 -0.1245
 8544SOL    HW137091   2.106   1.219   2.120 -2.0069  0.4329 -0.4308
 8544SOL    HW237092   2.051   1.356   2.111 -1.1115 -2.3983 -1.6011
 8545SOL     OW37093   2.136   1.191   7.201 -0.6399  0.5630 -0.1602
 8545SOL    HW137094   2.040   1.190   7.202 -0.6383 -0.9263 -1.0321
 8545SOL    HW237095   2.153   1.202   7.295  0.1125  1.4911 -0.4131
 8546SOL     OW37096   0.666   0.161  15.291 -0.2032  0.1607  0.1918
 8546SOL    HW137097   0.647   0.143  15.200  1.7392 -3.6115  0.5560
 8546SOL    HW237098   0.747   0.210  15.278  0.0183  0.1740  1.5901
 8547SOL     OW37099   3.601   3.147   4.764  0.1278  0.1099 -0.2815
 8547SOL    HW137100   3.651   3.066   4.757  1.7718  1.2142 -1.3255
 8547SOL    HW237101   3.619   3.168   4.856 -0.3283  0.7755 -0.3431
 8548SOL     OW37102   2.590   0.552  12.868  0.5563  0.7247  0.3624
 8548SOL    HW137103   2.645   0.585  12.797 -0.9236  0.3573 -0.9269
 8548SOL    HW237104   2.651   0.575  12.938  0.2659  1.3332  0.4159
 8549SOL     OW37105   1.834   0.576   1.352 -0.5396 -0.5255 -0.0663
 8549SOL    HW137106   1.885   0.512   1.303  1.2609 -0.4532  1.7022
 8549SOL    HW237107   1.891   0.652   1.334 -0.0587 -1.1742 -1.2755
 8550SOL     OW37108   2.727   1.790   4.671  0.7990 -0.2118  0.0549
 8550SOL    HW137109   2.759   1.732   4.602  1.7780 -1.7070  1.7813
 8550SOL    HW237110   2.689   1.863   4.622  0.0764 -0.2723  0.5339
 8551SOL     OW37111   3.882   2.237  17.025  0.1223  0.0734  0.5516
 8551SOL    HW137112   3.819   2.168  17.003  1.3167 -1.2931  1.3520
 8551SOL    HW237113   3.905   2.264  16.936  1.1177 -2.2501  0.0971
 8552SOL     OW37114   3.437   0.222  15.691  0.2148 -0.0025  0.6618
 8552SOL    HW137115   3.400   0.147  15.738  2.6118 -1.7072 -0.2232
 8552SOL    HW237116   3.385   0.299  15.713 -1.7339 -0.3424 -2.7421
 8553SOL     OW37117   0.437   1.307   2.140  0.2640 -0.2099  0.3220
 8553SOL    HW137118   0.385   1.374   2.095 -0.0058  0.1444  1.1740
 8553SOL    HW237119   0.390   1.224   2.126 -1.4083  0.8205 -0.1617
 8554SOL     OW37120   0.059   1.499  11.248  0.2817 -0.5678 -0.1604
 8554SOL    HW137121   4.717   1.453  11.201 -0.3169  0.9416 -0.7597
 8554SOL    HW237122   0.135   1.504  11.190  0.4240 -2.4409 -0.1078
 8555SOL     OW37123   1.404   1.355   6.679  0.1112  0.3884 -0.6482
 8555SOL    HW137124   1.319   1.397   6.688  0.7444  1.2640  1.1755
 8555SOL    HW237125   1.462   1.430   6.696 -1.1087  1.3052 -0.5930
 8556SOL     OW37126   0.919   1.410   8.529 -0.5970 -0.2701 -0.5907
 8556SOL    HW137127   0.968   1.447   8.603  0.3121 -1.4413 -0.6036
 8556SOL    HW237128   0.951   1.476   8.468  1.1575  0.1428  0.7803
 8557SOL     OW37129   3.546   4.075   6.259 -0.0067 -0.2042  0.4190
 8557SOL    HW137130   3.499   3.992   6.246 -0.9183  0.3684  0.1134
 8557SOL    HW237131   3.628   4.043   6.297  0.3277 -1.0200 -0.9695
 8558SOL     OW37132   1.256   0.469   8.798 -0.2042  0.1004 -0.3912
 8558SOL    HW137133   1.243   0.376   8.781  1.3013 -0.4449  1.4109
 8558SOL    HW237134   1.247   0.469   8.894 -0.9656 -0.5698 -0.4629
 8559SOL     OW37135   1.339   3.502   6.623  0.1724  0.1597  0.3278
 8559SOL    HW137136   1.322   3.467   6.536  1.3430 -3.0597  1.3822
 8559SOL    HW237137   1.330   3.596   6.605  0.6745  0.6779  2.7727
 8560SOL     OW37138   1.665   0.409   9.926  0.3334  0.2798  0.1707
 8560SOL    HW137139   1.657   0.433  10.018 -0.0776 -0.7399  0.4038
 8560SOL    HW237140   1.760   0.407   9.926  0.3258 -0.9733 -2.4373
 8561SOL     OW37141   4.196   3.307   5.829  0.0667  0.3905  0.3401
 8561SOL    HW137142   4.226   3.237   5.887  0.4997  1.3447  1.2537
 8561SOL    HW237143   4.107   3.277   5.805  0.0762  0.1869  0.5633
 8562SOL     OW37144   3.629   0.772   5.125 -0.2987  0.2689  0.8688
 8562SOL    HW137145   3.636   0.706   5.056  0.9587  0.1274  1.1207
 8562SOL    HW237146   3.591   0.849   5.083 -0.1274 -0.6776 -1.0369
 8563SOL     OW37147   1.718   1.503  17.009 -0.4342  1.2817 -0.3977
 8563SOL    HW137148   1.763   1.583  16.982  1.3516  0.2406 -0.4848
 8563SOL    HW237149   1.659   1.522  17.083  1.0912 -2.1283  1.6905
 8564SOL     OW37150   3.937   3.054   8.621 -0.0608  0.1364  0.3931
 8564SOL    HW137151   3.873   3.116   8.585  0.5202 -0.2424 -1.2883
 8564SOL    HW237152   3.896   2.970   8.599 -1.7163  0.9316  0.3756
 8565SOL     OW37153   1.209   0.882   7.810 -0.5581  0.2629 -0.0641
 8565SOL    HW137154   1.167   0.837   7.737 -2.2495  0.6947  0.6341
 8565SOL    HW237155   1.288   0.828   7.811  0.3318  1.6135  2.3250
 8566SOL     OW37156   3.855   1.271   8.903  0.2333 -0.2728 -0.0364
 8566SOL    HW137157   3.801   1.192   8.911  0.6127 -0.8203 -2.8268
 8566SOL    HW237158   3.779   1.329   8.896  0.2944 -0.3216 -1.1997
 8567SOL     OW37159   4.451   3.916   3.987  0.2869 -0.1389 -0.1077
 8567SOL    HW137160   4.438   3.908   3.892  1.2300 -1.5144 -0.1203
 8567SOL    HW237161   4.368   3.889   4.024 -0.1514  0.8104 -0.3843
 8568SOL     OW37162   2.101   1.189  14.793 -0.1268 -0.3929  0.2051
 8568SOL    HW137163   2.171   1.228  14.741 -1.0847 -1.1124 -1.6043
 8568SOL    HW237164   2.111   1.094  14.792  0.0344 -0.3232 -2.8228
 8569SOL     OW37165   3.472   4.024   5.739 -0.0581  0.2413  0.1726
 8569SOL    HW137166   3.448   4.039   5.647 -0.5637  0.3380  0.3196
 8569SOL    HW237167   3.531   4.095   5.762 -0.2576  0.7884 -0.9965
 8570SOL     OW37168   0.125   4.444  10.186 -0.2961 -0.1393 -1.1027
 8570SOL    HW137169   0.220   4.432  10.186 -0.4117 -1.0374 -0.8972
 8570SOL    HW237170   0.129   4.520  10.244 -0.7857 -0.5192 -0.5749
 8571SOL     OW37171   2.480   0.976   8.286  0.1106 -0.2728 -0.0222
 8571SOL    HW137172   2.468   1.037   8.359 -0.3151  0.5518 -0.7762
 8571SOL    HW237173   2.527   1.020   8.216 -0.6804  0.0294 -0.3633
 8572SOL     OW37174   3.295   2.724   7.812 -0.7751 -0.1147  0.1238
 8572SOL    HW137175   3.199   2.719   7.807 -0.7913 -0.2243  0.5042
 8572SOL    HW237176   3.316   2.782   7.739  0.1354 -0.2510  0.2803
 8573SOL     OW37177   2.998   4.047  12.535 -0.3268 -0.1413  0.5563
 8573SOL    HW137178   3.015   3.989  12.610  0.1606 -1.3831 -0.5189
 8573SOL    HW237179   2.908   4.015  12.528  0.0910 -0.7316 -2.2750
 8574SOL     OW37180   2.504   3.761  17.048 -0.0810  0.6618  0.4047
 8574SOL    HW137181   2.512   3.714  16.964 -0.0087  0.9306  0.2611
 8574SOL    HW237182   2.430   3.819  17.031  0.4496  0.3225 -3.0632
 8575SOL     OW37183   1.189   3.790   8.708 -0.0096 -0.1833 -0.2735
 8575SOL    HW137184   1.216   3.755   8.623  1.5882 -1.7137  0.8601
 8575SOL    HW237185   1.094   3.776   8.701  0.5872 -4.3340 -0.1507
 8576SOL     OW37186   1.652   2.963   0.606  0.1546 -0.4065  1.2043
 8576SOL    HW137187   1.623   2.966   0.697 -0.3073  1.7202  0.9767
 8576SOL    HW237188   1.679   3.052   0.585 -0.9933  0.0453  1.6078
 8577SOL     OW37189   2.818   2.590   5.173 -0.0182 -0.0119  0.1693
 8577SOL    HW137190   2.738   2.614   5.126  0.6797  1.3611 -0.3319
 8577SOL    HW237191   2.879   2.656   5.139 -0.8840  0.5427 -0.3277
 8578SOL     OW37192   2.964   0.506   8.020  0.7261 -0.5955  0.4194
 8578SOL    HW137193   2.960   0.531   7.927 -0.8149  0.1136  0.6757
 8578SOL    HW237194   3.047   0.539   8.053  0.8432  1.6333 -2.0940
 8579SOL     OW37195   3.997   2.343   0.511 -0.5627  0.1686  0.7254
 8579SOL    HW137196   4.051   2.373   0.585 -1.8496  1.0035  1.3188
 8579SOL    HW237197   3.992   2.249   0.526  1.5202  0.5226  3.7370
 8580SOL     OW37198   4.434   4.462   3.000 -0.4764  0.2597  0.2748
 8580SOL    HW137199   4.452   4.547   2.961  1.1628 -0.5919 -0.8226
 8580SOL    HW237200   4.432   4.490   3.091 -0.0853 -0.9660  0.6650
 8581SOL     OW37201   0.643   3.018   6.285  0.2810 -0.3735  0.1897
 8581SOL    HW137202   0.668   3.107   6.311  1.5089 -0.8970  0.8132
 8581SOL    HW237203   0.727   2.986   6.251  0.6224  0.6016  0.1285
 8582SOL     OW37204   1.933   1.526   1.053 -0.0742 -0.0780 -0.0249
 8582SOL    HW137205   2.027   1.510   1.058  0.1182  0.9653 -0.2426
 8582SOL    HW237206   1.892   1.441   1.065  1.8433 -1.2547 -1.8390
 8583SOL     OW37207   4.213   2.490   0.022  0.5925 -0.5596  0.1762
 8583SOL    HW137208   4.182   2.423   0.083 -0.9988  1.5455  1.6562
 8583SOL    HW237209   4.281   2.532   0.074 -0.1443  0.0853  0.6149
 8584SOL     OW37210   0.823   3.971   4.694  0.0051 -0.1608 -0.0858
 8584SOL    HW137211   0.860   4.041   4.641  4.4123  0.0070  3.2699
 8584SOL    HW237212   0.860   4.001   4.777  1.0535 -0.4878 -0.4347
 8585SOL     OW37213   1.970   0.184   3.585  0.3525  0.0052  0.0597
 8585SOL    HW137214   2.023   0.138   3.520  0.5302 -0.3371  0.4463
 8585SOL    HW237215   1.950   0.109   3.640  4.2405 -0.5134  0.7667
 8586SOL     OW37216   1.748   3.673   7.109 -0.4649  0.3030 -0.0118
 8586SOL    HW137217   1.840   3.664   7.132 -0.1004  3.3637 -0.2798
 8586SOL    HW237218   1.720   3.581   7.103 -3.1955  1.2037 -1.4245
 8587SOL     OW37219   1.149   0.529   8.030 -0.1549 -0.1622  0.1510
 8587SOL    HW137220   1.171   0.606   8.082  1.3949 -1.4662  1.4208
 8587SOL    HW237221   1.233   0.510   7.989  0.5771 -1.1666  2.1234
 8588SOL     OW37222   3.136   3.690  10.227  0.3215  0.2531  0.5882
 8588SOL    HW137223   3.090   3.770  10.203  0.7646  0.2638 -0.2363
 8588SOL    HW237224   3.118   3.674  10.319 -1.5910 -1.5332 -0.0986
 8589SOL     OW37225   0.888   1.996  17.095  0.6765  0.4680  0.6567
 8589SOL    HW137226   0.879   2.056  17.168  2.5361 -0.5330  1.7107
 8589SOL    HW237227   0.806   2.019  17.052 -0.3742 -1.6660  1.5589
 8590SOL     OW37228   4.624   0.976   7.882  0.1583  0.4130  0.5335
 8590SOL    HW137229   4.555   0.998   7.819  1.2004  0.2631 -0.6443
 8590SOL    HW237230   4.684   1.046   7.859 -0.3297 -0.0535 -2.1004
 8591SOL     OW37231   0.043   4.706  13.287  0.4069  0.2166 -0.3032
 8591SOL    HW137232   4.677   0.002  13.300  0.0978  0.0923 -2.3540
 8591SOL    HW237233   0.033   4.614  13.264  0.5675 -0.1025  0.8696
 8592SOL     OW37234   1.814   1.740   5.556 -0.0435  0.2453 -0.0836
 8592SOL    HW137235   1.883   1.760   5.621  1.5261 -1.2732 -1.2805
 8592SOL    HW237236   1.733   1.723   5.605  0.7081  0.6322  1.3178
 8593SOL     OW37237   4.515   1.419   2.462 -0.1169 -0.3167 -0.0889
 8593SOL    HW137238   4.420   1.414   2.453 -0.2185  0.4671  0.5802
 8593SOL    HW237239   4.538   1.361   2.389  0.5628  0.7257 -0.7006
 8594SOL     OW37240   4.681   4.659  14.987 -0.2752  0.1724 -0.0549
 8594SOL    HW137241   4.603   4.711  14.966 -1.1673 -1.1561 -0.0211
 8594SOL    HW237242   4.660   4.611  15.067  1.2155 -3.3981 -1.8225
 8595SOL     OW37243   1.741   3.793   2.810  0.0943  0.0030  0.2267
 8595SOL    HW137244   1.810   3.729   2.823  0.0993 -0.2733 -1.1478
 8595SOL    HW237245   1.785   3.868   2.769 -0.5496  1.5785  2.3871
 8596SOL     OW37246   0.019   2.984   8.899 -0.7079 -0.0947 -0.3090
 8596SOL    HW137247   0.051   2.909   8.849 -0.7326  1.7377 -3.0619
 8596SOL    HW237248   0.101   3.008   8.941 -0.5484  0.7559 -1.1127
 8597SOL     OW37249   3.916   2.692  12.473 -0.1486 -0.6562 -1.1877
 8597SOL    HW137250   3.971   2.659  12.402  0.5723 -1.8363 -0.0664
 8597SOL    HW237251   3.973   2.691  12.550  2.6117 -0.1975 -3.2095
 8598SOL     OW37252   3.594   4.189   5.300  0.2275  0.5033  0.0376
 8598SOL    HW137253   3.650   4.154   5.230  1.2126  1.0799  0.5368
 8598SOL    HW237254   3.540   4.240   5.239 -1.3061  0.6174  1.5012
 8599SOL     OW37255   1.403   1.349   3.715 -0.6013  0.4594  0.1171
 8599SOL    HW137256   1.451   1.269   3.732 -0.0256  1.1880  1.9606
 8599SOL    HW237257   1.486   1.397   3.727 -0.1990  0.2882 -2.0330
 8600SOL     OW37258   2.901   4.100   2.301 -0.2693  0.2435 -0.1654
 8600SOL    HW137259   2.925   4.009   2.318 -0.3951  0.7648  2.8591
 8600SOL    HW237260   2.978   4.122   2.249  0.0579 -0.4668  0.0264
 8601SOL     OW37261   3.190   0.178   4.154 -0.6862 -0.1197 -0.1561
 8601SOL    HW137262   3.198   0.112   4.222 -0.3400  0.9612  0.8572
 8601SOL    HW237263   3.239   0.136   4.083 -0.7205  0.0395 -0.2756
 8602SOL     OW37264   3.502   3.563   8.621  0.6638 -0.4294  0.1637
 8602SOL    HW137265   3.495   3.654   8.592 -0.5548  0.0706  2.0024
 8602SOL    HW237266   3.414   3.538   8.651  0.8350  2.1103  2.7015
 8603SOL     OW37267   2.489   0.899   3.855 -0.0841 -0.6096  0.1119
 8603SOL    HW137268   2.457   0.985   3.827 -1.0776 -0.2667  2.2949
 8603SOL    HW237269   2.546   0.876   3.782  0.0652 -0.2713  0.1257
 8604SOL     OW37270   3.550   1.358   6.290 -0.5692  0.1923 -0.4169
 8604SOL    HW137271   3.494   1.332   6.363  0.7364 -0.4302  0.3777
 8604SOL    HW237272   3.494   1.322   6.222 -0.7294  1.9687 -1.2210
 8605SOL     OW37273   0.749   1.685   9.024  0.3330  0.1143  0.0818
 8605SOL    HW137274   0.675   1.666   9.082 -1.2923  0.8622 -1.7346
 8605SOL    HW237275   0.818   1.623   9.049 -0.5764  0.0061  2.2889
 8606SOL     OW37276   1.605   2.106   4.077  0.3753  0.3354  0.5785
 8606SOL    HW137277   1.528   2.131   4.127 -1.1355  0.2250 -1.7225
 8606SOL    HW237278   1.636   2.184   4.032  1.4896 -1.2068 -1.3273
 8607SOL     OW37279   4.210   1.293  14.129 -0.2320  0.5669 -0.3465
 8607SOL    HW137280   4.149   1.329  14.064 -1.1555 -0.2436  0.0602
 8607SOL    HW237281   4.201   1.199  14.115 -2.0799  0.8233 -0.8898
 8608SOL     OW37282   1.246   2.603   6.205 -0.0933  0.5028 -0.0249
 8608SOL    HW137283   1.223   2.515   6.235 -0.1672  1.2467  2.0486
 8608SOL    HW237284   1.304   2.584   6.131 -0.2536  3.5896 -0.9167
 8609SOL     OW37285   4.174   0.063   5.163  0.0094  0.4931  0.0414
 8609SOL    HW137286   4.128   0.028   5.087  0.4145  0.4714 -0.1967
 8609SOL    HW237287   4.260   0.021   5.159 -1.0194 -1.5995  0.1677
 8610SOL     OW37288   2.151   2.680   7.672 -0.2359 -0.3738  0.3187
 8610SOL    HW137289   2.097   2.602   7.658 -0.9472  0.2913 -0.6402
 8610SOL    HW237290   2.233   2.650   7.632  0.6266 -0.6077  2.2913
 8611SOL     OW37291   2.734   1.686   6.004 -0.2330  0.1880 -0.0655
 8611SOL    HW137292   2.782   1.739   5.939 -0.6483  2.0958  1.1925
 8611SOL    HW237293   2.658   1.743   6.011  0.9110  1.7590 -0.4515
 8612SOL     OW37294   1.289   1.487  14.703 -0.0042  0.0667 -0.5392
 8612SOL    HW137295   1.258   1.575  14.729  1.9858  0.4316  0.5832
 8612SOL    HW237296   1.340   1.508  14.625 -0.3393 -0.4237 -0.8857
 8613SOL     OW37297   0.649   2.125   0.649 -0.0124  0.2831  0.0653
 8613SOL    HW137298   0.731   2.142   0.696  0.9633 -2.8798 -0.5420
 8613SOL    HW237299   0.605   2.211   0.649 -1.1096 -0.2729  0.9242
 8614SOL     OW37300   3.212   1.064   6.385 -0.0200  0.1560  0.6555
 8614SOL    HW137301   3.234   1.155   6.366 -2.0218  0.4756 -0.0900
 8614SOL    HW237302   3.205   1.050   6.479 -1.7389  0.5840  0.5768
 8615SOL     OW37303   0.984   0.156   5.764 -0.2653  0.0468  0.4738
 8615SOL    HW137304   0.975   0.133   5.856 -1.2152  0.5622  0.5135
 8615SOL    HW237305   1.033   0.084   5.725  1.8124  0.6487  2.0216
 8616SOL     OW37306   3.571   2.349   9.622  0.0645 -0.3623 -0.0990
 8616SOL    HW137307   3.518   2.426   9.643 -1.1590 -1.3594  0.4916
 8616SOL    HW237308   3.513   2.277   9.647  0.6898 -0.6771  0.4539
 8617SOL     OW37309   3.308   2.055   5.410 -0.1095 -0.0178  0.1474
 8617SOL    HW137310   3.255   2.059   5.490  1.6291  1.7917  1.2085
 8617SOL    HW237311   3.380   2.008   5.452 -0.2444  0.8739  1.3872
 8618SOL     OW37312   3.863   0.332   8.133 -0.3654  0.0073  0.0910
 8618SOL    HW137313   3.789   0.284   8.097 -0.1768 -0.1551 -0.0779
 8618SOL    HW237314   3.814   0.373   8.205 -2.0184 -0.9330 -0.4921
 8619SOL     OW37315   2.012   0.679   0.503  0.5704  0.0231  0.4011
 8619SOL    HW137316   2.026   0.646   0.592 -1.0245 -0.9545  0.2760
 8619SOL    HW237317   2.048   0.614   0.444  0.5327  0.3188  0.0522
 8620SOL     OW37318   0.965   4.121   9.522  0.0290  0.2917 -0.3724
 8620SOL    HW137319   0.968   4.148   9.430 -0.2529 -3.0543 -1.3778
 8620SOL    HW237320   1.056   4.114   9.548  0.3434  0.9089 -1.2891
 8621SOL     OW37321   0.580   3.582   2.027 -0.0236  0.0612  0.3799
 8621SOL    HW137322   0.574   3.558   2.120 -1.5585  1.3209  0.6140
 8621SOL    HW237323   0.550   3.673   2.028  1.4470  0.5300  1.4318
 8622SOL     OW37324   1.132   2.710   3.286 -0.4903 -0.2474 -0.3843
 8622SOL    HW137325   1.125   2.783   3.346 -0.6328  0.2347 -0.9867
 8622SOL    HW237326   1.070   2.645   3.318 -0.0619 -0.3316  0.2864
 8623SOL     OW37327   2.440   3.609   9.378  0.3531  0.4181  0.3557
 8623SOL    HW137328   2.426   3.669   9.451 -1.7217  0.7703 -0.3157
 8623SOL    HW237329   2.347   3.613   9.354  0.5521  1.1094 -0.3162
 8624SOL     OW37330   1.630   3.819   4.866 -0.3455 -0.0289  0.4357
 8624SOL    HW137331   1.646   3.901   4.818 -1.2924  0.7516  1.4634
 8624SOL    HW237332   1.619   3.754   4.796  1.0537  0.6569 -0.4231
 8625SOL     OW37333   2.419   2.862   7.140  0.0276  0.0038 -0.5023
 8625SOL    HW137334   2.423   2.898   7.052  0.5776 -0.7987 -0.8038
 8625SOL    HW237335   2.504   2.895   7.167 -0.0243  0.8685 -1.4179
 8626SOL     OW37336   2.152   3.308   0.248 -0.1061 -0.0483 -0.2437
 8626SOL    HW137337   2.225   3.325   0.307 -0.6932  0.3044  0.3792
 8626SOL    HW237338   2.089   3.287   0.317 -1.2351 -1.0162 -1.5545
 8627SOL     OW37339   3.329   1.972   8.710  0.3636 -0.2971  0.0993
 8627SOL    HW137340   3.424   1.975   8.705  0.3161  0.1381 -0.5508
 8627SOL    HW237341   3.307   2.057   8.672  1.5618 -0.3669 -0.7271
 8628SOL     OW37342   1.875   1.619  16.739 -0.0571  0.5536  0.3770
 8628SOL    HW137343   1.955   1.671  16.739 -1.9748  3.4926  1.2246
 8628SOL    HW237344   1.823   1.667  16.803  2.5331  4.2786 -0.3354
 8629SOL     OW37345   3.260   3.567  11.114 -0.4787 -0.3499  0.5719
 8629SOL    HW137346   3.326   3.634  11.130 -1.4002  1.1464 -1.9423
 8629SOL    HW237347   3.183   3.616  11.143  0.8289  2.8683 -1.4405
 8630SOL     OW37348   3.744   2.997   3.119 -0.2838 -0.2138  0.0928
 8630SOL    HW137349   3.793   2.918   3.138  0.4452  0.4663  1.0627
 8630SOL    HW237350   3.672   2.970   3.175 -0.0052 -1.2029 -0.0355
 8631SOL     OW37351   4.721   0.212   7.825 -0.1138  0.0973 -0.5347
 8631SOL    HW137352   0.002   0.145   7.893 -0.9826  0.8466  0.3003
 8631SOL    HW237353   4.636   0.245   7.852 -0.5726 -0.4727 -1.2938
 8632SOL     OW37354   3.476   1.563  10.508  0.2971  0.4510  0.1773
 8632SOL    HW137355   3.489   1.613  10.428 -1.3018  2.4312  1.1469
 8632SOL    HW237356   3.381   1.554  10.508  0.2803  0.6322 -0.0960
 8633SOL     OW37357   4.000   2.808   7.753 -0.5781 -0.2341  0.1209
 8633SOL    HW137358   3.973   2.854   7.673  0.1550 -2.7360 -1.5642
 8633SOL    HW237359   3.921   2.813   7.807  0.2738  0.2374  1.3387
 8634SOL     OW37360   2.195   3.008   5.755 -0.1724  0.7954 -0.3168
 8634SOL    HW137361   2.129   3.043   5.695 -1.3995 -2.3549 -0.8282
 8634SOL    HW237362   2.260   3.077   5.768  1.8671 -1.8484  3.2962
 8635SOL     OW37363   1.463   3.203   2.622 -0.2366 -0.0681  0.2611
 8635SOL    HW137364   1.476   3.214   2.528  0.0215 -1.9323  0.0802
 8635SOL    HW237365   1.555   3.182   2.641 -0.4042 -0.6282  0.4394
 8636SOL     OW37366   1.295   4.440   0.728 -0.1567 -0.3252 -0.0902
 8636SOL    HW137367   1.232   4.508   0.702  1.6269  1.0229 -0.9033
 8636SOL    HW237368   1.325   4.487   0.805 -0.2200  0.5257 -0.5815
 8637SOL     OW37369   2.654   3.403   6.681 -0.0738 -0.3273  0.0524
 8637SOL    HW137370   2.581   3.463   6.696  1.0033  1.2001 -0.7912
 8637SOL    HW237371   2.631   3.330   6.739 -2.6732 -0.3875 -1.0559
 8638SOL     OW37372   2.156   2.596  14.655 -0.4395  0.4706 -0.3159
 8638SOL    HW137373   2.171   2.550  14.572  1.3926  0.4680 -0.0034
 8638SOL    HW237374   2.165   2.688  14.631 -1.1267  1.3448  2.7474
 8639SOL     OW37375   1.362   4.302   2.584  0.4844  0.3628  0.0865
 8639SOL    HW137376   1.380   4.318   2.491  0.4195 -1.0554 -0.1673
 8639SOL    HW237377   1.417   4.372   2.619  1.7377 -0.3684 -0.3748
 8640SOL     OW37378   3.693   2.695   9.646  0.5260 -0.2202 -0.1383
 8640SOL    HW137379   3.609   2.680   9.689  0.2782 -1.0630 -0.9354
 8640SOL    HW237380   3.737   2.741   9.718 -1.3998 -2.0226  2.1831
 8641SOL     OW37381   0.384   1.402  10.105  0.0873 -0.2027 -0.3529
 8641SOL    HW137382   0.314   1.437  10.160 -1.2398  0.1314 -2.2241
 8641SOL    HW237383   0.372   1.459  10.028 -2.4451 -0.3973 -0.0973
 8642SOL     OW37384   3.482   4.485  12.425 -0.7415 -0.4569  0.1517
 8642SOL    HW137385   3.500   4.394  12.446  1.2968 -0.1843 -0.3345
 8642SOL    HW237386   3.574   4.510  12.416 -1.5242  1.6599 -1.9640
 8643SOL     OW37387   4.144   2.464  12.545 -0.4732 -0.3995  0.6218
 8643SOL    HW137388   4.089   2.478  12.468 -2.4964 -0.2833  2.0539
 8643SOL    HW237389   4.145   2.368  12.539  1.9685 -0.3609  0.7264
 8644SOL     OW37390   3.087   4.687   5.077  0.0345 -0.0609 -0.5194
 8644SOL    HW137391   3.070   4.646   4.992  1.6108  1.5419 -1.5938
 8644SOL    HW237392   2.996   4.702   5.103  0.4457 -0.2248  1.0534
 8645SOL     OW37393   3.187   0.606   0.698  0.3049  0.0542 -0.1569
 8645SOL    HW137394   3.272   0.569   0.721  1.0967  1.4267 -0.9209
 8645SOL    HW237395   3.134   0.528   0.679  1.0580 -0.4863 -0.0298
 8646SOL     OW37396   4.425   1.608   4.500 -0.0264 -0.1878  0.4941
 8646SOL    HW137397   4.484   1.562   4.440 -0.9669 -0.3861 -0.2832
 8646SOL    HW237398   4.345   1.558   4.488  1.6092 -2.2342 -1.8787
 8647SOL     OW37399   2.875   3.586   9.275 -0.7339 -0.0169 -1.0169
 8647SOL    HW137400   2.920   3.670   9.264 -1.1042  0.5372  1.7662
 8647SOL    HW237401   2.803   3.618   9.329  1.5251  1.6009  1.0503
 8648SOL     OW37402   0.768   1.128  12.620  0.6009  0.0805  0.1700
 8648SOL    HW137403   0.712   1.052  12.634 -0.9553  1.5050  1.5568
 8648SOL    HW237404   0.712   1.205  12.614  1.2676  0.6007  0.5710
 8649SOL     OW37405   1.693   2.395  13.314  0.2119  0.2103 -0.2454
 8649SOL    HW137406   1.712   2.471  13.368 -0.7924 -0.7075  1.3897
 8649SOL    HW237407   1.619   2.430  13.264 -0.4624 -0.1609  0.4972
 8650SOL     OW37408   4.278   1.133   4.033  1.3008  0.3263 -0.5730
 8650SOL    HW137409   4.332   1.204   3.998  2.9511 -0.2746  0.7646
 8650SOL    HW237410   4.282   1.064   3.967  2.2454 -1.2316  1.0983
 8651SOL     OW37411   3.084   1.726   3.156 -0.5457  0.1824 -0.2431
 8651SOL    HW137412   2.989   1.732   3.148 -0.8159 -2.5441  0.9940
 8651SOL    HW237413   3.090   1.639   3.193 -0.4896  0.2208 -0.1622
 8652SOL     OW37414   0.482   1.626   9.756 -0.3958  0.4238 -0.0717
 8652SOL    HW137415   0.426   1.626   9.833  0.2323 -0.6932  0.3916
 8652SOL    HW237416   0.427   1.675   9.695 -1.4049  1.1663  1.4617
 8653SOL     OW37417   2.254   2.927   7.906 -0.2546 -0.0035  0.3624
 8653SOL    HW137418   2.170   2.881   7.903  1.4226 -2.9341 -1.2126
 8653SOL    HW237419   2.232   3.009   7.951  0.3561  0.5905 -0.4412
 8654SOL     OW37420   3.603   1.748   3.118 -0.1977 -0.4840 -0.3237
 8654SOL    HW137421   3.519   1.792   3.136  0.2111  0.9862 -1.9801
 8654SOL    HW237422   3.611   1.680   3.185 -0.4497 -0.2548 -0.0577
 8655SOL     OW37423   2.997   2.448   1.155  0.1792  0.6237  0.5499
 8655SOL    HW137424   3.080   2.428   1.112 -1.5261 -0.6224 -2.1579
 8655SOL    HW237425   2.944   2.451   1.075 -3.3741  0.9071  2.9195
 8656SOL     OW37426   1.843   3.782   3.454 -0.7256 -0.1333 -0.2134
 8656SOL    HW137427   1.916   3.800   3.514  0.4809 -0.1400 -1.6870
 8656SOL    HW237428   1.811   3.872   3.443  3.2384  1.0158 -2.0602
 8657SOL     OW37429   4.185   2.624   7.743 -0.0410  0.8089 -0.0962
 8657SOL    HW137430   4.126   2.698   7.752 -0.1953  0.7254 -0.4348
 8657SOL    HW237431   4.189   2.578   7.827  3.9705 -1.3735 -1.4536
 8658SOL     OW37432   1.015   2.698  13.265 -0.5651 -0.3080 -0.3092
 8658SOL    HW137433   0.995   2.716  13.357  0.2379 -0.8348 -0.0302
 8658SOL    HW237434   0.957   2.759  13.220 -3.1564 -0.1233  3.2587
 8659SOL     OW37435   0.269   0.795  16.612 -0.5280  0.5569  0.1528
 8659SOL    HW137436   0.356   0.819  16.643 -0.5240  0.5954  0.1123
 8659SOL    HW237437   0.212   0.836  16.676 -1.2780 -1.5400  0.8320
 8660SOL     OW37438   4.560   1.858  11.630  0.3660 -0.2728  0.0644
 8660SOL    HW137439   4.617   1.788  11.600 -0.1664 -0.0435 -1.4420
 8660SOL    HW237440   4.497   1.866  11.559 -0.3896  0.4918  0.8146
 8661SOL     OW37441   1.164   0.363  16.412 -0.0033 -0.2284  0.0423
 8661SOL    HW137442   1.114   0.294  16.457  2.3317 -2.0475 -0.1585
 8661SOL    HW237443   1.159   0.433  16.477 -0.1959 -0.0956 -0.1203
 8662SOL     OW37444   0.323   0.898  14.048  0.3411  0.3955  0.2745
 8662SOL    HW137445   0.290   0.986  14.029  0.8648  0.9989  2.1057
 8662SOL    HW237446   0.330   0.902  14.144  3.6996 -1.3509  0.1124
 8663SOL     OW37447   4.231   1.477   2.338 -0.1163  0.7471  0.0513
 8663SOL    HW137448   4.211   1.395   2.382  1.3405 -0.8029 -2.1745
 8663SOL    HW237449   4.261   1.450   2.251  0.0348  1.1764 -0.0329
 8664SOL     OW37450   1.741   1.559   2.600 -0.2181 -0.1792 -0.2221
 8664SOL    HW137451   1.671   1.614   2.636 -0.5700 -1.5812  1.2276
 8664SOL    HW237452   1.710   1.537   2.512  0.2615  1.7420 -0.8663
 8665SOL     OW37453   0.196   0.437   8.383 -0.3099 -0.3761  0.0011
 8665SOL    HW137454   0.270   0.405   8.332 -2.4270  0.2522 -3.4912
 8665SOL    HW237455   0.194   0.531   8.366  3.4238 -0.1085  1.1054
 8666SOL     OW37456   2.631   4.164   8.115  0.9410 -0.1651  0.3302
 8666SOL    HW137457   2.666   4.138   8.030  0.6070 -2.1373  0.8046
 8666SOL    HW237458   2.544   4.195   8.091 -0.0368 -2.1756  1.2475
 8667SOL     OW37459   4.502   0.072   4.142 -0.4977  0.1275 -0.3434
 8667SOL    HW137460   4.437   0.105   4.080 -0.8190  1.8473  0.8988
 8667SOL    HW237461   4.567   0.142   4.138 -0.5558  0.4448  3.8411
 8668SOL     OW37462   3.813   2.414   5.483 -0.0516 -0.4098 -1.0065
 8668SOL    HW137463   3.763   2.363   5.420  0.3195 -1.1220 -0.7241
 8668SOL    HW237464   3.744   2.439   5.544  1.7563  0.0774  0.8658
 8669SOL     OW37465   1.020   0.962  17.533 -0.4638 -0.2872  0.0147
 8669SOL    HW137466   1.071   1.037  17.503 -3.1213  0.9278 -1.5167
 8669SOL    HW237467   0.971   0.999  17.606  0.5349  1.5185 -0.2194
 8670SOL     OW37468   2.409   3.429   4.113  0.4287 -0.5025  0.0581
 8670SOL    HW137469   2.353   3.504   4.092  0.8747 -0.9642 -2.7980
 8670SOL    HW237470   2.490   3.470   4.083 -0.0100  0.2484 -0.0934
 8671SOL     OW37471   1.948   0.693  14.135  0.2265  0.1143 -0.3212
 8671SOL    HW137472   1.918   0.654  14.217  0.0495  1.9963  0.5288
 8671SOL    HW237473   1.864   0.713  14.094  0.5092  0.4396 -0.7412
 8672SOL     OW37474   0.247   2.656  12.691 -0.5288  0.3128 -0.1213
 8672SOL    HW137475   0.225   2.648  12.598 -1.0349 -1.1345  0.1265
 8672SOL    HW237476   0.329   2.705  12.689 -1.0001  1.1418  0.6968
 8673SOL     OW37477   4.153   0.263  17.229 -0.5884 -0.0881  0.0692
 8673SOL    HW137478   4.129   0.178  17.269 -0.1986 -0.4324 -0.4329
 8673SOL    HW237479   4.248   0.259  17.238 -0.6479 -1.3320  0.2442
 8674SOL     OW37480   1.716   2.493   4.271 -0.1563 -0.3075  0.0668
 8674SOL    HW137481   1.706   2.494   4.176 -1.5134 -2.5704  0.1816
 8674SOL    HW237482   1.783   2.425   4.285 -1.4081 -1.4304  0.6168
 8675SOL     OW37483   4.455   3.178  17.306 -0.6099  1.0631 -0.5190
 8675SOL    HW137484   4.483   3.093  17.339 -0.6170  0.5919 -1.7589
 8675SOL    HW237485   4.450   3.224  17.390  1.1521  1.0669 -0.4218
 8676SOL     OW37486   3.831   1.609  17.641 -0.1433  0.1186 -0.4580
 8676SOL    HW137487   3.841   1.650  17.555  1.8757 -1.8746 -1.1761
 8676SOL    HW237488   3.886   1.532  17.625 -1.7006 -0.8556 -1.1281
 8677SOL     OW37489   4.105   4.689   6.455  0.2432  0.2773 -0.2711
 8677SOL    HW137490   4.163   4.672   6.530  1.0403 -0.8706 -1.1426
 8677SOL    HW237491   4.082   4.607   6.412  1.2411 -0.1467  0.0022
 8678SOL     OW37492   3.789   3.998   6.335  0.5158  0.0630 -0.4722
 8678SOL    HW137493   3.872   3.990   6.288  0.9014 -0.5440  0.3166
 8678SOL    HW237494   3.808   4.084   6.372  0.4037  0.5689 -1.5647
 8679SOL     OW37495   2.507   3.543   8.305 -0.2511 -0.1705 -0.1963
 8679SOL    HW137496   2.480   3.487   8.378 -1.0602  1.6159  0.8833
 8679SOL    HW237497   2.570   3.602   8.346  0.5377 -0.1445 -1.4427
 8680SOL     OW37498   1.799   1.830   8.736  0.5251  0.0820 -0.1638
 8680SOL    HW137499   1.799   1.908   8.681  2.2421  0.8625  0.9443
 8680SOL    HW237500   1.773   1.857   8.824  0.2760 -0.1314 -0.1698
 8681SOL     OW37501   0.858   1.603   3.265 -0.2919 -0.2844 -0.4245
 8681SOL    HW137502   0.950   1.618   3.289 -0.5820  0.3199  0.3001
 8681SOL    HW237503   0.833   1.668   3.200 -2.8421 -0.6897  0.1687
 8682SOL     OW37504   3.633   2.641   6.568 -0.2627 -0.4545  0.1212
 8682SOL    HW137505   3.613   2.688   6.649 -0.5330 -0.4312  0.0426
 8682SOL    HW237506   3.556   2.654   6.513 -0.4346 -0.8834  0.2572
 8683SOL     OW37507   3.151   0.092  11.950  0.8136 -0.2786 -0.4307
 8683SOL    HW137508   3.180   0.023  12.010  1.2944  1.0471  0.8708
 8683SOL    HW237509   3.195   0.084  11.866  1.8233 -0.0901  0.0826
 8684SOL     OW37510   2.130   3.394   2.159  0.2588 -0.0079  0.7767
 8684SOL    HW137511   2.050   3.374   2.112  0.4385 -0.0733  0.5002
 8684SOL    HW237512   2.179   3.317   2.129 -0.5730  0.2265 -1.1255
 8685SOL     OW37513   3.535   0.031   6.515  0.0688  0.3248  0.4276
 8685SOL    HW137514   3.598   0.084   6.565  1.4097 -0.3333 -0.5627
 8685SOL    HW237515   3.455   0.061   6.558  0.8889  1.4174  1.1956
 8686SOL     OW37516   3.483   4.706   8.005 -0.5661 -0.1406  0.0954
 8686SOL    HW137517   3.456   4.686   8.094  1.4079  0.5079  0.8463
 8686SOL    HW237518   3.401   4.711   7.957 -0.1359  0.6821 -0.5570
 8687SOL     OW37519   1.971   3.726   1.885 -0.1162  0.3911 -0.2017
 8687SOL    HW137520   2.005   3.743   1.973  0.6727  2.3153 -0.8703
 8687SOL    HW237521   2.026   3.782   1.830 -1.2864  2.8333  1.0702
 8688SOL     OW37522   3.424   3.566   2.288  0.1482  0.2108 -0.0731
 8688SOL    HW137523   3.487   3.624   2.330 -1.5663  1.5805  0.6387
 8688SOL    HW237524   3.442   3.488   2.340  1.5602  1.6561  1.5992
 8689SOL     OW37525   1.625   1.342   8.140 -0.3176 -0.2658 -0.0343
 8689SOL    HW137526   1.599   1.316   8.228  0.0669  1.0512  0.4612
 8689SOL    HW237527   1.575   1.278   8.089 -0.8604 -0.9942  1.4041
 8690SOL     OW37528   0.038   3.654   5.189 -0.1036  0.2549  0.1650
 8690SOL    HW137529   0.095   3.632   5.115 -1.2337  0.6154 -0.8213
 8690SOL    HW237530   4.682   3.675   5.146  0.9763  0.9521 -1.5865
 8691SOL     OW37531   3.039   2.133   4.555 -0.3203  0.1186  0.5328
 8691SOL    HW137532   3.068   2.218   4.589 -0.4321  0.0878  0.7080
 8691SOL    HW237533   3.023   2.071   4.626 -1.7494 -0.5205 -0.3614
 8692SOL     OW37534   4.311   4.380   8.558  0.1895  0.5735 -0.0325
 8692SOL    HW137535   4.402   4.366   8.533 -0.0266 -1.8549  0.4878
 8692SOL    HW237536   4.280   4.449   8.500  1.3399  0.0445 -1.2584
 8693SOL     OW37537   4.522   3.462   2.746 -0.1937  0.2180  0.3158
 8693SOL    HW137538   4.481   3.376   2.748 -1.5340  0.8527  0.3445
 8693SOL    HW237539   4.608   3.442   2.709 -0.4432  0.2747 -0.3022
 8694SOL     OW37540   0.420   1.870   9.582 -0.3470  0.6510  0.2719
 8694SOL    HW137541   0.497   1.910   9.623  0.4920 -1.0497  0.3350
 8694SOL    HW237542   0.371   1.950   9.559 -1.3152 -0.1079 -0.3024
 8695SOL     OW37543   1.790   1.579   1.921  0.6937  0.2750  0.7985
 8695SOL    HW137544   1.727   1.560   1.851  1.1793 -1.2625  0.7814
 8695SOL    HW237545   1.866   1.596   1.865  0.5275 -0.3832  0.3724
 8696SOL     OW37546   3.845   2.363  16.547  0.0488  0.2254 -0.5916
 8696SOL    HW137547   3.912   2.313  16.500  0.6730  1.1163 -0.6600
 8696SOL    HW237548   3.839   2.320  16.632 -0.4644  0.7843 -0.3452
 8697SOL     OW37549   0.703   3.850   3.068 -0.1083 -0.1949  0.0802
 8697SOL    HW137550   0.757   3.841   2.990  1.6179 -2.6874  1.5591
 8697SOL    HW237551   0.755   3.916   3.114 -0.1926 -1.8740  2.6185
 8698SOL     OW37552   3.040   2.991   8.621 -0.0212 -0.3785  0.2074
 8698SOL    HW137553   2.960   2.957   8.581  1.1544 -0.5014 -2.0317
 8698SOL    HW237554   3.007   3.058   8.681  0.6985 -0.3195  0.5384
 8699SOL     OW37555   0.144   0.062   6.051 -0.4100  0.0870 -0.6745
 8699SOL    HW137556   0.147   4.716   6.114  1.6483 -0.4288 -1.3681
 8699SOL    HW237557   0.194   0.132   6.093 -0.0353 -2.0798  2.5662
 8700SOL     OW37558   3.394   3.068   9.288  0.0857  0.1051 -0.2288
 8700SOL    HW137559   3.337   3.008   9.335 -0.5630 -0.7484 -2.1102
 8700SOL    HW237560   3.347   3.151   9.298  1.3841  0.6405  1.4663
 8701SOL     OW37561   4.456   0.385   8.354 -0.2351 -0.0035  0.4347
 8701SOL    HW137562   4.460   0.332   8.434 -1.9804 -0.2116  0.3698
 8701SOL    HW237563   4.538   0.350   8.318 -0.4951 -0.7084  0.5384
 8702SOL     OW37564   4.671   0.978   6.969  0.4989 -0.3150 -0.2348
 8702SOL    HW137565   0.029   0.938   6.988  0.6817 -1.0531 -2.7040
 8702SOL    HW237566   4.614   0.958   7.043 -1.5377  1.3404 -1.3418
 8703SOL     OW37567   4.442   2.773   4.975  0.3751 -0.2745 -0.2017
 8703SOL    HW137568   4.459   2.826   4.898  1.0490 -2.0564 -1.2821
 8703SOL    HW237569   4.482   2.826   5.044 -1.3780  3.0914 -1.7628
 8704SOL     OW37570   0.246   4.189   2.520 -0.5386  0.4520 -0.1476
 8704SOL    HW137571   0.255   4.122   2.587 -1.6051  0.6315  0.1749
 8704SOL    HW237572   0.325   4.242   2.534 -0.9551  1.3252 -1.0169
 8705SOL     OW37573   1.247   3.873   2.623 -0.6474 -0.5461 -0.9057
 8705SOL    HW137574   1.330   3.840   2.659 -0.2182 -1.4494 -2.7100
 8705SOL    HW237575   1.198   3.899   2.701  0.3669  0.1875 -0.5193
 8706SOL     OW37576   3.514   3.672   6.669 -0.3958 -0.0694 -0.1288
 8706SOL    HW137577   3.526   3.734   6.741  1.6085  0.6433 -1.0684
 8706SOL    HW237578   3.593   3.690   6.619 -0.4175  1.1109  0.2825
 8707SOL     OW37579   2.671   3.238   6.202  0.0201 -0.3600  0.2098
 8707SOL    HW137580   2.643   3.305   6.265 -3.2266  0.1974 -1.8418
 8707SOL    HW237581   2.682   3.285   6.119 -4.4950 -1.1686 -0.8466
 8708SOL     OW37582   3.884   3.378   5.042  0.3407  0.5923  0.0461
 8708SOL    HW137583   3.889   3.473   5.057 -0.5785  0.8359 -1.2054
 8708SOL    HW237584   3.941   3.341   5.110 -0.2678 -0.5980 -0.0917
 8709SOL     OW37585   1.052   2.620   4.067 -0.4327 -0.2920 -0.0544
 8709SOL    HW137586   0.980   2.645   4.126 -1.5939 -2.3615 -0.6010
 8709SOL    HW237587   1.087   2.709   4.060 -0.5631 -0.2782 -0.5171
 8710SOL     OW37588   2.721   2.329   2.427  0.5042 -0.0252 -0.0342
 8710SOL    HW137589   2.813   2.305   2.437  0.9076  1.9990  0.9986
 8710SOL    HW237590   2.697   2.289   2.344 -1.7130  1.2924 -0.0181
 8711SOL     OW37591   1.190   0.428  13.433 -0.4802  0.2904  0.4512
 8711SOL    HW137592   1.140   0.418  13.513  1.2739  2.3576  1.8096
 8711SOL    HW237593   1.187   0.522  13.414 -1.4427  0.2385  0.3826
 8712SOL     OW37594   2.862   2.580   3.484  0.2950 -0.0281  0.5508
 8712SOL    HW137595   2.954   2.554   3.474  0.7340  2.2059 -1.2194
 8712SOL    HW237596   2.850   2.650   3.420  0.4364 -0.8091 -0.3265
 8713SOL     OW37597   1.479   0.461   7.588  0.8734 -0.4218 -0.3263
 8713SOL    HW137598   1.535   0.473   7.511 -0.1222 -0.8748 -1.1319
 8713SOL    HW237599   1.546   0.492   7.649 -0.6403  2.3321 -0.1158
 8714SOL     OW37600   1.038   1.706   9.714  0.1419  0.0951 -0.5146
 8714SOL    HW137601   1.008   1.686   9.625  1.0395 -1.9687 -0.3605
 8714SOL    HW237602   0.961   1.682   9.765  3.4179 -1.3242  3.6969
 8715SOL     OW37603   0.954   2.693   2.781 -0.0761 -0.0026 -0.4760
 8715SOL    HW137604   0.925   2.740   2.703  1.6598  0.4444 -0.8349
 8715SOL    HW237605   0.909   2.745   2.847 -1.8212 -2.1152 -0.0053
 8716SOL     OW37606   0.251   3.182   1.818  0.2185 -0.6901  0.7157
 8716SOL    HW137607   0.344   3.198   1.837  0.2632 -1.3998  1.1084
 8716SOL    HW237608   0.247   3.242   1.744  0.6939 -1.1628  0.3114
 8717SOL     OW37609   3.975   4.489   5.130 -1.2131 -0.3610 -0.5070
 8717SOL    HW137610   3.900   4.542   5.159 -0.3036 -0.3177  1.7231
 8717SOL    HW237611   4.018   4.553   5.073  0.1577 -2.2373 -1.5727
 8718SOL     OW37612   0.164   1.606   4.722 -0.4211 -0.0304  0.1382
 8718SOL    HW137613   0.081   1.567   4.693 -1.2058  2.0826 -0.4618
 8718SOL    HW237614   0.197   1.527   4.766 -2.6273 -1.1163 -0.1406
 8719SOL     OW37615   3.582   2.265  17.280 -0.9104 -0.1042 -0.5729
 8719SOL    HW137616   3.515   2.332  17.295  0.1259  0.8903 -0.3159
 8719SOL    HW237617   3.582   2.207  17.356  2.9968 -0.3347 -0.7366
 8720SOL     OW37618   0.297   0.429   9.082 -0.0069 -0.4468  0.0809
 8720SOL    HW137619   0.290   0.511   9.129 -0.9183  0.3246 -1.3946
 8720SOL    HW237620   0.207   0.403   9.060  0.8454 -1.9327 -1.6913
 8721SOL     OW37621   1.340   4.069  16.060 -0.2202  0.4341 -0.2190
 8721SOL    HW137622   1.397   4.108  15.993 -1.3618 -1.9367 -2.5782
 8721SOL    HW237623   1.283   4.144  16.077 -0.1926  0.0142  1.6397
 8722SOL     OW37624   2.139   1.038   1.837  0.2739  0.2784 -0.3047
 8722SOL    HW137625   2.151   0.943   1.842 -0.5815  0.3882  3.9740
 8722SOL    HW237626   2.231   1.057   1.855  0.0780  1.8650 -1.0138
 8723SOL     OW37627   1.670   3.213  12.078 -0.0521 -0.2233 -0.3259
 8723SOL    HW137628   1.761   3.185  12.061  0.4102  1.4866 -0.6211
 8723SOL    HW237629   1.694   3.266  12.154  2.0612 -1.0263 -0.4268
 8724SOL     OW37630   3.311   3.830   4.024 -0.0509 -0.4030  0.3089
 8724SOL    HW137631   3.262   3.752   4.048 -1.1336  0.0304 -0.5029
 8724SOL    HW237632   3.239   3.875   3.979  2.6626  0.4146 -3.1436
 8725SOL     OW37633   0.640   4.033   0.482 -0.2677 -0.2399 -0.1368
 8725SOL    HW137634   0.621   4.120   0.518 -1.3782 -0.7406  0.4904
 8725SOL    HW237635   0.727   4.038   0.443 -0.5580 -0.6619 -0.8250
 8726SOL     OW37636   0.761   0.536   3.326 -0.0419  0.7385 -0.1668
 8726SOL    HW137637   0.755   0.500   3.415 -2.0358 -1.9533 -1.3695
 8726SOL    HW237638   0.681   0.589   3.331  1.2172  2.5759  0.3350
 8727SOL     OW37639   4.642   4.264   4.063 -0.0478 -0.3361  0.9251
 8727SOL    HW137640   4.664   4.355   4.084  0.7967 -0.5466  0.9800
 8727SOL    HW237641   4.701   4.240   3.992  0.1018  0.5471  0.7496
 8728SOL     OW37642   4.601   0.125  15.589 -0.3695 -0.1718  0.1101
 8728SOL    HW137643   4.508   0.147  15.603 -1.1900 -2.7164 -1.4044
 8728SOL    HW237644   4.593   0.055  15.525 -1.3959  1.0489 -1.0883
 8729SOL     OW37645   0.712   1.398   3.189  0.2693 -0.7362  0.0651
 8729SOL    HW137646   0.801   1.370   3.166  0.8096 -0.9554  2.3431
 8729SOL    HW237647   0.747   1.482   3.221  0.4929 -1.8608  2.8444
 8730SOL     OW37648   1.154   2.995   0.531  0.7098 -0.1397  0.0943
 8730SOL    HW137649   1.236   2.953   0.557  1.6779  2.2583  0.9688
 8730SOL    HW237650   1.166   3.083   0.567  3.6943 -0.5997  0.2839
 8731SOL     OW37651   0.170   2.119  11.845 -0.3898 -0.4999  0.0747
 8731SOL    HW137652   0.239   2.170  11.886  1.6226 -1.8846 -1.5516
 8731SOL    HW237653   0.203   2.112  11.755  1.5876  1.4176  0.6411
 8732SOL     OW37654   3.366   3.911  16.735  0.3492  0.0779  0.3380
 8732SOL    HW137655   3.288   3.928  16.682  1.5850 -2.4555 -2.2509
 8732SOL    HW237656   3.424   3.865  16.675  0.7315  1.9904 -0.7648
 8733SOL     OW37657   0.237   1.350  13.781  0.6967  0.4602 -0.1392
 8733SOL    HW137658   0.329   1.326  13.785  0.5861 -0.0093 -0.3573
 8733SOL    HW237659   0.205   1.260  13.773  0.1906  0.7057 -0.8884
 8734SOL     OW37660   2.131   2.670   1.861  0.1232 -0.4569 -0.0578
 8734SOL    HW137661   2.191   2.681   1.787  1.4386 -3.3967  0.5619
 8734SOL    HW237662   2.066   2.609   1.825 -0.5583 -0.1145  0.5948
 8735SOL     OW37663   2.526   0.491   9.026 -0.2902 -0.5850 -0.1522
 8735SOL    HW137664   2.456   0.498   9.091 -0.9423  0.5471 -0.9860
 8735SOL    HW237665   2.603   0.499   9.082 -0.4856 -0.3061  0.0758
 8736SOL     OW37666   3.919   0.949   6.139  0.3077 -0.5678  0.1545
 8736SOL    HW137667   4.000   0.949   6.190  0.3179  1.9482  0.1352
 8736SOL    HW237668   3.936   1.010   6.067 -0.4406 -0.8329 -0.2560
 8737SOL     OW37669   2.617   1.540   9.013  0.0979 -0.2506 -0.0012
 8737SOL    HW137670   2.706   1.512   9.035  0.9171  0.7094 -2.0480
 8737SOL    HW237671   2.561   1.465   8.994  1.0326 -0.9987  0.1583
 8738SOL     OW37672   2.782   4.476   4.914 -0.2232 -0.7410 -0.6009
 8738SOL    HW137673   2.871   4.497   4.884 -0.0095 -0.8699 -0.0557
 8738SOL    HW237674   2.732   4.474   4.833  2.0535  3.5159 -2.1161
 8739SOL     OW37675   2.289   0.373  12.548  0.1683  0.4438 -0.1225
 8739SOL    HW137676   2.295   0.457  12.503  0.1778  1.0140  0.9451
 8739SOL    HW237677   2.194   0.362  12.537  0.4018 -2.8107  1.0668
 8740SOL     OW37678   2.646   2.364   8.879  0.4401  0.0094  0.0418
 8740SOL    HW137679   2.628   2.284   8.927 -1.0844  1.6170  2.1657
 8740SOL    HW237680   2.671   2.339   8.790 -0.0221 -1.0798  0.2208
 8741SOL     OW37681   2.299   3.283   5.055 -0.4167  0.9346 -0.1763
 8741SOL    HW137682   2.216   3.262   5.097 -0.3899  1.5457  0.1764
 8741SOL    HW237683   2.364   3.228   5.100 -0.2943  0.9127 -0.3783
 8742SOL     OW37684   2.421   1.343   8.958 -0.0833 -0.1848  0.0874
 8742SOL    HW137685   2.360   1.372   9.026  0.2853 -3.2576  1.7237
 8742SOL    HW237686   2.360   1.336   8.884 -1.2282 -0.3823  1.0341
 8743SOL     OW37687   0.947   4.448   4.517  0.7380 -0.0195  0.0514
 8743SOL    HW137688   0.887   4.452   4.442 -1.6184 -2.0420  1.8643
 8743SOL    HW237689   0.950   4.538   4.550 -3.2059  0.1575 -0.1502
 8744SOL     OW37690   3.270   3.450  17.364  0.0995  0.1490 -0.3497
 8744SOL    HW137691   3.364   3.461  17.378  0.1779  0.4102 -1.0950
 8744SOL    HW237692   3.261   3.475  17.272  0.2470  0.0857 -0.3807
 8745SOL     OW37693   1.787   3.417   5.298 -0.3530  0.3109 -0.2747
 8745SOL    HW137694   1.755   3.382   5.381  2.0212  0.7479  0.8385
 8745SOL    HW237695   1.745   3.503   5.298  0.1080  0.5380 -0.2641
 8746SOL     OW37696   3.073   0.142   5.442 -0.3778  0.1400  0.2855
 8746SOL    HW137697   3.046   0.077   5.507 -1.2338  1.0559  0.8325
 8746SOL    HW237698   3.111   0.207   5.501 -1.2427  1.7233 -0.9188
 8747SOL     OW37699   0.048   2.254   2.178 -0.0803  0.3198  0.3159
 8747SOL    HW137700   0.008   2.330   2.136  0.2433 -0.9556 -2.2748
 8747SOL    HW237701   0.121   2.229   2.121 -1.0187  0.7983 -1.0978
 8748SOL     OW37702   1.742   4.102   5.066  0.1910  0.0383 -0.3116
 8748SOL    HW137703   1.656   4.110   5.025  1.0577  0.0943 -2.1337
 8748SOL    HW237704   1.734   4.159   5.142 -0.0332 -1.5367  0.8521
 8749SOL     OW37705   3.426   0.237   5.583 -0.1210 -0.0563  0.0547
 8749SOL    HW137706   3.459   0.148   5.592  0.0842 -0.0935 -1.0013
 8749SOL    HW237707   3.379   0.244   5.666 -2.3279  1.8554 -1.3654
 8750SOL     OW37708   0.009   1.692   7.152 -0.9820 -0.4928 -0.3590
 8750SOL    HW137709   4.696   1.774   7.120 -0.2649  0.2006  0.5614
 8750SOL    HW237710   0.097   1.708   7.117 -1.7046  0.6338 -1.6749
 8751SOL     OW37711   3.705   1.432  10.555  0.3376  0.3677  0.8322
 8751SOL    HW137712   3.747   1.515  10.578  1.0977  0.1752  0.1343
 8751SOL    HW237713   3.615   1.466  10.553 -0.2829 -1.3257  0.0055
 8752SOL     OW37714   0.257   0.491   2.098 -0.6040  0.5825 -0.4977
 8752SOL    HW137715   0.182   0.458   2.147 -0.0462 -0.7295 -0.5293
 8752SOL    HW237716   0.217   0.477   2.012 -0.2171  1.3966 -0.8092
 8753SOL     OW37717   3.069   0.334   6.316 -0.2526  0.6960  0.2407
 8753SOL    HW137718   2.982   0.315   6.351 -0.2423 -1.0175 -0.6955
 8753SOL    HW237719   3.097   0.257   6.267 -0.6675  0.9381 -0.3779
 8754SOL     OW37720   2.752   3.108   3.679  0.3032 -0.0998 -0.1418
 8754SOL    HW137721   2.695   3.178   3.649  1.2636  1.3744  1.4442
 8754SOL    HW237722   2.781   3.071   3.596  2.1706  0.1474  0.3865
 8755SOL     OW37723   2.613   2.166   2.233  0.2462  0.3816  0.1452
 8755SOL    HW137724   2.562   2.105   2.287 -0.6890  2.3656  1.5126
 8755SOL    HW237725   2.548   2.186   2.166  0.2029 -1.2671 -0.2878
 8756SOL     OW37726   4.038   2.990   0.669 -0.3255  0.0522  0.2688
 8756SOL    HW137727   4.129   2.983   0.699 -0.1387 -0.0165 -0.3266
 8756SOL    HW237728   4.016   3.065   0.724  0.4488  0.4351  0.0532
 8757SOL     OW37729   1.795   1.782  12.016  0.4552 -0.4993 -0.0805
 8757SOL    HW137730   1.873   1.832  12.038 -0.8161  1.1517  0.6719
 8757SOL    HW237731   1.823   1.696  11.984  1.1710 -0.2353 -0.1730
 8758SOL     OW37732   2.389   3.555   3.570 -0.6637  0.2057 -0.4205
 8758SOL    HW137733   2.351   3.604   3.497 -0.6339  0.5943 -0.1739
 8758SOL    HW237734   2.328   3.575   3.642 -0.5791  1.7400 -0.7728
 8759SOL     OW37735   4.303   1.574  16.793 -0.2910  0.4028 -0.7731
 8759SOL    HW137736   4.239   1.509  16.821  1.4681 -0.1697  1.9292
 8759SOL    HW237737   4.282   1.590  16.701  1.7929 -1.4384 -1.5784
 8760SOL     OW37738   0.507   2.059  15.794  0.4304  0.4925 -0.0337
 8760SOL    HW137739   0.466   2.000  15.731  1.6345 -1.4443  0.9905
 8760SOL    HW237740   0.517   2.001  15.870 -0.9116  1.9126  1.2450
 8761SOL     OW37741   2.252   2.173   4.148  0.0217  0.0562  0.2690
 8761SOL    HW137742   2.295   2.224   4.216 -0.4738 -0.8017  1.2162
 8761SOL    HW237743   2.260   2.230   4.071  1.1534  0.1281  0.4320
 8762SOL     OW37744   3.283   1.584  14.906  0.3563  0.2009 -0.8716
 8762SOL    HW137745   3.196   1.610  14.877  0.0693 -0.3762 -0.5358
 8762SOL    HW237746   3.315   1.656  14.961 -2.7787  1.1494 -0.3206
 8763SOL     OW37747   1.416   1.447   9.195 -0.6334 -0.0106 -0.1898
 8763SOL    HW137748   1.434   1.384   9.264 -2.6342  1.4454  1.6689
 8763SOL    HW237749   1.506   1.458   9.166 -0.9969 -0.5704 -1.5317
 8764SOL     OW37750   3.493   2.275  11.669  0.2804 -0.1878  0.7399
 8764SOL    HW137751   3.448   2.204  11.715 -1.1206  0.4098  0.3169
 8764SOL    HW237752   3.415   2.321  11.638  1.0105  0.8968  0.5227
 8765SOL     OW37753   4.058   0.543  13.825  0.1151 -0.6896  0.1176
 8765SOL    HW137754   4.148   0.512  13.815  0.4347  0.5406 -0.8439
 8765SOL    HW237755   4.050   0.562  13.918  0.9998 -0.9300  0.2454
 8766SOL     OW37756   1.761   1.074   9.308 -0.4059 -0.1547  0.0313
 8766SOL    HW137757   1.809   1.134   9.366 -0.9706  0.3009  0.0314
 8766SOL    HW237758   1.675   1.101   9.339 -0.2836 -0.5494  0.7276
 8767SOL     OW37759   3.171   2.838   2.986 -0.2622 -0.2685  0.3293
 8767SOL    HW137760   3.257   2.797   2.996  0.4261  0.4546 -2.6786
 8767SOL    HW237761   3.139   2.794   2.908  1.3975  1.6702 -1.4699
 8768SOL     OW37762   3.567   3.559   6.047  0.3802 -0.0074 -0.6711
 8768SOL    HW137763   3.484   3.543   6.002  0.6288 -1.1259 -0.7412
 8768SOL    HW237764   3.559   3.654   6.043  0.5542  0.0160 -0.5061
 8769SOL     OW37765   1.874   2.170   2.104  0.5700 -0.2306 -0.5122
 8769SOL    HW137766   1.886   2.257   2.142 -0.1250 -0.0047 -0.8052
 8769SOL    HW237767   1.893   2.112   2.177 -3.6162 -0.3894  0.4431
 8770SOL     OW37768   3.875   2.729   4.907 -0.4498 -0.1244  0.3680
 8770SOL    HW137769   3.824   2.658   4.947 -0.0392 -0.5280  0.1704
 8770SOL    HW237770   3.963   2.712   4.940 -0.3974  0.5924  0.5980
 8771SOL     OW37771   3.061   4.405   8.236 -0.0773  0.2691 -0.4469
 8771SOL    HW137772   3.071   4.423   8.330 -1.3407  1.3653 -0.5058
 8771SOL    HW237773   3.136   4.456   8.204 -1.1189  0.9886 -1.7631
 8772SOL     OW37774   2.168   0.729   3.852  0.7444 -0.5340  0.6463
 8772SOL    HW137775   2.225   0.763   3.922 -0.4221  0.3468  1.1746
 8772SOL    HW237776   2.178   0.796   3.785  0.5605 -0.3359  0.8150
 8773SOL     OW37777   0.278   0.776   5.099  0.3417  0.4652 -0.3521
 8773SOL    HW137778   0.245   0.731   5.177  2.2976 -0.1574  0.1095
 8773SOL    HW237779   0.262   0.869   5.113 -0.6020  0.1593  0.6111
 8774SOL     OW37780   4.529   3.745   5.394 -0.5290 -0.1582 -0.0194
 8774SOL    HW137781   4.553   3.781   5.309 -0.2919 -3.1043 -1.2225
 8774SOL    HW237782   4.466   3.812   5.420  1.0784  1.6334 -0.8348
 8775SOL     OW37783   2.800   2.947   3.452 -0.4224  0.4231  0.8436
 8775SOL    HW137784   2.850   2.988   3.382 -0.3361  2.2989  2.0034
 8775SOL    HW237785   2.740   2.888   3.405  1.4159 -0.9509  0.1913
 8776SOL     OW37786   3.526   1.076   9.835  0.0505 -0.1711  0.3493
 8776SOL    HW137787   3.611   1.117   9.854  0.1515 -0.7432  1.1592
 8776SOL    HW237788   3.478   1.087   9.918  2.6587  0.8167  1.7416
 8777SOL     OW37789   3.398   3.223  14.121 -0.0153  0.0299  0.2759
 8777SOL    HW137790   3.413   3.256  14.032  1.1640 -0.0694  0.4345
 8777SOL    HW237791   3.329   3.282  14.152  0.4437  1.0346 -0.6377
 8778SOL     OW37792   3.033   2.793   5.146  0.4043 -0.0952  0.6033
 8778SOL    HW137793   3.040   2.872   5.092  1.7704 -0.0973  0.7699
 8778SOL    HW237794   3.126   2.769   5.154  0.5853  0.6721  0.8346
 8779SOL     OW37795   2.342   1.483   2.141 -0.8832  0.5646 -0.3970
 8779SOL    HW137796   2.269   1.430   2.174  1.0418 -1.1918  1.0246
 8779SOL    HW237797   2.409   1.416   2.151 -1.3647  0.0271 -0.7766
 8780SOL     OW37798   1.827   0.883   6.742  0.6589 -0.4940 -0.8150
 8780SOL    HW137799   1.903   0.908   6.690  1.6473 -0.5477  0.5842
 8780SOL    HW237800   1.842   0.934   6.822  0.8017 -1.6635 -0.1020
 8781SOL     OW37801   4.504   0.889  14.925 -0.1100  0.2949  0.3142
 8781SOL    HW137802   4.546   0.971  14.951  0.8031  0.8846 -2.9431
 8781SOL    HW237803   4.542   0.836  14.994  1.6798  1.9232  0.5819
 8782SOL     OW37804   3.988   3.422   8.793  0.4396 -0.6555 -0.0242
 8782SOL    HW137805   4.029   3.336   8.796 -1.1613 -1.3804  0.6860
 8782SOL    HW237806   3.932   3.418   8.871 -0.2547  0.6920 -0.4570
 8783SOL     OW37807   0.870   4.396   6.012 -0.2637  0.4568  0.1973
 8783SOL    HW137808   0.835   4.474   6.057 -1.8106  0.2158 -0.5780
 8783SOL    HW237809   0.803   4.334   6.043 -1.6973  0.8381 -2.1388
 8784SOL     OW37810   3.359   2.501  16.533 -0.4190  0.3329  0.0985
 8784SOL    HW137811   3.343   2.595  16.522  2.0041  0.7958  0.5455
 8784SOL    HW237812   3.437   2.484  16.480 -0.8794 -0.2995 -0.3768
 8785SOL     OW37813   3.941   0.643   5.621  0.2867 -0.2322 -0.5552
 8785SOL    HW137814   4.027   0.652   5.582  1.4379 -0.2293  1.9484
 8785SOL    HW237815   3.883   0.702   5.574 -1.7078 -1.8369 -0.1154
 8786SOL     OW37816   3.118   0.715  16.313  0.5737 -0.1041 -0.0505
 8786SOL    HW137817   3.054   0.721  16.383  1.0026 -2.2032  0.5322
 8786SOL    HW237818   3.110   0.802  16.275  0.0811  0.5262  1.5414
 8787SOL     OW37819   3.421   3.012   6.104  0.2569  0.1743  0.1037
 8787SOL    HW137820   3.457   3.027   6.191  1.8500 -0.6700 -0.4092
 8787SOL    HW237821   3.352   2.949   6.125 -0.6862  1.7561  1.7437
 8788SOL     OW37822   0.377   3.309   4.557  0.3304 -0.2844 -0.6829
 8788SOL    HW137823   0.471   3.322   4.541  0.7379 -1.0091  1.2221
 8788SOL    HW237824   0.368   3.327   4.650 -1.1129  1.8956 -1.2313
 8789SOL     OW37825   1.179   0.651   3.014  0.4082 -0.3395 -0.3093
 8789SOL    HW137826   1.137   0.612   3.091 -0.5805  0.6091 -0.3700
 8789SOL    HW237827   1.273   0.637   3.027  0.7710  3.0714  0.7737
 8790SOL     OW37828   3.262   1.422  15.132  0.1564  0.0002 -0.4460
 8790SOL    HW137829   3.231   1.335  15.109 -0.0279 -0.7971  2.8386
 8790SOL    HW237830   3.283   1.459  15.046  0.0360 -3.5276 -2.0030
 8791SOL     OW37831   0.879   2.042  13.581  0.0172 -0.7862  0.3377
 8791SOL    HW137832   0.960   2.023  13.629 -0.3232 -0.2722  1.1310
 8791SOL    HW237833   0.845   2.102  13.648  2.9441  1.4733 -0.1933
 8792SOL     OW37834   2.967   2.858   3.641  0.0845  0.5644 -0.4994
 8792SOL    HW137835   2.909   2.898   3.576 -0.6419  1.7906  0.9017
 8792SOL    HW237836   2.933   2.769   3.644 -2.9535  1.7395 -0.1776
 8793SOL     OW37837   2.368   0.032   4.767  0.4671 -0.0612  0.0873
 8793SOL    HW137838   2.429   0.105   4.774  1.1764 -0.8834  2.4068
 8793SOL    HW237839   2.390   0.007   4.677  0.7498  1.1166 -0.1725
 8794SOL     OW37840   1.295   1.861  10.750 -0.4963 -0.4560 -0.0332
 8794SOL    HW137841   1.367   1.801  10.731  2.1132  2.7083 -0.0791
 8794SOL    HW237842   1.221   1.813  10.712 -0.9124  1.1891 -1.3093
 8795SOL     OW37843   2.029   0.354   2.461  0.9778  0.2640 -0.1540
 8795SOL    HW137844   2.106   0.311   2.426  0.5362 -1.9607  1.5621
 8795SOL    HW237845   2.054   0.444   2.440  1.0595  0.1612 -0.4836
 8796SOL     OW37846   2.281   2.289   3.485 -0.2103 -0.0651  0.0988
 8796SOL    HW137847   2.282   2.204   3.442  0.4585  0.1151 -0.2349
 8796SOL    HW237848   2.269   2.353   3.415  2.6027 -0.1948 -0.4658
 8797SOL     OW37849   2.884   1.458  13.222 -0.4003  0.3491 -0.1696
 8797SOL    HW137850   2.841   1.528  13.174 -0.4047  0.4741  0.0158
 8797SOL    HW237851   2.815   1.418  13.275 -0.2306 -0.5972 -0.6638
 8798SOL     OW37852   3.014   2.627   2.288 -0.4240 -0.0923 -0.3240
 8798SOL    HW137853   3.030   2.563   2.357  1.4187 -0.3534 -1.0154
 8798SOL    HW237854   3.029   2.582   2.205 -1.4256  1.2249 -1.2321
 8799SOL     OW37855   4.509   1.722   6.830 -0.5272  0.5238  0.1890
 8799SOL    HW137856   4.582   1.782   6.847 -0.3703  0.3569  0.1147
 8799SOL    HW237857   4.468   1.699   6.913  1.1314 -3.9830 -0.2224
 8800SOL     OW37858   3.387   2.680   6.430  0.0077 -0.1326  0.4391
 8800SOL    HW137859   3.345   2.703   6.347  1.6498  0.2232 -0.2956
 8800SOL    HW237860   3.321   2.700   6.497 -1.1410 -1.2463 -0.3708
 8801SOL     OW37861   2.271   0.890   3.193 -0.1481 -0.3793  0.6064
 8801SOL    HW137862   2.356   0.931   3.179 -0.8495  1.0977  0.6566
 8801SOL    HW237863   2.228   0.904   3.108  1.6376 -0.7353 -0.3365
 8802SOL     OW37864   2.533   3.838   6.239 -0.1262  0.0687  0.4077
 8802SOL    HW137865   2.452   3.869   6.280  0.0940 -2.4428  2.6678
 8802SOL    HW237866   2.500   3.764   6.189  0.9124 -0.6684  0.8281
 8803SOL     OW37867   3.722   0.077   5.961 -0.5554  0.4839  0.0966
 8803SOL    HW137868   3.627   0.079   5.978 -0.4355 -0.0160  0.8257
 8803SOL    HW237869   3.733   0.147   5.898 -0.6728  0.0413 -0.4135
 8804SOL     OW37870   4.642   4.423   3.359  0.4717 -0.1008 -0.3155
 8804SOL    HW137871   4.552   4.453   3.340  0.6184 -0.4960 -1.6184
 8804SOL    HW237872   4.692   4.503   3.343  1.7496 -0.7298  0.5731
 8805SOL     OW37873   2.836   1.391   1.981 -0.1586 -0.6406 -0.7763
 8805SOL    HW137874   2.843   1.319   2.044  1.5743  0.5017  0.3260
 8805SOL    HW237875   2.920   1.380   1.937 -0.5315  0.1828 -1.6892
 8806SOL     OW37876   0.514   2.475   2.762  0.2693  0.4871 -0.4796
 8806SOL    HW137877   0.453   2.542   2.793  1.8825  0.9493  1.6119
 8806SOL    HW237878   0.565   2.526   2.699  1.3030 -1.7810 -1.4914
 8807SOL     OW37879   3.363   2.899   0.227 -0.9858 -0.1100  0.2963
 8807SOL    HW137880   3.286   2.943   0.190 -0.9546 -0.5298 -0.2662
 8807SOL    HW237881   3.353   2.809   0.197  2.6110 -0.2787 -0.4712
 8808SOL     OW37882   3.500   0.527   8.306  0.5665  0.1034  0.0331
 8808SOL    HW137883   3.537   0.533   8.218  1.4106 -0.6723  0.3236
 8808SOL    HW237884   3.517   0.433   8.320  0.5149 -0.2120 -2.0409
 8809SOL     OW37885   0.637   2.236   0.387  0.4138 -0.0545 -0.0655
 8809SOL    HW137886   0.732   2.227   0.383  0.2680 -3.0805  2.5534
 8809SOL    HW237887   0.628   2.176   0.461 -0.7016 -0.1211 -0.2532
 8810SOL     OW37888   2.583   4.479   0.425  0.3569  0.1660  0.1012
 8810SOL    HW137889   2.537   4.548   0.474  2.0961 -0.0783  2.0940
 8810SOL    HW237890   2.668   4.517   0.399  0.6154 -0.3996  0.1108
 8811SOL     OW37891   1.602   0.350   7.079  0.2946 -0.2051 -0.1718
 8811SOL    HW137892   1.681   0.384   7.037  1.2879 -0.3846  1.5463
 8811SOL    HW237893   1.542   0.355   7.006  0.3507  1.2390 -0.1167
 8812SOL     OW37894   0.002   2.057  14.344 -0.3576 -0.3148  0.6522
 8812SOL    HW137895   4.691   1.989  14.288 -2.8484  1.6137 -0.0027
 8812SOL    HW237896   4.647   2.097  14.373 -0.3505  0.8822 -0.9908
 8813SOL     OW37897   1.920   4.423  12.124 -0.3615 -0.3141 -0.2704
 8813SOL    HW137898   1.846   4.477  12.096 -0.9429 -1.8266 -1.5969
 8813SOL    HW237899   1.991   4.467  12.078  0.0196 -0.7740 -0.1263
 8814SOL     OW37900   3.740   3.018   2.571 -0.3942 -0.2342  0.3897
 8814SOL    HW137901   3.680   2.985   2.638  1.2998  1.7708  2.8852
 8814SOL    HW237902   3.803   2.950   2.549 -0.1490 -0.1538  0.8462
 8815SOL     OW37903   3.341   0.914   2.869  0.2776  0.1371  0.0205
 8815SOL    HW137904   3.253   0.935   2.901  0.0358 -1.2232  0.2749
 8815SOL    HW237905   3.342   0.830   2.915  0.4582  1.1061  1.7903
 8816SOL     OW37906   3.253   2.825   1.978 -0.3819 -0.5300 -0.1563
 8816SOL    HW137907   3.280   2.909   1.941 -1.4245  0.0410  0.3794
 8816SOL    HW237908   3.316   2.761   1.945  1.3274  1.3800 -0.6264
 8817SOL     OW37909   3.657   2.791   5.891  0.1125  0.2833 -0.3907
 8817SOL    HW137910   3.649   2.886   5.900  0.7117  0.6053 -3.2753
 8817SOL    HW237911   3.712   2.788   5.813  1.7420  2.2989  0.6761
 8818SOL     OW37912   2.983   0.840   3.562  0.4275 -0.2577  0.0242
 8818SOL    HW137913   2.924   0.914   3.544  0.5884 -0.6875 -2.3576
 8818SOL    HW237914   3.042   0.882   3.625  0.6957 -0.2752 -0.2138
 8819SOL     OW37915   1.753   4.272   9.693 -0.0041 -0.0018  0.6665
 8819SOL    HW137916   1.803   4.196   9.667 -0.2997  0.3701 -0.9639
 8819SOL    HW237917   1.776   4.291   9.784  0.3973  2.1224  0.1252
 8820SOL     OW37918   2.696   2.998  15.956  0.6326 -0.5976 -0.5312
 8820SOL    HW137919   2.715   2.911  15.990  0.2326  0.0975  1.5396
 8820SOL    HW237920   2.603   2.976  15.949  0.8078 -1.4620 -0.1802
 8821SOL     OW37921   1.828   1.087   9.654  0.6446  0.8600 -0.5323
 8821SOL    HW137922   1.805   1.109   9.745  2.2093  0.3858 -0.0211
 8821SOL    HW237923   1.763   1.018   9.642  0.4022  1.3158 -1.8371
 8822SOL     OW37924   1.401   0.542   6.402 -0.3361 -0.1536  0.4774
 8822SOL    HW137925   1.463   0.593   6.349 -0.6797 -1.1944 -0.9303
 8822SOL    HW237926   1.430   0.451   6.387 -3.0220 -0.6062 -1.8433
 8823SOL     OW37927   3.789   4.274   4.352 -0.1120  0.1533 -0.2673
 8823SOL    HW137928   3.867   4.235   4.313  0.2265  0.6909 -0.1234
 8823SOL    HW237929   3.767   4.335   4.281  0.1381 -0.6268 -1.0215
 8824SOL     OW37930   2.433   2.575   8.380 -0.3069 -0.1718 -0.7564
 8824SOL    HW137931   2.406   2.602   8.292  1.7802 -1.0611 -1.6611
 8824SOL    HW237932   2.423   2.660   8.422  1.9760  0.4643 -1.4658
 8825SOL     OW37933   4.094   1.654   8.514 -0.1653 -0.2575 -0.4665
 8825SOL    HW137934   4.005   1.641   8.547  0.0345 -1.0592 -0.2429
 8825SOL    HW237935   4.076   1.667   8.421 -0.1840  1.0616 -0.2734
 8826SOL     OW37936   2.557   3.762   7.995 -0.2967  0.4204 -0.3339
 8826SOL    HW137937   2.610   3.684   8.009  0.5364  1.3533  1.6439
 8826SOL    HW237938   2.620   3.825   7.962 -0.2764  1.2993  1.3659
 8827SOL     OW37939   1.576   0.575   9.320  0.3837  0.0909  0.1479
 8827SOL    HW137940   1.609   0.664   9.307 -0.0870  0.2459  0.0250
 8827SOL    HW237941   1.524   0.550   9.243  0.1603  1.8672 -0.2614
 8828SOL     OW37942   4.554   1.283   4.503 -0.2437 -0.0012 -0.4112
 8828SOL    HW137943   4.624   1.219   4.514  0.2137  0.6158  0.2932
 8828SOL    HW237944   4.475   1.228   4.508  0.3944 -0.7151  1.8239
 8829SOL     OW37945   2.625   2.016   3.750 -0.2717  0.1177  0.9597
 8829SOL    HW137946   2.717   2.001   3.728 -0.0855  3.4815 -0.5836
 8829SOL    HW237947   2.578   2.014   3.666  0.9193 -2.9117  0.3747
 8830SOL     OW37948   0.895   4.104  12.706  0.3062  0.3947 -0.0920
 8830SOL    HW137949   0.906   4.014  12.737 -0.0002  0.2631 -0.3605
 8830SOL    HW237950   0.850   4.097  12.622 -0.9779  1.2493  0.5125
 8831SOL     OW37951   0.461   0.069   1.624  0.1230 -0.0545  0.3951
 8831SOL    HW137952   0.484   0.162   1.627 -1.5864  0.3602  0.3659
 8831SOL    HW237953   0.505   0.041   1.705  0.8588  1.3233  0.4842
 8832SOL     OW37954   3.043   4.534   4.867 -0.1912  0.0237  0.3436
 8832SOL    HW137955   3.090   4.530   4.784  0.6254  2.4676  0.7000
 8832SOL    HW237956   3.066   4.454   4.914  1.8849  0.7165  0.4655
 8833SOL     OW37957   4.680   3.031   8.264 -0.4154 -0.0775  0.1384
 8833SOL    HW137958   0.047   3.023   8.243 -0.3325 -0.5667  0.6971
 8833SOL    HW237959   4.647   3.090   8.197  0.1797 -0.2228 -0.2837
 8834SOL     OW37960   3.309   3.056  17.352  0.1598  0.4206 -0.1456
 8834SOL    HW137961   3.304   3.030  17.260 -0.7294 -0.7532  0.2347
 8834SOL    HW237962   3.337   2.975  17.394 -0.7894  1.6470  2.8208
 8835SOL     OW37963   2.588   1.607  13.452 -0.3184  0.0632  0.1380
 8835SOL    HW137964   2.644   1.533  13.427  0.1142  0.9056 -1.4067
 8835SOL    HW237965   2.566   1.643  13.366  2.4309  0.2789 -0.4747
 8836SOL     OW37966   0.958   1.164  11.988  0.2031 -0.3186 -0.4533
 8836SOL    HW137967   1.049   1.151  11.961 -0.1060 -0.2086 -1.5293
 8836SOL    HW237968   0.958   1.258  12.004  1.7474 -0.5720  1.0199
 8837SOL     OW37969   1.894   0.123   7.977 -0.0586 -0.4577  0.1845
 8837SOL    HW137970   1.844   0.055   8.022 -0.5020 -0.7193 -0.7071
 8837SOL    HW237971   1.962   0.079   7.927 -1.7062  0.0011 -2.4599
 8838SOL     OW37972   2.925   1.363  10.818  0.2892  0.2245 -0.0670
 8838SOL    HW137973   2.955   1.308  10.745 -0.9417 -0.2165 -0.2394
 8838SOL    HW237974   2.989   1.341  10.886 -1.1537 -0.9134  0.9370
 8839SOL     OW37975   2.745   4.003   0.747 -0.2525 -0.1660  0.2254
 8839SOL    HW137976   2.689   3.966   0.815  0.9117 -1.7128  0.3594
 8839SOL    HW237977   2.743   3.933   0.682  0.3459 -0.0956  0.1245
 8840SOL     OW37978   1.105   1.830   1.547  0.2331  0.2764 -0.9307
 8840SOL    HW137979   1.194   1.857   1.570 -1.1171  1.0724  3.3424
 8840SOL    HW237980   1.056   1.907   1.577  0.1449 -0.4526  0.7744
 8841SOL     OW37981   3.817   2.337  12.508  0.2144  0.1197  0.4127
 8841SOL    HW137982   3.867   2.278  12.452 -1.7424 -0.2195 -0.9658
 8841SOL    HW237983   3.840   2.295  12.591  0.7485  0.7865  0.6027
 8842SOL     OW37984   0.073   1.180   4.642  0.5454 -0.0674  0.5086
 8842SOL    HW137985   0.154   1.224   4.615  0.8289 -0.8075  0.1357
 8842SOL    HW237986   0.038   1.243   4.704 -0.0244 -1.2287  1.3597
 8843SOL     OW37987   2.775   4.658   1.512 -0.0828 -0.4091  0.1293
 8843SOL    HW137988   2.687   4.637   1.480  0.0453  0.0372 -0.5425
 8843SOL    HW237989   2.779   4.641   1.606  0.9404  1.0834  0.3623
 8844SOL     OW37990   2.075   1.544   9.373 -0.6195 -0.5505 -0.7816
 8844SOL    HW137991   2.035   1.630   9.358 -0.7179 -0.7147 -1.4391
 8844SOL    HW237992   2.038   1.529   9.460 -1.5744 -1.1033 -1.2924
 8845SOL     OW37993   2.763   0.357   1.668 -0.3841  0.0871  0.2352
 8845SOL    HW137994   2.834   0.346   1.604  3.0024 -1.4567  4.2134
 8845SOL    HW237995   2.781   0.282   1.726  1.4845  0.5074  0.2165
 8846SOL     OW37996   1.634   1.410  10.077  0.1805  0.3059  0.3556
 8846SOL    HW137997   1.570   1.410  10.007 -1.2871  0.3251  1.6946
 8846SOL    HW237998   1.578   1.386  10.151 -2.9181  0.0882 -2.0750
 8847SOL     OW37999   4.580   2.287  12.017 -0.4780  0.7091 -0.4095
 8847SOL    HW138000   4.650   2.351  12.031 -0.5710  0.5914  0.6180
 8847SOL    HW238001   4.507   2.349  12.025  0.6055  1.5870  2.6469
 8848SOL     OW38002   0.476   2.416   0.236  0.0451 -0.1535  0.6714
 8848SOL    HW138003   0.392   2.402   0.279 -0.8301  1.2301 -0.5655
 8848SOL    HW238004   0.538   2.361   0.283 -0.2601 -0.5342  0.6280
 8849SOL     OW38005   1.418   4.644   8.611  0.2073 -0.1407 -0.5037
 8849SOL    HW138006   1.358   4.658   8.684 -1.3628 -1.2184 -1.5779
 8849SOL    HW238007   1.370   4.591   8.547 -1.0644  1.1018 -0.5870
 8850SOL     OW38008   3.898   0.518   7.263 -0.2904 -0.7507 -0.3852
 8850SOL    HW138009   3.913   0.524   7.168 -0.0167  1.8068 -0.1696
 8850SOL    HW238010   3.811   0.557   7.263 -0.9088 -2.1950  4.1238
 8851SOL     OW38011   1.307   2.467  12.917 -0.0255 -0.2910 -0.2048
 8851SOL    HW138012   1.266   2.512  12.843  0.6015  2.3081  1.0351
 8851SOL    HW238013   1.234   2.422  12.959  1.0920 -0.6482  1.3312
 8852SOL     OW38014   4.502   0.920   0.098 -0.1960  0.2141  0.8037
 8852SOL    HW138015   4.416   0.885   0.122 -0.9927  0.0917 -2.2250
 8852SOL    HW238016   4.506   0.995   0.158  0.1385 -0.3060  1.4373
 8853SOL     OW38017   0.674   4.328   8.981  0.4165  0.2907 -0.2761
 8853SOL    HW138018   0.663   4.354   8.890  0.6736  1.9078  0.1541
 8853SOL    HW238019   0.756   4.279   8.979  1.2418  1.5938  1.1604
 8854SOL     OW38020   3.721   1.035   3.030  0.1718  0.3407  0.1885
 8854SOL    HW138021   3.788   0.968   3.047 -0.5853 -1.2435 -3.0297
 8854SOL    HW238022   3.680   0.982   2.962 -1.1062  1.1858  0.3108
 8855SOL     OW38023   1.268   1.955   2.599 -0.6122  0.1124  0.9779
 8855SOL    HW138024   1.298   1.982   2.513 -0.7265 -2.5598  0.0753
 8855SOL    HW238025   1.265   2.037   2.648  0.5060  3.0886 -3.9192
 8856SOL     OW38026   1.239   1.707   8.867  0.2927  0.0404 -0.5850
 8856SOL    HW138027   1.207   1.618   8.881  2.0238 -0.4851  0.0601
 8856SOL    HW238028   1.214   1.758   8.944 -0.6318 -0.6241 -0.4458
 8857SOL     OW38029   4.244   3.536  13.806  0.7098  0.1468 -0.1216
 8857SOL    HW138030   4.315   3.598  13.822  1.5041 -0.5046 -1.2020
 8857SOL    HW238031   4.238   3.533  13.710 -0.5504  1.9582 -0.1026
 8858SOL     OW38032   1.554   1.366   2.343  0.0003  0.2374  0.2669
 8858SOL    HW138033   1.644   1.335   2.346 -0.8785 -2.2477  0.9099
 8858SOL    HW238034   1.564   1.461   2.333  0.8712  0.1482  0.3238
 8859SOL     OW38035   3.338   2.734   0.519 -0.3224  0.3200 -0.0309
 8859SOL    HW138036   3.245   2.732   0.500 -0.6045  0.7017  1.2984
 8859SOL    HW238037   3.337   2.762   0.611 -0.4430  1.7877 -0.4773
 8860SOL     OW38038   3.013   3.516   8.098  0.3504  0.7419  0.3888
 8860SOL    HW138039   3.007   3.499   8.192  1.8153 -0.5010  0.2627
 8860SOL    HW238040   3.097   3.562   8.096  0.5594  0.3987  1.0215
 8861SOL     OW38041   1.549   2.714   3.599  0.8114 -0.3269  0.0285
 8861SOL    HW138042   1.619   2.739   3.539  0.8405  0.9990  0.6216
 8861SOL    HW238043   1.558   2.618   3.598  0.8778 -0.2864 -2.3643
 8862SOL     OW38044   4.125   1.795   3.959  0.0953 -0.6284  0.2720
 8862SOL    HW138045   4.097   1.719   3.907 -1.6381 -0.8511  1.5600
 8862SOL    HW238046   4.171   1.748   4.028 -1.4365 -3.0474 -0.3215
 8863SOL     OW38047   1.291   1.756  13.741  0.1578 -0.1225  0.4940
 8863SOL    HW138048   1.381   1.745  13.771  0.5358  0.1431 -0.5382
 8863SOL    HW238049   1.266   1.666  13.722  1.2239 -0.7939  2.2435
 8864SOL     OW38050   1.968   2.032   4.909  0.2527 -0.5551  0.5565
 8864SOL    HW138051   1.968   1.981   4.990  1.9965 -1.1393  0.1777
 8864SOL    HW238052   1.879   2.007   4.886  0.2701  1.1218 -1.3885
 8865SOL     OW38053   0.984   1.372  15.524  0.4542  0.0452 -0.2251
 8865SOL    HW138054   1.032   1.297  15.490  2.8274  1.6637 -0.4243
 8865SOL    HW238055   1.055   1.436  15.532 -0.6610  1.1867  0.5330
 8866SOL     OW38056   0.740   2.644   6.130  0.2558 -0.2031  0.0308
 8866SOL    HW138057   0.824   2.667   6.169  0.0286  0.3675  0.1879
 8866SOL    HW238058   0.755   2.662   6.037  0.6928 -2.1666 -0.2718
 8867SOL     OW38059   2.331   3.098   7.676  0.3908  0.2636 -0.0448
 8867SOL    HW138060   2.318   3.017   7.726  1.8779 -0.5167 -0.9292
 8867SOL    HW238061   2.243   3.133   7.689  0.7605  1.3179 -0.4004
 8868SOL     OW38062   2.406   1.079   9.008 -0.2930  0.1805  0.5962
 8868SOL    HW138063   2.399   1.174   9.020 -0.5346  0.2610 -0.1899
 8868SOL    HW238064   2.491   1.060   9.046 -0.5153 -0.4514  0.7791
 8869SOL     OW38065   4.724   1.155   9.838  0.0494 -0.1886 -0.3900
 8869SOL    HW138066   0.047   1.235   9.819  0.4473 -0.1059  0.9371
 8869SOL    HW238067   0.062   1.085   9.843  0.4555  0.3174  1.4592
 8870SOL     OW38068   2.747   1.958   4.130  0.3035  0.0448  0.1705
 8870SOL    HW138069   2.757   1.890   4.063  0.8427 -1.4710  1.7882
 8870SOL    HW238070   2.656   1.985   4.119  0.6690  1.1142 -0.2138
 8871SOL     OW38071   3.696   4.301   1.351  0.0501  0.4439  0.8611
 8871SOL    HW138072   3.659   4.360   1.416  1.1973 -0.0200  1.9336
 8871SOL    HW238073   3.631   4.296   1.281  0.6331 -0.2529  0.3650
 8872SOL     OW38074   0.261   4.008   2.739  0.6091  0.3211  0.4355
 8872SOL    HW138075   0.272   3.937   2.803 -0.5531  0.0023  0.2770
 8872SOL    HW238076   0.318   4.079   2.769  0.8603 -0.0560  0.8588
 8873SOL     OW38077   1.163   2.212   7.213  0.2131  0.0086  0.1537
 8873SOL    HW138078   1.167   2.285   7.276  0.7233 -0.7984  1.0653
 8873SOL    HW238079   1.240   2.158   7.230  1.0290  1.2442  0.4061
 8874SOL     OW38080   4.221   2.666  13.843  0.2534 -0.2392 -0.2680
 8874SOL    HW138081   4.273   2.655  13.922 -0.5877  0.9993  0.4376
 8874SOL    HW238082   4.136   2.658  13.885 -0.3300  0.6316 -1.2789
 8875SOL     OW38083   4.566   2.786   4.470  0.4142 -0.0479  0.6231
 8875SOL    HW138084   4.591   2.698   4.443 -1.4715 -0.4673  0.2411
 8875SOL    HW238085   4.593   2.837   4.395 -2.2523 -3.8913 -2.9412
 8876SOL     OW38086   4.330   2.499   8.418 -0.6349  0.2890  0.1002
 8876SOL    HW138087   4.303   2.563   8.483  1.5429  0.7210  0.5906
 8876SOL    HW238088   4.424   2.496   8.440  0.0438  0.7745 -2.8128
 8877SOL     OW38089   4.048   4.458   6.342 -0.0668  0.1184 -0.0796
 8877SOL    HW138090   4.084   4.377   6.304 -0.1613  0.4361 -0.8450
 8877SOL    HW238091   3.953   4.455   6.338 -0.0859  2.6552 -0.9899
 8878SOL     OW38092   0.315   3.234  15.989  0.3408 -0.8393  0.4612
 8878SOL    HW138093   0.401   3.214  15.952 -1.3141 -0.5985 -3.5464
 8878SOL    HW238094   0.333   3.316  16.035  0.1278 -2.0079  2.6068
 8879SOL     OW38095   3.517   2.958   5.096 -0.0831 -0.0977 -0.3529
 8879SOL    HW138096   3.499   2.916   5.011 -0.2146  1.9252 -1.3139
 8879SOL    HW238097   3.503   3.049   5.070  1.2663 -0.0118 -0.7617
 8880SOL     OW38098   4.332   2.160   2.486 -0.4172  0.0356 -0.2375
 8880SOL    HW138099   4.390   2.236   2.487 -0.2518 -0.1097  0.9902
 8880SOL    HW238100   4.302   2.155   2.395 -0.7658 -1.2372 -0.0540
 8881SOL     OW38101   4.448   2.807   1.751  0.1207  0.0551 -0.0603
 8881SOL    HW138102   4.523   2.749   1.744 -0.3060 -0.5639  0.5499
 8881SOL    HW238103   4.380   2.740   1.741 -0.1686 -0.0385  2.6078
 8882SOL     OW38104   3.690   4.494   0.574  0.0488 -0.3937 -0.0583
 8882SOL    HW138105   3.696   4.456   0.486  1.2131 -0.2742 -0.0256
 8882SOL    HW238106   3.740   4.430   0.624 -0.3584 -0.3972  0.3447
 8883SOL     OW38107   4.316   3.040   4.183  0.2976 -0.1589 -0.3623
 8883SOL    HW138108   4.260   2.964   4.197 -2.2629  1.7347 -0.4062
 8883SOL    HW238109   4.405   3.005   4.194 -0.2542 -0.8371  1.8722
 8884SOL     OW38110   1.242   1.830  17.053  0.1218 -0.3123 -0.0209
 8884SOL    HW138111   1.218   1.767  16.986  0.8988  0.3484 -0.9281
 8884SOL    HW238112   1.157   1.873  17.061  0.8252  1.4531 -1.9227
 8885SOL     OW38113   4.661   1.499  10.844  0.1265  0.2780  0.2503
 8885SOL    HW138114   0.028   1.518  10.856  0.3504 -1.3917  1.2035
 8885SOL    HW238115   4.642   1.542  10.761  0.3958 -0.7942 -0.3664
 8886SOL     OW38116   1.183   3.402   4.560 -0.1190  0.0993  0.1463
 8886SOL    HW138117   1.234   3.328   4.526 -1.6282 -1.7396  1.8639
 8886SOL    HW238118   1.220   3.473   4.509  1.1520 -0.2184  0.6294
 8887SOL     OW38119   2.328   2.417  11.133 -0.0486 -0.1139  0.2486
 8887SOL    HW138120   2.277   2.410  11.214  0.9634  2.4788  1.1252
 8887SOL    HW238121   2.406   2.369  11.160  0.5498  0.3290 -0.6946
 8888SOL     OW38122   4.560   0.724   8.003 -0.2170 -0.2881  0.6554
 8888SOL    HW138123   4.467   0.726   7.981 -0.2352 -2.0943  0.5748
 8888SOL    HW238124   4.587   0.802   7.954  0.4637  0.1367  1.7030
 8889SOL     OW38125   4.051   4.034  14.305  0.6483  0.3335 -0.4435
 8889SOL    HW138126   4.137   4.074  14.294 -0.1650  2.0507 -0.4975
 8889SOL    HW238127   4.062   3.951  14.257 -0.8021  0.3433 -0.7998
 8890SOL     OW38128   1.975   2.579   6.710 -0.1436 -0.4102 -0.1779
 8890SOL    HW138129   2.059   2.540   6.686 -0.2892 -1.5248  1.1285
 8890SOL    HW238130   2.008   2.632   6.783  1.6702  0.6508 -1.7762
 8891SOL     OW38131   0.790   0.213  10.028  0.5286 -0.5656  0.1572
 8891SOL    HW138132   0.856   0.241   9.965 -0.6237 -0.8008 -1.1701
 8891SOL    HW238133   0.734   0.289  10.046  0.1557 -1.0965  1.2602
 8892SOL     OW38134   3.455   2.680   8.354  0.1222  0.0767 -1.2314
 8892SOL    HW138135   3.391   2.650   8.289  2.2195 -1.4729 -2.5825
 8892SOL    HW238136   3.407   2.689   8.437 -0.6688  0.3144 -1.7124
 8893SOL     OW38137   1.717   4.562   1.875 -0.4076  0.0553 -0.0666
 8893SOL    HW138138   1.694   4.649   1.842 -3.0900 -0.3378  0.7660
 8893SOL    HW238139   1.795   4.581   1.928 -0.5654  1.0688 -0.2019
 8894SOL     OW38140   4.099   4.286   7.680  0.0055  0.4482  0.0624
 8894SOL    HW138141   4.064   4.197   7.670  1.5600 -0.3079  1.2723
 8894SOL    HW238142   4.047   4.332   7.614  0.0970  0.9094  0.3132
 8895SOL     OW38143   3.220   0.037   4.702  0.1948  0.5315  0.2031
 8895SOL    HW138144   3.213   0.002   4.613 -1.1301  0.3026  0.3942
 8895SOL    HW238145   3.257   4.690   4.752  1.6552 -0.1908 -1.9393
 8896SOL     OW38146   3.011   0.490  12.419 -0.2251 -0.1887 -0.7132
 8896SOL    HW138147   2.991   0.428  12.349  0.1145 -0.9413 -0.1372
 8896SOL    HW238148   2.948   0.473  12.489 -1.1562  1.8291 -1.0724
 8897SOL     OW38149   2.752   0.809   3.168 -0.3477  0.0987  0.8739
 8897SOL    HW138150   2.689   0.881   3.163 -1.4581 -1.0437 -1.5955
 8897SOL    HW238151   2.832   0.860   3.180 -0.7755  1.0488 -0.3687
 8898SOL     OW38152   1.599   3.858   3.891 -0.4071 -0.3524 -0.5709
 8898SOL    HW138153   1.635   3.945   3.874 -1.8821  0.4775  0.5218
 8898SOL    HW238154   1.598   3.865   3.986 -2.5189  0.0949 -0.6285
 8899SOL     OW38155   1.427   1.366   7.887 -0.0847 -0.1546 -1.0074
 8899SOL    HW138156   1.341   1.344   7.851 -0.7185  1.7449 -0.6715
 8899SOL    HW238157   1.458   1.278   7.910 -0.9170  0.0439  0.8660
 8900SOL     OW38158   2.245   1.699   4.766  0.7044  0.1957  0.0167
 8900SOL    HW138159   2.234   1.605   4.780  2.4874 -0.0357 -0.0736
 8900SOL    HW238160   2.337   1.702   4.794  0.7317 -0.5410  0.0288
 8901SOL     OW38161   0.628   2.630  14.552 -0.0311 -0.0379 -0.1626
 8901SOL    HW138162   0.544   2.677  14.554  0.9877  1.8243 -1.1723
 8901SOL    HW238163   0.645   2.632  14.458 -0.6320 -0.9115 -0.2859
 8902SOL     OW38164   3.676   1.980   2.430 -0.3206  0.1802  0.5186
 8902SOL    HW138165   3.678   1.968   2.525 -3.0910 -1.8074  0.3316
 8902SOL    HW238166   3.748   1.923   2.403 -3.1289 -2.9933 -0.3216
 8903SOL     OW38167   1.517   0.252   8.141  0.1105 -0.5355  0.0023
 8903SOL    HW138168   1.593   0.282   8.192 -0.1630  0.7440 -0.3396
 8903SOL    HW238169   1.563   0.241   8.057 -0.4158 -2.8775  0.0274
 8904SOL     OW38170   1.119   1.621   2.599 -0.1686 -0.0021  0.4599
 8904SOL    HW138171   1.167   1.559   2.654 -2.8665 -1.2075  1.4746
 8904SOL    HW238172   1.153   1.703   2.634 -0.9003  0.3942  0.2533
 8905SOL     OW38173   3.005   1.911   8.123  0.0425  0.4276 -0.1081
 8905SOL    HW138174   3.039   2.001   8.132  0.0080  0.5380 -1.1396
 8905SOL    HW238175   2.930   1.915   8.182  0.5036  2.1173  0.3925
 8906SOL     OW38176   0.306   0.240  14.311 -0.2236  0.2362  0.1328
 8906SOL    HW138177   0.354   0.300  14.368  3.2691 -0.9499 -1.6015
 8906SOL    HW238178   0.378   0.179  14.296 -0.3565  0.0926  0.0819
 8907SOL     OW38179   2.409   1.995   6.173  0.4016 -0.5987 -0.3435
 8907SOL    HW138180   2.460   1.956   6.244 -1.0192 -0.3354  0.8295
 8907SOL    HW238181   2.425   1.940   6.096 -2.2434 -1.7692 -0.0914
 8908SOL     OW38182   3.246   4.706   9.706  0.7750  0.1257  0.0620
 8908SOL    HW138183   3.311   4.674   9.643 -0.0258 -0.3030 -0.5539
 8908SOL    HW238184   3.183   4.634   9.697 -0.8458  1.2230  2.5721
 8909SOL     OW38185   1.114   2.783   3.625  0.3091  0.0059  0.6741
 8909SOL    HW138186   1.109   2.820   3.714  2.0511  0.4259  0.5945
 8909SOL    HW238187   1.133   2.857   3.568  0.8207 -0.6522 -0.0118
 8910SOL     OW38188   3.437   2.686   5.775 -0.3369 -0.1290  0.3119
 8910SOL    HW138189   3.392   2.663   5.857  0.7227  1.7046  1.4098
 8910SOL    HW238190   3.516   2.723   5.813 -0.7054  1.9368 -0.9442
 8911SOL     OW38191   1.565   2.865   5.834  0.2550  0.6658  0.3920
 8911SOL    HW138192   1.516   2.845   5.754 -1.1748 -1.0364  1.7100
 8911SOL    HW238193   1.521   2.819   5.905 -0.4437 -0.9689 -1.1055
 8912SOL     OW38194   2.013   0.453  11.812 -0.0659 -0.0928 -0.1980
 8912SOL    HW138195   2.042   0.448  11.903  1.4065 -1.9381 -0.7682
 8912SOL    HW238196   2.077   0.517  11.781 -0.0024 -1.0516 -2.0606
 8913SOL     OW38197   0.756   1.324   4.711  0.0740 -0.0461 -0.5377
 8913SOL    HW138198   0.828   1.279   4.755 -0.8808  1.2701  2.3488
 8913SOL    HW238199   0.707   1.263   4.656 -0.8999 -0.3698  0.6957
 8914SOL     OW38200   2.528   4.574  13.796  0.8404 -0.2638  0.3708
 8914SOL    HW138201   2.500   4.578  13.888 -0.6071  2.2142 -0.1912
 8914SOL    HW238202   2.559   4.484  13.785 -1.1914 -0.9497  0.1700
 8915SOL     OW38203   0.410   1.405   5.513 -0.0388 -0.4871 -0.0219
 8915SOL    HW138204   0.499   1.439   5.512  0.2340 -1.1873  2.3293
 8915SOL    HW238205   0.373   1.493   5.506 -2.7487 -1.6604 -0.5642
 8916SOL     OW38206   2.414   4.013   7.854  0.1040  0.1893 -0.1942
 8916SOL    HW138207   2.337   3.957   7.852  0.6567 -0.5464 -0.5114
 8916SOL    HW238208   2.398   4.056   7.939 -0.9661  0.4791 -0.5467
 8917SOL     OW38209   3.395   4.325  14.860  0.1730  0.2015 -0.5152
 8917SOL    HW138210   3.375   4.386  14.789  0.4669 -0.9147 -1.5586
 8917SOL    HW238211   3.443   4.259  14.811  1.1347  0.5598 -0.0412
 8918SOL     OW38212   0.014   3.604   7.436  0.4519  0.2084 -0.2073
 8918SOL    HW138213   0.108   3.593   7.448  0.4023 -2.3394 -1.8770
 8918SOL    HW238214   0.007   3.699   7.444 -1.2805  0.0104  0.5844
 8919SOL     OW38215   4.583   2.420  14.492  0.2977 -0.2448  1.1550
 8919SOL    HW138216   4.521   2.348  14.506  0.7859 -0.8771  0.1532
 8919SOL    HW238217   4.638   2.410  14.569  0.3636  0.1321  1.1553
 8920SOL     OW38218   3.990   2.043   6.190  0.1129 -0.4281  0.7179
 8920SOL    HW138219   4.075   2.041   6.145 -0.6175  0.1133 -0.6970
 8920SOL    HW238220   4.012   2.071   6.279 -0.4317 -1.2499  1.1059
 8921SOL     OW38221   1.037   0.280   9.854  0.0235  0.4201  0.3374
 8921SOL    HW138222   1.094   0.211   9.888 -1.8229 -1.4736 -0.4289
 8921SOL    HW238223   1.076   0.309   9.772  1.4527 -3.9977 -0.5345
 8922SOL     OW38224   0.210   1.881  11.530 -0.0212 -0.2642 -0.0937
 8922SOL    HW138225   0.226   1.975  11.539  1.3697 -0.5861  0.8492
 8922SOL    HW238226   0.258   1.844  11.605  1.2867  1.6905  0.0314
 8923SOL     OW38227   0.062   2.906   5.145  0.2761 -0.1921  0.0375
 8923SOL    HW138228   0.154   2.881   5.134  0.0891 -0.1244 -1.6535
 8923SOL    HW238229   0.046   2.913   5.051 -0.6863 -0.6012  0.1719
 8924SOL     OW38230   1.841   4.213   7.688  0.6160 -0.1635 -0.1239
 8924SOL    HW138231   1.839   4.169   7.603 -0.1108  0.1222 -0.2529
 8924SOL    HW238232   1.937   4.217   7.696  0.4557  2.6556  0.3519
 8925SOL     OW38233   3.470   0.106  10.412  0.5128  0.3643  0.0791
 8925SOL    HW138234   3.405   0.065  10.355  0.4742  1.1836 -0.4581
 8925SOL    HW238235   3.512   0.032  10.455  0.7334  0.8771  0.7403
 8926SOL     OW38236   0.703   4.278   9.308  0.0233  0.9514 -0.1821
 8926SOL    HW138237   0.718   4.261   9.215  0.4932  0.1323  0.0377
 8926SOL    HW238238   0.781   4.325   9.336 -0.2575  1.2937  0.0213
 8927SOL     OW38239   4.203   2.932   5.204 -0.4819 -0.4121  0.2591
 8927SOL    HW138240   4.223   2.857   5.260 -2.1175 -2.3935 -1.8479
 8927SOL    HW238241   4.292   2.953   5.174 -0.7326  0.5875  0.2093
 8928SOL     OW38242   3.583   2.103   8.995  0.1812 -0.3251 -0.2358
 8928SOL    HW138243   3.600   2.128   8.904  0.5237 -1.0687 -0.3778
 8928SOL    HW238244   3.662   2.141   9.032 -0.0416 -0.2373  0.1457
 8929SOL     OW38245   3.921   0.712   7.957 -0.3577  0.2166 -0.3594
 8929SOL    HW138246   3.868   0.636   7.934 -0.6249  0.0759  0.7318
 8929SOL    HW238247   4.000   0.664   7.982 -0.7553  1.1132  2.5992
 8930SOL     OW38248   3.025   2.203   7.151  0.2748 -0.2860  0.1505
 8930SOL    HW138249   2.948   2.148   7.166  1.9293 -2.6141  0.0897
 8930SOL    HW238250   3.023   2.212   7.056 -0.0120  0.0110  0.1831
 8931SOL     OW38251   2.752   2.305  14.398  0.5674  0.1131 -0.1127
 8931SOL    HW138252   2.733   2.365  14.470 -0.2924 -0.4933  0.1647
 8931SOL    HW238253   2.675   2.315  14.341 -0.3775  0.4353  1.2201
 8932SOL     OW38254   1.720   1.798   9.176 -0.5744  0.3994  0.3987
 8932SOL    HW138255   1.639   1.768   9.134 -0.3063 -0.0387  0.1877
 8932SOL    HW238256   1.719   1.880   9.127  2.5623 -0.7171 -1.5230
 8933SOL     OW38257   4.543   1.203   7.275 -0.6449  0.1393 -0.1882
 8933SOL    HW138258   4.558   1.282   7.224 -3.4398  1.1432  0.5441
 8933SOL    HW238259   4.465   1.170   7.231  0.0485  0.6166 -1.7781
 8934SOL     OW38260   0.021   0.298   8.121 -0.1457  0.0037 -0.7777
 8934SOL    HW138261   0.035   0.382   8.077 -0.3364  0.7986  0.6514
 8934SOL    HW238262   0.111   0.272   8.140  1.5122  3.9423 -3.3672
 8935SOL     OW38263   1.960   4.496  16.771  0.1931  0.2012 -0.3502
 8935SOL    HW138264   2.027   4.564  16.761 -0.6148  1.5490  3.1041
 8935SOL    HW238265   1.887   4.554  16.793 -0.5216 -0.3102 -1.3921
 8936SOL     OW38266   2.891   0.161   4.014 -0.4415 -0.0964 -0.9350
 8936SOL    HW138267   2.968   0.173   4.070 -1.2720 -0.8790  0.3963
 8936SOL    HW238268   2.908   0.209   3.933  1.8430  1.0198  0.2158
 8937SOL     OW38269   1.300   0.300   4.096  0.2858  0.6160 -0.3956
 8937SOL    HW138270   1.261   0.217   4.070  0.2930 -0.1776  2.1080
 8937SOL    HW238271   1.394   0.291   4.105 -0.1592 -0.9523  2.6645
 8938SOL     OW38272   1.274   0.681   0.103 -0.6894  0.2105  0.7912
 8938SOL    HW138273   1.308   0.650   0.020 -0.9221  0.2362  0.6870
 8938SOL    HW238274   1.257   0.773   0.082 -1.7303 -0.3737 -0.9150
 8939SOL     OW38275   1.824   3.280  10.910  0.8945  0.2455  0.1784
 8939SOL    HW138276   1.889   3.226  10.956  0.1932 -0.2844  0.5481
 8939SOL    HW238277   1.771   3.309  10.984 -0.1698 -3.4750  0.8486
 8940SOL     OW38278   3.258   2.443   8.010  0.3729  0.1414 -0.1819
 8940SOL    HW138279   3.317   2.519   8.017 -0.9434  1.2262 -0.8513
 8940SOL    HW238280   3.245   2.435   8.105  0.2825 -1.2412 -0.3154
 8941SOL     OW38281   3.493   1.949   0.432  0.0106  0.0065  0.1219
 8941SOL    HW138282   3.496   1.934   0.527 -0.7370 -2.7756 -0.2857
 8941SOL    HW238283   3.400   1.971   0.437 -0.5939 -2.5522  0.5624
 8942SOL     OW38284   0.713   0.162  14.677  0.3516  0.5226 -0.4275
 8942SOL    HW138285   0.734   0.235  14.618  2.3986 -0.4915 -0.9668
 8942SOL    HW238286   0.787   0.175  14.736  1.5732 -2.9346 -1.2463
 8943SOL     OW38287   3.267   1.273   4.268 -0.2957  0.5913 -0.0552
 8943SOL    HW138288   3.212   1.351   4.258  0.2209  1.0746  0.9193
 8943SOL    HW238289   3.349   1.308   4.235 -0.0225 -0.3129 -0.3278
 8944SOL     OW38290   3.641   1.614  16.282 -0.4573 -0.8485 -0.4150
 8944SOL    HW138291   3.603   1.539  16.237 -2.1352 -0.8877  1.0539
 8944SOL    HW238292   3.566   1.655  16.325  0.3150  0.8993 -0.7413
 8945SOL     OW38293   2.664   1.469   3.358  0.0432  0.2481  0.3984
 8945SOL    HW138294   2.639   1.555   3.324  0.3264  1.1327  2.3939
 8945SOL    HW238295   2.757   1.483   3.373  0.0379 -1.8843  2.4473
 8946SOL     OW38296   2.090   4.516   6.361 -0.6274  0.5405  1.0911
 8946SOL    HW138297   2.104   4.447   6.296 -3.0166  2.4925 -1.5368
 8946SOL    HW238298   1.995   4.501   6.369 -0.5250 -0.9253 -0.5146
 8947SOL     OW38299   3.120   1.541   3.769 -0.0330  0.1802  0.1349
 8947SOL    HW138300   3.177   1.597   3.821 -0.5784  0.6576  0.2196
 8947SOL    HW238301   3.051   1.539   3.835 -0.9922  0.3315 -0.8638
 8948SOL     OW38302   2.945   1.789   2.815 -0.9040  0.0911 -0.0302
 8948SOL    HW138303   2.925   1.880   2.836 -0.9175  0.2592 -0.7773
 8948SOL    HW238304   2.908   1.786   2.727  1.0006 -0.0269 -0.8300
 8949SOL     OW38305   0.638   4.293   4.851 -0.0963 -0.1521  0.2049
 8949SOL    HW138306   0.632   4.329   4.762  1.1647  1.3747  0.7354
 8949SOL    HW238307   0.730   4.280   4.872  0.5965  2.8439 -0.9697
 8950SOL     OW38308   3.301   4.338   4.144  0.3555 -0.1158 -0.3288
 8950SOL    HW138309   3.370   4.300   4.090  0.4122 -1.0448  0.3932
 8950SOL    HW238310   3.226   4.342   4.084  0.1341 -0.7226 -0.0942
 8951SOL     OW38311   3.087   1.954  11.755 -0.0652 -0.1816 -0.5481
 8951SOL    HW138312   3.096   1.994  11.669  1.8126  1.1863  0.2776
 8951SOL    HW238313   2.994   1.932  11.744  0.4744 -1.0201 -3.3730
 8952SOL     OW38314   1.233   2.974   6.480  0.0406 -0.4313  0.5208
 8952SOL    HW138315   1.317   2.930   6.491  0.7111  0.2977 -1.6128
 8952SOL    HW238316   1.241   3.016   6.395 -2.9084 -1.2473 -0.1581
 8953SOL     OW38317   0.152   1.683   2.795 -0.1647 -0.3937  0.0689
 8953SOL    HW138318   0.157   1.652   2.705 -0.2686  1.3147 -0.5265
 8953SOL    HW238319   0.244   1.679   2.822 -1.0190 -0.0470  2.9955
 8954SOL     OW38320   0.996   1.726  15.458  0.3056 -0.6476  0.1218
 8954SOL    HW138321   0.987   1.672  15.380 -1.2627  0.1386 -0.2537
 8954SOL    HW238322   1.080   1.699  15.494 -0.7858 -0.7273  2.6302
 8955SOL     OW38323   2.805   1.464  15.445  0.5291 -0.1984 -0.2101
 8955SOL    HW138324   2.734   1.527  15.431  0.4614 -0.1420  0.4308
 8955SOL    HW238325   2.861   1.472  15.367  0.7784 -0.7653 -0.0894
 8956SOL     OW38326   4.098   1.497   7.171 -0.3994 -0.0831  0.9427
 8956SOL    HW138327   4.099   1.584   7.211  3.0192  0.1161  0.4696
 8956SOL    HW238328   4.044   1.450   7.234 -1.3103 -0.0415  0.1948
 8957SOL     OW38329   1.232   4.431   4.488 -0.2563  0.0344  0.3290
 8957SOL    HW138330   1.257   4.505   4.544  0.3296  0.6519 -0.7570
 8957SOL    HW238331   1.143   4.423   4.522 -0.4537  1.8309  0.2526
 8958SOL     OW38332   0.658   2.166   2.192  0.2918 -0.5630 -0.7379
 8958SOL    HW138333   0.607   2.102   2.242 -0.0233 -0.1271 -0.4985
 8958SOL    HW238334   0.640   2.147   2.100 -0.3083 -1.8711 -0.3458
 8959SOL     OW38335   1.136   1.216   8.712  0.1142  0.1876  0.5638
 8959SOL    HW138336   1.093   1.302   8.717 -1.2250 -0.3232 -2.1084
 8959SOL    HW238337   1.203   1.234   8.645 -2.0079  1.9093 -1.1122
 8960SOL     OW38338   0.982   3.315   4.717 -0.1383 -0.0303 -0.2825
 8960SOL    HW138339   1.058   3.341   4.666  1.4159 -0.9814  1.5568
 8960SOL    HW238340   1.024   3.242   4.763  0.1273  0.4062  0.1708
 8961SOL     OW38341   2.394   2.611   7.927  0.5339 -0.3572 -0.0914
 8961SOL    HW138342   2.351   2.674   7.986 -0.3191  0.1144 -1.2275
 8961SOL    HW238343   2.488   2.621   7.943  0.5068 -1.0422  0.5002
 8962SOL     OW38344   0.507   1.772   6.981 -0.0277 -0.3685  0.0429
 8962SOL    HW138345   0.546   1.686   6.966 -0.0459 -0.3131 -0.3272
 8962SOL    HW238346   0.560   1.812   7.050 -0.6279 -2.4867  1.7605
 8963SOL     OW38347   2.759   3.792   5.794 -0.4473 -0.3031 -0.1337
 8963SOL    HW138348   2.666   3.806   5.775 -0.6170 -0.1134  0.8315
 8963SOL    HW238349   2.787   3.702   5.773 -0.8022 -0.4355 -0.0428
 8964SOL     OW38350   0.172   3.842  13.633 -0.1663  0.4394  0.0245
 8964SOL    HW138351   0.168   3.785  13.556 -2.3660  2.3100 -1.2237
 8964SOL    HW238352   0.245   3.798  13.676  1.6718  1.1780 -2.3548
 8965SOL     OW38353   1.445   1.904   5.128 -0.5622 -0.1840 -0.0635
 8965SOL    HW138354   1.465   1.928   5.219  0.3198  0.8678 -0.5360
 8965SOL    HW238355   1.448   1.994   5.097 -1.5616 -0.3024 -0.5024
 8966SOL     OW38356   3.454   1.578   9.953 -0.2861  0.0585 -0.2264
 8966SOL    HW138357   3.480   1.622   9.872  1.0991 -0.4748 -0.0650
 8966SOL    HW238358   3.525   1.514   9.963  0.5559  0.4914 -3.4601
 8967SOL     OW38359   3.128   0.459   4.153  0.2818  0.6812 -0.4769
 8967SOL    HW138360   3.192   0.432   4.087 -1.7461 -1.9202 -1.3394
 8967SOL    HW238361   3.095   0.375   4.183  1.4743  0.8850  1.4387
 8968SOL     OW38362   2.757   0.354   7.153  0.0881  0.2079 -0.3086
 8968SOL    HW138363   2.682   0.356   7.093  0.4646  0.5807 -0.7681
 8968SOL    HW238364   2.824   0.402   7.105 -1.2410  0.2467 -2.1358
 8969SOL     OW38365   0.523   4.642   4.271 -0.0718  0.0375 -0.2717
 8969SOL    HW138366   0.481   4.645   4.357 -0.2077 -4.0534 -0.2210
 8969SOL    HW238367   0.457   4.693   4.224 -0.3195  1.7431  1.8834
 8970SOL     OW38368   0.705   0.080   4.163 -0.5817  0.3758 -0.5702
 8970SOL    HW138369   0.647   0.018   4.209 -0.4107  0.5714 -0.0919
 8970SOL    HW238370   0.644   0.139   4.118  0.6900  1.7993 -0.3964
 8971SOL     OW38371   1.681   0.829   5.026  0.0822  0.3085 -0.4244
 8971SOL    HW138372   1.769   0.866   5.013  1.2339 -1.2799  2.8268
 8971SOL    HW238373   1.635   0.901   5.071  1.2754 -0.1663  1.5809
 8972SOL     OW38374   0.279   4.635   6.875 -0.1375 -0.4391  0.0549
 8972SOL    HW138375   0.364   4.615   6.915 -0.3737 -0.6337  0.4586
 8972SOL    HW238376   0.222   4.623   6.952  0.6968 -2.7428  0.3221
 8973SOL     OW38377   3.233   1.344  17.039 -0.0937  0.1190  0.3275
 8973SOL    HW138378   3.183   1.378  16.964  0.0198 -0.3209  0.0490
 8973SOL    HW238379   3.178   1.353  17.116 -3.3795 -4.0855 -1.5493
 8974SOL     OW38380   3.190   0.125   8.266  0.4626  0.2182 -0.0655
 8974SOL    HW138381   3.159   0.184   8.334 -0.7349  2.0905 -2.2100
 8974SOL    HW238382   3.145   0.162   8.190 -2.1773  0.0207  1.3937
 8975SOL     OW38383   2.588   4.184   5.460 -0.2392 -0.3440 -0.0355
 8975SOL    HW138384   2.677   4.158   5.486  0.2744  0.1402 -1.3397
 8975SOL    HW238385   2.557   4.246   5.527  0.4387  0.6154 -0.6104
 8976SOL     OW38386   0.263   3.068  17.226  0.7969  0.5692  0.3384
 8976SOL    HW138387   0.275   3.005  17.297 -0.5625 -0.4044 -0.3001
 8976SOL    HW238388   0.230   3.139  17.281  2.0916 -0.5047  2.4854
 8977SOL     OW38389   1.250   2.343   0.622 -0.1768 -0.5298  0.6516
 8977SOL    HW138390   1.241   2.401   0.547  1.7048 -1.1745 -0.0967
 8977SOL    HW238391   1.171   2.366   0.670 -0.6430  2.5668 -1.6165
 8978SOL     OW38392   0.417   0.146   1.342 -0.0741  0.2790 -0.3088
 8978SOL    HW138393   0.488   0.208   1.360  0.3008  0.2977 -1.8232
 8978SOL    HW238394   0.434   0.100   1.424  1.4435  0.1541 -0.6822
 8979SOL     OW38395   1.630   3.617   4.613  0.0538  0.0015 -0.7270
 8979SOL    HW138396   1.672   3.554   4.555  0.7100 -1.2022  1.0204
 8979SOL    HW238397   1.570   3.665   4.556  0.0113 -0.0316 -0.7104
 8980SOL     OW38398   1.951   3.586   2.801  0.2643  0.0629 -0.4338
 8980SOL    HW138399   1.999   3.509   2.769  0.6979  1.0775 -2.1949
 8980SOL    HW238400   1.939   3.618   2.712  1.4765 -0.1371 -0.6765
 8981SOL     OW38401   3.222   4.280  11.272 -0.2224  0.3573 -0.3820
 8981SOL    HW138402   3.250   4.340  11.341 -2.4093  0.6934  0.2157
 8981SOL    HW238403   3.310   4.249  11.248 -0.1844  1.1793 -1.3399
 8982SOL     OW38404   3.092   3.742   8.295 -0.3394  0.6964 -0.4678
 8982SOL    HW138405   3.186   3.763   8.297 -0.4165  1.1190 -1.2939
 8982SOL    HW238406   3.089   3.693   8.377  0.2428 -0.0774 -0.9011
 8983SOL     OW38407   3.838   0.972   6.551  0.1705 -0.3638  0.0029
 8983SOL    HW138408   3.812   0.974   6.643  1.2921  0.2661  0.3013
 8983SOL    HW238409   3.887   1.049   6.523 -1.0592  0.0157 -1.1699
 8984SOL     OW38410   2.044   1.992   4.106  0.1794 -0.1197 -0.1883
 8984SOL    HW138411   2.122   2.045   4.120  2.1837 -3.6041  1.8736
 8984SOL    HW238412   1.974   2.029   4.160 -0.2996  0.2993 -1.0920
 8985SOL     OW38413   0.300   4.678   6.583 -0.2623  0.0794 -0.2832
 8985SOL    HW138414   0.297   4.583   6.574 -1.3331  0.0612  0.3375
 8985SOL    HW238415   0.296   4.683   6.679  0.8049  3.0400 -0.3789
 8986SOL     OW38416   1.504   1.051   7.755 -0.3016  0.1579 -0.0308
 8986SOL    HW138417   1.450   0.987   7.709 -0.0309 -1.5371  1.9715
 8986SOL    HW238418   1.593   1.025   7.729 -0.3826  0.0841 -0.2370
 8987SOL     OW38419   1.775   0.825  15.997  0.3137 -0.0308 -0.0481
 8987SOL    HW138420   1.814   0.899  16.045 -2.5316  0.4831  1.4701
 8987SOL    HW238421   1.721   0.848  15.922  0.8129 -0.5421 -0.5557
 8988SOL     OW38422   2.248   0.468   8.157  0.0168 -0.5467 -0.1115
 8988SOL    HW138423   2.317   0.530   8.137 -0.2745  0.2746  1.4254
 8988SOL    HW238424   2.274   0.425   8.238  0.7537  0.4722  0.1862
 8989SOL     OW38425   4.009   4.607   7.754 -0.3228 -0.2750 -0.2397
 8989SOL    HW138426   3.925   4.569   7.781 -0.0040 -1.2039 -0.5420
 8989SOL    HW238427   3.977   4.653   7.676 -1.0189 -0.7796 -0.2578
 8990SOL     OW38428   1.393   2.871   1.162  0.0769 -0.3730  0.0986
 8990SOL    HW138429   1.383   2.837   1.073  0.3958  1.7801 -0.7586
 8990SOL    HW238430   1.474   2.830   1.191 -0.3926  0.8662  3.1843
 8991SOL     OW38431   4.024   4.634   8.922 -0.1196  0.2059  0.0247
 8991SOL    HW138432   4.075   4.556   8.897 -0.3222  0.3490 -0.8414
 8991SOL    HW238433   4.014   4.598   9.010  1.0929  0.7900  0.3886
 8992SOL     OW38434   2.214   1.389   6.157  0.1492  0.4074 -0.4002
 8992SOL    HW138435   2.292   1.429   6.197  2.0146 -1.7661 -1.8440
 8992SOL    HW238436   2.163   1.371   6.236 -1.2876 -1.1746 -1.6991
 8993SOL     OW38437   2.987   2.837   9.588  0.0717  0.1245 -0.1021
 8993SOL    HW138438   2.920   2.820   9.654  0.9838 -0.8278  0.5835
 8993SOL    HW238439   2.952   2.917   9.548  1.9124 -0.3126 -2.6409
 8994SOL     OW38440   0.113   1.582   4.208 -0.1972 -0.0423  0.5455
 8994SOL    HW138441   0.038   1.596   4.150  1.2651  0.6517 -1.1800
 8994SOL    HW238442   0.124   1.488   4.195 -0.5287 -0.1680  1.2030
 8995SOL     OW38443   2.217   2.226   5.808  0.2578  0.1707 -0.5612
 8995SOL    HW138444   2.150   2.178   5.857  2.2346  0.6036  2.5938
 8995SOL    HW238445   2.241   2.161   5.742 -2.3323 -1.2962 -0.0686
 8996SOL     OW38446   0.029   2.145   8.678 -0.3484  0.0764 -0.2247
 8996SOL    HW138447   0.017   2.084   8.751  1.7714  0.3508  0.3527
 8996SOL    HW238448   4.686   2.208   8.698 -0.6387  0.1497 -1.4943
 8997SOL     OW38449   0.439   1.675  15.226 -0.4083 -0.2753 -0.0363
 8997SOL    HW138450   0.392   1.758  15.216  0.6421  0.5250  1.6085
 8997SOL    HW238451   0.406   1.634  15.146  0.2064 -0.7341 -0.0594
 8998SOL     OW38452   1.127   0.700   3.965  0.5112 -0.1106  0.5264
 8998SOL    HW138453   1.047   0.654   3.940  0.6201 -1.3132  2.3331
 8998SOL    HW238454   1.193   0.634   3.941  3.1975  2.2834  1.4047
 8999SOL     OW38455   2.099   2.478   2.509 -0.0561  0.2136  0.5298
 8999SOL    HW138456   2.168   2.494   2.444 -0.7893  0.6070 -0.1463
 8999SOL    HW238457   2.107   2.562   2.553 -1.1439  1.3063 -1.3577
 9000SOL     OW38458   4.538   4.097   6.952 -0.0646  0.0026  0.3239
 9000SOL    HW138459   4.562   4.181   6.911 -0.6703  0.4207  0.8260
 9000SOL    HW238460   4.481   4.139   7.016 -0.1028 -1.0889  0.9917
 9001SOL     OW38461   4.131   1.614   5.324 -0.3199 -0.5059 -0.4806
 9001SOL    HW138462   4.123   1.683   5.259  0.4466  0.3425  0.3333
 9001SOL    HW238463   4.220   1.622   5.358 -0.8927 -1.1624  1.2003
 9002SOL     OW38464   2.049   3.744   9.539  0.2800  0.3885  0.3456
 9002SOL    HW138465   1.959   3.773   9.522  0.7011  0.9176 -0.9980
 9002SOL    HW238466   2.042   3.684   9.613  3.7294 -1.5321 -0.9031
 9003SOL     OW38467   3.931   2.781   0.145  0.3044 -0.7847  0.2624
 9003SOL    HW138468   3.853   2.727   0.158 -2.6659  3.4924  0.2521
 9003SOL    HW238469   3.984   2.790   0.224  0.8144  1.9037 -0.3800
 9004SOL     OW38470   3.212   1.989   4.030 -0.0233 -0.7685  0.1337
 9004SOL    HW138471   3.232   1.984   4.123 -0.9451 -3.4402  0.2052
 9004SOL    HW238472   3.278   2.056   4.013 -0.9600  0.4532  1.4399
 9005SOL     OW38473   2.209   1.206   9.555  0.0394 -0.1766  0.0035
 9005SOL    HW138474   2.186   1.298   9.571  2.8540  0.2989  1.2435
 9005SOL    HW238475   2.290   1.206   9.606  1.7335 -0.6492 -2.7300
 9006SOL     OW38476   0.559   2.616   6.692  0.1356 -0.2629  0.0575
 9006SOL    HW138477   0.487   2.602   6.754  0.0303 -0.5366 -0.1248
 9006SOL    HW238478   0.605   2.693   6.726  0.2725 -0.6720  0.8048
 9007SOL     OW38479   3.619   4.132   0.504  0.4089  0.2566 -0.0616
 9007SOL    HW138480   3.662   4.049   0.484 -1.3078 -1.2494  2.5212
 9007SOL    HW238481   3.691   4.190   0.478  0.7720  1.7774  4.3081
 9008SOL     OW38482   0.988   3.073  12.397  0.2640 -0.2361 -0.6534
 9008SOL    HW138483   0.991   3.156  12.444 -2.0291 -0.3846 -0.2566
 9008SOL    HW238484   1.079   3.044  12.390  0.6904  1.0260 -0.2794
 9009SOL     OW38485   1.680   1.745   3.815 -0.1281 -0.0494  0.1521
 9009SOL    HW138486   1.728   1.821   3.846 -1.3793  0.7076  0.2282
 9009SOL    HW238487   1.754   1.685   3.810 -0.4432 -0.3881 -0.4247
 9010SOL     OW38488   3.516   1.418  16.112  0.3814  0.8385  0.0798
 9010SOL    HW138489   3.589   1.356  16.117  0.2902  0.6490 -1.0330
 9010SOL    HW238490   3.544   1.456  16.029  0.7891  2.1362  0.8013
 9011SOL     OW38491   1.135   0.678  12.826  0.1322  0.1095  0.1961
 9011SOL    HW138492   1.214   0.637  12.861 -0.8771 -0.9647  1.2206
 9011SOL    HW238493   1.089   0.691  12.909 -2.5672  3.5270 -1.7970
 9012SOL     OW38494   1.457   1.350   4.764  0.2744  0.3210  0.5130
 9012SOL    HW138495   1.502   1.406   4.827  0.0653 -0.4229  1.3272
 9012SOL    HW238496   1.449   1.401   4.684 -1.9770 -0.0498  0.4992
 9013SOL     OW38497   3.913   0.256   7.348  0.0058  0.4602 -0.1007
 9013SOL    HW138498   3.996   0.248   7.302  0.4393  1.3410  0.5263
 9013SOL    HW238499   3.882   0.341   7.317  1.4000  1.4698  1.2348
 9014SOL     OW38500   1.434   2.085  17.562 -0.6476 -0.1214  0.2396
 9014SOL    HW138501   1.454   2.177  17.543  3.1397 -0.9697 -0.0309
 9014SOL    HW238502   1.415   2.047  17.477  0.1141  1.2816 -0.5548
 9015SOL     OW38503   1.005   0.486  16.239  0.3370  0.8780  0.3158
 9015SOL    HW138504   1.058   0.435  16.300 -0.0793 -1.7969 -1.5660
 9015SOL    HW238505   0.986   0.566  16.288  0.9356  1.6389 -0.6926
 9016SOL     OW38506   0.039   0.432  13.841 -0.1814 -0.5164  0.0303
 9016SOL    HW138507   4.678   0.395  13.828 -0.9922  1.2687  0.4830
 9016SOL    HW238508   0.077   0.420  13.754 -0.4366  0.5659 -0.2284
 9017SOL     OW38509   3.315   4.707  12.978  0.2961  0.6916  0.0144
 9017SOL    HW138510   3.390   0.019  13.023  1.0211 -1.1288  0.3562
 9017SOL    HW238511   3.261   0.057  12.959  1.5611  1.5914 -0.0166
 9018SOL     OW38512   3.960   3.493   5.764 -0.8385  0.4735 -0.7172
 9018SOL    HW138513   4.038   3.484   5.818  0.8595 -2.9301 -3.6908
 9018SOL    HW238514   3.979   3.566   5.705 -1.0471  1.1663  0.0715
 9019SOL     OW38515   3.811   1.912   4.817 -0.2151 -0.3938 -0.2959
 9019SOL    HW138516   3.818   1.822   4.784  1.0467 -1.7678  3.8123
 9019SOL    HW238517   3.716   1.918   4.806 -0.0520  0.4182 -1.2728
 9020SOL     OW38518   4.543   1.728   6.563  0.2535 -0.5761  0.0240
 9020SOL    HW138519   4.508   1.723   6.652  0.5079 -1.4059  0.0712
 9020SOL    HW238520   4.551   1.635   6.542  1.9966 -0.6355  0.9457
 9021SOL     OW38521   2.895   3.329   9.398 -0.0864  0.0725 -0.2879
 9021SOL    HW138522   2.883   3.397   9.331  1.1180  1.2803  0.7095
 9021SOL    HW238523   2.831   3.362   9.463 -0.5039  0.6700 -0.9963
 9022SOL     OW38524   1.294   2.793   1.925 -0.5760  0.1924 -0.2247
 9022SOL    HW138525   1.241   2.731   1.974  0.0852  0.5426  0.9353
 9022SOL    HW238526   1.277   2.774   1.833 -0.7641  2.3658 -0.6274
 9023SOL     OW38527   0.610   0.819   3.723  0.3409  0.6842 -0.0757
 9023SOL    HW138528   0.559   0.901   3.718  2.3071  1.8880 -0.2607
 9023SOL    HW238529   0.684   0.850   3.672  0.6145 -0.2819 -0.2607
 9024SOL     OW38530   3.784   0.625   6.568  0.0336  0.2589  0.5633
 9024SOL    HW138531   3.775   0.672   6.485 -1.4232 -0.3235  0.4021
 9024SOL    HW238532   3.730   0.551   6.544  0.0560  0.7006 -0.8484
 9025SOL     OW38533   0.128   2.752   8.820  0.3596 -0.0323 -0.2710
 9025SOL    HW138534   0.129   2.684   8.753 -0.2533 -1.3335  1.0514
 9025SOL    HW238535   0.191   2.738   8.890 -0.8513  3.6860  1.5995
 9026SOL     OW38536   2.872   1.789   0.672 -0.1252 -0.3627  0.1374
 9026SOL    HW138537   2.850   1.875   0.708  0.8855  0.2968 -0.8488
 9026SOL    HW238538   2.795   1.765   0.622  0.3749  1.3518 -1.4378
 9027SOL     OW38539   3.310   2.465  15.193 -0.9524 -0.0012  0.0170
 9027SOL    HW138540   3.256   2.455  15.115 -1.0756 -1.3968  0.2922
 9027SOL    HW238541   3.299   2.558  15.214  0.5611  0.3667 -0.8040
 9028SOL     OW38542   4.024   0.436   3.852 -0.2363 -0.5982 -0.1038
 9028SOL    HW138543   3.967   0.410   3.924  2.9377 -2.0407  1.8833
 9028SOL    HW238544   4.089   0.491   3.896 -1.1342  0.1422  0.2881
 9029SOL     OW38545   4.471   4.471  12.548  0.5475  0.4621 -0.1040
 9029SOL    HW138546   4.543   4.417  12.515 -0.0593 -0.7820  0.6158
 9029SOL    HW238547   4.395   4.416  12.528  1.6041 -0.8155 -0.5922
 9030SOL     OW38548   3.967   2.676  13.938  0.1000  0.1607  0.3805
 9030SOL    HW138549   3.903   2.716  13.996  0.5202  0.1688  0.8434
 9030SOL    HW238550   3.965   2.581  13.952  2.1508  0.2191  1.1436
 9031SOL     OW38551   1.167   1.063   3.458 -0.1288 -0.0619  0.5386
 9031SOL    HW138552   1.108   0.988   3.465 -0.1833  0.0037  0.8021
 9031SOL    HW238553   1.252   1.024   3.478  0.8684  2.2285  0.7432
 9032SOL     OW38554   3.886   0.312   0.262 -0.6123 -0.3657  0.1895
 9032SOL    HW138555   3.890   0.258   0.341 -0.0316  0.4944  0.7403
 9032SOL    HW238556   3.791   0.310   0.247 -0.5446  2.7607 -0.4792
 9033SOL     OW38557   4.469   3.373  12.490 -0.1663  0.2164  0.1863
 9033SOL    HW138558   4.550   3.418  12.513 -0.2777 -0.0912  1.1760
 9033SOL    HW238559   4.491   3.280  12.495 -0.7570  0.0683  0.0462
 9034SOL     OW38560   1.279   1.775   7.581  0.0153  0.2415 -0.3621
 9034SOL    HW138561   1.300   1.728   7.500 -1.1015 -1.5144  0.3838
 9034SOL    HW238562   1.289   1.707   7.647 -1.2346  1.4080  1.0108
 9035SOL     OW38563   1.846   3.984   7.515 -0.0090 -0.1450 -0.0440
 9035SOL    HW138564   1.877   3.993   7.425 -0.6060 -0.7992 -0.3117
 9035SOL    HW238565   1.883   3.905   7.553  0.8121 -0.4547 -1.5034
 9036SOL     OW38566   0.432   3.184   3.527  0.2678  0.3350 -0.1005
 9036SOL    HW138567   0.357   3.243   3.524 -2.1940 -2.7520 -0.1050
 9036SOL    HW238568   0.416   3.152   3.616  1.3212  0.1723  0.0242
 9037SOL     OW38569   3.273   2.228   9.459 -0.0324  0.2993 -0.0799
 9037SOL    HW138570   3.181   2.216   9.436  0.1362  1.8248 -1.5545
 9037SOL    HW238571   3.259   2.238   9.553 -0.4821  0.8766 -0.2095
 9038SOL     OW38572   1.020   2.220   6.992  0.3115  0.1130 -1.0144
 9038SOL    HW138573   1.075   2.213   7.071  0.5003 -0.4753 -1.1997
 9038SOL    HW238574   0.934   2.239   7.028  1.2675 -0.0028  1.3322
 9039SOL     OW38575   0.299   0.310   2.437 -0.0783 -0.3199 -0.2077
 9039SOL    HW138576   0.228   0.284   2.377  0.6068  0.5076 -1.3833
 9039SOL    HW238577   0.297   0.241   2.503 -2.0003 -1.9962 -2.0301
 9040SOL     OW38578   2.732   2.968   9.604  0.0095  0.5603 -0.0017
 9040SOL    HW138579   2.769   3.050   9.636  1.8428 -0.5205  0.6199
 9040SOL    HW238580   2.681   2.946   9.682  0.9892  1.9416  1.0258
 9041SOL     OW38581   3.225   2.461   2.771 -0.4401  0.6262 -0.1918
 9041SOL    HW138582   3.214   2.556   2.770  2.1262  0.9425  1.1580
 9041SOL    HW238583   3.174   2.418   2.840 -2.7856  2.0955 -0.9991
 9042SOL     OW38584   1.517   3.534   2.880 -0.6446  0.4006  0.5611
 9042SOL    HW138585   1.447   3.562   2.821 -0.1199 -0.3793 -0.4158
 9042SOL    HW238586   1.467   3.558   2.959  0.0470  1.2534  0.7433
 9043SOL     OW38587   2.503   3.775   3.975 -0.7023 -0.2285 -0.0246
 9043SOL    HW138588   2.450   3.705   3.938 -1.1148  0.1256 -0.0989
 9043SOL    HW238589   2.572   3.717   4.007 -0.8773  0.6821  1.9722
 9044SOL     OW38590   4.423   4.354  11.727  0.4873 -0.2646 -0.3721
 9044SOL    HW138591   4.513   4.322  11.722  0.3267 -0.8137  0.3973
 9044SOL    HW238592   4.428   4.395  11.813 -0.2916  1.1716 -1.0227
 9045SOL     OW38593   0.528   1.710   7.539 -0.2178  0.0627 -0.4941
 9045SOL    HW138594   0.571   1.681   7.458 -0.1378  2.0586 -1.1679
 9045SOL    HW238595   0.604   1.699   7.597  0.1869  2.4956 -0.5610
 9046SOL     OW38596   4.473   1.334  12.691 -0.6321 -0.0888  0.9953
 9046SOL    HW138597   4.560   1.294  12.682 -1.6613 -2.1070  0.0786
 9046SOL    HW238598   4.486   1.413  12.639  0.3998 -1.2804 -0.5491
 9047SOL     OW38599   1.055   3.796   6.155 -0.5629  1.0679 -0.6397
 9047SOL    HW138600   1.124   3.842   6.202  0.3423  1.0864 -1.9740
 9047SOL    HW238601   0.981   3.857   6.159 -2.4075 -1.3757  1.7728
 9048SOL     OW38602   2.674   4.177   4.895 -0.1089 -0.2037  0.1807
 9048SOL    HW138603   2.663   4.267   4.863  0.1329 -1.3868 -3.2193
 9048SOL    HW238604   2.765   4.166   4.867 -0.3262 -2.8263  0.5781
 9049SOL     OW38605   3.621   3.955   4.404  0.0681 -0.0610 -0.0257
 9049SOL    HW138606   3.667   3.902   4.470  2.1185  0.5345 -0.9937
 9049SOL    HW238607   3.688   3.970   4.338 -1.2101  2.6196 -0.7369
 9050SOL     OW38608   4.602   2.944  17.360 -0.3849  0.6272  0.0473
 9050SOL    HW138609   4.652   2.963  17.439 -0.3216  1.3796 -0.1711
 9050SOL    HW238610   4.571   2.857  17.384  3.1865 -1.6601 -3.5968
 9051SOL     OW38611   3.342   1.485   2.595  0.0131  0.1562  0.1362
 9051SOL    HW138612   3.292   1.518   2.669  0.1590  0.1641  0.2328
 9051SOL    HW238613   3.412   1.550   2.600 -0.1169  0.3551 -0.5969
 9052SOL     OW38614   1.830   3.296  11.825  0.1612 -0.0397 -0.1629
 9052SOL    HW138615   1.895   3.245  11.776  0.4608  0.5105 -0.3411
 9052SOL    HW238616   1.891   3.363  11.857  1.7827 -0.9874 -1.2597
 9053SOL     OW38617   2.634   2.425   4.331 -0.2542  0.4253  0.0518
 9053SOL    HW138618   2.709   2.442   4.274  0.1151 -0.4791  0.2594
 9053SOL    HW238619   2.678   2.367   4.393  1.0280  0.8754 -0.4560
 9054SOL     OW38620   0.327   2.239   4.627 -0.1776 -0.1292  0.0113
 9054SOL    HW138621   0.241   2.239   4.583 -0.1319  0.1268 -0.0825
 9054SOL    HW238622   0.308   2.309   4.689 -1.3891  0.2013 -0.7244
 9055SOL     OW38623   1.567   0.029  13.399 -0.1054 -0.6413 -0.3517
 9055SOL    HW138624   1.653   0.007  13.437  0.9244  3.4614 -0.3606
 9055SOL    HW238625   1.573   4.702  13.320 -2.2660 -0.8268 -0.3887
 9056SOL     OW38626   2.149   4.401   8.961  0.4553  0.2665  0.2129
 9056SOL    HW138627   2.054   4.392   8.955  0.4867 -1.2746  2.1671
 9056SOL    HW238628   2.172   4.335   9.027  0.4201  1.6092  1.5739
 9057SOL     OW38629   3.034   4.148  14.109  0.5021  0.2225 -0.1412
 9057SOL    HW138630   3.012   4.190  14.026 -0.6447  0.0244  0.0685
 9057SOL    HW238631   3.047   4.231  14.154  0.8388 -0.4953  1.0875
 9058SOL     OW38632   4.501   2.292   8.198  0.4992 -0.3025 -0.3122
 9058SOL    HW138633   4.582   2.292   8.147  1.6259 -0.9192  1.4754
 9058SOL    HW238634   4.457   2.377   8.195  0.1972 -0.3503  2.8586
 9059SOL     OW38635   2.933   2.732   8.449  0.2764 -0.4532  0.1641
 9059SOL    HW138636   2.884   2.736   8.531 -0.4243 -1.3676 -0.2048
 9059SOL    HW238637   2.899   2.811   8.406 -2.3103 -1.5010  0.2478
 9060SOL     OW38638   3.766   3.534   2.597 -0.7164  0.2964  0.4542
 9060SOL    HW138639   3.752   3.442   2.616  1.7840 -0.6537 -2.2008
 9060SOL    HW238640   3.794   3.525   2.506 -1.5958  2.2743 -0.0257
 9061SOL     OW38641   3.632   3.741   7.795 -0.0996  0.1216 -0.3872
 9061SOL    HW138642   3.672   3.722   7.710  1.3485 -3.3015  1.0505
 9061SOL    HW238643   3.605   3.832   7.781  1.8201  1.0329  1.7576
 9062SOL     OW38644   2.699   0.029   6.600 -0.3268  0.2367  0.5142
 9062SOL    HW138645   2.636   4.697   6.558 -0.1893 -0.7969  1.7575
 9062SOL    HW238646   2.665   0.027   6.689 -3.9377  1.0343 -0.8519
 9063SOL     OW38647   2.330   0.616  10.655  0.1964 -0.1843  0.0507
 9063SOL    HW138648   2.387   0.550  10.696 -0.9093 -2.3916 -1.9201
 9063SOL    HW238649   2.237   0.602  10.672  0.3978 -0.8479  0.5990
 9064SOL     OW38650   0.086   1.322   3.661 -0.1989 -0.3638 -0.5342
 9064SOL    HW138651   0.119   1.327   3.750 -3.4023 -1.1040  0.7101
 9064SOL    HW238652   4.718   1.335   3.671 -0.2224 -1.8430  1.0507
 9065SOL     OW38653   3.248   3.278   6.480  0.1992  0.5007  0.4420
 9065SOL    HW138654   3.291   3.355   6.516  1.2477 -0.5147  1.3475
 9065SOL    HW238655   3.334   3.237   6.469  0.3738  1.0345 -0.2594
 9066SOL     OW38656   1.989   4.157   8.031 -0.0601 -0.2965  0.5780
 9066SOL    HW138657   2.018   4.171   7.941 -1.8590 -1.8329 -0.2493
 9066SOL    HW238658   2.024   4.241   8.061 -1.0390  0.3688 -0.1685
 9067SOL     OW38659   3.973   1.169  10.294 -0.2832  0.4030  0.5505
 9067SOL    HW138660   3.965   1.244  10.235  0.3753  0.9399  1.1505
 9067SOL    HW238661   4.063   1.181  10.322 -0.3013  1.1794  0.2732
 9068SOL     OW38662   3.324   2.568   7.373  0.1212  0.4200 -0.3603
 9068SOL    HW138663   3.368   2.503   7.427 -1.9919 -0.2332  0.5839
 9068SOL    HW238664   3.375   2.649   7.372 -0.2993  0.6972  0.7719
 9069SOL     OW38665   2.120   3.537   6.973 -0.0829 -0.4960 -0.0491
 9069SOL    HW138666   2.214   3.528   6.991 -0.4700 -4.0163  0.0514
 9069SOL    HW238667   2.124   3.603   6.903 -1.1168  0.6020  0.9373
 9070SOL     OW38668   3.417   2.879   4.559  0.4979 -0.2293 -0.1425
 9070SOL    HW138669   3.409   2.802   4.616 -3.1807  0.7750  0.6877
 9070SOL    HW238670   3.329   2.876   4.522  0.0357  1.5878  0.8033
 9071SOL     OW38671   0.407   0.248  13.730 -0.0557 -0.3491 -0.0977
 9071SOL    HW138672   0.385   0.341  13.736 -1.5031 -0.8432  2.4301
 9071SOL    HW238673   0.472   0.253  13.660  1.1350  0.2171  1.0507
 9072SOL     OW38674   0.545   3.612   4.633  0.0868  0.4442 -0.5068
 9072SOL    HW138675   0.481   3.613   4.562  0.7068 -1.3550 -1.0897
 9072SOL    HW238676   0.565   3.705   4.643  3.1514  0.0294 -3.0285
 9073SOL     OW38677   2.846   4.068   5.551  0.0025 -0.2530  0.1147
 9073SOL    HW138678   2.920   4.119   5.583 -0.8282  0.8711  0.2677
 9073SOL    HW238679   2.836   3.994   5.612  1.1446  0.3620  1.0398
 9074SOL     OW38680   0.714   4.234  13.372  0.8393  0.1087 -0.5195
 9074SOL    HW138681   0.673   4.163  13.322  0.3871 -1.0100  1.4731
 9074SOL    HW238682   0.692   4.299  13.305  0.3993  0.2558 -0.2271
 9075SOL     OW38683   0.830   3.624  11.231  0.3750  0.1453 -0.6466
 9075SOL    HW138684   0.856   3.578  11.151  0.0659  0.1659 -0.7580
 9075SOL    HW238685   0.906   3.622  11.289 -0.4440  1.3717  0.4702
 9076SOL     OW38686   4.475   1.425  12.275  0.4119  0.5862  0.1097
 9076SOL    HW138687   4.462   1.365  12.202  1.0415 -1.3859  1.6334
 9076SOL    HW238688   4.443   1.504  12.232 -0.3018 -1.3697 -2.9208
 9077SOL     OW38689   4.566   1.199  14.340  0.0045 -0.4175 -0.3295
 9077SOL    HW138690   4.510   1.260  14.294  0.3070  1.7170  2.1328
 9077SOL    HW238691   4.564   1.119  14.288 -0.6318 -1.3360  1.1156
 9078SOL     OW38692   1.678   1.741  17.383 -0.1601 -0.0859  0.4410
 9078SOL    HW138693   1.606   1.793  17.349  1.3651  1.4970 -0.3809
 9078SOL    HW238694   1.684   1.778  17.472 -0.3297 -1.1659  0.8975
 9079SOL     OW38695   0.612   3.067  15.645 -0.7064 -0.2045 -0.2131
 9079SOL    HW138696   0.536   3.012  15.623 -0.1754 -2.0177  2.4260
 9079SOL    HW238697   0.692   3.017  15.632 -1.1078 -0.8131 -0.3405
 9080SOL     OW38698   0.485   2.393  16.512  0.0590 -0.0372 -0.3537
 9080SOL    HW138699   0.423   2.397  16.586  0.6819  0.3214  0.1479
 9080SOL    HW238700   0.489   2.297  16.507  0.2373 -0.0530  0.0527
 9081SOL     OW38701   3.422   0.522   6.926 -0.5070  0.3830 -0.0297
 9081SOL    HW138702   3.469   0.447   6.889  0.3290  0.7537  0.2736
 9081SOL    HW238703   3.461   0.590   6.871  0.6032  0.0091  0.3031
 9082SOL     OW38704   0.257   1.615   6.782 -0.3031  0.6564  0.2422
 9082SOL    HW138705   0.203   1.550   6.736 -2.6967  2.0133  1.1108
 9082SOL    HW238706   0.336   1.621   6.729 -0.5252 -1.2001 -0.3007
 9083SOL     OW38707   4.060   1.476   1.050  0.5468 -0.8394 -0.2313
 9083SOL    HW138708   4.124   1.493   1.119 -1.1168  0.9084  0.8850
 9083SOL    HW238709   4.051   1.557   1.000  0.9065 -1.6006 -1.5257
 9084SOL     OW38710   1.634   4.716  10.872  0.0308  0.6162 -0.3223
 9084SOL    HW138711   1.658   4.627  10.846 -0.0789  0.7464 -0.8896
 9084SOL    HW238712   1.617   0.020  10.782 -1.0802 -1.4146 -0.7973
 9085SOL     OW38713   1.749   4.680   4.479 -0.4279  0.0040  0.3132
 9085SOL    HW138714   1.838   4.658   4.506 -0.1781 -0.5391 -0.9440
 9085SOL    HW238715   1.692   4.648   4.549 -1.8529  0.2642 -0.7156
 9086SOL     OW38716   4.721   2.887   4.877 -0.3299  1.0954 -0.5068
 9086SOL    HW138717   0.072   2.856   4.829 -0.0496  2.3485 -0.8526
 9086SOL    HW238718   4.677   2.939   4.810 -2.4390 -2.7064 -2.1186
 9087SOL     OW38719   2.875   3.068   5.628 -0.1533  0.1284  0.0295
 9087SOL    HW138720   2.966   3.099   5.629 -0.6011  1.4611 -0.3659
 9087SOL    HW238721   2.856   3.084   5.720  0.7149 -0.4949  0.3161
 9088SOL     OW38722   1.950   0.623   8.013  0.7669 -0.3228 -0.7981
 9088SOL    HW138723   1.997   0.703   7.988 -1.0820  0.8976 -0.3988
 9088SOL    HW238724   1.997   0.603   8.094  1.4685 -0.5863 -1.2743
 9089SOL     OW38725   2.871   3.927  11.655 -0.8282  1.0684  0.0540
 9089SOL    HW138726   2.815   3.997  11.688 -1.6218 -0.2613  1.5288
 9089SOL    HW238727   2.832   3.909  11.569  0.7781 -0.2048 -0.4122
 9090SOL     OW38728   2.420   1.028   2.267  0.2468 -0.0536  0.6818
 9090SOL    HW138729   2.478   0.994   2.335  1.4681 -0.1653 -0.4251
 9090SOL    HW238730   2.463   0.986   2.193  0.1192 -1.6620  1.5233
 9091SOL     OW38731   2.071   0.557   4.545  0.3676 -0.8458  0.5371
 9091SOL    HW138732   2.036   0.619   4.609  0.6952 -0.6865  0.5621
 9091SOL    HW238733   2.156   0.528   4.579  0.7230 -1.3802 -0.7978
 9092SOL     OW38734   2.262   4.509  13.660  0.0598 -0.3902  0.3966
 9092SOL    HW138735   2.320   4.452  13.608  1.4997  1.8887 -0.4993
 9092SOL    HW238736   2.331   4.562  13.701 -1.2479  2.3010 -0.8649
 9093SOL     OW38737   3.539   3.338   2.365 -0.4579 -0.1971 -0.1361
 9093SOL    HW138738   3.613   3.398   2.358 -0.6026  0.0137  0.1144
 9093SOL    HW238739   3.572   3.258   2.324 -0.8151 -1.4436  1.9951
 9094SOL     OW38740   3.130   2.157   8.897 -0.7938 -0.1283  0.2881
 9094SOL    HW138741   3.118   2.191   8.985  1.4977 -2.0853  1.3660
 9094SOL    HW238742   3.075   2.079   8.899 -0.4002 -0.3475  1.9460
 9095SOL     OW38743   1.976   1.506  11.407  0.1392 -0.0911 -0.4732
 9095SOL    HW138744   1.902   1.530  11.351 -1.1913 -1.0311  0.8850
 9095SOL    HW238745   2.012   1.585  11.446 -0.9202  1.3338 -2.4087
 9096SOL     OW38746   0.772   4.547   3.258 -0.5436  0.3521  0.0698
 9096SOL    HW138747   0.689   4.582   3.226 -1.4028 -2.2721 -0.5748
 9096SOL    HW238748   0.814   4.530   3.173 -0.2537  0.1872  0.2446
 9097SOL     OW38749   4.194   2.429   3.195  0.3198 -0.4005 -0.5387
 9097SOL    HW138750   4.195   2.506   3.138  2.1189 -0.0411 -0.0213
 9097SOL    HW238751   4.287   2.424   3.214  0.8852  0.2569 -3.0708
 9098SOL     OW38752   2.886   1.121   7.405 -0.1032 -0.4367 -0.1858
 9098SOL    HW138753   2.818   1.187   7.391 -1.9947 -2.7128 -1.7322
 9098SOL    HW238754   2.860   1.049   7.347 -1.2160  0.2501 -0.5338
 9099SOL     OW38755   2.496   4.616   3.749  0.3587  0.1541 -0.4595
 9099SOL    HW138756   2.463   4.702   3.725  0.6007  0.7895  1.4653
 9099SOL    HW238757   2.541   4.592   3.668  0.8628 -2.2280  0.5141
 9100SOL     OW38758   4.493   0.101   8.957 -0.1856  0.0941  0.1328
 9100SOL    HW138759   4.489   0.018   8.910 -0.2501 -0.6868  1.5193
 9100SOL    HW238760   4.402   0.094   8.987 -0.9922  0.6779 -2.2265
 9101SOL     OW38761   3.146   1.616  13.077  0.1874 -0.2590  0.1160
 9101SOL    HW138762   3.176   1.542  13.131 -0.3835  0.1554  1.0062
 9101SOL    HW238763   3.086   1.567  13.022 -1.0626  0.2598  1.0131
 9102SOL     OW38764   2.458   2.804   7.707 -0.4457  0.2613  0.3774
 9102SOL    HW138765   2.531   2.767   7.758  0.9742 -0.8726 -2.5080
 9102SOL    HW238766   2.398   2.780   7.777 -0.8561  1.0099  0.2814
 9103SOL     OW38767   3.264   2.328   8.717 -0.4058 -0.1053  0.0676
 9103SOL    HW138768   3.211   2.269   8.771 -0.7656  0.1743  0.0193
 9103SOL    HW238769   3.206   2.404   8.709 -3.6924 -2.6188  0.0062
 9104SOL     OW38770   1.266   2.115   4.651 -0.3783 -0.2592  0.2066
 9104SOL    HW138771   1.273   2.040   4.591  0.6020 -1.8546  2.3194
 9104SOL    HW238772   1.170   2.119   4.648 -0.4353 -1.2561  0.7040
 9105SOL     OW38773   3.214   0.985   9.464  0.0604  0.2793  0.1344
 9105SOL    HW138774   3.160   1.042   9.409  0.5715  1.8531  1.2463
 9105SOL    HW238775   3.275   1.033   9.520  1.1477 -1.1864  0.2095
 9106SOL     OW38776   0.102   2.255  17.606 -0.8364  0.1213  0.0460
 9106SOL    HW138777   0.103   2.166  17.642  0.8443 -0.0633 -0.4902
 9106SOL    HW238778   0.035   2.243  17.539 -1.2426  1.1393  0.2766
 9107SOL     OW38779   0.854   3.766  13.835  0.7462  0.3139 -0.6648
 9107SOL    HW138780   0.933   3.740  13.883  1.4684  2.1885 -0.8428
 9107SOL    HW238781   0.795   3.778  13.909  3.2630  1.2636  1.2069
 9108SOL     OW38782   2.486   1.447   5.929 -0.2140  0.5727  0.2981
 9108SOL    HW138783   2.432   1.526   5.928  0.2555  0.8674 -2.2083
 9108SOL    HW238784   2.491   1.428   5.835  1.0031  0.2608  0.4205
 9109SOL     OW38785   2.084   1.826   6.069 -0.5727  0.4803  0.0169
 9109SOL    HW138786   2.159   1.806   6.012 -1.1106 -0.1509 -0.4630
 9109SOL    HW238787   2.121   1.890   6.129  0.8133  1.0862 -1.4881
 9110SOL     OW38788   2.143   3.830   5.535  0.6647  0.3602 -0.2569
 9110SOL    HW138789   2.145   3.820   5.440  1.2768  0.6525 -0.2743
 9110SOL    HW238790   2.079   3.900   5.542 -0.2412 -0.4518 -0.4872
 9111SOL     OW38791   1.921   2.261  15.914  0.3556 -0.1252  0.3229
 9111SOL    HW138792   1.873   2.183  15.888 -0.2601 -0.0571  1.2605
 9111SOL    HW238793   1.866   2.295  15.984  0.3743  1.0211 -0.2175
 9112SOL     OW38794   2.852   1.443   3.110 -0.3238  0.5831 -0.1084
 9112SOL    HW138795   2.897   1.476   3.032  0.2773 -1.6810 -0.7178
 9112SOL    HW238796   2.818   1.521   3.154  1.1906  0.7088  0.8191
 9113SOL     OW38797   1.913   2.945   5.078 -0.0279  0.4140 -0.5116
 9113SOL    HW138798   1.880   2.862   5.114 -1.0918  2.6362  3.7427
 9113SOL    HW238799   1.970   2.970   5.151  0.4092 -1.2975 -0.2662
 9114SOL     OW38800   0.891   3.811   9.529  0.3375  0.2681  0.3648
 9114SOL    HW138801   0.981   3.798   9.500  0.1106 -0.7239  0.0736
 9114SOL    HW238802   0.885   3.905   9.544  2.4438  0.1929  1.6078
 9115SOL     OW38803   4.294   4.422   4.920  0.4195 -0.1917 -0.1500
 9115SOL    HW138804   4.220   4.362   4.933  0.3225 -0.5491 -2.3200
 9115SOL    HW238805   4.368   4.376   4.959 -0.3500 -1.0307  0.3243
 9116SOL     OW38806   1.166   0.935   8.660  0.2240 -0.2222  0.1362
 9116SOL    HW138807   1.257   0.918   8.682  0.3788  0.8320  0.2967
 9116SOL    HW238808   1.164   1.031   8.664  1.1286 -0.1920 -0.2606
 9117SOL     OW38809   0.191   3.591   3.137 -1.0157  0.1389  0.2389
 9117SOL    HW138810   0.191   3.602   3.042 -0.0402 -1.7293  0.0206
 9117SOL    HW238811   0.145   3.668   3.172  1.4536  0.9158  1.7631
 9118SOL     OW38812   2.225   3.758   2.659 -0.3232  0.2392 -0.4563
 9118SOL    HW138813   2.315   3.775   2.631 -0.0361 -0.4096  0.0624
 9118SOL    HW238814   2.219   3.817   2.734  0.7628 -0.3962  0.1369
 9119SOL     OW38815   1.117   2.571   7.691  0.6112 -0.0970 -0.2953
 9119SOL    HW138816   1.212   2.584   7.699  0.6237 -0.9992  0.9973
 9119SOL    HW238817   1.092   2.660   7.717  0.0593 -0.2828 -0.1920
 9120SOL     OW38818   4.063   2.876   0.405  0.2362  0.5734 -0.0818
 9120SOL    HW138819   4.008   2.941   0.361 -1.9022  0.0310  1.7597
 9120SOL    HW238820   4.051   2.911   0.494  0.4373 -1.0275  0.5837
 9121SOL     OW38821   1.296   1.968   8.431  0.1547  0.4599  0.8140
 9121SOL    HW138822   1.257   2.010   8.355  1.0518  0.8596  0.5688
 9121SOL    HW238823   1.218   1.938   8.477 -0.8734 -2.7208 -2.9227
 9122SOL     OW38824   2.856   2.806   6.164  0.2880  0.0566 -0.7258
 9122SOL    HW138825   2.847   2.732   6.224 -0.4140  1.0345  0.4030
 9122SOL    HW238826   2.850   2.877   6.228 -2.5057  0.6773 -1.6879
 9123SOL     OW38827   2.600   3.932   7.655 -0.3615  0.4107 -0.0412
 9123SOL    HW138828   2.670   3.955   7.716 -0.3484  1.5407 -0.4744
 9123SOL    HW238829   2.533   3.987   7.696 -1.6476 -1.6520  0.5793
 9124SOL     OW38830   0.217   1.486   5.228 -0.0677 -0.2437  0.3689
 9124SOL    HW138831   0.168   1.458   5.305 -1.5194  0.1409 -0.4359
 9124SOL    HW238832   0.180   1.429   5.160  0.5030 -0.8884  0.5901
 9125SOL     OW38833   1.718   0.386   2.386  0.2571  0.2496 -0.1883
 9125SOL    HW138834   1.649   0.443   2.422  2.4732  1.2891  2.3760
 9125SOL    HW238835   1.698   0.396   2.293  1.7774 -0.2083 -0.5576
 9126SOL     OW38836   0.529   0.573  16.491 -0.4036 -1.0119  0.6472
 9126SOL    HW138837   0.438   0.549  16.512 -1.2485  2.2982  0.6646
 9126SOL    HW238838   0.522   0.660  16.453 -0.1935 -1.0837  0.4405
 9127SOL     OW38839   2.167   2.048   3.173 -1.0462  0.1448 -0.8366
 9127SOL    HW138840   2.123   2.003   3.101 -1.3908 -2.0659  0.7363
 9127SOL    HW238841   2.201   2.125   3.128 -1.0111  1.1276  0.8527
 9128SOL     OW38842   2.171   4.655   3.787  0.2602  0.3091 -0.7646
 9128SOL    HW138843   2.248   4.615   3.746 -0.1194  0.7644 -1.9044
 9128SOL    HW238844   2.208   4.716   3.851  1.1212  1.5280 -2.4291
 9129SOL     OW38845   3.900   3.578   6.561 -0.3738 -0.2292  0.0483
 9129SOL    HW138846   3.902   3.495   6.608 -1.0783 -0.3665 -0.1745
 9129SOL    HW238847   3.925   3.552   6.473 -0.9338 -0.8453  0.0764
 9130SOL     OW38848   1.243   1.607   4.968 -0.5957 -0.2182  0.3861
 9130SOL    HW138849   1.246   1.702   4.955 -0.0734 -0.8043 -3.8699
 9130SOL    HW238850   1.335   1.580   4.968  0.0504  2.0511  0.6898
 9131SOL     OW38851   2.975   0.989   6.657  0.1269 -0.2853  0.1972
 9131SOL    HW138852   2.974   0.977   6.752 -1.5965 -1.9759 -0.0296
 9131SOL    HW238853   2.977   0.895   6.638 -1.2786 -0.4890  1.0386
 9132SOL     OW38854   0.289   4.342  10.828 -0.3260 -0.3848  0.6940
 9132SOL    HW138855   0.366   4.398  10.821 -0.6247  0.0031  0.4971
 9132SOL    HW238856   0.250   4.352  10.741 -2.0765 -3.7282  1.1290
 9133SOL     OW38857   1.502   1.267   2.616 -0.0671  0.3971  0.3332
 9133SOL    HW138858   1.499   1.310   2.531  0.8690  3.2000  1.6963
 9133SOL    HW238859   1.572   1.203   2.603  0.5572  0.7931  1.7208
 9134SOL     OW38860   2.422   1.671  12.919  0.0783  0.4414 -0.0317
 9134SOL    HW138861   2.475   1.685  12.840  3.1992 -0.1996  1.9476
 9134SOL    HW238862   2.413   1.763  12.943 -0.7775  0.3734 -0.1012
 9135SOL     OW38863   0.614   3.798   6.270  0.4579  0.1481 -0.8189
 9135SOL    HW138864   0.658   3.721   6.236 -1.1527 -2.7744  3.7773
 9135SOL    HW238865   0.599   3.861   6.200 -0.9423  1.5951  0.7677
 9136SOL     OW38866   2.281   1.701   8.690 -0.3518  0.4210  0.0117
 9136SOL    HW138867   2.361   1.744   8.719 -0.4821  1.2662 -0.8598
 9136SOL    HW238868   2.243   1.771   8.637  2.8341  1.6439 -0.6310
 9137SOL     OW38869   1.950   3.277  16.096  0.2188 -0.4039 -0.3861
 9137SOL    HW138870   2.025   3.261  16.038  2.0989 -0.7779  2.1677
 9137SOL    HW238871   1.893   3.324  16.035 -0.8475  1.3595  1.9890
 9138SOL     OW38872   0.669   4.085   4.451  0.2324  0.1657  0.1421
 9138SOL    HW138873   0.753   4.096   4.496  0.8436  1.4626 -1.3270
 9138SOL    HW238874   0.641   3.995   4.468  1.8104 -0.6249 -1.4201
 9139SOL     OW38875   2.907   1.527  10.589  0.0496  0.3643 -0.4171
 9139SOL    HW138876   2.857   1.573  10.522 -1.5391 -0.4220  0.2135
 9139SOL    HW238877   2.879   1.437  10.572  1.9372 -0.2505 -0.2881
 9140SOL     OW38878   3.619   3.395  10.797 -0.0369  0.1179 -0.3628
 9140SOL    HW138879   3.557   3.467  10.807  1.6272  1.3594  1.0609
 9140SOL    HW238880   3.649   3.399  10.887  1.6918 -0.2274 -0.9217
 9141SOL     OW38881   0.931   4.456   5.748 -0.2810 -0.5342  0.4338
 9141SOL    HW138882   1.007   4.410   5.712  0.0861  0.6997 -0.3772
 9141SOL    HW238883   0.921   4.422   5.837  2.8180 -1.5852  0.3770
 9142SOL     OW38884   1.843   3.110   9.344 -0.5234  0.5964 -0.1073
 9142SOL    HW138885   1.799   3.045   9.290  1.4115 -0.4451 -0.4490
 9142SOL    HW238886   1.935   3.083   9.349 -0.8157 -0.3122  0.3479
 9143SOL     OW38887   2.275   1.766  15.324 -0.3077  0.1495 -0.2840
 9143SOL    HW138888   2.197   1.820  15.329 -0.3437 -0.0088  0.8525
 9143SOL    HW238889   2.284   1.779  15.229 -1.8719  0.7918 -0.3288
 9144SOL     OW38890   1.965   0.812  16.316 -0.5089 -0.3814 -0.0904
 9144SOL    HW138891   1.925   0.897  16.331 -0.9564 -0.6437  0.1858
 9144SOL    HW238892   1.899   0.762  16.364 -0.1042  1.6134  2.5105
 9145SOL     OW38893   1.910   3.335   4.375  0.2827 -0.3439  0.7082
 9145SOL    HW138894   1.897   3.284   4.454 -1.0171 -0.4563  0.4240
 9145SOL    HW238895   1.904   3.260   4.316 -3.7446 -0.3943  1.2423
 9146SOL     OW38896   2.512   1.200   4.614 -0.6896 -0.1440  0.7423
 9146SOL    HW138897   2.544   1.289   4.628  0.1521 -0.5044  1.1042
 9146SOL    HW238898   2.427   1.212   4.657 -1.2647  0.5305 -0.6105
 9147SOL     OW38899   4.508   2.804  16.849 -0.0212  0.5760  0.1468
 9147SOL    HW138900   4.587   2.761  16.884 -1.9566 -1.5608  1.9127
 9147SOL    HW238901   4.462   2.836  16.926 -1.1016 -0.9309  0.1303
 9148SOL     OW38902   2.184   2.203  12.426 -0.7300  0.0594  0.1239
 9148SOL    HW138903   2.244   2.235  12.494 -0.3682 -0.5867  0.1037
 9148SOL    HW238904   2.222   2.228  12.342 -0.0771  0.7876  0.6334
 9149SOL     OW38905   3.787   1.723   6.198  0.9951  0.2174  0.0215
 9149SOL    HW138906   3.809   1.754   6.111  0.2698 -1.0682 -0.6255
 9149SOL    HW238907   3.844   1.648   6.213 -0.6670 -1.2739 -1.0985
 9150SOL     OW38908   4.180   3.505   7.390 -0.3135  0.0361 -0.3642
 9150SOL    HW138909   4.272   3.513   7.418 -0.1551 -0.7390 -0.6495
 9150SOL    HW238910   4.147   3.457   7.466  1.2229  2.4459  1.8273
 9151SOL     OW38911   2.688   4.256  15.353  0.2469  0.3888  0.9483
 9151SOL    HW138912   2.775   4.250  15.390  0.1350  1.0488  1.3298
 9151SOL    HW238913   2.641   4.194  15.408  0.0471  0.1171  0.4702
 9152SOL     OW38914   2.665   2.187   8.632 -0.1765 -0.0688 -0.5444
 9152SOL    HW138915   2.662   2.246   8.556 -0.4007  0.3252 -0.2318
 9152SOL    HW238916   2.746   2.139   8.616 -0.0550 -0.2572  0.6424
 9153SOL     OW38917   0.906   1.629  10.754  0.3329  0.4970  0.1777
 9153SOL    HW138918   0.875   1.539  10.745  0.4609  0.5697 -0.9960
 9153SOL    HW238919   0.924   1.626  10.848  0.0068 -0.1821  0.2211
 9154SOL     OW38920   3.520   0.524  14.640  0.6866  1.1868 -0.5579
 9154SOL    HW138921   3.599   0.471  14.630 -1.3321 -2.2395  1.8093
 9154SOL    HW238922   3.516   0.568  14.555  0.7058  0.2932 -1.0145
 9155SOL     OW38923   3.455   1.858  12.860  0.5916  0.4882  0.1009
 9155SOL    HW138924   3.406   1.929  12.819  0.0416  0.8075  1.3025
 9155SOL    HW238925   3.397   1.792  12.821 -0.5193  0.4112  1.8699
 9156SOL     OW38926   2.941   2.309  11.383 -0.0620  0.0021  0.1047
 9156SOL    HW138927   2.902   2.388  11.345  3.4692  1.3262 -0.8187
 9156SOL    HW238928   2.940   2.338  11.474 -1.2245 -2.7793  0.9552
 9157SOL     OW38929   0.399   2.591   0.589 -0.4930  0.2309  0.4554
 9157SOL    HW138930   0.454   2.620   0.516  1.2858  1.9845  2.4895
 9157SOL    HW238931   0.403   2.668   0.646 -0.9016 -0.0050  0.8002
 9158SOL     OW38932   1.672   4.547  12.150  0.2954 -0.5846  0.1328
 9158SOL    HW138933   1.596   4.502  12.185  1.8809  0.3650  4.7326
 9158SOL    HW238934   1.653   4.638  12.170 -0.8627 -0.9759  0.7538
 9159SOL     OW38935   4.029   0.630   6.977  0.0096 -0.7079  0.9016
 9159SOL    HW138936   4.038   0.661   6.887  1.2653  1.7680  1.8939
 9159SOL    HW238937   3.940   0.598   6.960  0.0306 -1.1832  1.6566
 9160SOL     OW38938   0.575   1.856   5.610  0.1772 -0.2673  0.5419
 9160SOL    HW138939   0.646   1.813   5.657 -0.2156 -0.2560  1.1347
 9160SOL    HW238940   0.628   1.903   5.545 -1.0573  0.2573 -0.0915
 9161SOL     OW38941   0.218   1.321   2.598 -0.0284 -0.1217 -0.6293
 9161SOL    HW138942   0.151   1.354   2.657 -0.0851 -1.7446  0.1999
 9161SOL    HW238943   0.249   1.402   2.557  3.2825  0.0914  2.2817
 9162SOL     OW38944   2.025   3.822   3.685 -0.1472  0.1613  0.0019
 9162SOL    HW138945   1.997   3.900   3.732  1.3953 -0.0431  1.2684
 9162SOL    HW238946   2.118   3.845   3.676  0.6936 -2.8224  0.9903
 9163SOL     OW38947   3.773   2.750   2.126  0.2193 -0.2916  0.6384
 9163SOL    HW138948   3.709   2.820   2.112  0.3500 -0.3537 -0.2746
 9163SOL    HW238949   3.843   2.792   2.176  0.2629  0.5067 -0.1005
 9164SOL     OW38950   0.714   4.181   0.067 -0.1614  0.1009 -0.8695
 9164SOL    HW138951   0.701   4.115  17.705 -0.2917  0.6652 -1.3915
 9164SOL    HW238952   0.740   4.123   0.139  0.7854  0.6124 -0.8028
 9165SOL     OW38953   0.287   1.036   5.208  0.0145 -0.2925 -0.1190
 9165SOL    HW138954   0.245   1.100   5.265 -0.9468  0.3997 -1.6316
 9165SOL    HW238955   0.381   1.040   5.227 -0.4262  1.0099  1.7492
 9166SOL     OW38956   3.287   3.262  10.496  0.7121 -0.2317  0.1438
 9166SOL    HW138957   3.207   3.314  10.491  0.7949 -0.0919  0.2868
 9166SOL    HW238958   3.262   3.197  10.430 -0.0935 -0.2702  0.4854
 9167SOL     OW38959   0.894   3.352  14.966 -0.4226  0.7783  0.7331
 9167SOL    HW138960   0.913   3.334  15.058  0.9479  0.0792  0.3060
 9167SOL    HW238961   0.856   3.437  14.988  0.5402  2.1278 -2.7955
 9168SOL     OW38962   0.949   0.907   6.774  0.2348 -0.1272  0.0287
 9168SOL    HW138963   0.975   0.876   6.687 -1.7722  1.6965 -1.2141
 9168SOL    HW238964   0.898   0.830   6.801  0.8605  0.0056  1.5549
 9169SOL     OW38965   2.443   3.055  10.958  0.0480 -0.8142 -0.0497
 9169SOL    HW138966   2.374   3.091  11.013 -0.0925 -0.9049 -0.1673
 9169SOL    HW238967   2.403   2.971  10.934  0.1775 -0.7310 -0.5478
 9170SOL     OW38968   0.771   0.218  11.473  0.1652 -0.4849  0.3992
 9170SOL    HW138969   0.846   0.187  11.523  0.6433 -2.5927 -1.5875
 9170SOL    HW238970   0.784   0.163  11.395 -3.0010  0.3968 -0.7887
 9171SOL     OW38971   1.024   3.257   1.180  0.7250 -0.6152  0.2411
 9171SOL    HW138972   1.006   3.249   1.087  0.1237 -0.4485  0.3414
 9171SOL    HW238973   1.075   3.181   1.209  0.7964 -0.6333  0.0648
 9172SOL     OW38974   3.098   2.157  11.970  0.2777 -0.1395  0.4667
 9172SOL    HW138975   3.193   2.153  11.960  0.3157  0.0690  0.7735
 9172SOL    HW238976   3.070   2.095  11.902 -1.8624 -0.6611  1.8131
 9173SOL     OW38977   0.266   2.564   5.678  0.0892 -0.2354 -0.2149
 9173SOL    HW138978   0.334   2.546   5.613  0.0147 -0.7315 -0.1522
 9173SOL    HW238979   0.192   2.570   5.618  2.2143 -0.5331 -2.8658
 9174SOL     OW38980   4.049   0.894   1.761 -0.0203 -0.0370  0.0582
 9174SOL    HW138981   4.053   0.962   1.829 -0.2120 -0.3257  0.3639
 9174SOL    HW238982   4.052   0.815   1.816  0.6831  0.7864  1.1994
 9175SOL     OW38983   2.177   3.635   9.331 -0.4538 -0.1854  0.3597
 9175SOL    HW138984   2.114   3.570   9.299 -0.4859  1.1586 -2.3389
 9175SOL    HW238985   2.137   3.668   9.412  0.7522  0.4471  0.6959
 9176SOL     OW38986   0.346   4.385   5.015  0.3699 -0.1994  0.3373
 9176SOL    HW138987   0.366   4.310   4.959 -2.6496 -0.1225 -0.8319
 9176SOL    HW238988   0.291   4.437   4.956 -0.7402 -1.3515  0.3630
 9177SOL     OW38989   0.670   1.604   0.232 -0.0190 -0.5814 -0.1359
 9177SOL    HW138990   0.656   1.512   0.208 -2.5618 -0.8419  2.2873
 9177SOL    HW238991   0.738   1.634   0.172  1.1765 -0.5417  1.2550
 9178SOL     OW38992   2.909   4.713   8.261  0.6257 -0.0985 -0.1579
 9178SOL    HW138993   2.995   4.672   8.252  0.5004 -0.1403 -1.1602
 9178SOL    HW238994   2.925   0.036   8.341  0.1134 -2.4504  1.4081
 9179SOL     OW38995   3.179   2.451   9.703 -0.0790 -0.3446  0.4748
 9179SOL    HW138996   3.190   2.360   9.730  0.4347 -0.3837  0.1347
 9179SOL    HW238997   3.094   2.475   9.740 -0.7673 -1.9142 -0.0836
 9180SOL     OW38998   2.489   4.413  13.091 -0.1318 -0.1096 -0.1842
 9180SOL    HW138999   2.483   4.508  13.099 -0.1681 -0.0891 -0.4713
 9180SOL    HW239000   2.504   4.398  12.998  0.3908 -0.7360  0.0006
 9181SOL     OW39001   0.532   4.087   4.985 -0.0674  0.0711  0.3608
 9181SOL    HW139002   0.452   4.132   5.013 -0.4595  0.6236 -1.5846
 9181SOL    HW239003   0.576   4.150   4.928  0.6882 -0.3729  0.4624
 9182SOL     OW39004   1.636   1.163   4.337 -0.2308  0.1483 -0.1192
 9182SOL    HW139005   1.552   1.183   4.378  0.0838  0.3902  0.4021
 9182SOL    HW239006   1.603   1.115   4.260  0.9543  0.2269 -0.6683
 9183SOL     OW39007   2.934   2.196   5.736  0.6569  0.1880  0.4283
 9183SOL    HW139008   2.942   2.189   5.641 -1.4011  2.9659  0.0340
 9183SOL    HW239009   2.948   2.289   5.751 -0.1231 -0.1044  3.0365
 9184SOL     OW39010   1.643   1.994   3.209 -0.0322 -0.2189  0.5344
 9184SOL    HW139011   1.634   2.005   3.304  1.6721  3.6423  0.2649
 9184SOL    HW239012   1.592   1.913   3.204 -1.3196  0.7291 -1.6760
 9185SOL     OW39013   1.540   1.349  12.534  0.0247 -0.4214  0.0141
 9185SOL    HW139014   1.448   1.377  12.528  0.4036  1.2188  1.9532
 9185SOL    HW239015   1.549   1.388  12.621  2.3403  1.6004 -1.1376
 9186SOL     OW39016   1.985   2.897   4.750 -0.1208 -0.4617 -0.2195
 9186SOL    HW139017   2.078   2.875   4.763  0.4336  2.0057 -0.0641
 9186SOL    HW239018   1.990   2.984   4.788 -1.8341 -0.6374  0.4232
 9187SOL     OW39019   0.374   2.025   8.136 -0.2853  0.2355  1.0958
 9187SOL    HW139020   0.434   2.004   8.065 -1.3109 -0.3660  0.4008
 9187SOL    HW239021   0.293   1.979   8.113  1.8390 -2.3368 -1.0512
 9188SOL     OW39022   4.483   2.207  17.679  0.1647  0.0494 -0.0326
 9188SOL    HW139023   4.546   2.209  17.608 -0.3782 -0.9357 -0.5327
 9188SOL    HW239024   4.509   2.136   0.033 -1.8493  0.2849  1.1411
 9189SOL     OW39025   0.872   4.218   7.811 -0.5709 -0.5443  0.0583
 9189SOL    HW139026   0.787   4.260   7.825 -0.1770 -0.2513  1.5783
 9189SOL    HW239027   0.846   4.140   7.761  0.0313 -0.4857 -0.3410
 9190SOL     OW39028   4.355   0.229   3.823  0.5116  0.7611  0.0038
 9190SOL    HW139029   4.405   0.239   3.742 -1.0539  2.0461 -0.7876
 9190SOL    HW239030   4.263   0.229   3.797  0.5647 -0.0962 -0.1777
 9191SOL     OW39031   4.224   2.163   0.791  0.3840  0.2848  0.1037
 9191SOL    HW139032   4.263   2.143   0.707 -2.3196  0.1156 -1.1205
 9191SOL    HW239033   4.228   2.257   0.777 -1.2743  0.0692 -1.9044
 9192SOL     OW39034   3.070   1.009   2.895 -0.0846 -0.4275 -0.1696
 9192SOL    HW139035   3.057   0.930   2.947 -0.2835  0.3005  0.8958
 9192SOL    HW239036   3.059   1.077   2.962  0.5160 -0.0484 -0.4549
 9193SOL     OW39037   2.305   4.690   5.043 -0.3617  0.0324 -0.4441
 9193SOL    HW139038   2.227   0.011   5.072  0.4205  1.1295 -0.1216
 9193SOL    HW239039   2.307   4.710   4.950 -1.1361  1.0522 -0.2322
 9194SOL     OW39040   2.679   2.774   9.426 -0.9257 -0.2146  0.1047
 9194SOL    HW139041   2.629   2.714   9.481 -0.8170  1.9115  2.5412
 9194SOL    HW239042   2.678   2.854   9.480  1.7485 -0.2659  0.2615
 9195SOL     OW39043   2.123   0.598   2.405 -0.2751  0.1032 -0.4094
 9195SOL    HW139044   2.060   0.629   2.339  0.2628  0.8654 -0.5681
 9195SOL    HW239045   2.193   0.662   2.392  0.2040 -0.0223  1.6136
 9196SOL     OW39046   3.079   0.884   1.061  0.3129 -0.2386 -0.6670
 9196SOL    HW139047   3.120   0.969   1.079  1.6271 -0.7747 -1.0572
 9196SOL    HW239048   3.090   0.879   0.966  0.1479 -0.4725 -0.6733
 9197SOL     OW39049   4.006   1.637   2.884  0.0294  0.1969 -0.0393
 9197SOL    HW139050   4.068   1.647   2.812  1.5393  0.0318  1.2344
 9197SOL    HW239051   4.041   1.688   2.957 -0.1957 -0.0710  0.2602
 9198SOL     OW39052   1.372   2.720   5.002 -0.3422  0.0440 -0.0004
 9198SOL    HW139053   1.459   2.684   5.017 -0.6240 -0.3118  0.7718
 9198SOL    HW239054   1.371   2.715   4.906  0.5447 -0.4092  0.0090
 9199SOL     OW39055   0.376   2.781  15.195 -0.2508  0.0443  0.3994
 9199SOL    HW139056   0.445   2.723  15.162 -3.6778 -2.5513 -2.1607
 9199SOL    HW239057   0.324   2.809  15.119  0.6206  0.6869  0.0329
 9200SOL     OW39058   3.153   4.310   6.503 -0.4900 -0.6024 -0.6914
 9200SOL    HW139059   3.072   4.278   6.542 -0.5743  0.6069  0.1137
 9200SOL    HW239060   3.164   4.283   6.411  1.7414  0.4919 -0.7614
 9201SOL     OW39061   3.092   1.341   2.659 -0.2222  0.1900  0.1261
 9201SOL    HW139062   3.128   1.367   2.574 -1.6888  3.8525  0.6164
 9201SOL    HW239063   3.099   1.246   2.650 -1.3290  0.2153 -1.1303
 9202SOL     OW39064   3.119   1.854  12.613 -0.2598 -0.6134  0.4033
 9202SOL    HW139065   3.065   1.900  12.677  0.5209  1.5354 -0.5021
 9202SOL    HW239066   3.167   1.790  12.665  0.3193 -0.2378  0.3322
 9203SOL     OW39067   3.717   1.995  10.851  0.6082 -0.1652  0.3043
 9203SOL    HW139068   3.692   2.007  10.942 -2.1338  0.3552 -0.5102
 9203SOL    HW239069   3.811   1.977  10.857  1.2437  3.1659  0.1858
 9204SOL     OW39070   2.342   4.377   0.308  1.0285  0.5228 -0.1104
 9204SOL    HW139071   2.292   4.448   0.349 -0.6875 -1.6144  1.4716
 9204SOL    HW239072   2.432   4.406   0.321  1.1678 -1.3366  3.0003
 9205SOL     OW39073   0.958   0.229   2.011 -0.7515  0.5001 -0.2112
 9205SOL    HW139074   0.885   0.277   2.049 -0.6191  0.0260  0.6273
 9205SOL    HW239075   0.917   0.206   1.928  0.0605 -1.1322 -0.1647
 9206SOL     OW39076   0.846   2.933   9.749  0.1757  0.1026  0.0335
 9206SOL    HW139077   0.768   2.940   9.804 -0.8798 -2.0706 -1.1769
 9206SOL    HW239078   0.902   2.890   9.814  0.4929  1.2593  0.5279
 9207SOL     OW39079   2.341   4.025   9.741 -0.2767  0.1194  0.5787
 9207SOL    HW139080   2.359   4.118   9.749  2.3782 -0.3404  0.0667
 9207SOL    HW239081   2.248   4.012   9.757 -0.1723 -0.6684  0.5703
 9208SOL     OW39082   2.528   4.235   9.117  0.5683 -0.1556 -0.4075
 9208SOL    HW139083   2.579   4.156   9.135 -0.0689 -0.9936 -2.3087
 9208SOL    HW239084   2.505   4.226   9.024 -1.8092  0.9963  0.0576
 9209SOL     OW39085   1.903   0.527   5.042  0.4001 -0.0982  0.1736
 9209SOL    HW139086   1.834   0.543   5.107 -0.3784 -2.5556 -0.0537
 9209SOL    HW239087   1.876   0.443   5.005 -0.3757  0.1748  0.1164
 9210SOL     OW39088   0.062   3.488   2.433  0.1113  0.0471  0.3166
 9210SOL    HW139089   0.120   3.552   2.473 -0.5153  0.7100  0.1595
 9210SOL    HW239090   4.708   3.536   2.416  0.7681  0.5523 -1.3836
 9211SOL     OW39091   2.629   4.007   3.882  0.2581  0.4464 -0.0059
 9211SOL    HW139092   2.603   3.931   3.934  0.0377  1.2149  1.0017
 9211SOL    HW239093   2.549   4.059   3.892 -1.7677 -2.5357 -0.6704
 9212SOL     OW39094   0.342   3.806   7.862  0.5599  0.3279  0.4895
 9212SOL    HW139095   0.321   3.859   7.786 -1.2137  0.6395  1.2130
 9212SOL    HW239096   0.281   3.735   7.842 -0.8642  2.1898 -1.7886
 9213SOL     OW39097   0.982   2.372  13.148 -0.2792  0.1335  0.1106
 9213SOL    HW139098   0.985   2.407  13.237  0.0901 -0.1350  0.2038
 9213SOL    HW239099   1.013   2.284  13.169  0.1448  0.1274 -0.5370
 9214SOL     OW39100   1.929   2.382   3.236  0.1483  0.0172 -0.0088
 9214SOL    HW139101   1.930   2.389   3.141 -1.6782 -0.0760 -0.0300
 9214SOL    HW239102   1.928   2.287   3.249 -3.0468  0.1567  0.8442
 9215SOL     OW39103   2.010   2.667   5.688 -0.0525 -0.8190  0.2614
 9215SOL    HW139104   1.962   2.623   5.758 -0.0518 -3.2237 -1.2443
 9215SOL    HW239105   2.092   2.621   5.705  0.9487  0.8098 -0.1605
 9216SOL     OW39106   2.288   3.422   7.258  0.0103 -0.6155 -0.1157
 9216SOL    HW139107   2.340   3.388   7.332  1.7262 -0.8434 -1.4310
 9216SOL    HW239108   2.343   3.421   7.180 -0.1993  0.4997 -0.2675
 9217SOL     OW39109   3.614   0.621  16.116  0.3241 -0.2184  0.2865
 9217SOL    HW139110   3.691   0.623  16.059  1.1528  0.4925  1.4357
 9217SOL    HW239111   3.553   0.620  16.041  1.3421  0.7509 -0.5428
 9218SOL     OW39112   2.206   3.718   0.001 -0.2261 -0.7869  0.9157
 9218SOL    HW139113   2.294   3.682   0.013  0.5347  0.8609  0.3961
 9218SOL    HW239114   2.232   3.803  17.669  0.5096 -1.5299 -0.2490
 9219SOL     OW39115   4.153   4.153   8.595  0.1397 -0.1209 -0.1160
 9219SOL    HW139116   4.214   4.224   8.573 -0.0164 -0.3676 -1.3371
 9219SOL    HW239117   4.107   4.181   8.674  0.6404  2.8294 -0.8664
 9220SOL     OW39118   3.349   3.533   3.346 -0.1504 -0.3670 -0.5382
 9220SOL    HW139119   3.293   3.591   3.294  0.6051 -0.0975 -1.0451
 9220SOL    HW239120   3.390   3.479   3.278 -0.6655  0.4049 -1.4587
 9221SOL     OW39121   0.379   1.384   8.373 -0.3780 -0.2472  0.0106
 9221SOL    HW139122   0.408   1.426   8.454 -2.6066 -1.1757  1.3015
 9221SOL    HW239123   0.415   1.296   8.387  1.1931  0.4401  0.3729
 9222SOL     OW39124   1.343   2.849   4.043 -0.3877  0.5518  0.2769
 9222SOL    HW139125   1.253   2.874   4.062 -0.8120 -0.9217  0.2234
 9222SOL    HW239126   1.321   2.797   3.966  2.9025 -1.3958  0.6516
 9223SOL     OW39127   1.551   1.171   1.025  0.3094 -0.1802 -0.5955
 9223SOL    HW139128   1.463   1.151   1.056 -0.0075  1.3727 -0.4908
 9223SOL    HW239129   1.558   1.160   0.930 -2.4874 -1.1886 -0.6868
 9224SOL     OW39130   0.534   0.743   5.424  0.1614 -0.9854  0.2800
 9224SOL    HW139131   0.522   0.661   5.472  0.7607 -1.3863 -0.2570
 9224SOL    HW239132   0.599   0.795   5.471  1.0501 -0.7725 -1.2038
 9225SOL     OW39133   4.578   0.095   5.779  0.2739  1.2553  0.3102
 9225SOL    HW139134   4.610   0.044   5.853 -0.6485  0.1338 -0.0735
 9225SOL    HW239135   4.483   0.092   5.785  0.3193  1.2863  1.0369
 9226SOL     OW39136   4.583   1.397   7.488  0.5625  0.2089 -0.5789
 9226SOL    HW139137   4.676   1.378   7.471 -0.1797  0.3624 -4.6980
 9226SOL    HW239138   4.541   1.360   7.410  0.1229  0.1292 -0.3064
 9227SOL     OW39139   4.517   1.241   4.789  0.0750  0.0268  0.2636
 9227SOL    HW139140   4.470   1.220   4.869  0.2887  0.2531  0.4505
 9227SOL    HW239141   4.443   1.283   4.746 -0.7912 -1.5257  0.2738
 9228SOL     OW39142   1.797   2.875   6.941  0.1162  0.0431  0.0842
 9228SOL    HW139143   1.758   2.947   6.991  0.5660  0.1390  0.2952
 9228SOL    HW239144   1.848   2.915   6.871  0.6325 -0.8587 -0.0639
 9229SOL     OW39145   0.391   3.642   8.188  0.0384  0.3618 -0.6267
 9229SOL    HW139146   0.371   3.614   8.277 -1.8188 -1.0234 -1.4901
 9229SOL    HW239147   0.327   3.593   8.137 -0.3794 -0.6158  0.8733
 9230SOL     OW39148   4.520   0.345  14.133 -0.1455 -0.1129  0.5674
 9230SOL    HW139149   4.471   0.399  14.195 -0.0076  1.0036 -0.3027
 9230SOL    HW239150   4.456   0.315  14.069  0.7648 -1.2185  0.1664
 9231SOL     OW39151   3.863   3.598  15.893  0.3304 -0.6080  0.1790
 9231SOL    HW139152   3.812   3.518  15.888 -0.3089 -0.3406  2.2480
 9231SOL    HW239153   3.830   3.637  15.975  0.8718  0.9985 -0.3615
 9232SOL     OW39154   0.900   3.246  17.693  0.4260  0.2232 -0.2272
 9232SOL    HW139155   0.972   3.188  17.668 -0.3087 -1.7307  2.2520
 9232SOL    HW239156   0.869   3.256  17.603 -1.7143  3.0133  0.8373
 9233SOL     OW39157   2.383   2.289  16.177 -0.0940 -0.1398 -0.4643
 9233SOL    HW139158   2.439   2.211  16.171 -0.2803 -0.2205 -1.1221
 9233SOL    HW239159   2.431   2.346  16.116  0.6025  0.3936  0.5739
 9234SOL     OW39160   2.350   1.530   3.309 -0.0551 -0.3638 -0.4276
 9234SOL    HW139161   2.300   1.454   3.339 -1.5755  1.8080  2.4774
 9234SOL    HW239162   2.291   1.563   3.242  1.8176 -1.6970 -2.7611
 9235SOL     OW39163   3.246   4.051   7.720 -0.1318 -0.5677 -0.1154
 9235SOL    HW139164   3.162   4.063   7.676 -0.0188  1.1098  0.1138
 9235SOL    HW239165   3.204   4.017   7.798 -0.2769  0.8056  0.4015
 9236SOL     OW39166   1.809   0.962   3.047  0.7723  0.4411  0.0681
 9236SOL    HW139167   1.812   0.867   3.037 -1.0021  0.6194 -2.1412
 9236SOL    HW239168   1.841   0.988   2.960 -0.3233  0.4317 -0.3345
 9237SOL     OW39169   1.228   2.969   3.424 -0.3887  0.1453  0.5903
 9237SOL    HW139170   1.247   3.029   3.353  1.0004  1.2352  1.8877
 9237SOL    HW239171   1.310   2.973   3.474  0.3420  1.1374 -0.7042
 9238SOL     OW39172   2.907   3.087   3.236  0.0498  0.2687 -0.3132
 9238SOL    HW139173   2.864   3.115   3.156  2.0432  1.1152 -1.0941
 9238SOL    HW239174   2.991   3.132   3.225  0.3131 -0.3425 -0.8044
 9239SOL     OW39175   3.187   3.098   1.155 -0.8889  0.6249 -0.5015
 9239SOL    HW139176   3.122   3.029   1.143  0.3618 -1.0201  2.1034
 9239SOL    HW239177   3.186   3.134   1.067  1.2826  1.4093 -0.2153
 9240SOL     OW39178   3.384   4.326   4.706  0.0925 -0.3031  0.5029
 9240SOL    HW139179   3.437   4.271   4.648 -0.4962  0.1159 -0.4327
 9240SOL    HW239180   3.322   4.262   4.740 -1.8545  1.2908 -0.0326
 9241SOL     OW39181   2.086   3.710   8.227  0.0126 -0.3592  0.0411
 9241SOL    HW139182   2.064   3.750   8.143  0.1377 -0.8148 -0.2078
 9241SOL    HW239183   2.181   3.719   8.216 -0.0541  1.0473  0.5519
 9242SOL     OW39184   0.037   1.155  11.901 -0.0235  0.8824  0.2039
 9242SOL    HW139185   0.120   1.150  11.854  1.4532  0.1351  2.8884
 9242SOL    HW239186   4.719   1.209  11.835 -2.0508 -1.5893 -0.4736
 9243SOL     OW39187   4.266   3.089   1.523 -0.2003 -0.6788  0.4122
 9243SOL    HW139188   4.191   3.121   1.473 -0.7246 -2.2319  0.1798
 9243SOL    HW239189   4.265   3.138   1.605 -1.6464  3.2597 -1.9653
 9244SOL     OW39190   1.515   0.388   3.133 -0.1162 -0.0949 -0.4067
 9244SOL    HW139191   1.427   0.363   3.161  0.1796 -1.4748 -0.6987
 9244SOL    HW239192   1.545   0.300   3.114 -2.3049 -0.7084 -1.0932
 9245SOL     OW39193   2.480   2.944   6.883 -0.2418 -0.2553  0.1280
 9245SOL    HW139194   2.426   2.949   6.805  0.5346  0.3537 -0.3697
 9245SOL    HW239195   2.543   3.015   6.871 -0.2243 -0.0689  1.3156
 9246SOL     OW39196   4.556   4.137  10.279  0.2785  0.1746  0.2429
 9246SOL    HW139197   4.530   4.181  10.360  1.5982  0.2090  0.6414
 9246SOL    HW239198   4.574   4.049  10.312  0.0257 -0.0552 -0.2284
 9247SOL     OW39199   0.941   0.853   3.121 -0.2064  0.4084 -0.3320
 9247SOL    HW139200   0.874   0.921   3.129  1.2816  1.9170 -0.5752
 9247SOL    HW239201   0.921   0.815   3.036  0.7217 -0.6365 -0.0794
 9248SOL     OW39202   2.068   4.503  11.033  0.0940  0.1571  0.0822
 9248SOL    HW139203   2.004   4.443  10.994 -1.0140  1.4085 -0.0171
 9248SOL    HW239204   2.143   4.445  11.022 -0.1401 -0.2177  0.4495
 9249SOL     OW39205   4.470   4.669  15.911 -0.1369 -0.0160 -0.1180
 9249SOL    HW139206   4.558   4.700  15.887 -0.4014  0.6287 -0.2458
 9249SOL    HW239207   4.484   4.604  15.980 -2.5914 -0.7366 -0.2936
 9250SOL     OW39208   4.477   4.296   8.220  0.2877 -0.1728  0.1823
 9250SOL    HW139209   4.453   4.211   8.182 -1.3872  1.0029 -1.3713
 9250SOL    HW239210   4.449   4.354   8.150  1.7135 -1.7794 -1.7473
 9251SOL     OW39211   3.224   1.597   1.256 -0.2899  0.4524 -0.1698
 9251SOL    HW139212   3.266   1.529   1.203 -1.1126 -0.4546  0.3369
 9251SOL    HW239213   3.131   1.599   1.233 -0.6803  0.3261  1.4486
 9252SOL     OW39214   1.001   3.462   7.527  0.5702 -0.0479 -0.2203
 9252SOL    HW139215   0.941   3.410   7.581 -0.8748  0.7655 -1.0330
 9252SOL    HW239216   1.012   3.537   7.586  0.7339  0.2586 -0.6437
 9253SOL     OW39217   2.740   2.723   7.313 -0.0093 -0.3596 -0.5029
 9253SOL    HW139218   2.753   2.781   7.238  0.5300  2.9677  2.1222
 9253SOL    HW239219   2.696   2.783   7.374  0.9665 -0.4761  0.3259
 9254SOL     OW39220   2.431   1.533   8.448 -0.2165  0.1848  0.1871
 9254SOL    HW139221   2.418   1.541   8.543 -1.1710 -2.4169  0.2868
 9254SOL    HW239222   2.526   1.546   8.442 -0.2419 -0.6504 -1.8690
 9255SOL     OW39223   2.599   2.887   5.995  0.6674  0.4365 -0.4716
 9255SOL    HW139224   2.694   2.901   5.997  0.7566  0.0226 -1.8541
 9255SOL    HW239225   2.566   2.929   6.075 -0.4000 -1.5864  0.1570
 9256SOL     OW39226   2.754   0.659   5.472 -0.3730 -0.3920  0.0953
 9256SOL    HW139227   2.804   0.741   5.465 -2.1109  0.6197 -0.2999
 9256SOL    HW239228   2.816   0.606   5.522 -0.0169 -0.6109 -0.5747
 9257SOL     OW39229   4.317   0.180   4.356  0.1188  0.6980 -0.3944
 9257SOL    HW139230   4.314   0.247   4.288  0.0676  1.2646  0.1604
 9257SOL    HW239231   4.379   0.123   4.311 -1.0916  0.4598 -1.7547
 9258SOL     OW39232   1.047   4.168   8.697  0.2673 -0.2207  0.3035
 9258SOL    HW139233   1.028   4.084   8.655  1.5012  0.6041 -1.9283
 9258SOL    HW239234   1.141   4.163   8.713 -0.0151 -3.3740  1.0564
 9259SOL     OW39235   1.760   0.733   9.109 -0.1616  0.0169  0.1429
 9259SOL    HW139236   1.789   0.726   9.018  0.0374 -0.0185  0.2099
 9259SOL    HW239237   1.843   0.717   9.154  0.3648 -0.7130 -1.0779
 9260SOL     OW39238   3.765   2.584   9.334 -0.0493  0.3669 -0.1556
 9260SOL    HW139239   3.814   2.559   9.413  0.5231  1.4658 -0.1497
 9260SOL    HW239240   3.806   2.524   9.272 -1.4502 -2.2713  1.4799
 9261SOL     OW39241   0.386   1.312   2.986  0.1829  0.3593  0.3968
 9261SOL    HW139242   0.425   1.293   3.071 -0.6461 -0.4237  0.6080
 9261SOL    HW239243   0.459   1.312   2.924 -0.5643  1.5476 -0.4897
 9262SOL     OW39244   0.353   1.308   7.920  0.2781 -0.0666 -0.5020
 9262SOL    HW139245   0.389   1.330   7.834  0.3846 -0.1627 -0.4812
 9262SOL    HW239246   0.335   1.397   7.951 -0.5546 -1.1646  2.1682
 9263SOL     OW39247   0.615   2.386  12.078 -0.3277  0.6074 -0.0192
 9263SOL    HW139248   0.576   2.346  12.156 -2.2336 -0.4447 -1.5140
 9263SOL    HW239249   0.570   2.470  12.070 -0.4012  0.6092  0.3874
 9264SOL     OW39250   1.074   3.640   1.782 -0.1925 -1.2255  0.4296
 9264SOL    HW139251   0.993   3.625   1.831  0.5948 -1.5416  1.6426
 9264SOL    HW239252   1.069   3.729   1.746  0.5951 -1.4099 -0.1485
 9265SOL     OW39253   4.185   2.667   1.161  0.0706 -0.1655  0.2243
 9265SOL    HW139254   4.183   2.719   1.242 -2.5449  1.9718 -1.2111
 9265SOL    HW239255   4.276   2.657   1.133 -0.3027 -0.2538 -0.9512
 9266SOL     OW39256   0.008   3.512   8.813 -0.5234 -0.5838  0.5249
 9266SOL    HW139257   0.080   3.497   8.874  0.0549 -0.3485 -0.0931
 9266SOL    HW239258   4.696   3.428   8.787 -1.4260  0.4933 -1.6180
 9267SOL     OW39259   3.768   4.457  11.091 -0.4046  0.2560  0.3631
 9267SOL    HW139260   3.717   4.406  11.154  0.3288 -1.0151 -0.0711
 9267SOL    HW239261   3.707   4.519  11.050 -1.5518 -0.0634  1.6198
 9268SOL     OW39262   1.641   1.171   4.743 -0.4809  0.1032 -0.5440
 9268SOL    HW139263   1.704   1.230   4.702 -0.4317 -1.3595 -2.5732
 9268SOL    HW239264   1.561   1.223   4.745  0.2294  1.0717  3.4969
 9269SOL     OW39265   3.433   1.834   2.892 -0.1174  0.1568  0.0927
 9269SOL    HW139266   3.425   1.920   2.933  4.6284  0.0157  1.2653
 9269SOL    HW239267   3.497   1.798   2.954 -0.4926 -0.6905  0.0004
 9270SOL     OW39268   0.579   1.606   7.282 -0.4333 -0.1455  0.1843
 9270SOL    HW139269   0.659   1.558   7.262  0.6289  2.7569 -2.7369
 9270SOL    HW239270   0.596   1.680   7.223  1.3327  0.2442  1.1588
 9271SOL     OW39271   1.677   2.919   9.193 -0.5631  0.3367 -0.1379
 9271SOL    HW139272   1.584   2.932   9.175 -0.8033 -1.2067 -0.0185
 9271SOL    HW239273   1.713   2.911   9.105  1.4359 -1.0477  0.7899
 9272SOL     OW39274   1.556   2.267   3.298 -0.3768 -0.3875  0.1282
 9272SOL    HW139275   1.464   2.246   3.281  0.0810 -1.3027 -1.2106
 9272SOL    HW239276   1.584   2.296   3.211  1.5019  2.1725  1.5747
 9273SOL     OW39277   2.270   0.932   8.093 -0.4035 -0.3058 -0.1200
 9273SOL    HW139278   2.189   0.963   8.133  0.8459  2.6085  0.2325
 9273SOL    HW239279   2.332   0.941   8.166  0.6159  2.0337 -1.2769
 9274SOL     OW39280   1.022   1.417  11.966 -0.1640 -0.2333  0.0346
 9274SOL    HW139281   1.000   1.488  11.906  0.8414  1.4771  1.7076
 9274SOL    HW239282   1.114   1.441  11.979 -0.6113  1.8115 -0.6333
 9275SOL     OW39283   1.640   2.461   8.498  0.1698 -0.3514  0.6369
 9275SOL    HW139284   1.614   2.548   8.529 -0.1513 -0.1720 -0.1175
 9275SOL    HW239285   1.699   2.444   8.571 -0.5822 -1.2299  1.0444
 9276SOL     OW39286   2.608   2.872  10.705  0.1857 -0.5906 -0.3924
 9276SOL    HW139287   2.514   2.858  10.717 -0.2590  1.6999 -1.1996
 9276SOL    HW239288   2.646   2.795  10.663  1.5414 -0.6534  0.9443
 9277SOL     OW39289   0.517   0.549   2.193  0.0411 -0.3157 -0.0784
 9277SOL    HW139290   0.428   0.541   2.159 -0.1487 -2.5140  0.9047
 9277SOL    HW239291   0.522   0.644   2.196 -2.8728 -0.1546 -0.4786
 9278SOL     OW39292   1.740   1.183   3.516  0.1643 -0.3523 -0.1948
 9278SOL    HW139293   1.772   1.184   3.426 -0.5462 -2.7811 -0.4748
 9278SOL    HW239294   1.645   1.186   3.512  0.1430 -1.2936 -0.5033
 9279SOL     OW39295   0.572   1.535  10.974 -0.2488  0.2087 -0.3927
 9279SOL    HW139296   0.603   1.445  10.963  0.3077 -0.0812  3.6353
 9279SOL    HW239297   0.627   1.564  11.046 -0.8357  0.9056 -0.2226
 9280SOL     OW39298   1.704   0.547   7.709  0.6065 -0.3079 -0.2257
 9280SOL    HW139299   1.779   0.596   7.677  1.2655 -2.3235 -1.7546
 9280SOL    HW239300   1.693   0.603   7.786 -2.2878 -0.4691 -0.5158
 9281SOL     OW39301   2.598   0.445   5.510  0.1800 -0.4798 -0.0279
 9281SOL    HW139302   2.622   0.511   5.445 -1.2144 -0.4895 -0.5536
 9281SOL    HW239303   2.661   0.470   5.577 -0.3023 -0.6320  0.4764
 9282SOL     OW39304   3.518   3.023   8.536 -0.2588  0.1394 -0.1780
 9282SOL    HW139305   3.551   3.007   8.625  3.2336  0.1611 -1.4516
 9282SOL    HW239306   3.424   3.037   8.549 -0.2090 -1.0559  1.4741
 9283SOL     OW39307   2.824   4.119   2.594 -0.5596  0.3918 -0.3464
 9283SOL    HW139308   2.766   4.083   2.527 -0.9529 -0.3604  0.4005
 9283SOL    HW239309   2.900   4.146   2.542 -0.5115  1.7132  0.4041
 9284SOL     OW39310   0.976   2.310   5.986 -0.1409  0.3356  0.1912
 9284SOL    HW139311   0.958   2.398   5.952 -1.0742  1.0500  2.5342
 9284SOL    HW239312   1.067   2.303   5.957 -0.9387 -2.9489 -1.5282
 9285SOL     OW39313   3.399   1.543   7.053 -0.1142 -0.1219  0.2266
 9285SOL    HW139314   3.310   1.524   7.083 -0.3190 -3.0705 -2.3476
 9285SOL    HW239315   3.424   1.617   7.109 -2.2130  0.3094  0.5912
 9286SOL     OW39316   3.659   1.835   9.381 -0.0878 -0.1692 -0.0639
 9286SOL    HW139317   3.665   1.887   9.461 -0.3351 -1.0798  0.5464
 9286SOL    HW239318   3.592   1.891   9.342 -0.7574  0.4300  1.9634
 9287SOL     OW39319   1.234   2.983  12.315  0.2398 -0.2234 -0.5434
 9287SOL    HW139320   1.273   3.036  12.384  1.5026 -1.6786 -0.1547
 9287SOL    HW239321   1.276   3.024  12.239 -1.0600 -1.8756 -2.1551
 9288SOL     OW39322   3.640   1.406   9.104  0.0362 -0.5441 -0.3643
 9288SOL    HW139323   3.715   1.354   9.133  0.5822  1.0061  0.9969
 9288SOL    HW239324   3.680   1.484   9.142  0.9073 -0.8289 -0.6817
 9289SOL     OW39325   2.965   1.324  14.553 -0.0431 -0.1520 -0.2896
 9289SOL    HW139326   2.954   1.232  14.530 -1.7182 -0.0804  0.2859
 9289SOL    HW239327   2.950   1.373  14.472 -0.9052 -0.3298 -0.2279
 9290SOL     OW39328   4.383   1.671   7.055 -0.3956 -0.1464  0.3442
 9290SOL    HW139329   4.307   1.704   7.103 -0.3637  1.7525 -0.9185
 9290SOL    HW239330   4.434   1.630   7.125 -1.3049 -2.0150 -0.0886
 9291SOL     OW39331   1.759   0.953   4.619 -0.3883 -0.1442 -0.1466
 9291SOL    HW139332   1.684   0.923   4.568 -0.6084 -0.1503  0.1774
 9291SOL    HW239333   1.708   1.010   4.677  0.9970  0.8225  0.1146
 9292SOL     OW39334   3.272   2.209  10.300  0.0379  0.1670 -0.0769
 9292SOL    HW139335   3.350   2.237  10.253  0.3091  1.0451  0.9066
 9292SOL    HW239336   3.282   2.116  10.277 -0.0348  0.1176  0.0934
 9293SOL     OW39337   2.567   2.348   8.375  0.0449 -0.0624  0.9566
 9293SOL    HW139338   2.625   2.362   8.300  0.9989 -1.0344  1.5077
 9293SOL    HW239339   2.536   2.438   8.378 -0.3888 -0.1570 -0.5562
 9294SOL     OW39340   0.126   4.579   3.112  0.0632  0.2846 -0.2652
 9294SOL    HW139341   0.143   4.520   3.185 -0.7019 -0.9288 -1.0625
 9294SOL    HW239342   0.171   4.527   3.045  0.0356  0.8187 -0.6997
 9295SOL     OW39343   4.601   3.950  17.165  0.2782 -0.1102 -0.7877
 9295SOL    HW139344   4.506   3.945  17.161  0.2757 -0.3888 -0.3115
 9295SOL    HW239345   4.632   3.867  17.200  0.7309  0.3553 -0.0782
 9296SOL     OW39346   1.688   0.348   8.576  0.1774 -0.3885  0.5489
 9296SOL    HW139347   1.705   0.339   8.669 -0.9822 -2.3944  0.5546
 9296SOL    HW239348   1.637   0.271   8.552  1.4369 -1.2944  0.8059
 9297SOL     OW39349   3.686   1.416   0.341  0.1319 -0.0136 -0.6250
 9297SOL    HW139350   3.640   1.380   0.266  0.2118 -0.4817 -0.4505
 9297SOL    HW239351   3.773   1.376   0.330 -0.1932 -0.7120 -0.6368
 9298SOL     OW39352   4.325   3.705   6.799  0.1406  0.0018 -0.3558
 9298SOL    HW139353   4.330   3.613   6.824  0.1134  0.0074 -0.3301
 9298SOL    HW239354   4.274   3.699   6.718  1.5733  1.0205 -1.3446
 9299SOL     OW39355   2.895   1.210   8.173 -0.0512  0.2463  0.2787
 9299SOL    HW139356   2.838   1.153   8.122 -0.6917 -0.7860  2.1654
 9299SOL    HW239357   2.846   1.292   8.183  2.1361  1.6258 -0.2144
 9300SOL     OW39358   4.023   1.187  16.121  0.8048  0.1280  0.1437
 9300SOL    HW139359   4.075   1.245  16.064  0.2535  0.8812  0.4034
 9300SOL    HW239360   4.075   1.170  16.199  0.6861 -0.9623 -0.0169
 9301SOL     OW39361   3.988   1.951  10.891  0.2634  0.2495  0.0891
 9301SOL    HW139362   4.020   1.876  10.841  0.5493  1.7015 -1.9146
 9301SOL    HW239363   4.024   1.941  10.979 -0.6958 -0.1627  0.4441
 9302SOL     OW39364   0.849   3.126   5.918 -0.0634  0.1757  0.6129
 9302SOL    HW139365   0.819   3.200   5.865  1.1374  0.3380  0.1572
 9302SOL    HW239366   0.935   3.107   5.879 -0.6174 -0.9857 -0.0435
 9303SOL     OW39367   3.344   0.553   7.723  0.9637  0.1556 -0.8123
 9303SOL    HW139368   3.301   0.468   7.730 -0.3216  0.8801  0.2254
 9303SOL    HW239369   3.357   0.553   7.628  1.1336  0.0436 -0.7882
 9304SOL     OW39370   1.931   3.961   2.735 -0.1771  0.0116 -0.0280
 9304SOL    HW139371   1.923   3.964   2.639  0.3448  2.7053  0.0192
 9304SOL    HW239372   1.871   4.029   2.766  0.9648 -0.2587  2.7212
 9305SOL     OW39373   2.728   1.412  11.225 -0.3401 -0.3376  0.3336
 9305SOL    HW139374   2.743   1.405  11.319  1.9913 -2.4968 -0.2207
 9305SOL    HW239375   2.734   1.319  11.203 -0.8304 -0.0126 -1.1826
 9306SOL     OW39376   3.880   0.424   4.762  0.2172  0.1813  0.4727
 9306SOL    HW139377   3.791   0.422   4.727  0.4717  0.4205 -0.2014
 9306SOL    HW239378   3.914   0.340   4.730 -0.7532 -0.9802  2.4763
 9307SOL     OW39379   3.798   3.798   8.296  0.4255 -0.2567 -0.3864
 9307SOL    HW139380   3.815   3.734   8.227  0.4865 -0.8479  0.1748
 9307SOL    HW239381   3.879   3.777   8.343  1.2600  0.0119 -1.7032
 9308SOL     OW39382   3.759   3.139   8.213 -0.1802 -1.0787  0.0843
 9308SOL    HW139383   3.846   3.110   8.240  0.0052  0.1401  0.8046
 9308SOL    HW239384   3.698   3.068   8.232 -0.7052 -0.0137  2.4516
 9309SOL     OW39385   2.832   1.545   3.877 -0.0036 -0.0304  0.2468
 9309SOL    HW139386   2.773   1.523   3.805 -1.7369  2.8990  0.8091
 9309SOL    HW239387   2.778   1.521   3.952 -1.0470 -0.0675 -0.5116
 9310SOL     OW39388   1.697   2.007   9.031 -0.1768  0.4458  0.2445
 9310SOL    HW139389   1.749   2.085   9.013  0.5623 -0.1520 -0.1891
 9310SOL    HW239390   1.616   2.033   8.987 -0.2674 -1.3601 -0.6330
 9311SOL     OW39391   4.019   2.208  11.126 -0.8445  0.3854  0.2158
 9311SOL    HW139392   3.924   2.204  11.139 -0.4824 -0.6747  2.4706
 9311SOL    HW239393   4.051   2.148  11.194 -0.3462 -1.1059 -1.3412
 9312SOL     OW39394   0.949   1.596  11.780  0.0474  0.4906 -0.7921
 9312SOL    HW139395   0.867   1.572  11.822  0.8670 -1.5702 -0.3801
 9312SOL    HW239396   0.934   1.681  11.739 -0.9478  0.3935 -0.6053
 9313SOL     OW39397   1.888   2.638   7.065  0.7637 -0.4143  0.3000
 9313SOL    HW139398   1.901   2.667   7.156  0.4162  3.3962 -0.8591
 9313SOL    HW239399   1.854   2.717   7.023  3.2492  1.3731  1.6705
 9314SOL     OW39400   2.875   0.043   4.830  0.0307 -0.8046 -0.1153
 9314SOL    HW139401   2.865   0.076   4.741  0.4625  0.3484  0.2670
 9314SOL    HW239402   2.952   4.712   4.824  0.2319 -0.4379 -1.0658
 9315SOL     OW39403   1.801   3.796   9.468  0.1557 -0.0811 -0.0733
 9315SOL    HW139404   1.751   3.718   9.445 -2.3002  1.2423  0.8254
 9315SOL    HW239405   1.756   3.862   9.413  0.2252  0.0515  0.0292
 9316SOL     OW39406   2.366   4.595   1.647 -0.1787 -0.1176 -0.8297
 9316SOL    HW139407   2.407   4.677   1.621  0.4748 -0.6753 -1.5696
 9316SOL    HW239408   2.402   4.583   1.735  1.6771  1.2108 -1.4082
 9317SOL     OW39409   3.115   3.804   3.838  0.0290 -0.0757 -0.0070
 9317SOL    HW139410   3.030   3.762   3.850  0.0294 -0.4439 -1.2565
 9317SOL    HW239411   3.086   3.887   3.800 -1.3077 -0.6511 -0.2267
 9318SOL     OW39412   4.050   0.277   4.105  0.4911 -0.0100  0.0201
 9318SOL    HW139413   4.085   0.193   4.074  1.3306  0.3255  0.0788
 9318SOL    HW239414   3.956   0.267   4.086  0.6852 -1.2035 -0.3345
 9319SOL     OW39415   3.646   4.525   6.626  0.1800 -0.0466 -0.1565
 9319SOL    HW139416   3.562   4.552   6.591  0.5366  0.0588 -0.9298
 9319SOL    HW239417   3.701   4.600   6.603  0.4467 -0.4994 -1.0129
 9320SOL     OW39418   1.450   0.269   9.110  0.1225 -0.3322 -0.1448
 9320SOL    HW139419   1.487   0.355   9.091 -0.1872 -0.3473 -0.8162
 9320SOL    HW239420   1.364   0.280   9.070  0.4980 -0.9776 -1.1473
 9321SOL     OW39421   1.526   0.961   5.496  0.0703 -0.2956 -0.1965
 9321SOL    HW139422   1.585   0.966   5.421  0.7643  1.6375  0.4986
 9321SOL    HW239423   1.457   0.909   5.454  0.0771 -0.0897 -0.4606
 9322SOL     OW39424   0.243   4.045   7.143 -0.1938 -0.0612 -0.8530
 9322SOL    HW139425   0.302   4.121   7.141  1.8321 -1.5507  2.2972
 9322SOL    HW239426   0.163   4.095   7.129 -1.0941 -1.2725 -0.0327
 9323SOL     OW39427   1.807   1.168   7.535  0.6015 -0.1156 -0.0273
 9323SOL    HW139428   1.805   1.207   7.622 -0.0945 -1.8892  0.7606
 9323SOL    HW239429   1.724   1.206   7.508  0.6280  1.0790  1.5911
 9324SOL     OW39430   1.528   3.031  17.061 -0.7817 -0.5199  0.1591
 9324SOL    HW139431   1.460   3.024  16.994  0.1935 -1.6694 -0.6842
 9324SOL    HW239432   1.497   3.104  17.115 -0.3321  1.1262 -1.8117
 9325SOL     OW39433   1.365   0.543  14.653  0.0373  0.1063 -0.2148
 9325SOL    HW139434   1.288   0.576  14.700  1.2238  1.2846  0.8849
 9325SOL    HW239435   1.418   0.623  14.658 -0.9134  0.7630 -0.5758
 9326SOL     OW39436   2.630   1.425   3.650 -0.0723  0.3498 -0.0797
 9326SOL    HW139437   2.643   1.405   3.558 -2.3966 -2.0076  0.1180
 9326SOL    HW239438   2.648   1.343   3.695 -0.8269  0.7677  0.9814
 9327SOL     OW39439   0.986   0.956   4.216 -0.9768 -0.4221  0.0634
 9327SOL    HW139440   0.946   1.042   4.210 -0.0283 -0.1423 -2.3524
 9327SOL    HW239441   1.066   0.966   4.164 -0.8205  0.0746  0.4005
 9328SOL     OW39442   2.056   0.197  16.221  0.2859 -0.0527 -0.7044
 9328SOL    HW139443   2.084   0.127  16.163 -0.7008 -0.6398 -0.4853
 9328SOL    HW239444   1.983   0.233  16.171  0.8785 -0.8221 -2.0985
 9329SOL     OW39445   4.430   1.001  13.459 -0.4719  0.5600 -0.2944
 9329SOL    HW139446   4.400   1.065  13.394 -0.0760  2.0212  0.9620
 9329SOL    HW239447   4.393   0.921  13.424 -1.7346  1.0632 -0.1095
 9330SOL     OW39448   0.183   1.954  14.084  0.3430  1.0376 -0.2885
 9330SOL    HW139449   0.093   1.922  14.080 -0.4678  3.3464 -0.5997
 9330SOL    HW239450   0.202   1.973  14.176 -0.3308 -1.3559  0.3315
 9331SOL     OW39451   4.106   1.984   9.535  0.3667 -0.4257  0.0735
 9331SOL    HW139452   4.049   1.989   9.459 -0.0405  0.0423  0.4128
 9331SOL    HW239453   4.085   2.065   9.581 -2.1807 -0.2283 -1.5004
 9332SOL     OW39454   4.102   4.224   2.428  0.2380 -0.1972 -0.0946
 9332SOL    HW139455   4.127   4.160   2.495  2.9605  2.2712  1.2729
 9332SOL    HW239456   4.131   4.175   2.351  1.9839 -0.8954  0.9849
 9333SOL     OW39457   3.512   0.579  14.348  0.1429 -0.2953  0.0704
 9333SOL    HW139458   3.440   0.643  14.348 -1.3090 -1.9470  1.1626
 9333SOL    HW239459   3.466   0.510  14.300  1.2899 -2.1898  1.7276
 9334SOL     OW39460   1.458   0.729   4.375  0.1422 -0.0444  0.8783
 9334SOL    HW139461   1.445   0.638   4.348 -0.0732 -0.5209  2.5844
 9334SOL    HW239462   1.428   0.771   4.295  3.1820 -0.1737 -0.3470
 9335SOL     OW39463   0.330   1.186   7.521 -0.7286  0.1578  0.1105
 9335SOL    HW139464   0.279   1.114   7.485  1.8543 -1.5498 -0.1648
 9335SOL    HW239465   0.351   1.232   7.440  0.5005  1.2195  1.0194
 9336SOL     OW39466   3.949   4.229   5.272 -0.4921 -0.0842  0.6672
 9336SOL    HW139467   3.892   4.168   5.226  0.1538  0.5854 -1.0126
 9336SOL    HW239468   3.942   4.300   5.208 -2.6030 -1.3925 -0.5626
 9337SOL     OW39469   2.578   1.927   9.348 -0.0976 -0.2884  0.3214
 9337SOL    HW139470   2.572   1.918   9.253 -0.6705  1.0898  0.2283
 9337SOL    HW239471   2.622   1.847   9.377  1.0058  0.3520  0.4146
 9338SOL     OW39472   2.525   3.405  15.258  0.7447  0.0744  0.5724
 9338SOL    HW139473   2.603   3.399  15.313  0.4711  3.2046  1.2864
 9338SOL    HW239474   2.580   3.424  15.182  1.7695 -1.1535  0.9974
 9339SOL     OW39475   3.178   0.287   7.067  0.4955  0.3478 -0.3853
 9339SOL    HW139476   3.101   0.305   7.012 -0.2860 -1.1484  0.2187
 9339SOL    HW239477   3.235   0.235   7.010  0.9770  2.1422 -1.5304
 9340SOL     OW39478   0.926   3.795   1.564 -0.1990 -0.7144 -0.4457
 9340SOL    HW139479   1.005   3.742   1.556  0.8625  0.5694  1.5240
 9340SOL    HW239480   0.901   3.816   1.474  0.4742 -0.7645 -0.6418
 9341SOL     OW39481   2.527   0.293   2.254 -0.5025 -0.1365  0.4961
 9341SOL    HW139482   2.545   0.320   2.164 -2.1136  1.0899  0.5417
 9341SOL    HW239483   2.523   0.198   2.239  0.9169  0.5102 -3.9750
 9342SOL     OW39484   1.388   1.367   0.388  0.3816  0.2226  0.6604
 9342SOL    HW139485   1.359   1.346   0.477 -2.7023  1.3210 -0.0980
 9342SOL    HW239486   1.408   1.460   0.398  0.8764 -0.0932  2.6246
 9343SOL     OW39487   4.630   2.226   0.905  0.2945  0.1096 -0.2583
 9343SOL    HW139488   4.663   2.297   0.960 -3.0702  0.8700  0.8101
 9343SOL    HW239489   4.541   2.221   0.941  1.5209 -1.9782  2.4879
 9344SOL     OW39490   1.345   3.744   3.717  0.2301 -0.1337 -0.1299
 9344SOL    HW139491   1.411   3.742   3.786  1.3277  0.0132 -1.1984
 9344SOL    HW239492   1.269   3.706   3.762  0.6325 -0.1438  0.5395
 9345SOL     OW39493   3.078   2.357   5.018 -0.0056 -0.1119  0.0895
 9345SOL    HW139494   3.159   2.316   5.047  0.8329  1.8825  0.5382
 9345SOL    HW239495   3.017   2.285   5.036 -1.9539  1.4905 -0.0283
 9346SOL     OW39496   4.085   4.288  11.681  0.1724 -0.3916 -0.0053
 9346SOL    HW139497   3.991   4.295  11.695 -0.2170 -3.4651 -1.1802
 9346SOL    HW239498   4.119   4.377  11.695 -0.2155 -0.2020 -0.2776
 9347SOL     OW39499   0.299   2.796  16.798  0.0090  0.0139  0.6734
 9347SOL    HW139500   0.271   2.841  16.877 -2.3210 -0.1390 -0.0844
 9347SOL    HW239501   0.213   2.778  16.760  1.5367 -1.4479 -2.1209
 9348SOL     OW39502   3.717   2.529   8.436  0.5443 -0.2494  0.2117
 9348SOL    HW139503   3.624   2.550   8.451  0.1240 -2.1513  0.3271
 9348SOL    HW239504   3.723   2.436   8.460  0.4363 -0.5764 -1.0458
 9349SOL     OW39505   1.125   3.918  16.159 -0.3687 -0.0559  0.1993
 9349SOL    HW139506   1.205   3.962  16.189  1.6541 -3.6004 -0.0472
 9349SOL    HW239507   1.145   3.910  16.066  0.4461 -0.4271  0.4016
 9350SOL     OW39508   1.946   1.232   9.476  0.3850  0.3740 -0.5566
 9350SOL    HW139509   1.895   1.189   9.545  0.8764  1.9052  0.7513
 9350SOL    HW239510   2.034   1.203   9.500 -1.3131 -1.1003  3.8384
 9351SOL     OW39511   4.139   0.305   4.642  0.2642 -0.0247 -0.2621
 9351SOL    HW139512   4.208   0.252   4.682  0.2521 -0.7636 -1.2232
 9351SOL    HW239513   4.178   0.392   4.635 -0.5909  0.4418  0.7469
 9352SOL     OW39514   0.627   1.748  14.148 -0.5796  0.2768  0.5073
 9352SOL    HW139515   0.700   1.786  14.197 -0.7559  0.8062  0.3611
 9352SOL    HW239516   0.601   1.679  14.208  0.5196 -0.5369  0.0424
 9353SOL     OW39517   2.781   1.383   5.962  0.5801 -0.3840  0.1702
 9353SOL    HW139518   2.749   1.461   6.007  2.5971  0.2188  0.5609
 9353SOL    HW239519   2.706   1.357   5.909  1.7521  1.7696 -2.6007
 9354SOL     OW39520   1.556   0.975   7.370  0.3574 -0.2048  0.2991
 9354SOL    HW139521   1.518   1.011   7.290  0.4463 -0.1527  0.2806
 9354SOL    HW239522   1.605   1.051   7.400 -0.3372  0.5841 -0.5798
 9355SOL     OW39523   0.029   0.537   6.955 -0.2990 -0.8487  0.0534
 9355SOL    HW139524   0.119   0.572   6.952 -0.2948 -0.8325  0.3854
 9355SOL    HW239525   4.709   0.611   6.916  1.7085  0.2118 -0.3427
 9356SOL     OW39526   4.497   0.356  12.388  0.0432 -0.2001  0.3440
 9356SOL    HW139527   4.533   0.309  12.313 -1.6408 -1.3043  0.2095
 9356SOL    HW239528   4.479   0.274  12.435  0.6544 -0.2498  0.4821
 9357SOL     OW39529   2.336   3.479   9.095  0.3428 -0.7529 -0.7538
 9357SOL    HW139530   2.261   3.499   9.039 -0.2065  0.9651  0.6024
 9357SOL    HW239531   2.355   3.565   9.132 -1.3532 -1.3412  1.4643
 9358SOL     OW39532   0.937   3.964  15.115  0.0325  0.1367  0.6438
 9358SOL    HW139533   0.866   3.941  15.175 -1.6614 -1.3604 -1.9278
 9358SOL    HW239534   0.929   3.907  15.039 -1.0514  0.1260  0.7629
 9359SOL     OW39535   3.874   2.643   4.122  0.0789  0.4477  0.0424
 9359SOL    HW139536   3.831   2.727   4.137  0.8801  1.1709 -1.6761
 9359SOL    HW239537   3.808   2.590   4.076  0.8288 -1.0298  0.6642
 9360SOL     OW39538   4.471   0.900  11.469 -0.1937 -0.0613  0.2161
 9360SOL    HW139539   4.496   0.955  11.395  0.7635 -0.0973  0.5078
 9360SOL    HW239540   4.499   0.948  11.546  0.5607  2.9129 -1.9305
 9361SOL     OW39541   1.049   0.113   8.049 -0.3801  0.0401 -0.3209
 9361SOL    HW139542   1.135   0.102   8.007 -0.1368 -1.6544  0.6360
 9361SOL    HW239543   1.080   0.155   8.129  1.7317  0.6316 -1.4513
 9362SOL     OW39544   1.916   2.921   5.687  0.3302 -0.2584  0.4197
 9362SOL    HW139545   1.970   2.842   5.689  0.8753 -0.0068 -3.9359
 9362SOL    HW239546   1.868   2.910   5.605  0.8166  0.3449  0.0591
 9363SOL     OW39547   3.862   3.634   2.827 -1.1561  0.5352 -0.1831
 9363SOL    HW139548   3.923   3.696   2.786 -0.0352 -0.4636 -0.0043
 9363SOL    HW239549   3.815   3.617   2.746  0.3687  0.2427 -1.0069
 9364SOL     OW39550   0.032   2.198  15.344  0.0018 -0.9836  0.1349
 9364SOL    HW139551   0.084   2.201  15.264  0.6006 -0.4090  0.5398
 9364SOL    HW239552   4.693   2.267  15.332  0.7287 -0.3475 -0.1544
 9365SOL     OW39553   4.679   2.889  13.676  0.0296  0.4128 -0.2122
 9365SOL    HW139554   4.704   2.802  13.706  0.3534  0.6401  0.1830
 9365SOL    HW239555   0.019   2.940  13.722  0.4173 -0.4189  0.1449
 9366SOL     OW39556   2.401   0.604  12.131  0.1592 -0.8956  0.9613
 9366SOL    HW139557   2.457   0.641  12.062  1.0088 -0.8219  1.6894
 9366SOL    HW239558   2.470   0.567  12.187 -0.7466 -1.5860  1.6219
 9367SOL     OW39559   0.502   3.584   2.838  0.1066 -0.0117  0.0746
 9367SOL    HW139560   0.526   3.534   2.916  0.5257  1.7096  1.0513
 9367SOL    HW239561   0.437   3.524   2.803 -1.3541  1.2909  0.5223
 9368SOL     OW39562   3.379   3.273  16.780 -0.4839  0.0510 -0.1807
 9368SOL    HW139563   3.353   3.180  16.775  1.3747 -0.4390 -0.5473
 9368SOL    HW239564   3.378   3.280  16.876  0.8960  0.0458 -0.1783
 9369SOL     OW39565   4.389   3.709   3.785 -0.3920  1.4427  0.3003
 9369SOL    HW139566   4.396   3.717   3.690  2.0188  1.1597  0.4640
 9369SOL    HW239567   4.303   3.666   3.790 -0.0495  0.5750 -1.1112
 9370SOL     OW39568   1.839   0.040   1.644 -0.3855 -0.3759  0.3903
 9370SOL    HW139569   1.867   0.110   1.585  2.7590 -0.6646  1.5408
 9370SOL    HW239570   1.919   4.714   1.638  0.0790  0.4083 -0.3002
 9371SOL     OW39571   1.535   1.064  16.229  0.1180  0.1368 -0.1793
 9371SOL    HW139572   1.554   1.039  16.138  0.9148 -0.5910  0.1950
 9371SOL    HW239573   1.444   1.034  16.239  1.0109 -1.9421  1.5922
 9372SOL     OW39574   2.383   3.669   5.051 -0.9748  0.0603 -0.2910
 9372SOL    HW139575   2.384   3.626   5.137 -1.0922  3.2721  1.3082
 9372SOL    HW239576   2.346   3.596   5.001 -0.3387  0.1853 -0.9388
 9373SOL     OW39577   1.867   3.925   4.161  0.4220  0.0610 -0.3610
 9373SOL    HW139578   1.955   3.898   4.136 -0.6982 -2.6348 -1.4353
 9373SOL    HW239579   1.881   3.945   4.253 -2.2158  1.1790 -0.1890
 9374SOL     OW39580   4.582   0.143   8.267 -0.2422 -0.7371 -0.1991
 9374SOL    HW139581   4.520   0.097   8.211  0.3671  0.6139 -1.9755
 9374SOL    HW239582   4.641   0.189   8.208 -1.8740  1.7944  0.1319
 9375SOL     OW39583   0.204   1.321   6.248 -0.1965  0.4065  0.2565
 9375SOL    HW139584   0.256   1.304   6.169  0.1607  2.1808  0.0979
 9375SOL    HW239585   0.267   1.366   6.304  1.5690  1.5369 -2.5876
 9376SOL     OW39586   0.268   3.533   7.517 -0.3430  0.7343 -0.8313
 9376SOL    HW139587   0.252   3.489   7.601 -0.7618 -0.1188 -1.3661
 9376SOL    HW239588   0.363   3.544   7.521 -0.6236  2.6238  0.7813
 9377SOL     OW39589   3.814   1.854   5.941 -0.3204 -0.0958  0.0807
 9377SOL    HW139590   3.818   1.948   5.920  1.5424 -0.1304  0.2604
 9377SOL    HW239591   3.779   1.817   5.860 -0.5556 -0.1521  0.2083
 9378SOL     OW39592   3.526   1.301   7.100 -0.8038  0.0667 -0.2073
 9378SOL    HW139593   3.562   1.258   7.022  0.3694  2.7472 -1.1624
 9378SOL    HW239594   3.508   1.390   7.069 -1.2997 -0.1904 -0.6750
 9379SOL     OW39595   4.352   2.566  16.972  0.4709 -0.2911  0.2462
 9379SOL    HW139596   4.411   2.642  16.971  1.0185 -0.7300 -0.4629
 9379SOL    HW239597   4.285   2.582  17.038  2.2335  0.7116  1.7967
 9380SOL     OW39598   3.445   3.058   8.056  0.4236 -0.3577 -0.3497
 9380SOL    HW139599   3.498   2.994   8.104 -1.2784 -0.3539  1.5664
 9380SOL    HW239600   3.511   3.096   7.998  2.9394 -1.0994  1.9995
 9381SOL     OW39601   1.374   3.390   2.239 -0.2156 -0.1674  0.7379
 9381SOL    HW139602   1.307   3.424   2.180  0.6329 -1.7990 -1.1982
 9381SOL    HW239603   1.444   3.455   2.230 -0.3694 -0.1719 -0.5569
 9382SOL     OW39604   0.916   2.591   8.242 -0.0891  0.0418 -0.0199
 9382SOL    HW139605   0.960   2.511   8.273  0.1556 -0.9277 -2.9072
 9382SOL    HW239606   0.937   2.592   8.149 -1.1468  1.2137 -0.2394
 9383SOL     OW39607   3.625   4.272   6.889 -0.7674  0.3668 -0.1986
 9383SOL    HW139608   3.555   4.208   6.899 -1.6751  1.1593 -1.6253
 9383SOL    HW239609   3.622   4.284   6.794  2.4522 -1.9047 -0.5933
 9384SOL     OW39610   3.287   1.285   0.784  0.3294 -0.5373  0.1608
 9384SOL    HW139611   3.220   1.338   0.740  0.4138  0.6321  1.4355
 9384SOL    HW239612   3.365   1.327   0.748  0.3054  0.0842  0.8390
 9385SOL     OW39613   0.015   2.025  12.042 -0.2936 -0.0870  0.3764
 9385SOL    HW139614   0.003   2.102  12.097  4.6115 -0.4417  2.0158
 9385SOL    HW239615   0.078   2.058  11.978 -1.4680  1.4819  0.0436
 9386SOL     OW39616   0.496   3.762   7.564  0.7084 -0.0411 -0.2969
 9386SOL    HW139617   0.565   3.757   7.631  0.6849 -1.1565 -0.3729
 9386SOL    HW239618   0.523   3.693   7.504  2.0564 -0.6601  1.0198
 9387SOL     OW39619   1.754   2.021   1.828 -0.0367  0.3243  0.1121
 9387SOL    HW139620   1.710   2.028   1.913  1.5449 -2.7294  1.1821
 9387SOL    HW239621   1.817   1.953   1.850 -0.4838 -0.4388 -0.9606
 9388SOL     OW39622   1.659   0.089  16.080 -0.7101 -0.1243  0.0977
 9388SOL    HW139623   1.581   0.137  16.052 -0.9729  0.0980  1.2141
 9388SOL    HW239624   1.710   0.164  16.112  0.0579 -0.5076 -0.2268
 9389SOL     OW39625   0.900   0.689   5.869 -0.1048  0.1556 -0.1243
 9389SOL    HW139626   0.909   0.732   5.783  0.2198  0.2399 -0.0484
 9389SOL    HW239627   0.823   0.731   5.906 -1.5662 -0.7303 -2.1510
 9390SOL     OW39628   0.526   2.629   0.084  0.1907 -0.5481  0.0402
 9390SOL    HW139629   0.494   2.566   0.148  0.1745  0.2553  0.8201
 9390SOL    HW239630   0.444   2.657   0.042 -0.0213 -1.3434 -0.0770
 9391SOL     OW39631   2.684   2.584   2.509  0.3700  0.2555 -0.3884
 9391SOL    HW139632   2.696   2.497   2.472  0.0863 -1.1592  2.7785
 9391SOL    HW239633   2.599   2.606   2.470 -0.6487  1.2881  2.3539
 9392SOL     OW39634   2.322   4.684   4.112 -0.8118  0.3723  0.4091
 9392SOL    HW139635   2.238   0.002   4.114 -0.1238  1.7984 -2.0925
 9392SOL    HW239636   2.381   0.024   4.075 -0.9816  0.7652  0.8381
 9393SOL     OW39637   4.714   1.991  14.947 -0.3870 -0.1869  0.4276
 9393SOL    HW139638   4.675   2.054  14.887 -0.8456 -1.6309 -0.7727
 9393SOL    HW239639   0.054   2.045  14.990 -1.3746  1.2363  0.1658
 9394SOL     OW39640   2.591   2.371   9.768 -0.2247 -0.0578 -0.2871
 9394SOL    HW139641   2.505   2.335   9.787  0.5103 -1.8124 -0.3340
 9394SOL    HW239642   2.599   2.445   9.828  0.7363  0.4736 -1.0734
 9395SOL     OW39643   2.326   4.521   2.764 -0.2754 -0.7679  0.6675
 9395SOL    HW139644   2.353   4.529   2.672 -0.5689 -2.5877  0.4308
 9395SOL    HW239645   2.257   4.456   2.755 -1.8164  0.8604  0.6782
 9396SOL     OW39646   4.654   3.536   3.495  0.4891 -0.4518 -0.6406
 9396SOL    HW139647   4.573   3.587   3.494  0.3639 -0.6679 -1.2050
 9396SOL    HW239648   4.690   3.555   3.582 -1.7296  0.8503 -0.0148
 9397SOL     OW39649   0.653   1.377   7.554  0.4078  0.1182 -0.2210
 9397SOL    HW139650   0.571   1.412   7.589  0.9647  0.9753  0.2317
 9397SOL    HW239651   0.678   1.446   7.493  0.1249 -0.0282 -0.5020
 9398SOL     OW39652   0.582   2.327   2.487  0.0442 -0.3652 -0.2601
 9398SOL    HW139653   0.490   2.352   2.483  0.4779  0.9943 -2.0596
 9398SOL    HW239654   0.633   2.407   2.502  0.6539 -0.9773  0.8741
 9399SOL     OW39655   0.023   1.779   7.404  0.3288 -0.1913 -0.2180
 9399SOL    HW139656   0.114   1.808   7.414  0.5416 -0.7927 -0.3893
 9399SOL    HW239657   0.013   1.728   7.323 -2.2437 -1.8479  1.1318
 9400SOL     OW39658   0.372   2.766   3.174 -0.6960  0.2421  0.3213
 9400SOL    HW139659   0.378   2.729   3.262 -1.1833  1.9504  1.0841
 9400SOL    HW239660   0.460   2.754   3.139 -0.9411  1.0261 -0.5694
 9401SOL     OW39661   1.196   4.240   3.628  0.0044  0.2939 -0.4092
 9401SOL    HW139662   1.177   4.146   3.635 -0.8943  0.2010 -3.9860
 9401SOL    HW239663   1.167   4.258   3.717  0.3863  0.4531 -0.3147
 9402SOL     OW39664   0.248   1.720   8.487  0.1262 -0.8907 -0.1934
 9402SOL    HW139665   0.298   1.642   8.511  0.6512  0.5986  3.6773
 9402SOL    HW239666   0.182   1.715   8.556  3.4099 -0.4374  2.9699
 9403SOL     OW39667   0.571   0.872  13.921 -0.1342  0.2970 -0.4548
 9403SOL    HW139668   0.557   0.892  13.829 -0.3090  1.3217 -0.2079
 9403SOL    HW239669   0.482   0.864  13.956  0.5335 -0.4604  1.1057
 9404SOL     OW39670   4.425   4.177  13.713 -0.0456 -0.1303  0.5047
 9404SOL    HW139671   4.447   4.260  13.671  0.1997 -2.1376 -3.3144
 9404SOL    HW239672   4.332   4.167  13.690 -0.3157 -0.9268  1.9329
 9405SOL     OW39673   0.336   2.425   3.203  0.4165 -0.2368  0.2400
 9405SOL    HW139674   0.376   2.485   3.266  0.4852  1.1908 -1.1578
 9405SOL    HW239675   0.413   2.385   3.162  1.3615 -0.5854  2.3445
 9406SOL     OW39676   1.168   2.506   3.540 -0.2848  0.0557  0.1679
 9406SOL    HW139677   1.243   2.481   3.595  1.0901  0.5495 -1.4820
 9406SOL    HW239678   1.156   2.594   3.574 -1.7454  0.2119 -0.7642
 9407SOL     OW39679   3.599   2.466   5.672 -0.2533  0.1974 -0.0941
 9407SOL    HW139680   3.573   2.553   5.641  0.7393  1.5165  2.7965
 9407SOL    HW239681   3.589   2.470   5.767  0.3078 -0.5460 -0.0037
 9408SOL     OW39682   1.482   3.380  13.835  0.5332 -0.1677 -0.3957
 9408SOL    HW139683   1.537   3.442  13.882 -1.5690 -0.5380  2.6187
 9408SOL    HW239684   1.395   3.420  13.837  0.3089 -0.5829 -1.7219
 9409SOL     OW39685   3.497   3.737   4.203  0.6278 -0.2053  0.8343
 9409SOL    HW139686   3.447   3.760   4.124  2.3344 -1.2810 -0.5784
 9409SOL    HW239687   3.437   3.752   4.276 -0.0720 -1.4247  0.5260
 9410SOL     OW39688   4.454   2.681  13.397  0.6869  0.1433  0.7415
 9410SOL    HW139689   4.503   2.745  13.345  0.7934 -0.1649  0.4550
 9410SOL    HW239690   4.386   2.736  13.436 -0.9061 -0.9074 -0.5274
 9411SOL     OW39691   1.767   0.189   4.320  0.0065  0.5230 -0.1566
 9411SOL    HW139692   1.781   0.108   4.370 -0.1100 -0.0864 -1.1023
 9411SOL    HW239693   1.827   0.240   4.373  2.4129 -1.4032 -1.0260
 9412SOL     OW39694   1.785   2.838  13.496  0.3450 -0.1027 -0.2948
 9412SOL    HW139695   1.722   2.865  13.563  2.2907 -1.0773  1.9247
 9412SOL    HW239696   1.744   2.839  13.410  2.3692  1.0563 -1.2343
 9413SOL     OW39697   2.444   2.397   5.466  0.1135  0.1789  0.6696
 9413SOL    HW139698   2.533   2.394   5.432 -0.5252  3.3296 -1.3310
 9413SOL    HW239699   2.453   2.338   5.541  1.1477 -0.0415  0.3594
 9414SOL     OW39700   1.239   0.722   8.974 -0.1271 -0.3812 -0.2388
 9414SOL    HW139701   1.156   0.700   9.016 -1.6521 -0.0872 -3.1040
 9414SOL    HW239702   1.225   0.685   8.887 -0.2291  0.9731 -0.8062
 9415SOL     OW39703   0.118   4.443   3.631 -0.3298  0.0980 -0.5872
 9415SOL    HW139704   0.112   4.411   3.541  1.5657  0.2419 -0.7773
 9415SOL    HW239705   0.181   4.514   3.624  0.1424 -0.1469  1.1040
 9416SOL     OW39706   0.383   4.593  16.342  0.0354  0.6634  0.8057
 9416SOL    HW139707   0.312   4.644  16.305  0.4665  0.1903 -0.6911
 9416SOL    HW239708   0.355   4.507  16.310 -0.9110  1.7310 -1.1767
 9417SOL     OW39709   1.018   1.596  15.240  0.0067  0.7208 -0.3611
 9417SOL    HW139710   0.950   1.603  15.173  0.9254  1.7318 -1.1924
 9417SOL    HW239711   1.068   1.518  15.218  0.1783  1.0442 -1.1163
 9418SOL     OW39712   0.914   2.524   3.857 -0.0528  0.1147  0.3973
 9418SOL    HW139713   0.972   2.578   3.909  0.2321  0.9498 -0.7726
 9418SOL    HW239714   0.922   2.554   3.766 -0.5587 -1.7167 -0.2545
 9419SOL     OW39715   4.113   0.490  10.518  0.1111 -0.3172  0.5428
 9419SOL    HW139716   4.146   0.515  10.432  0.2536 -0.1808  0.6366
 9419SOL    HW239717   4.136   0.397  10.523  2.0162  0.0404 -1.3509
 9420SOL     OW39718   1.535   3.024   4.042  0.5069 -0.0488  0.3633
 9420SOL    HW139719   1.480   3.082   3.989  0.1610  0.3409  1.1371
 9420SOL    HW239720   1.460   2.966   4.054  0.9097 -1.0300 -1.8554
 9421SOL     OW39721   2.917   2.074  17.010 -0.1312  0.1396 -0.1551
 9421SOL    HW139722   2.976   2.082  16.935 -0.4172  3.6148 -0.0072
 9421SOL    HW239723   2.896   1.981  17.000  0.8020 -0.0741 -0.1440
 9422SOL     OW39724   3.896   2.118   3.256  0.7646  0.4187  0.2528
 9422SOL    HW139725   3.879   2.059   3.182 -3.5672  1.6097  0.2870
 9422SOL    HW239726   3.886   2.203   3.214 -0.1735  0.6890  1.0162
 9423SOL     OW39727   3.023   4.174  13.024  0.0758  0.5912 -0.2740
 9423SOL    HW139728   3.010   4.185  13.118  1.1643 -1.1613  0.0816
 9423SOL    HW239729   3.019   4.079  13.020 -0.3334  0.5842  0.1999
 9424SOL     OW39730   0.921   0.403   4.369 -0.2897  0.1952  0.0243
 9424SOL    HW139731   0.929   0.310   4.350  0.4987 -0.5834  4.1572
 9424SOL    HW239732   0.863   0.388   4.443  0.6134  0.3992  0.7733
 9425SOL     OW39733   4.259   3.593  10.532  0.0612  0.1297 -0.3670
 9425SOL    HW139734   4.292   3.513  10.575 -0.4029 -0.7391 -1.6148
 9425SOL    HW239735   4.183   3.556  10.488 -0.3221  0.3627  0.0996
 9426SOL     OW39736   4.002   3.761   1.154  0.4462  0.3187  0.0835
 9426SOL    HW139737   3.915   3.795   1.174 -0.0172 -0.8510  0.0278
 9426SOL    HW239738   3.978   3.677   1.117 -2.3872  0.8498  0.7584
 9427SOL     OW39739   4.584   2.339   8.746 -0.6110 -0.7139 -0.1895
 9427SOL    HW139740   4.581   2.417   8.691  0.0556  0.0741  0.8801
 9427SOL    HW239741   4.493   2.313   8.758 -0.2409 -0.4697  3.3979
 9428SOL     OW39742   2.645   2.916   0.626  0.6649 -0.4282 -0.1302
 9428SOL    HW139743   2.698   2.853   0.675 -0.2115 -0.9428  0.1415
 9428SOL    HW239744   2.609   2.856   0.562  1.5127  0.7847 -1.7440
 9429SOL     OW39745   4.523   3.745   5.083 -0.0356 -0.6484 -0.2882
 9429SOL    HW139746   4.508   3.744   4.989 -0.3410  0.2556 -0.2495
 9429SOL    HW239747   4.438   3.709   5.110 -0.3821 -0.7403 -1.5162
 9430SOL     OW39748   1.929   4.164   4.644 -0.4552  0.0739  0.7366
 9430SOL    HW139749   2.009   4.115   4.661 -0.0796  0.7341  0.8899
 9430SOL    HW239750   1.891   4.109   4.576  0.3168  0.9693 -0.4149
 9431SOL     OW39751   1.581   2.046   2.132 -0.0029  0.0796 -0.1418
 9431SOL    HW139752   1.592   1.961   2.175 -0.5928 -0.3465 -0.8106
 9431SOL    HW239753   1.656   2.097   2.159 -0.7836  1.5618 -0.7852
 9432SOL     OW39754   0.580   4.061   9.424 -0.3443  0.0721  0.1358
 9432SOL    HW139755   0.640   4.127   9.388  0.5453  0.0874  1.6687
 9432SOL    HW239756   0.635   3.986   9.403 -2.2280 -0.4269 -3.0235
 9433SOL     OW39757   2.828   1.427   9.151 -0.3027 -0.2710  0.0340
 9433SOL    HW139758   2.868   1.442   9.237  1.9309  0.8178 -1.1834
 9433SOL    HW239759   2.875   1.346   9.130 -0.9562 -0.4995 -0.5142
 9434SOL     OW39760   0.745   1.117   7.580 -0.2286  0.7407  0.0907
 9434SOL    HW139761   0.680   1.186   7.564  0.3377  1.3233  0.3138
 9434SOL    HW239762   0.817   1.166   7.620  1.0972  0.9320 -2.5288
 9435SOL     OW39763   3.436   1.815   7.538  0.0421 -0.1789  0.0563
 9435SOL    HW139764   3.521   1.855   7.556 -0.3963  1.2514 -1.1416
 9435SOL    HW239765   3.462   1.722   7.534 -1.7146 -0.6265 -0.5640
 9436SOL     OW39766   4.502   1.543  11.407  0.1305  0.5765  0.0325
 9436SOL    HW139767   4.446   1.612  11.370  0.5593  0.3695 -1.0008
 9436SOL    HW239768   4.577   1.588  11.447  1.3179 -1.5961  0.2117
 9437SOL     OW39769   3.378   2.490   6.128  0.0579 -0.0706  0.0490
 9437SOL    HW139770   3.361   2.430   6.201 -1.1738  0.1049 -0.0795
 9437SOL    HW239771   3.442   2.547   6.169  0.0376  0.6765 -0.9519
 9438SOL     OW39772   0.302   2.244   0.778 -1.0795  0.1801  0.1990
 9438SOL    HW139773   0.396   2.231   0.763 -1.1708 -0.6045  0.3170
 9438SOL    HW239774   0.297   2.263   0.872 -1.8388 -1.4190  0.4754
 9439SOL     OW39775   2.315   3.632   4.386 -0.4339 -0.3895  0.0755
 9439SOL    HW139776   2.236   3.637   4.332  0.4232  2.8077 -0.8789
 9439SOL    HW239777   2.301   3.552   4.437 -1.9496  0.3922  0.8745
 9440SOL     OW39778   3.578   0.959   1.893 -0.2376 -0.9861  0.2415
 9440SOL    HW139779   3.598   0.908   1.972 -0.3370 -0.7484  0.4211
 9440SOL    HW239780   3.643   0.929   1.830  1.2552  1.5059  0.5910
 9441SOL     OW39781   1.739   1.254   6.977  0.5350  0.3332 -0.3914
 9441SOL    HW139782   1.655   1.226   6.941  1.1013  0.3656 -1.7161
 9441SOL    HW239783   1.748   1.341   6.937 -1.1131 -0.1584 -1.8194
 9442SOL     OW39784   3.985   3.996   6.679  0.2932 -0.7291 -0.9943
 9442SOL    HW139785   4.029   4.078   6.656  0.9851 -1.1267 -1.0978
 9442SOL    HW239786   3.934   4.023   6.755  1.7249  1.3318 -0.7715
 9443SOL     OW39787   4.377   0.861   3.346 -0.9677 -0.1345  0.1371
 9443SOL    HW139788   4.294   0.895   3.314  0.3193 -0.3823 -3.4613
 9443SOL    HW239789   4.397   0.937   3.400 -1.0453 -0.8818  1.2348
 9444SOL     OW39790   2.549   4.579  17.208  0.1890  0.6289 -0.1432
 9444SOL    HW139791   2.548   4.605  17.116 -1.9128 -0.5326 -0.4361
 9444SOL    HW239792   2.625   4.521  17.209  0.7006  1.2992  0.3222
 9445SOL     OW39793   4.546   2.011   8.490  0.2242  0.1686 -0.1512
 9445SOL    HW139794   4.601   2.030   8.566  1.7805 -1.1920 -0.9560
 9445SOL    HW239795   4.602   2.057   8.428 -1.0187  0.1342 -1.3102
 9446SOL     OW39796   1.806   2.329   4.922 -0.3005 -0.5390  0.2643
 9446SOL    HW139797   1.894   2.366   4.923  0.5795 -2.6196 -1.9554
 9446SOL    HW239798   1.785   2.298   4.834  0.1803  0.4966 -0.2212
 9447SOL     OW39799   3.865   0.873  12.919 -0.0538 -1.0203  0.8518
 9447SOL    HW139800   3.955   0.851  12.941  0.7648 -1.6953 -3.2795
 9447SOL    HW239801   3.860   0.966  12.940 -1.5509 -0.9056  0.0280
 9448SOL     OW39802   0.250   2.985   8.176  0.5353  0.2322 -0.2686
 9448SOL    HW139803   0.237   2.919   8.244 -1.8956 -0.7491 -1.6791
 9448SOL    HW239804   0.341   2.978   8.146  0.7438 -1.8809  0.8721
 9449SOL     OW39805   1.159   3.776   9.379  0.0318  0.2101  0.7194
 9449SOL    HW139806   1.170   3.851   9.321  2.0040  0.7851  1.8691
 9449SOL    HW239807   1.236   3.774   9.436 -0.5423  0.1210  1.4995
 9450SOL     OW39808   0.089   3.408   4.400  0.4345 -0.3857 -0.4908
 9450SOL    HW139809   4.726   3.435   4.377 -0.1884  0.1965  2.6958
 9450SOL    HW239810   0.114   3.365   4.318  0.6196 -2.5284  0.7056
 9451SOL     OW39811   3.335   2.016   0.163  0.3234 -0.5109  0.3379
 9451SOL    HW139812   3.282   1.975   0.095  0.3388 -0.4370  0.2820
 9451SOL    HW239813   3.314   1.965   0.242 -1.8499 -2.2023 -1.3295
 9452SOL     OW39814   1.627   1.665   6.269 -0.1318 -0.0247 -0.3636
 9452SOL    HW139815   1.615   1.758   6.288 -1.6770 -0.3155  0.0480
 9452SOL    HW239816   1.565   1.644   6.200  0.8960 -2.4491 -0.5347
 9453SOL     OW39817   3.542   0.189   5.112 -0.2471  0.2279  0.6696
 9453SOL    HW139818   3.453   0.169   5.084 -1.6506  2.0832  3.7656
 9453SOL    HW239819   3.534   0.186   5.208  0.9133  0.6336  0.7711
 9454SOL     OW39820   3.262   1.618   5.587  0.0146 -0.1401  0.2720
 9454SOL    HW139821   3.334   1.668   5.549  0.5026  1.3714  3.1603
 9454SOL    HW239822   3.310   1.559   5.645  1.1856  1.0771  0.5442
 9455SOL     OW39823   2.542   4.051   2.443  0.5885 -0.0278  0.5269
 9455SOL    HW139824   2.468   4.003   2.406  0.3407  1.0760 -0.4313
 9455SOL    HW239825   2.498   4.103   2.510 -1.3276  1.5801 -1.9626
 9456SOL     OW39826   2.034   4.434   7.621 -0.4396 -0.2230  0.3295
 9456SOL    HW139827   2.065   4.433   7.711 -1.1290 -0.4562  0.5646
 9456SOL    HW239828   1.941   4.456   7.622  0.1271  2.1492 -0.6854
 9457SOL     OW39829   3.413   4.357  16.030 -0.2746 -0.8151 -0.2200
 9457SOL    HW139830   3.428   4.393  16.117  0.8386 -0.1645 -0.6814
 9457SOL    HW239831   3.452   4.270  16.031 -2.5021 -1.8183  0.2712
 9458SOL     OW39832   3.027   0.869   8.268  0.0519  0.0012 -0.1278
 9458SOL    HW139833   3.039   0.890   8.175  0.5693 -3.1985 -0.7957
 9458SOL    HW239834   3.106   0.904   8.310 -0.0018  0.9666 -0.8209
 9459SOL     OW39835   4.103   2.657   2.921  0.5327  0.0241 -0.0593
 9459SOL    HW139836   4.016   2.633   2.954 -0.0311 -1.9433 -2.9887
 9459SOL    HW239837   4.074   2.743   2.890  2.2294  0.7910  0.4810
 9460SOL     OW39838   4.191   1.345  12.942 -0.4239 -0.5051  0.6770
 9460SOL    HW139839   4.179   1.392  13.024  0.5309  0.0564  0.4937
 9460SOL    HW239840   4.171   1.417  12.882  0.2987 -1.0563 -0.2445
 9461SOL     OW39841   2.371   3.464   2.849  0.7822  0.5352 -0.4207
 9461SOL    HW139842   2.281   3.439   2.832  0.9436  1.2239 -2.2464
 9461SOL    HW239843   2.408   3.455   2.761  0.1480  1.9808 -0.8183
 9462SOL     OW39844   3.223   1.423   8.953  0.0589  0.3503 -0.2898
 9462SOL    HW139845   3.266   1.373   9.022  0.0386 -0.9243 -1.1891
 9462SOL    HW239846   3.270   1.504   8.975  0.8094 -0.8401  2.4156
 9463SOL     OW39847   3.792   2.377  10.966 -0.2119  0.2824 -0.2157
 9463SOL    HW139848   3.803   2.321  11.042 -1.3388 -2.8894 -2.3753
 9463SOL    HW239849   3.698   2.392  10.971 -0.0567  0.6562  1.5608
 9464SOL     OW39850   1.917   1.568  12.582 -0.2963 -0.1573 -0.5760
 9464SOL    HW139851   1.973   1.636  12.618  0.3108 -1.1155  0.2943
 9464SOL    HW239852   1.972   1.518  12.522 -0.0911 -0.4632 -0.1314
 9465SOL     OW39853   3.914   2.232   7.022 -0.0288 -0.5743 -0.1389
 9465SOL    HW139854   3.935   2.218   6.930  0.2236  1.7015 -0.4247
 9465SOL    HW239855   3.926   2.148   7.067  0.8454  0.6208  1.8384
 9466SOL     OW39856   1.055   4.348   7.422  0.5435  0.2199  0.0377
 9466SOL    HW139857   1.045   4.374   7.513 -0.9202 -1.4267  0.3459
 9466SOL    HW239858   1.023   4.258   7.428  2.2926 -0.3637  0.7664
 9467SOL     OW39859   1.675   1.592  14.358  0.7255  0.0863  0.1815
 9467SOL    HW139860   1.706   1.515  14.312 -0.1831 -0.6866  0.8756
 9467SOL    HW239861   1.713   1.581  14.446 -0.9084 -1.6737  0.6508
 9468SOL     OW39862   3.419   2.678   1.806 -0.5993 -0.1661  0.5111
 9468SOL    HW139863   3.400   2.585   1.796 -0.9589  0.0738 -1.0831
 9468SOL    HW239864   3.424   2.717   1.719  2.9068 -3.0847 -0.5922
 9469SOL     OW39865   0.121   1.008   4.975  0.5578 -0.3329 -0.3224
 9469SOL    HW139866   0.046   1.067   4.978  1.2851  0.6484 -1.4317
 9469SOL    HW239867   0.171   1.039   5.051 -0.1297  0.9930 -0.4142
 9470SOL     OW39868   0.855   2.489   5.150 -0.3499 -0.4564  0.1097
 9470SOL    HW139869   0.796   2.469   5.077 -0.0167 -0.6146 -0.1114
 9470SOL    HW239870   0.889   2.573   5.117  1.6888 -1.6991 -0.9277
 9471SOL     OW39871   4.554   1.056  12.253  0.1988 -0.4884 -0.1126
 9471SOL    HW139872   4.516   0.971  12.274 -1.3127 -0.2382 -1.8350
 9471SOL    HW239873   4.509   1.104  12.323  1.1910 -0.3745  0.4471
 9472SOL     OW39874   0.360   3.734   6.370  0.1691 -0.2487  0.3412
 9472SOL    HW139875   0.335   3.818   6.408  0.7879  0.6004 -1.1077
 9472SOL    HW239876   0.447   3.753   6.334  0.7595 -0.3879  1.7039
 9473SOL     OW39877   0.804   4.299  14.255 -0.5454 -0.0146 -0.3373
 9473SOL    HW139878   0.832   4.247  14.180 -0.2204 -1.4359  0.7714
 9473SOL    HW239879   0.715   4.271  14.275 -1.1940  2.1510 -0.1736
 9474SOL     OW39880   4.254   3.984  16.581 -0.0663 -0.0798  0.4393
 9474SOL    HW139881   4.265   4.068  16.626 -0.6797  0.8623 -1.1429
 9474SOL    HW239882   4.264   4.007  16.488 -1.6817 -0.9501  0.0499
 9475SOL     OW39883   2.615   0.426   2.030  0.0788 -0.3183  0.0632
 9475SOL    HW139884   2.697   0.380   2.046  1.2303  1.0672 -1.8589
 9475SOL    HW239885   2.618   0.501   2.088  1.2255 -1.3525  1.3335
 9476SOL     OW39886   2.477   4.391  12.479 -0.5842  0.5343 -0.2665
 9476SOL    HW139887   2.566   4.420  12.461 -0.5488 -0.0742 -1.0720
 9476SOL    HW239888   2.431   4.470  12.450 -1.2689  0.7534  1.4039
 9477SOL     OW39889   2.599   2.725   0.414  0.3235  0.2865  0.6476
 9477SOL    HW139890   2.544   2.734   0.336 -1.4301 -0.1297  1.8587
 9477SOL    HW239891   2.681   2.764   0.383 -0.1784  0.1077 -0.9228
 9478SOL     OW39892   4.207   3.788   2.662 -0.3233 -0.7409  0.3939
 9478SOL    HW139893   4.232   3.729   2.734 -1.6844 -2.0599 -0.2077
 9478SOL    HW239894   4.270   3.768   2.593 -2.4930  0.1824 -1.8475
 9479SOL     OW39895   0.267   3.211   2.497  0.0860  0.0334  0.4049
 9479SOL    HW139896   0.276   3.188   2.405  1.8005  1.2009  0.2775
 9479SOL    HW239897   0.351   3.180   2.530  0.0885 -0.7862 -0.3815
 9480SOL     OW39898   2.202   4.325   5.558  0.0589  0.0585  0.9664
 9480SOL    HW139899   2.258   4.372   5.497 -1.0375  0.6423  0.4036
 9480SOL    HW239900   2.259   4.278   5.619  0.9537 -0.0235  0.0606
 9481SOL     OW39901   1.763   3.541   1.829 -0.4169  0.5539 -0.0139
 9481SOL    HW139902   1.725   3.591   1.901 -1.1929 -1.1308  0.7468
 9481SOL    HW239903   1.842   3.595   1.825 -0.3935  0.6279  1.4326
 9482SOL     OW39904   2.076   1.457  17.129 -0.7001 -0.3123 -0.4337
 9482SOL    HW139905   2.003   1.518  17.136 -1.9793 -1.8024 -0.7844
 9482SOL    HW239906   2.158   1.505  17.143 -0.8528 -0.0252 -0.5233
 9483SOL     OW39907   1.213   4.007   7.164 -0.1011  0.1579  0.0219
 9483SOL    HW139908   1.230   3.958   7.244  4.2777  1.8937  0.1453
 9483SOL    HW239909   1.198   3.935   7.102  1.7204  1.5154 -2.0088
 9484SOL     OW39910   2.237   4.582  14.407  0.1493 -0.0938  0.3730
 9484SOL    HW139911   2.239   4.492  14.376 -0.2517  0.0884 -0.1826
 9484SOL    HW239912   2.278   4.632  14.337  1.8130 -1.3446  0.4512
 9485SOL     OW39913   2.098   4.520   1.007  0.0133  0.0827 -0.1185
 9485SOL    HW139914   2.141   4.472   1.078 -0.0688 -0.2439 -0.2863
 9485SOL    HW239915   2.037   4.567   1.063 -0.2669  0.5447 -0.8186
 9486SOL     OW39916   2.899   2.963   2.638  0.0420 -0.4114 -0.2167
 9486SOL    HW139917   2.847   2.938   2.714  1.5214 -1.3702  0.4802
 9486SOL    HW239918   2.883   2.901   2.568 -0.3212 -1.2504  0.6131
 9487SOL     OW39919   2.636   2.318   2.677  0.6263  0.5215  0.2768
 9487SOL    HW139920   2.555   2.286   2.638  0.9830 -1.8569  1.5005
 9487SOL    HW239921   2.682   2.335   2.595 -0.6165 -0.5094 -0.6176
 9488SOL     OW39922   4.587   1.545  12.533 -0.0357  0.4318  0.7257
 9488SOL    HW139923   4.549   1.521  12.448  0.9341 -2.6790  1.1610
 9488SOL    HW239924   4.669   1.584  12.504  1.0340 -2.5221 -0.2089
 9489SOL     OW39925   4.208   0.877  11.387  0.0279 -0.0231 -0.3298
 9489SOL    HW139926   4.298   0.895  11.415  0.0580 -0.0469 -0.4100
 9489SOL    HW239927   4.219   0.823  11.308  0.8805 -0.9134  0.3934
 9490SOL     OW39928   3.190   2.413   1.542 -0.0815  0.2700 -0.2013
 9490SOL    HW139929   3.129   2.460   1.486 -0.5274  0.5949  0.5545
 9490SOL    HW239930   3.146   2.430   1.626 -1.3778 -0.8809 -0.6451
 9491SOL     OW39931   2.561   0.613  13.295 -0.3316  0.5227 -0.0058
 9491SOL    HW139932   2.639   0.600  13.241  0.1717  1.0426  0.5814
 9491SOL    HW239933   2.498   0.544  13.275  0.0128 -0.3792  2.0205
 9492SOL     OW39934   0.593   1.255   5.060  0.1619  0.6424  0.0346
 9492SOL    HW139935   0.603   1.323   5.127  0.2741  0.9042 -0.2468
 9492SOL    HW239936   0.667   1.196   5.075 -0.1857  0.5845  1.5691
 9493SOL     OW39937   2.589   2.156   9.490  0.6273  0.3539  0.7918
 9493SOL    HW139938   2.588   2.084   9.427 -0.4925 -0.4120  1.6909
 9493SOL    HW239939   2.589   2.113   9.575  2.2868 -0.2836  0.4730
 9494SOL     OW39940   0.414   0.127   2.955  0.0902 -0.0594 -0.7393
 9494SOL    HW139941   0.330   0.173   2.946 -0.3138 -0.0075  3.2340
 9494SOL    HW239942   0.430   0.091   2.868  0.3383  2.0910 -1.5983
 9495SOL     OW39943   0.638   3.270   7.881  0.3870 -0.4841  0.1371
 9495SOL    HW139944   0.601   3.199   7.829 -0.5430 -0.9081  1.3639
 9495SOL    HW239945   0.654   3.228   7.966 -0.8186 -1.8962 -0.3272
 9496SOL     OW39946   0.301   4.004   4.541  0.0834 -0.2291  0.3038
 9496SOL    HW139947   0.272   4.005   4.449 -0.1033 -0.1693  0.3618
 9496SOL    HW239948   0.219   3.971   4.579  1.1550 -0.6244  2.2671
 9497SOL     OW39949   3.807   2.357   1.801  0.0469 -0.0035  0.0992
 9497SOL    HW139950   3.893   2.329   1.835  1.5310  2.3491 -1.7145
 9497SOL    HW239951   3.788   2.440   1.843  0.8892 -0.3590  1.1853
 9498SOL     OW39952   0.537   3.318   3.299 -0.3069  0.7763  0.1093
 9498SOL    HW139953   0.500   3.285   3.381 -0.7556  1.2358  0.0896
 9498SOL    HW239954   0.459   3.300   3.247 -2.7295 -1.3475  4.4253
 9499SOL     OW39955   4.038   2.874   2.155  0.1519  0.0738 -0.5016
 9499SOL    HW139956   4.040   2.941   2.223  1.1215 -0.7804  0.3200
 9499SOL    HW239957   4.119   2.888   2.106 -0.2611  3.3252 -0.2663
 9500SOL     OW39958   0.955   0.867   7.890  0.2576 -0.3212  0.1170
 9500SOL    HW139959   0.898   0.937   7.856 -2.0016 -1.3410  1.8575
 9500SOL    HW239960   1.041   0.888   7.855  0.9926  0.8852  2.6495
 9501SOL     OW39961   1.326   1.716   6.538  0.2734  0.5396 -0.4876
 9501SOL    HW139962   1.342   1.756   6.453 -0.6922  0.8187 -0.5403
 9501SOL    HW239963   1.406   1.739   6.585 -0.2552  0.8457  0.2573
 9502SOL     OW39964   1.828   1.477   5.008 -0.0385 -0.1522 -0.0419
 9502SOL    HW139965   1.820   1.524   4.925 -0.0569  1.2487  0.7544
 9502SOL    HW239966   1.735   1.472   5.029  0.1579  0.8296  1.0969
 9503SOL     OW39967   3.245   1.754   3.922  0.6173 -0.0249  0.7458
 9503SOL    HW139968   3.224   1.827   3.979 -1.1001  0.0182  0.0679
 9503SOL    HW239969   3.257   1.809   3.844 -0.4175 -0.0694  0.5517
 9504SOL     OW39970   2.737   2.090   8.918  0.7752  0.4262 -0.6757
 9504SOL    HW139971   2.761   2.070   8.828  0.4395  2.1423 -1.1467
 9504SOL    HW239972   2.817   2.071   8.968 -0.3936  1.3843  1.5485
 9505SOL     OW39973   0.366   4.007   5.933 -0.5700 -0.0738  0.1924
 9505SOL    HW139974   0.423   3.991   5.858  0.5073  0.1081  0.9738
 9505SOL    HW239975   0.291   4.039   5.883  1.6654  2.6151 -1.3999
 9506SOL     OW39976   3.764   4.511  12.359 -0.6422 -0.1266  0.3919
 9506SOL    HW139977   3.843   4.564  12.367  0.0889 -1.3697  1.2433
 9506SOL    HW239978   3.797   4.422  12.369  0.2525  0.2486  0.6906
 9507SOL     OW39979   2.750   0.015   7.047 -0.0195  0.2353 -0.3332
 9507SOL    HW139980   2.803   0.043   7.122 -1.6519  2.0459  0.1206
 9507SOL    HW239981   2.770   4.648   7.053  2.3437  0.6257 -1.8892
 9508SOL     OW39982   0.483   2.959   5.283 -0.5134  0.1314 -0.4853
 9508SOL    HW139983   0.435   3.021   5.228  1.3876  1.8285 -0.2014
 9508SOL    HW239984   0.423   2.927   5.351 -1.0608  2.5462  0.1591
 9509SOL     OW39985   3.063   3.587   4.438 -0.5136  0.4260  0.0242
 9509SOL    HW139986   3.140   3.644   4.441 -0.4064  0.3508 -1.3484
 9509SOL    HW239987   3.100   3.500   4.429  0.8261  1.1322 -1.3087
 9510SOL     OW39988   3.686   4.091  12.649 -0.3183  0.2680 -0.0043
 9510SOL    HW139989   3.638   4.111  12.568  2.8764 -0.6212 -2.1158
 9510SOL    HW239990   3.726   4.008  12.623  2.7651  1.7785 -0.0265
 9511SOL     OW39991   1.928   3.787   0.011  0.9348  0.2047  0.1703
 9511SOL    HW139992   2.012   3.742   0.015  1.1644  0.6290  0.0696
 9511SOL    HW239993   1.912   3.778  17.623  0.2430 -2.0517  0.5196
 9512SOL     OW39994   1.461   3.978  10.596 -0.0150  0.2455  0.1444
 9512SOL    HW139995   1.455   4.047  10.530 -2.6644  0.4341  0.5601
 9512SOL    HW239996   1.532   3.924  10.561 -0.0558  0.0466  0.3687
 9513SOL     OW39997   0.774   3.699   3.846  0.2330 -0.3041 -0.6385
 9513SOL    HW139998   0.730   3.714   3.930  1.6840  0.7571 -0.0632
 9513SOL    HW239999   0.715   3.634   3.809  0.2361 -0.1224 -0.9648
 9514SOL     OW40000   3.639   1.718   5.764 -0.2443 -0.2224  0.3778
 9514SOL    HW140001   3.644   1.715   5.668 -1.4422 -1.7480  0.3495
 9514SOL    HW240002   3.565   1.661   5.787 -0.2804  0.0771  0.9777
 9515SOL     OW40003   3.052   3.738  11.156 -0.5713  0.3926  0.1044
 9515SOL    HW140004   3.068   3.813  11.214  0.3778  0.6741 -0.5324
 9515SOL    HW240005   3.089   3.782  11.079  0.8568  0.0814  0.6202
 9516SOL     OW40006   1.351   0.674  13.676 -0.4842 -0.1302 -0.0973
 9516SOL    HW140007   1.386   0.737  13.614 -1.1139  0.8978  0.5811
 9516SOL    HW240008   1.355   0.735  13.750  2.4679 -1.0430  0.4847
 9517SOL     OW40009   3.921   1.687   7.540  0.0779 -0.0731  0.0230
 9517SOL    HW140010   3.999   1.683   7.596 -1.1124  0.5400  1.6932
 9517SOL    HW240011   3.942   1.766   7.490 -0.0944 -0.9469 -1.4326
 9518SOL     OW40012   0.739   4.178  10.040 -0.0578  0.4768 -0.2090
 9518SOL    HW140013   0.768   4.242  10.105 -0.2301 -1.5392  1.8406
 9518SOL    HW240014   0.736   4.242   9.969  2.0348  1.0402  0.2215
 9519SOL     OW40015   2.368   3.097   3.131  0.2144  0.2880  0.0594
 9519SOL    HW140016   2.392   3.015   3.174 -0.8555 -0.8129 -1.3902
 9519SOL    HW240017   2.378   3.055   3.045 -0.5819 -0.3880  0.2957
 9520SOL     OW40018   0.310   0.255  16.399  0.4058 -0.3824 -0.2984
 9520SOL    HW140019   0.341   0.330  16.450 -0.9394  0.2899 -0.4697
 9520SOL    HW240020   0.297   0.200  16.477  3.2670 -1.0909 -0.3091
 9521SOL     OW40021   2.774   3.663  11.379 -0.2071 -0.1840 -0.0817
 9521SOL    HW140022   2.802   3.748  11.346  0.4689 -1.4439 -2.7510
 9521SOL    HW240023   2.854   3.615  11.400 -1.7476 -2.5482  0.3759
 9522SOL     OW40024   0.754   3.475   7.742 -0.6230 -0.2473 -0.0924
 9522SOL    HW140025   0.725   3.413   7.809  1.5232 -0.5292  0.6033
 9522SOL    HW240026   0.705   3.447   7.665 -1.0001 -1.4150  0.5745
 9523SOL     OW40027   3.317   3.686   4.486 -0.2073 -0.1645 -0.1316
 9523SOL    HW140028   3.408   3.672   4.509 -0.4782 -0.6162  0.6785
 9523SOL    HW240029   3.322   3.777   4.458  1.6912 -0.3201 -0.2635
 9524SOL     OW40030   1.372   1.385  15.632  0.1728 -0.0734 -0.7853
 9524SOL    HW140031   1.326   1.358  15.552 -0.7589  2.3048 -1.0671
 9524SOL    HW240032   1.378   1.296  15.664  1.1297  0.1256 -0.4266
 9525SOL     OW40033   4.056   0.120   3.436  0.5841 -0.3034 -0.0553
 9525SOL    HW140034   4.002   0.189   3.474 -2.2144 -1.9027 -1.1484
 9525SOL    HW240035   4.033   0.049   3.495 -1.3018 -1.4033 -2.1078
 9526SOL     OW40036   0.748   1.124   5.394  0.2033 -0.5260  0.5594
 9526SOL    HW140037   0.787   1.205   5.361  0.0541 -0.4256  0.6327
 9526SOL    HW240038   0.819   1.059   5.394  2.3420  1.8011 -1.5246
 9527SOL     OW40039   4.331   1.351   8.222 -0.8808  0.2105  0.0286
 9527SOL    HW140040   4.290   1.404   8.290  0.6177  2.1439 -0.5628
 9527SOL    HW240041   4.389   1.417   8.184 -0.4997 -0.1841 -0.0800
 9528SOL     OW40042   3.616   1.732  10.743  0.3777 -0.0588  0.5227
 9528SOL    HW140043   3.524   1.705  10.747 -0.7111  3.7121  1.1451
 9528SOL    HW240044   3.627   1.816  10.787  1.9804 -0.8247  1.5812
 9529SOL     OW40045   1.397   1.761   8.632  0.0152  0.2738 -0.2318
 9529SOL    HW140046   1.313   1.758   8.588  0.0602  1.3968 -0.3892
 9529SOL    HW240047   1.360   1.743   8.719 -2.2442 -1.3998 -1.5606
 9530SOL     OW40048   4.417   4.244   7.854 -0.4783  0.0700  0.3110
 9530SOL    HW140049   4.357   4.171   7.837 -0.6037  0.8746 -2.6519
 9530SOL    HW240050   4.488   4.194   7.895 -0.5667 -1.8988 -1.9511
 9531SOL     OW40051   4.284   1.114   2.043 -0.2299  0.0864  0.7225
 9531SOL    HW140052   4.294   1.028   2.084 -0.0484  1.2027  2.9831
 9531SOL    HW240053   4.200   1.107   1.997  0.3976 -2.8464 -0.0336
 9532SOL     OW40054   1.951   2.930  17.177  0.1961  0.0147  0.3109
 9532SOL    HW140055   2.001   3.005  17.207  0.8523 -0.2293 -0.1594
 9532SOL    HW240056   2.008   2.883  17.116 -0.1089 -1.4259  1.1175
 9533SOL     OW40057   2.408   0.703  11.309  0.1793  0.2847  0.5742
 9533SOL    HW140058   2.347   0.746  11.251  2.3309  1.3705 -0.8840
 9533SOL    HW240059   2.346   0.657  11.365  1.4514  0.4641  2.1365
 9534SOL     OW40060   3.819   2.162   9.131  0.0284  0.4328 -0.6290
 9534SOL    HW140061   3.908   2.152   9.164 -0.7790 -1.5858  0.9573
 9534SOL    HW240062   3.772   2.176   9.213 -1.7828 -2.6406 -1.1294
 9535SOL     OW40063   2.495   2.604  15.044  0.8924  0.8400 -0.0854
 9535SOL    HW140064   2.429   2.580  15.109 -0.4564  3.0075 -0.6781
 9535SOL    HW240065   2.441   2.591  14.967 -0.2783 -3.3146  1.4234
 9536SOL     OW40066   4.316   0.231   2.478 -0.4538  0.2074  0.4319
 9536SOL    HW140067   4.400   0.194   2.506 -0.4867  0.5477  0.9849
 9536SOL    HW240068   4.278   0.152   2.441 -0.6981  0.6338 -0.2256
 9537SOL     OW40069   3.497   0.223   7.343 -0.2081  0.6149 -0.2198
 9537SOL    HW140070   3.549   0.144   7.329  0.6763  0.9518  1.1584
 9537SOL    HW240071   3.444   0.216   7.264 -1.7739  0.9188  0.8101
 9538SOL     OW40072   3.767   3.343   6.107  0.1664 -0.2566 -0.0065
 9538SOL    HW140073   3.692   3.401   6.094  0.9824  0.2797 -2.3648
 9538SOL    HW240074   3.826   3.393   6.163  0.7175  1.1229 -1.8102
 9539SOL     OW40075   3.412   2.598   4.334 -0.2654 -0.0689 -0.0869
 9539SOL    HW140076   3.361   2.679   4.343  1.0814  0.6441  1.1624
 9539SOL    HW240077   3.345   2.533   4.313 -1.5316  1.4436 -0.7730
 9540SOL     OW40078   3.483   0.597  10.320  0.0146  0.1918 -0.0679
 9540SOL    HW140079   3.545   0.665  10.345 -1.4944  1.6251 -0.2472
 9540SOL    HW240080   3.468   0.544  10.399 -0.3304 -0.3153 -0.4685
 9541SOL     OW40081   0.716   4.240  10.917 -0.6818  0.2542  0.3892
 9541SOL    HW140082   0.725   4.189  10.997  0.6656  0.5543  0.4339
 9541SOL    HW240083   0.674   4.320  10.947 -0.4877  0.7082 -0.5318
 9542SOL     OW40084   0.705   4.390   0.255  0.4254 -0.5597  0.1411
 9542SOL    HW140085   0.655   4.461   0.214 -0.1310  0.7539  3.0626
 9542SOL    HW240086   0.724   4.330   0.183 -0.1179 -2.9005  1.9575
 9543SOL     OW40087   1.007   0.450   6.477 -0.0930  0.2534  0.3473
 9543SOL    HW140088   1.027   0.357   6.471 -0.6393  0.1766 -0.3311
 9543SOL    HW240089   1.068   0.486   6.413 -1.5606  1.8941 -0.1346
 9544SOL     OW40090   1.969   1.256   4.711 -0.0262 -0.0373  0.1841
 9544SOL    HW140091   1.936   1.345   4.709  2.5951  0.9495  0.3904
 9544SOL    HW240092   1.954   1.230   4.620 -1.5380  0.5956  0.2530
 9545SOL     OW40093   4.027   3.420   3.369  0.4435  0.0823  0.2924
 9545SOL    HW140094   4.121   3.402   3.366  0.9931  3.4382 -2.0530
 9545SOL    HW240095   4.009   3.377   3.453 -2.3635  0.0240 -0.3176
 9546SOL     OW40096   1.155   0.744   7.243  0.4632  0.6395  0.6623
 9546SOL    HW140097   1.094   0.756   7.315  1.9242  2.2748  1.6238
 9546SOL    HW240098   1.149   0.832   7.205  1.4082  0.5488  0.2855
 9547SOL     OW40099   2.348   0.839  11.862 -0.5877 -0.2079 -0.2520
 9547SOL    HW140100   2.443   0.846  11.859 -0.4328 -2.2483  0.2473
 9547SOL    HW240101   2.336   0.842  11.957  1.8720 -2.1092  0.0863
 9548SOL     OW40102   2.968   2.792   0.706  0.0263  0.8330 -0.4447
 9548SOL    HW140103   2.999   2.809   0.617  3.1509 -1.4542  0.1683
 9548SOL    HW240104   2.944   2.700   0.707  3.1512 -0.0059 -1.0044
 9549SOL     OW40105   3.460   3.415   3.121  0.0584 -0.1831 -0.2879
 9549SOL    HW140106   3.533   3.466   3.087 -1.1924  0.4091 -2.1198
 9549SOL    HW240107   3.392   3.432   3.056 -0.1200  0.9590  0.1922
 9550SOL     OW40108   2.938   2.762   8.053 -0.0310  0.4356 -0.0695
 9550SOL    HW140109   2.855   2.751   8.100  1.2252 -0.4750  1.9583
 9550SOL    HW240110   2.965   2.671   8.036  0.7925  0.5595  0.5611
 9551SOL     OW40111   3.838   1.932   8.106 -0.8101  0.0555  0.6521
 9551SOL    HW140112   3.862   1.912   8.015 -0.4130 -0.4765  0.8732
 9551SOL    HW240113   3.817   2.025   8.108 -0.3515  0.1484  1.0083
 9552SOL     OW40114   2.277   1.418   7.588  0.4071  0.0748 -0.0125
 9552SOL    HW140115   2.249   1.458   7.506 -0.5225  0.0586  0.2950
 9552SOL    HW240116   2.206   1.428   7.653  1.2524  1.1362  0.7495
 9553SOL     OW40117   0.837   1.819   3.947  0.7151 -0.1117  0.0789
 9553SOL    HW140118   0.809   1.738   3.904 -1.3582 -0.8533  2.8070
 9553SOL    HW240119   0.932   1.806   3.943  0.6082 -0.4735 -1.2625
 9554SOL     OW40120   1.983   0.979   7.471 -0.8333  0.4205  0.1849
 9554SOL    HW140121   1.906   1.020   7.509 -1.8090 -1.8104  0.5989
 9554SOL    HW240122   2.047   1.050   7.475  1.6407 -1.5153 -4.2218
 9555SOL     OW40123   1.895   3.239   8.048  0.2365 -0.2967 -0.6858
 9555SOL    HW140124   1.818   3.186   8.029 -0.1580 -0.3484  1.0330
 9555SOL    HW240125   1.846   3.318   8.071  0.4055 -1.3623  3.4577
 9556SOL     OW40126   3.577   4.617   6.921  0.7267 -0.1942 -0.3027
 9556SOL    HW140127   3.481   4.613   6.924  0.8001 -1.1162  0.5957
 9556SOL    HW240128   3.597   4.572   6.839 -0.4224 -0.2681 -0.5412
 9557SOL     OW40129   2.471   4.639   6.464 -0.2535  0.2663 -0.0809
 9557SOL    HW140130   2.417   4.662   6.388 -0.1598  0.4005 -0.1071
 9557SOL    HW240131   2.462   4.544   6.469 -0.4141  0.3125  0.5234
 9558SOL     OW40132   4.130   4.629  12.697  0.5624  0.0324 -0.3582
 9558SOL    HW140133   4.202   4.599  12.642 -0.0841  0.1106 -1.2435
 9558SOL    HW240134   4.174   4.690  12.756  1.8461 -0.8064 -0.4437
 9559SOL     OW40135   4.248   3.665   8.561 -0.2933 -0.3000 -0.2795
 9559SOL    HW140136   4.193   3.739   8.585  0.4421  0.0083  0.4296
 9559SOL    HW240137   4.238   3.607   8.636 -1.4224  1.9396  1.2919
 9560SOL     OW40138   4.718   1.425   6.134  0.0706 -0.1424  0.4569
 9560SOL    HW140139   0.071   1.383   6.167  0.2397 -0.7240 -0.7066
 9560SOL    HW240140   4.649   1.364   6.159 -0.8011  0.8105  0.3703
 9561SOL     OW40141   2.364   2.183   6.407 -1.2357 -0.0260  0.2875
 9561SOL    HW140142   2.392   2.231   6.485 -3.6982  1.0475  0.5392
 9561SOL    HW240143   2.329   2.101   6.443 -0.5926 -0.0757  0.7963
 9562SOL     OW40144   1.300   3.281   6.075 -0.3862 -0.0347 -0.1911
 9562SOL    HW140145   1.365   3.273   6.006 -1.7693 -2.6146 -1.1921
 9562SOL    HW240146   1.256   3.359   6.042  0.2471  0.3522 -0.1122
 9563SOL     OW40147   1.442   0.754   7.810  0.0125  0.3499  0.1900
 9563SOL    HW140148   1.527   0.784   7.843  1.6394 -0.7728 -3.0679
 9563SOL    HW240149   1.424   0.683   7.872  1.4117  1.3046  1.6727
 9564SOL     OW40150   3.386   1.990   7.891  0.0180 -0.4064 -0.5751
 9564SOL    HW140151   3.297   1.957   7.906 -0.3932  1.9275  1.9373
 9564SOL    HW240152   3.439   1.913   7.912 -0.7838 -1.3974 -2.1144
 9565SOL     OW40153   3.316   1.594   1.961 -0.4979 -0.1758  0.1519
 9565SOL    HW140154   3.253   1.528   1.990 -0.5743 -0.0021  0.3749
 9565SOL    HW240155   3.284   1.670   2.009 -0.0985 -0.4141  0.7910
   4.72621   4.72621  17.70596
