Membrane in water
40155
    1TCq1    O1    1   2.096   1.874  11.220 -0.6565 -0.4751 -0.5936
    1TCq1    C1    2   2.212   1.844  11.283  0.3747  0.7160 -0.0631
    1TCq1    O2    3   2.293   1.776  11.225  0.5419 -0.1570 -0.2441
    1TCq1    C2    4   2.254   1.974  11.336 -0.3257  0.4710 -0.0711
    1TCq1    C3    5   2.381   2.009  11.305  0.0392  0.3735  0.2612
    1TCq1    C4    6   2.443   2.114  11.364 -0.3010 -0.1878  0.0114
    1TCq1    C5    7   2.377   2.175  11.467 -0.4180  0.0451 -0.4496
    1TCq1    C6    8   2.258   2.127  11.510  0.1436 -0.0235 -0.6551
    1TCq1    C7    9   2.192   2.022  11.447  0.3786 -0.0728  0.2047
    1TCq1    C8   10   2.201   2.180  11.627  0.0364  0.2427  0.1137
    1TCq1    O4   11   2.086   2.223  11.621 -0.4363  0.1673 -0.2629
    1TCq1    C9   12   2.576   2.159  11.324  0.7011  0.4634  0.1376
    1TCq1    O5   13   2.641   2.208  11.411 -0.3397 -0.1087 -0.3142
    1TCq1    O6   14   2.622   2.098  11.221  0.0893 -0.0150  0.5144
    1TCq1    H1   15   2.078   1.968  11.244 -1.1450 -0.8156  0.3773
    1TCq1    H2   16   2.427   1.973  11.214 -0.0810 -0.3194  0.4717
    1TCq1    H3   17   2.430   2.251  11.522 -1.0193  1.5339 -1.9314
    1TCq1    H4   18   2.095   1.987  11.481  0.7941 -0.4017  1.0569
    2MPD2     C   19   2.281   2.321  12.131 -0.2924  0.4971 -0.2694
    2MPD2    C1   20   2.174   2.343  12.045  0.0744  0.7887 -0.1255
    2MPD2    C2   21   2.173   2.289  11.917 -0.0337  0.2627  0.0066
    2MPD2    C3   22   2.275   2.203  11.868 -0.4649 -0.1858 -0.5849
    2MPD2    C4   23   2.377   2.176  11.962 -0.4082  0.1099  0.4071
    2MPD2    C5   24   2.380   2.236  12.087 -0.7759  0.1645  0.5554
    2MPD2     H   25   2.094   2.322  11.851 -1.1328 -1.0136  0.6813
    2MPD2    H1   26   2.455   2.108  11.927 -0.6181 -1.2318  2.5135
    2MPD2    H2   27   2.286   2.353  12.235 -0.6528 -1.9674  0.5015
    2MPD2    H3   28   2.453   2.209  12.162  1.5209 -0.4794 -1.8790
    2MPD2     N   29   2.291   2.157  11.734 -0.0332  0.3611 -0.1815
    2MPD2    H5   30   2.372   2.097  11.725 -2.4675 -2.4150 -3.7137
    2MPD2    N1   31   2.060   2.428  12.073  0.0468  0.8393  0.6171
    2MPD2    H7   32   1.994   2.435  11.997  0.6229 -0.4373  0.0001
    3TCq1    O1   33   1.464   3.729  11.084 -0.0409 -0.0515  0.4270
    3TCq1    C1   34   1.586   3.776  11.076 -0.7433 -0.4514  0.5903
    3TCq1    O2   35   1.689   3.724  11.117 -0.0779  0.0884  0.2879
    3TCq1    C2   36   1.586   3.854  10.957  0.1634 -0.3511 -0.2581
    3TCq1    C3   37   1.669   3.964  10.961 -0.0076  0.6244  0.5910
    3TCq1    C4   38   1.657   4.056  10.858 -0.0212  0.5424  0.8695
    3TCq1    C5   39   1.573   4.025  10.752  0.3725 -0.2725  0.1678
    3TCq1    C6   40   1.495   3.912  10.748 -0.2971 -0.3837 -0.1602
    3TCq1    C7   41   1.498   3.826  10.855  0.2945 -0.3101  0.2069
    3TCq1    C8   42   1.369   3.915  10.682 -0.3265  0.0494 -0.0604
    3TCq1    O4   43   1.290   3.824  10.698  0.2930 -0.6064  1.1398
    3TCq1    C9   44   1.730   4.181  10.858  0.2737 -0.1066  0.4152
    3TCq1    O5   45   1.683   4.280  10.795  0.0834  0.3578  0.4327
    3TCq1    O6   46   1.819   4.192  10.946 -0.6517 -0.0011  0.4321
    3TCq1    H1   47   1.403   3.805  11.073  2.2172  2.0280  2.1226
    3TCq1    H2   48   1.736   3.983  11.045 -0.5932 -2.2572  1.7182
    3TCq1    H3   49   1.578   4.106  10.680  0.2186 -0.8343 -0.4758
    3TCq1    H4   50   1.438   3.737  10.858  1.9454 -1.3958  0.8048
    4MPD2     C   51   1.001   4.195  10.440  0.7152  0.0087  0.0721
    4MPD2    C1   52   1.106   4.275  10.490  0.2084  0.4298 -0.9406
    4MPD2    C2   53   1.216   4.218  10.550  0.7372 -0.3322  0.0521
    4MPD2    C3   54   1.228   4.086  10.569  0.0980  0.9118 -0.7051
    4MPD2    C4   55   1.124   4.008  10.533  0.2211 -0.2517 -0.1264
    4MPD2    C5   56   1.021   4.061  10.462 -0.4297  0.5303 -0.0832
    4MPD2     H   57   1.299   4.276  10.590  1.5539 -0.3015 -1.6706
    4MPD2    H1   58   1.135   3.900  10.540  2.7620  0.0568  0.8881
    4MPD2    H2   59   0.915   4.229  10.383 -0.7183 -3.0611  0.3918
    4MPD2    H3   60   0.951   3.986  10.430 -0.7790  0.4731  0.7981
    4MPD2     N   61   1.344   4.040  10.632 -0.7648  0.0990  1.1255
    4MPD2    H5   62   1.407   4.112  10.664  0.7221  0.4270 -2.5779
    4MPD2    N1   63   1.096   4.412  10.485 -0.3689  0.1969 -0.8513
    4MPD2    H7   64   1.176   4.462  10.521  0.0334 -1.6471  0.8351
    5TCq1    O1   65   1.501   1.016  11.111  0.1227  0.4607  0.0651
    5TCq1    C1   66   1.587   1.023  11.002 -0.3214 -0.1050 -1.2201
    5TCq1    O2   67   1.665   1.115  10.976  0.3336  0.5083  0.1392
    5TCq1    C2   68   1.591   0.891  10.950  0.1930 -0.4816  1.0555
    5TCq1    C3   69   1.481   0.828  10.915  0.6874 -0.1784 -0.0544
    5TCq1    C4   70   1.486   0.740  10.810 -0.9851 -0.3592 -0.4821
    5TCq1    C5   71   1.609   0.716  10.748 -0.1449  0.2638 -0.4591
    5TCq1    C6   72   1.718   0.783  10.783 -0.3826 -0.6319 -0.4935
    5TCq1    C7   73   1.711   0.871  10.889 -0.0755  0.1941  0.3529
    5TCq1    C8   74   1.845   0.754  10.721 -0.5221 -0.7812  0.4861
    5TCq1    O4   75   1.860   0.646  10.667  0.0011  0.2615  0.9881
    5TCq1    C9   76   1.368   0.663  10.773  0.3033 -0.0118  1.1067
    5TCq1    O5   77   1.263   0.676  10.844  0.4030 -0.3221 -0.6803
    5TCq1    O6   78   1.378   0.590  10.672 -0.1539  0.0403  0.3546
    5TCq1    H1   79   1.450   0.932  11.109 -0.9566  1.1026  0.5681
    5TCq1    H2   80   1.385   0.845  10.964  0.9458  0.1026  0.3530
    5TCq1    H3   81   1.611   0.657  10.657 -0.2046 -0.6651  0.1359
    5TCq1    H4   82   1.796   0.931  10.919 -1.1431  0.5406  2.7150
    6MPD2     C   83   2.155   0.958  10.740  0.7257 -0.5450  0.1326
    6MPD2    C1   84   2.074   0.845  10.714 -0.2621 -0.9277  0.6603
    6MPD2    C2   85   2.140   0.728  10.687 -0.2470 -0.7235  0.7752
    6MPD2    C3   86   2.284   0.725  10.683 -0.5585  0.7094 -0.0814
    6MPD2    C4   87   2.354   0.835  10.704  0.0218  0.7662  0.6166
    6MPD2    C5   88   2.295   0.954  10.732  0.2331 -0.0212  0.8635
    6MPD2     H   89   2.089   0.632  10.686 -1.2818 -0.1591  0.3763
    6MPD2    H1   90   2.462   0.845  10.701  0.2372 -1.7346 -0.0706
    6MPD2    H2   91   2.118   1.057  10.761 -0.3548 -0.9224  0.0100
    6MPD2    H3   92   2.351   1.047  10.735 -1.4131  1.0272 -0.3174
    6MPD2     N   93   2.345   0.599  10.659 -0.3656  0.1651 -0.4338
    6MPD2    H5   94   2.283   0.520  10.642 -1.0500  0.9374 -1.5067
    6MPD2    N1   95   1.932   0.857  10.726 -0.7771 -0.1997 -0.0607
    6MPD2    H7   96   1.897   0.949  10.754  2.1117  0.6298  0.8420
    7TCq1    O1   97   3.907   0.490  13.235 -0.0516  0.1555  0.4502
    7TCq1    C1   98   4.002   0.412  13.174 -0.1198 -0.1865 -0.5079
    7TCq1    O2   99   3.993   0.395  13.054 -0.0379 -0.1523  0.7092
    7TCq1    C2  100   4.033   0.307  13.271 -0.0796 -0.5622  0.0115
    7TCq1    C3  101   4.098   0.343  13.385  0.1523  0.2824 -0.1307
    7TCq1    C4  102   4.144   0.253  13.469 -0.4372 -0.5310  0.3977
    7TCq1    C5  103   4.123   0.118  13.444 -0.7250 -0.3982  0.4831
    7TCq1    C6  104   4.066   0.079  13.322  0.5693 -0.1570  0.0999
    7TCq1    C7  105   4.023   0.173  13.230  0.4868 -0.5435 -0.4009
    7TCq1    C8  106   4.049   4.656  13.305  0.1036 -0.2912 -0.0886
    7TCq1    O4  107   4.129   4.586  13.366  0.6583  0.2986 -0.7546
    7TCq1    C9  108   4.183   0.290  13.603  0.1139  0.3350 -0.1436
    7TCq1    O5  109   4.187   0.203  13.696  0.0145 -0.3602  0.0677
    7TCq1    O6  110   4.232   0.406  13.601 -0.2274 -0.0577 -0.3233
    7TCq1    H1  111   3.916   0.495  13.333  0.1055  1.7632  0.3584
    7TCq1    H2  112   4.099   0.448  13.411  1.4559  0.8399 -2.3997
    7TCq1    H3  113   4.154   0.040  13.512 -1.7187 -2.6686 -1.6484
    7TCq1    H4  114   3.973   0.152  13.136 -1.6750  2.2545  0.1276
    8MPD2     C  115   3.881   4.250  13.031 -1.1877 -0.0111  0.7503
    8MPD2    C1  116   3.956   4.251  13.146 -0.3124  1.4405  0.0533
    8MPD2    C2  117   3.991   4.374  13.199  0.8472 -0.1390 -0.8111
    8MPD2    C3  118   3.943   4.492  13.145  0.0331  0.2929  0.9688
    8MPD2    C4  119   3.853   4.485  13.038 -0.1033  0.4267  0.2073
    8MPD2    C5  120   3.822   4.362  12.981  0.6106 -0.6659  0.0657
    8MPD2     H  121   4.051   4.384  13.289  0.4396  0.5379 -0.6193
    8MPD2    H1  122   3.807   4.573  12.995  0.4652  0.5079 -0.2339
    8MPD2    H2  123   3.860   4.155  12.982  0.6605  0.0078 -0.0556
    8MPD2    H3  124   3.754   4.363  12.897  1.7412  1.1275 -0.8249
    8MPD2     N  125   3.968   4.623  13.203 -0.7968  0.2732 -0.1491
    8MPD2    H5  126   3.932   4.707  13.157  0.2756  1.5214  1.2785
    8MPD2    N1  127   3.995   4.129  13.197 -0.0468  0.3703 -0.3632
    8MPD2    H7  128   3.960   4.050  13.145  1.9157 -0.3238 -0.6454
    9TCq1    O1  129   1.671   3.425  10.636  0.2050  0.4084  0.5924
    9TCq1    C1  130   1.653   3.494  10.751  0.5051 -0.0206 -0.5780
    9TCq1    O2  131   1.616   3.440  10.855 -0.6642  0.1469  0.0802
    9TCq1    C2  132   1.742   3.605  10.746 -0.2513 -0.1837  0.0382
    9TCq1    C3  133   1.768   3.666  10.620  0.1278  0.2662  0.0293
    9TCq1    C4  134   1.866   3.760  10.608 -0.1303 -0.4919  0.2958
    9TCq1    C5  135   1.937   3.792  10.717 -0.2610  0.2762 -0.3426
    9TCq1    C6  136   1.908   3.735  10.837  0.2422 -0.2060 -0.4385
    9TCq1    C7  137   1.812   3.645  10.857  0.0888  0.1900 -0.6517
    9TCq1    C8  138   2.012   3.750  10.937  0.1055 -0.1203 -0.9554
    9TCq1    O4  139   2.118   3.783  10.891  0.0840  0.2822 -0.2947
    9TCq1    C9  140   1.913   3.796  10.476 -1.2292  0.2321  0.3421
    9TCq1    O5  141   2.029   3.826  10.453 -0.0319  0.1142  0.8840
    9TCq1    O6  142   1.835   3.760  10.382  0.1332  0.2146  0.1539
    9TCq1    H1  143   1.738   3.469  10.579 -0.6523  1.1482  0.1615
    9TCq1    H2  144   1.710   3.646  10.530 -1.2786  2.5309  0.4328
    9TCq1    H3  145   2.027   3.848  10.698  0.6051 -0.6453  1.0342
    9TCq1    H4  146   1.792   3.591  10.949  2.4356  0.2841 -0.0807
   10MPD2     C  147   2.199   3.729  11.164  1.0135  0.6620 -0.3714
   10MPD2    C1  148   2.058   3.729  11.179 -1.4946  0.6741 -0.2798
   10MPD2    C2  149   1.999   3.717  11.309  0.0355  0.3866  0.3479
   10MPD2    C3  150   2.083   3.705  11.416  0.4949 -0.4414  0.0626
   10MPD2    C4  151   2.222   3.709  11.394 -0.2360  0.4666 -0.1197
   10MPD2    C5  152   2.279   3.716  11.274  0.5189 -0.6403  0.3904
   10MPD2     H  153   1.893   3.726  11.328 -0.3001  0.2750 -1.4783
   10MPD2    H1  154   2.284   3.698  11.483  0.2285 -0.8293 -0.6105
   10MPD2    H2  155   2.243   3.734  11.065 -1.6060  3.3539 -1.4210
   10MPD2    H3  156   2.386   3.703  11.264  0.6279  0.7921 -0.3491
   10MPD2     N  157   2.037   3.684  11.546  0.0947  0.2866  0.0891
   10MPD2    H5  158   2.105   3.648  11.612 -0.3348 -1.3495 -0.3659
   10MPD2    N1  159   1.965   3.735  11.068  0.4100 -0.5625  0.7043
   10MPD2    H7  160   1.867   3.722  11.093  0.7531  0.0015  2.3436
   11TCq1    O1  161   3.030   3.506  14.523  0.6668 -0.1512  0.0084
   11TCq1    C1  162   2.978   3.399  14.453  0.1651  0.0889  0.7935
   11TCq1    O2  163   3.017   3.358  14.343  0.1475  0.3045  0.0660
   11TCq1    C2  164   2.890   3.316  14.535 -0.0401 -0.6695 -0.3343
   11TCq1    C3  165   2.907   3.326  14.673 -0.0180  0.3158  0.2867
   11TCq1    C4  166   2.824   3.250  14.751 -1.2501 -0.4277 -0.3679
   11TCq1    C5  167   2.725   3.178  14.692 -0.2081 -0.3218 -0.4166
   11TCq1    C6  168   2.717   3.167  14.552 -0.0988  0.1940  0.2648
   11TCq1    C7  169   2.794   3.238  14.467 -0.3466  0.4176 -0.2518
   11TCq1    C8  170   2.590   3.126  14.510 -0.1803 -0.1410 -0.0206
   11TCq1    O4  171   2.501   3.123  14.593  0.3796  0.2498 -0.2831
   11TCq1    C9  172   2.839   3.250  14.892 -0.4222  0.8984 -0.2203
   11TCq1    O5  173   2.916   3.338  14.934 -0.5889 -0.2289  0.1980
   11TCq1    O6  174   2.789   3.156  14.967 -0.4899  0.1240 -0.4972
   11TCq1    H1  175   2.974   3.530  14.601  0.0721 -0.6159 -0.2730
   11TCq1    H2  176   3.002   3.361  14.712 -0.0142  0.9799 -0.3150
   11TCq1    H3  177   2.669   3.120  14.764 -0.8810 -0.4854 -1.0790
   11TCq1    H4  178   2.776   3.250  14.361 -0.7150 -0.2078 -0.2639
   12MPD2     C  179   2.359   3.043  14.344  1.5401  0.4966 -0.0931
   12MPD2    C1  180   2.494   3.032  14.301  0.5144  0.6047 -0.1366
   12MPD2    C2  181   2.517   2.973  14.180 -0.8206 -0.6311 -0.4831
   12MPD2    C3  182   2.408   2.958  14.087 -0.3298  0.6098  0.2393
   12MPD2    C4  183   2.279   2.980  14.125 -0.4422 -0.5407 -0.4741
   12MPD2    C5  184   2.253   3.010  14.258  0.3288 -0.0185  0.5563
   12MPD2     H  185   2.618   2.963  14.142 -0.4821 -0.6810  0.4209
   12MPD2    H1  186   2.194   2.956  14.063 -0.8037  0.8329 -0.5117
   12MPD2    H2  187   2.329   3.085  14.439  1.9832 -0.1787  0.3400
   12MPD2    H3  188   2.153   3.013  14.300  0.3549 -1.0930  0.6859
   12MPD2     N  189   2.424   2.910  13.956  0.4570 -0.0132 -0.9302
   12MPD2    H5  190   2.339   2.897  13.901 -0.6146 -1.5768  1.1068
   12MPD2    N1  191   2.605   3.071  14.382 -0.7244  0.0670  0.4908
   12MPD2    H7  192   2.695   3.056  14.338 -0.7929 -0.2290  0.4507
   13TCq1    O1  193   2.265   3.783  10.565  0.1494 -0.1457  0.1578
   13TCq1    C1  194   2.314   3.686  10.637  0.3589 -0.1980 -0.1638
   13TCq1    O2  195   2.415   3.679  10.704 -0.1918  0.7911 -0.0058
   13TCq1    C2  196   2.223   3.567  10.631 -0.3466 -0.9469  0.1641
   13TCq1    C3  197   2.149   3.540  10.520  0.7142 -0.0268  0.0553
   13TCq1    C4  198   2.044   3.456  10.539  0.1296  0.7688  0.1492
   13TCq1    C5  199   2.019   3.400  10.661 -0.0557 -0.1109 -0.5529
   13TCq1    C6  200   2.094   3.427  10.774  0.1124  0.5711 -0.3376
   13TCq1    C7  201   2.203   3.512  10.763 -0.5030 -0.0487  0.1983
   13TCq1    C8  202   2.039   3.390  10.902  0.1552  0.2711  0.1289
   13TCq1    O4  203   1.923   3.352  10.901 -0.2651 -0.2817  0.6053
   13TCq1    C9  204   1.967   3.426  10.423 -0.2889 -0.0762 -1.0065
   13TCq1    O5  205   2.037   3.433  10.317  0.1158 -0.1963  0.3861
   13TCq1    O6  206   1.841   3.442  10.435 -0.3026 -0.1496  0.3266
   13TCq1    H1  207   2.170   3.775  10.542  0.4191 -1.4494 -0.5354
   13TCq1    H2  208   2.154   3.593  10.425 -1.9524 -1.7806 -1.0721
   13TCq1    H3  209   1.925   3.346  10.661 -0.2807  0.2806  0.5368
   13TCq1    H4  210   2.266   3.540  10.847 -2.0864  0.7890  1.1272
   14MPD2     C  211   2.204   3.313  11.222  0.0723  0.3996  0.2312
   14MPD2    C1  212   2.103   3.340  11.128  0.5716 -0.8530 -0.0685
   14MPD2    C2  213   1.977   3.347  11.178 -0.1176  0.0158  0.1232
   14MPD2    C3  214   1.938   3.326  11.313  0.3104 -0.2407  0.3028
   14MPD2    C4  215   2.045   3.312  11.398  0.1253  0.4674 -0.1926
   14MPD2    C5  216   2.170   3.307  11.355 -0.7147 -0.9474 -0.2440
   14MPD2     H  217   1.896   3.380  11.114  2.2921  0.6927 -2.5737
   14MPD2    H1  218   2.028   3.322  11.505  1.6626 -0.6421  0.1641
   14MPD2    H2  219   2.306   3.298  11.189 -0.0890  1.2389 -0.6475
   14MPD2    H3  220   2.250   3.275  11.421 -1.3489  1.0100  1.4566
   14MPD2     N  221   1.803   3.343  11.346  0.1700 -0.3263  0.2360
   14MPD2    H5  222   1.743   3.366  11.267  0.3720  1.7424  0.7006
   14MPD2    N1  223   2.133   3.374  10.997  0.0470  0.1496 -0.7371
   14MPD2    H7  224   2.231   3.371  10.972  0.4279  1.2591  0.6133
   15TCq1    O1  225   4.104   2.073   2.613 -0.2245  0.1584  0.0910
   15TCq1    C1  226   4.018   2.063   2.719  0.3388 -0.6139  0.2801
   15TCq1    O2  227   4.013   2.129   2.820 -0.4907  0.0488  0.0184
   15TCq1    C2  228   3.913   1.961   2.685 -0.5981 -0.1447  1.0496
   15TCq1    C3  229   3.837   1.916   2.790 -0.5300 -0.3112 -0.2136
   15TCq1    C4  230   3.735   1.835   2.763 -0.4692  0.2999  0.1780
   15TCq1    C5  231   3.697   1.799   2.638  0.0226 -0.4208 -0.1158
   15TCq1    C6  232   3.761   1.862   2.536  0.4323  0.5587 -0.1404
   15TCq1    C7  233   3.874   1.943   2.557  0.1358  0.1277 -0.2894
   15TCq1    C8  234   3.746   1.801   2.404  0.4894 -0.0562 -0.4930
   15TCq1    O4  235   3.853   1.787   2.347 -0.2595 -0.2068 -0.3627
   15TCq1    C9  236   3.669   1.780   2.875  0.1865  0.3728 -0.9235
   15TCq1    O5  237   3.668   1.847   2.980 -0.5423  0.1363  0.7921
   15TCq1    O6  238   3.591   1.686   2.851 -0.2023 -0.0984 -0.3593
   15TCq1    H1  239   4.100   1.998   2.550  0.1788  1.2210 -1.1968
   15TCq1    H2  240   3.872   1.924   2.893  1.4394  0.3932 -0.9408
   15TCq1    H3  241   3.612   1.733   2.626  1.0854 -1.6377 -1.0553
   15TCq1    H4  242   3.919   1.986   2.469  0.7216  1.1170  0.4939
   16MPD2     C  243   3.445   1.695   2.237 -0.6307 -0.4629  0.4186
   16MPD2    C1  244   3.577   1.701   2.256 -0.4033 -0.8389  0.1402
   16MPD2    C2  245   3.659   1.618   2.183  0.0353  0.4809 -0.5825
   16MPD2    C3  246   3.609   1.535   2.088  0.2662 -0.2062 -0.0540
   16MPD2    C4  247   3.476   1.537   2.061  0.1075  0.1822  0.7214
   16MPD2    C5  248   3.393   1.613   2.141  0.0952 -0.2115 -0.3675
   16MPD2     H  249   3.766   1.616   2.202  0.0483  0.9278 -0.6211
   16MPD2    H1  250   3.437   1.484   1.974 -2.1115 -1.0791  2.4917
   16MPD2    H2  251   3.386   1.773   2.283 -0.8581 -0.8967  0.8592
   16MPD2    H3  252   3.288   1.624   2.120 -0.3225  2.1979  2.8543
   16MPD2     N  253   3.703   1.448   2.027  0.8036 -1.0352 -0.1171
   16MPD2    H5  254   3.797   1.446   2.066  0.7132  0.7688  0.1927
   16MPD2    N1  255   3.613   1.772   2.367 -0.7034  0.1910  0.0968
   16MPD2    H7  256   3.541   1.812   2.426 -1.4973 -2.8723  1.2273
   17TCq1    O1  257   1.608   2.530  10.566  0.0213  0.2939  0.0391
   17TCq1    C1  258   1.718   2.456  10.594  0.6842  0.2183 -0.9053
   17TCq1    O2  259   1.715   2.344  10.641 -0.0699  0.2198 -0.2674
   17TCq1    C2  260   1.836   2.541  10.592 -0.1785 -0.4138 -0.0347
   17TCq1    C3  261   1.864   2.615  10.487 -0.4613 -0.2561  0.5463
   17TCq1    C4  262   1.985   2.677  10.472  0.1792  0.4987 -0.3008
   17TCq1    C5  263   2.078   2.653  10.563 -0.3993 -0.0029 -1.0172
   17TCq1    C6  264   2.055   2.569  10.671  0.7521 -0.2437 -1.0475
   17TCq1    C7  265   1.924   2.529  10.696 -0.2183  0.3820 -0.2376
   17TCq1    C8  266   2.156   2.560  10.769 -0.7385  0.0343  0.0076
   17TCq1    O4  267   2.122   2.536  10.889 -0.4731 -0.1052  0.0937
   17TCq1    C9  268   2.008   2.768  10.361 -0.7645  0.0056  0.1310
   17TCq1    O5  269   1.906   2.796  10.293  0.3389  0.1431  0.4028
   17TCq1    O6  270   2.125   2.818  10.348 -0.1779  0.4226  0.4362
   17TCq1    H1  271   1.638   2.623  10.554 -1.5908  0.9683  1.2188
   17TCq1    H2  272   1.792   2.624  10.406 -0.7777  1.5868  1.0370
   17TCq1    H3  273   2.172   2.705  10.551  0.4147 -1.2159  0.0946
   17TCq1    H4  274   1.902   2.487  10.794  0.9419 -2.4776 -1.2089
   18MPD2     C  275   2.410   2.576  10.932 -0.0924  0.4898  0.0207
   18MPD2    C1  276   2.404   2.570  10.795 -0.8026  0.9242  0.6215
   18MPD2    C2  277   2.516   2.567  10.715  0.1868 -0.6401 -0.0342
   18MPD2    C3  278   2.637   2.570  10.782 -0.5158  0.2328 -0.2884
   18MPD2    C4  279   2.643   2.576  10.917 -0.0964  0.6932  0.0203
   18MPD2    C5  280   2.530   2.569  10.996 -0.1289  0.5504  0.8772
   18MPD2     H  281   2.516   2.580  10.608 -1.5743 -0.7895 -0.0455
   18MPD2    H1  282   2.736   2.587  10.971  0.3745 -2.7153 -0.0598
   18MPD2    H2  283   2.319   2.579  10.990  0.6458  0.2366  1.1953
   18MPD2    H3  284   2.536   2.566  11.104 -2.5594  2.3510  1.0592
   18MPD2     N  285   2.761   2.568  10.716  0.7252  0.2579  0.1460
   18MPD2    H5  286   2.845   2.569  10.773  1.4763 -0.8598 -0.9119
   18MPD2    N1  287   2.285   2.573  10.720 -0.3692  0.3144  0.1490
   18MPD2    H7  288   2.304   2.582  10.620  1.3181 -0.2214  0.4221
   19TMC2    C1  289   3.218   2.694  14.183  0.5235  0.1400 -0.2313
   19TMC2    C2  290   3.141   2.811  14.188 -0.0000  0.0222  0.4819
   19TMC2    C3  291   3.003   2.795  14.197 -0.0684 -0.0023  0.1852
   19TMC2    C4  292   3.159   2.572  14.190 -0.5441 -1.0109 -0.0798
   19TMC2    C5  293   3.024   2.560  14.222 -0.5036 -0.9314 -0.5520
   19TMC2    C6  294   2.947   2.676  14.228 -0.6701  0.6848  0.2737
   19TMC2     C  295   3.363   2.708  14.179 -0.6340 -0.0251  0.1241
   19TMC2     O  296   3.397   2.827  14.169  0.5462 -0.3889 -0.6142
   19TMC2     H  297   3.180   2.912  14.185  1.0253 -0.3798  0.3042
   19TMC2    H1  298   3.221   2.485  14.168  0.6445 -0.0427 -0.5832
   19TMC2    H2  299   2.840   2.677  14.242 -0.3137 -2.7562  3.2587
   19TMC2    C7  300   2.969   2.427  14.216 -0.1424 -0.6985  0.0358
   19TMC2    C8  301   2.921   2.905  14.248 -0.4507 -0.6572  0.7021
   19TMC2    O1  302   3.056   2.342  14.198 -0.0467 -0.6644  0.0399
   19TMC2    O2  303   2.805   2.883  14.276  0.4424  0.4927  0.5896
   19TMC2    O5  304   2.949   3.026  14.190 -0.4431 -0.4500 -0.1769
   19TMC2    H5  305   3.040   3.043  14.158 -0.4321 -3.9952 -1.9673
   20MPD2     C  306   3.643   2.689  14.118  0.0958 -0.0287  0.8931
   20MPD2    C1  307   3.582   2.593  14.197 -0.2931 -0.5146  0.0395
   20MPD2    C2  308   3.656   2.500  14.265  0.5494 -1.0823  0.3690
   20MPD2    C3  309   3.800   2.513  14.266 -0.0918 -0.9144  0.0698
   20MPD2    C4  310   3.861   2.615  14.199  0.0151 -0.8798  0.0423
   20MPD2    C5  311   3.781   2.690  14.120  0.0941 -0.2385  0.4219
   20MPD2     H  312   3.600   2.424  14.319 -1.4644 -0.5667 -0.9940
   20MPD2    H1  313   3.966   2.608  14.173 -0.2275 -0.2646 -1.0626
   20MPD2    H2  314   3.591   2.757  14.052  0.2200 -1.4855 -0.7191
   20MPD2    H3  315   3.822   2.756  14.044 -1.0542  0.6989  0.6312
   20MPD2     N  316   3.886   2.424  14.330  0.4717  0.1842 -0.4352
   20MPD2    H5  317   3.983   2.455  14.339  0.0767  1.1859  0.3021
   20MPD2    N1  318   3.440   2.593  14.206  0.0961  0.1628 -0.7061
   20MPD2    H7  319   3.395   2.520  14.260 -0.9257  1.3062 -0.0326
   21MPD2     C  320   1.257   3.289  13.963 -0.8593 -0.7906  0.7846
   21MPD2    C1  321   1.282   3.158  13.943 -0.2824 -0.8353  0.1742
   21MPD2    C2  322   1.177   3.073  13.970  0.3604  0.8736 -0.0136
   21MPD2    C3  323   1.055   3.115  14.025  0.2879  0.4476  0.2811
   21MPD2    C4  324   1.028   3.248  14.042 -0.5137 -0.3346 -0.6339
   21MPD2    C5  325   1.132   3.333  14.001 -0.4214  0.0528  0.2631
   21MPD2     H  326   1.191   2.967  13.957  0.6866  0.9407 -0.2004
   21MPD2    H1  327   0.936   3.282  14.087  0.0532  0.1667  0.1596
   21MPD2    H2  328   1.336   3.364  13.965 -0.5896 -1.0641 -0.1031
   21MPD2    H3  329   1.107   3.438  14.013 -2.9265 -0.6179  1.0026
   21MPD2     N  330   0.969   3.025  14.086  0.3193  0.2138 -0.4286
   21MPD2    H5  331   0.908   3.078  14.147  0.0718 -0.3600 -0.1771
   21MPD2    N1  332   1.410   3.105  13.918 -0.5492 -0.0693 -0.3991
   21MPD2    H7  333   1.420   3.004  13.916  1.8873  0.1817 -1.1025
   22TCq2    C1  334   0.983   2.889  14.098  0.0906  0.2492  0.2330
   22TCq2    O2  335   1.073   2.812  14.062  0.2037  0.7215  0.2492
   22TCq2    C2  336   0.875   2.829  14.175 -0.2899  0.1160 -0.3817
   22TCq2    C3  337   0.872   2.692  14.185  0.5403 -0.0511  0.0886
   22TCq2    C4  338   0.824   2.633  14.293  0.2547 -0.2509 -0.1617
   22TCq2    C5  339   0.776   2.710  14.396  0.0330  0.4279 -0.1266
   22TCq2    C6  340   0.767   2.846  14.377  0.2196 -0.0617 -0.1974
   22TCq2    C7  341   0.818   2.911  14.271  0.0719 -0.1659 -0.1980
   22TCq2    C8  342   0.710   2.921  14.485 -0.0406  0.3597  0.0756
   22TCq2    O4  343   0.729   2.869  14.594 -0.0247 -0.2107  0.0981
   22TCq2    C9  344   0.843   2.490  14.307 -0.0457  0.6390  0.0775
   22TCq2    O5  345   0.909   2.439  14.208  0.2508 -0.4081 -0.2142
   22TCq2    O6  346   0.805   2.431  14.414  0.2227  0.3057  0.0306
   22TCq2    H2  347   0.898   2.630  14.101 -3.6792  0.8193 -1.8773
   22TCq2    H3  348   0.748   2.658  14.487  0.8745  0.1175 -0.0406
   22TCq2    H4  349   0.817   3.019  14.265  0.4168  0.0112  2.9758
   23MPD2     C  350   2.451   4.141  14.984  0.4884  0.0854 -0.1633
   23MPD2    C1  351   2.333   4.140  15.053  0.1435  0.4178 -1.0873
   23MPD2    C2  352   2.234   4.237  15.036 -0.1761 -0.5250  0.5545
   23MPD2    C3  353   2.253   4.323  14.934 -0.5488 -0.2903 -0.7525
   23MPD2    C4  354   2.374   4.324  14.872 -0.0509 -0.0935 -0.7057
   23MPD2    C5  355   2.474   4.242  14.897  0.8111 -0.2692  0.2651
   23MPD2     H  356   2.149   4.240  15.104  0.6287 -0.6700  1.5685
   23MPD2    H1  357   2.397   4.406  14.805  2.1923 -0.6369 -0.5975
   23MPD2    H2  358   2.535   4.078  15.013  1.9260  2.3967  0.6788
   23MPD2    H3  359   2.565   4.249  14.837 -0.1033  1.1659 -0.9762
   23MPD2     N  360   2.152   4.407  14.877 -0.3762 -0.4388 -0.0991
   23MPD2    H5  361   2.171   4.467  14.798  2.0700 -1.0508  0.0200
   23MPD2    N1  362   2.291   4.046  15.147  0.1364 -0.5419 -0.1759
   23MPD2    H7  363   2.206   4.064  15.200  1.1384 -1.4786  1.7528
   24TCq2    C1  364   2.027   4.418  14.935  0.3421  0.5234 -1.0079
   24TCq2    O2  365   1.989   4.388  15.047  0.1650 -0.4428 -0.5699
   24TCq2    C2  366   1.934   4.473  14.838  0.3527  0.3089  0.3962
   24TCq2    C3  367   1.827   4.535  14.895  0.0591  0.8837  0.2530
   24TCq2    C4  368   1.714   4.551  14.819  0.6500 -0.5777 -0.6140
   24TCq2    C5  369   1.717   4.506  14.690 -0.3312  0.4059 -0.0565
   24TCq2    C6  370   1.826   4.449  14.630 -0.6828  0.3263  0.1578
   24TCq2    C7  371   1.943   4.433  14.703 -0.7937  0.0048 -0.1318
   24TCq2    C8  372   1.814   4.372  14.511 -0.7685 -0.1660 -0.3523
   24TCq2    O4  373   1.915   4.320  14.464  0.0628 -0.5225 -0.7914
   24TCq2    C9  374   1.599   4.604  14.884 -0.1287  0.3426  0.1135
   24TCq2    O5  375   1.493   4.601  14.814 -0.0787 -0.2513 -0.7532
   24TCq2    O6  376   1.632   4.696  14.965  0.9068  0.2706 -0.0804
   24TCq2    H2  377   1.819   4.566  14.998  0.2688  1.2771  0.1511
   24TCq2    H3  378   1.619   4.501  14.645 -0.3697 -1.0895  0.1754
   24TCq2    H4  379   2.025   4.372  14.668 -0.5587  0.6894 -0.7672
   25TMC2    C1  380   1.642   2.157  11.514  0.2390 -0.0433  0.4021
   25TMC2    C2  381   1.739   2.238  11.572  0.4534 -0.2945 -0.0278
   25TMC2    C3  382   1.722   2.302  11.690 -0.3240  0.6011 -0.7248
   25TMC2    C4  383   1.525   2.141  11.577  0.4323  0.1159  0.1316
   25TMC2    C5  384   1.506   2.217  11.686 -0.2558 -0.1619  0.1824
   25TMC2    C6  385   1.605   2.290  11.748 -0.3825  0.5432 -0.8116
   25TMC2     C  386   1.670   2.105  11.376 -0.1770 -0.1968 -0.2213
   25TMC2     O  387   1.744   2.172  11.310 -0.0450 -0.2998  0.5897
   25TMC2     H  388   1.829   2.262  11.516  0.4649 -2.3533 -0.9058
   25TMC2    H1  389   1.445   2.077  11.541 -0.1748  0.1110  1.4750
   25TMC2    H2  390   1.586   2.350  11.836  1.8613 -0.5159  0.3983
   25TMC2    C7  391   1.374   2.225  11.749  0.3168  0.2800  0.0566
   25TMC2    C8  392   1.809   2.410  11.724  0.3523 -0.4116 -1.4053
   25TMC2    O1  393   1.361   2.276  11.856  0.0248  0.0553  0.5767
   25TMC2    O2  394   1.837   2.499  11.648 -0.0603  1.0779 -0.3616
   25TMC2    O5  395   1.848   2.397  11.853  0.3729 -0.6406  0.4014
   25TMC2    H5  396   1.829   2.306  11.885  2.7722 -1.2418  0.1522
   26MPD2     C  397   1.536   1.835  10.970 -0.8305  0.2956 -0.0060
   26MPD2    C1  398   1.494   1.762  11.076  0.5993 -0.3297  0.1897
   26MPD2    C2  399   1.524   1.804  11.204  0.3393  0.7503  0.3798
   26MPD2    C3  400   1.591   1.932  11.220 -0.0800 -0.2985  0.7730
   26MPD2    C4  401   1.637   1.997  11.109  0.0751  0.1136  0.2296
   26MPD2    C5  402   1.609   1.944  10.985  0.3835 -0.1872  0.3921
   26MPD2     H  403   1.482   1.757  11.292  0.0920 -0.3420 -0.3301
   26MPD2    H1  404   1.699   2.085  11.114  1.5002 -0.6583 -3.6631
   26MPD2    H2  405   1.540   1.798  10.868  1.8518 -0.8067  0.5198
   26MPD2    H3  406   1.630   1.998  10.893 -0.8917 -2.3557 -1.1574
   26MPD2     N  407   1.597   1.995  11.346 -0.2419  0.3733 -0.1554
   26MPD2    H5  408   1.550   1.951  11.425  1.2849  0.6493  0.9130
   26MPD2    N1  409   1.417   1.647  11.035  0.1678  0.4342  1.1615
   26MPD2    H7  410   1.399   1.632  10.936  0.2848  0.8282  1.0808
   27TMC2    C1  411   0.264   4.036  11.724 -0.4052  0.3317  0.4067
   27TMC2    C2  412   0.171   4.076  11.631  0.4102 -0.1601 -0.4563
   27TMC2    C3  413   0.125   4.206  11.624  0.1298  0.1336  0.1840
   27TMC2    C4  414   0.320   4.125  11.811 -0.0657  0.5923 -0.2970
   27TMC2    C5  415   0.272   4.255  11.802  0.7550 -0.6994  0.7016
   27TMC2    C6  416   0.174   4.295  11.717  0.2071 -0.6043  0.0171
   27TMC2     C  417   0.270   3.900  11.779 -0.2489  0.1454 -0.1587
   27TMC2     O  418   0.257   3.799  11.704  0.1628  0.5640  0.3116
   27TMC2     H  419   0.122   3.994  11.580 -1.5042  1.0385 -0.5703
   27TMC2    H1  420   0.393   4.105  11.887  0.1819 -0.9048 -0.9339
   27TMC2    H2  421   0.123   4.391  11.717  0.2643 -0.5708 -0.8617
   27TMC2    C7  422   0.276   4.320  11.932  0.0097 -0.5062 -0.2762
   27TMC2    C8  423   4.709   4.222  11.597  0.3163 -0.7410 -0.2167
   27TMC2    O1  424   0.292   4.240  12.024 -0.1648 -0.0177 -0.4480
   27TMC2    O2  425   4.638   4.263  11.687  0.4082 -0.1525 -0.0465
   27TMC2    O5  426   4.672   4.136  11.498  0.4828 -0.1805 -0.3059
   27TMC2    H5  427   0.023   4.135  11.432  0.3500 -1.6732 -0.4278
   28MPD2     C  428   0.089   3.611  12.166  0.1280  0.4834 -0.2218
   28MPD2    C1  429   0.084   3.744  12.196  0.1286  0.8627 -0.7107
   28MPD2    C2  430   0.152   3.839  12.118 -0.2023  0.1839  1.1965
   28MPD2    C3  431   0.195   3.805  11.999  0.5472 -1.3152 -0.6392
   28MPD2    C4  432   0.212   3.677  11.969  0.0998  0.2617 -0.6525
   28MPD2    C5  433   0.156   3.581  12.051  0.5099  0.7747 -0.4336
   28MPD2     H  434   0.142   3.942  12.150 -0.0779  0.9411 -1.1429
   28MPD2    H1  435   0.255   3.645  11.875  0.8949 -0.8468  0.0960
   28MPD2    H2  436   0.039   3.530  12.217 -2.0712  0.5801 -2.1856
   28MPD2    H3  437   0.176   3.477  12.027  1.8281  0.2090  3.0920
   28MPD2     N  438   0.233   3.910  11.912 -0.1031  0.3701  0.2312
   28MPD2    H5  439   0.214   4.003  11.948 -0.8363 -0.0241  0.8614
   28MPD2    N1  440   4.718   3.773  12.298 -0.1309 -0.1331 -0.8133
   28MPD2    H7  441   4.665   3.692  12.330 -1.0523  0.7894  0.0056
   29MPD2     C  442   4.185   0.714  14.254  0.5209  0.1760  0.0966
   29MPD2    C1  443   4.167   0.713  14.396  0.0167 -0.0961 -0.6524
   29MPD2    C2  444   4.176   0.833  14.464 -0.3715 -0.2458  0.4324
   29MPD2    C3  445   4.185   0.952  14.393 -0.3020 -0.2804 -0.1758
   29MPD2    C4  446   4.189   0.949  14.257  0.4925  0.6414 -0.5594
   29MPD2    C5  447   4.194   0.833  14.190 -0.3830 -0.1576  0.1701
   29MPD2     H  448   4.173   0.832  14.572 -0.1410  1.7154  0.4581
   29MPD2    H1  449   4.196   1.043  14.203  1.1819  0.7014 -0.3747
   29MPD2    H2  450   4.189   0.624  14.193 -2.0145  1.9790 -2.7676
   29MPD2    H3  451   4.211   0.836  14.083 -3.9306 -1.1805 -0.4258
   29MPD2     N  452   4.192   1.076  14.449  0.1563 -0.1906 -0.7070
   29MPD2    H5  453   4.200   1.156  14.387  1.9284 -0.1272 -0.4044
   29MPD2    N1  454   4.160   0.604  14.483 -0.2004  0.2504  0.2127
   29MPD2    H7  455   4.158   0.627  14.582  0.3799 -0.1938  0.3292
   30TCq2    C1  456   4.205   1.099  14.584  0.6384  0.3047  0.0389
   30TCq2    O2  457   4.222   1.023  14.680 -0.5351  0.5209  0.7076
   30TCq2    C2  458   4.237   1.246  14.608 -0.5440  0.1932  0.5548
   30TCq2    C3  459   4.310   1.276  14.717 -0.3639  0.1358  0.0549
   30TCq2    C4  460   4.356   1.405  14.728  0.2199 -0.2656  0.2939
   30TCq2    C5  461   4.329   1.496  14.628 -0.6875 -0.6417 -0.1304
   30TCq2    C6  462   4.251   1.460  14.525  0.2222  0.6154 -1.0605
   30TCq2    C7  463   4.208   1.333  14.507  0.1715  0.3603  0.4528
   30TCq2    C8  464   4.229   1.564  14.424  0.4741 -1.2560  0.4642
   30TCq2    O4  465   4.120   1.565  14.365 -0.3853  0.1777 -0.2602
   30TCq2    C9  466   4.442   1.442  14.842  0.5711 -0.1405  0.3951
   30TCq2    O5  467   4.528   1.529  14.818 -0.5048  0.1994  0.3901
   30TCq2    O6  468   4.433   1.369  14.942  0.0366 -0.6430 -0.0730
   30TCq2    H2  469   4.319   1.206  14.798 -0.0560 -0.7470 -0.7416
   30TCq2    H3  470   4.370   1.595  14.638 -0.7269 -0.7278  0.8130
   30TCq2    H4  471   4.149   1.312  14.419  0.6291 -1.7522  0.6459
   31MPD2     C  472   2.270   0.083  15.044  0.0258  0.1787 -0.5422
   31MPD2    C1  473   2.163   0.169  15.047 -0.8532  0.1355 -0.5102
   31MPD2    C2  474   2.054   0.124  15.118  0.5488  0.0439 -0.3039
   31MPD2    C3  475   2.042   0.006  15.191 -0.1363 -0.8101  0.2845
   31MPD2    C4  476   2.150   4.640  15.182  0.2318  0.2134 -0.0767
   31MPD2    C5  477   2.254   4.683  15.103  0.5710  0.6324  0.2375
   31MPD2     H  478   1.962   0.182  15.112  0.7583  0.5874  1.5614
   31MPD2    H1  479   2.155   4.543  15.230 -3.1089  0.0119 -0.1184
   31MPD2    H2  480   2.367   0.109  15.003 -0.7461  0.4778 -2.1667
   31MPD2    H3  481   2.332   4.609  15.088  0.0792  0.3041 -0.7292
   31MPD2     N  482   1.929   4.681  15.263  0.2729 -0.6882 -0.0039
   31MPD2    H5  483   1.937   4.589  15.305 -0.9512 -0.8992 -0.2264
   31MPD2    N1  484   2.177   0.295  14.989 -0.5455 -0.4187 -0.3608
   31MPD2    H7  485   2.261   0.308  14.933 -0.1277 -1.0924  0.1158
   32TCq2    C1  486   1.821   0.037  15.296 -0.0130 -0.2971  0.0113
   32TCq2    O2  487   1.783   0.150  15.258 -0.0315 -0.4055 -0.0701
   32TCq2    C2  488   1.734   4.693  15.398  0.0667 -0.2700  0.1778
   32TCq2    C3  489   1.609   0.027  15.404 -0.0854  0.3297  0.3898
   32TCq2    C4  490   1.542   0.015  15.520  0.2942 -0.3084 -0.4409
   32TCq2    C5  491   1.588   4.663  15.626  0.1118 -0.9216 -0.1294
   32TCq2    C6  492   1.716   4.624  15.620  0.3386 -0.4311  0.7269
   32TCq2    C7  493   1.792   4.636  15.510 -0.3095  0.5155  0.4932
   32TCq2    C8  494   1.773   4.553  15.733 -0.1617  0.0573 -0.1142
   32TCq2    O4  495   1.862   4.469  15.721  0.1926  0.5090  0.0411
   32TCq2    C9  496   1.410   0.058  15.537  0.4224  0.0548  0.2438
   32TCq2    O5  497   1.363   0.070  15.651  0.2907 -0.1456  0.6977
   32TCq2    O6  498   1.362   0.110  15.437 -0.4975 -0.1759  0.4433
   32TCq2    H2  499   1.565   0.072  15.316  0.7952 -0.7925 -0.6180
   32TCq2    H3  500   1.520   4.658  15.710  0.0786 -0.5516 -0.1339
   32TCq2    H4  501   1.890   4.591  15.501 -0.5105 -0.1084  1.4227
   33MPD2     C  502   3.276   3.188  10.475  0.3858  0.1590  0.8420
   33MPD2    C1  503   3.147   3.138  10.490 -0.1802 -0.0001  0.5710
   33MPD2    C2  504   3.031   3.220  10.500 -0.4378  0.1686 -0.0694
   33MPD2    C3  505   3.039   3.355  10.494 -0.4430  0.4285  0.0052
   33MPD2    C4  506   3.171   3.409  10.482  0.3305 -0.0139  0.2767
   33MPD2    C5  507   3.285   3.326  10.474 -0.5956  1.0596  0.7585
   33MPD2     H  508   2.938   3.164  10.494  0.2901 -0.9220 -1.2666
   33MPD2    H1  509   3.182   3.517  10.490  0.0342  0.0838 -0.6198
   33MPD2    H2  510   3.356   3.122  10.444 -0.7435 -1.1965  0.7661
   33MPD2    H3  511   3.381   3.372  10.455 -0.8497  1.4440  0.3957
   33MPD2     N  512   2.936   3.447  10.481  0.0317  0.5530  0.3728
   33MPD2    H5  513   2.964   3.538  10.446 -0.3034  1.1005  1.5282
   33MPD2    N1  514   3.133   2.994  10.469  0.1615  0.4312 -0.2264
   33MPD2    H7  515   3.221   2.950  10.444  0.2143  1.9049 -2.6978
   34TCq2    C1  516   2.801   3.426  10.482  0.2010 -0.2269 -0.2074
   34TCq2    O2  517   2.747   3.313  10.491  0.5325  0.4485 -0.0659
   34TCq2    C2  518   2.713   3.537  10.447  0.1738 -0.7868 -0.4546
   34TCq2    C3  519   2.598   3.500  10.379 -0.0737  0.5448 -0.1754
   34TCq2    C4  520   2.511   3.607  10.340  0.1527 -0.2083  0.3677
   34TCq2    C5  521   2.541   3.731  10.362 -0.0711 -0.0267  0.0692
   34TCq2    C6  522   2.659   3.759  10.428  0.5681 -0.2503  0.1521
   34TCq2    C7  523   2.750   3.664  10.474 -0.8672 -0.2608  0.0398
   34TCq2    C8  524   2.698   3.897  10.450  0.4731 -0.3638  0.2768
   34TCq2    O4  525   2.817   3.918  10.480 -0.1932  0.2132  0.5963
   34TCq2    C9  526   2.393   3.574  10.268  0.4548  0.0834  0.4632
   34TCq2    O5  527   2.351   3.453  10.266 -0.4849  0.2436 -0.5772
   34TCq2    O6  528   2.314   3.670  10.256 -0.0719  0.8324  0.4540
   34TCq2    H2  529   2.567   3.398  10.358  0.8566  0.2522 -0.1378
   34TCq2    H3  530   2.474   3.800  10.312  0.3469  0.6112  0.3881
   34TCq2    H4  531   2.837   3.688  10.535  0.4534 -0.0715 -1.9283
   35MPD2     C  532   4.430   0.138  11.851  0.5355 -0.2188  0.2163
   35MPD2    C1  533   4.422   0.013  11.897  0.1265  0.4620 -0.0227
   35MPD2    C2  534   4.353   4.642  11.818  0.3022  0.3679  0.3767
   35MPD2    C3  535   4.297   4.671  11.699  0.0504 -0.8293 -0.2032
   35MPD2    C4  536   4.313   0.076  11.648  0.8176 -0.0372 -0.5978
   35MPD2    C5  537   4.382   0.160  11.722  0.1988  0.0590  0.1503
   35MPD2     H  538   4.335   4.542  11.856  1.3676  0.3023  0.6901
   35MPD2    H1  539   4.275   0.106  11.551 -0.7758 -0.7942 -0.2018
   35MPD2    H2  540   4.475   0.220  11.906  0.1750 -0.9648  1.6283
   35MPD2    H3  541   4.393   0.264  11.695  2.0748  0.6181  3.0023
   35MPD2     N  542   4.204   4.574  11.648  0.2759 -0.2462 -0.1958
   35MPD2    H5  543   4.203   4.496  11.713 -0.1200 -0.0812 -0.0032
   35MPD2    N1  544   4.446   4.708  12.033  0.5163 -0.0282 -0.5007
   35MPD2    H7  545   4.459   0.070  12.090  1.3116 -0.5605  0.0861
   36TCq2    C1  546   4.130   4.573  11.532  0.5087 -0.7073 -0.1950
   36TCq2    O2  547   4.133   4.653  11.443 -0.0955 -0.1614 -0.1662
   36TCq2    C2  548   4.028   4.468  11.535 -0.3652 -0.2407 -0.0358
   36TCq2    C3  549   3.917   4.490  11.458 -0.0625  0.2319 -0.0573
   36TCq2    C4  550   3.815   4.402  11.467  0.2807 -0.3447  0.1537
   36TCq2    C5  551   3.828   4.284  11.532 -0.0816  0.5088  0.3748
   36TCq2    C6  552   3.949   4.256  11.598 -0.6551 -0.5429 -0.5007
   36TCq2    C7  553   4.044   4.353  11.609 -0.0720 -0.5165 -0.1689
   36TCq2    C8  554   3.970   4.117  11.635  0.0207  0.6470  0.8745
   36TCq2    O4  555   3.872   4.046  11.617 -0.2498 -0.2081  0.1487
   36TCq2    C9  556   3.692   4.432  11.399 -0.0959 -0.1557  0.3039
   36TCq2    O5  557   3.683   4.540  11.336  0.0608  0.2616  0.2218
   36TCq2    O6  558   3.592   4.347  11.405 -0.0784 -0.0757  0.5104
   36TCq2    H2  559   3.899   4.583  11.406 -0.4257  0.7797  1.0401
   36TCq2    H3  560   3.749   4.211  11.542  0.2237  0.3019  1.2827
   36TCq2    H4  561   4.133   4.339  11.670  0.2246  0.1408 -0.4455
   37TMC2    C1  562   1.321   0.113  11.650 -0.4348 -0.3668  0.9446
   37TMC2    C2  563   1.296   0.171  11.525  0.1492 -0.0669 -0.2726
   37TMC2    C3  564   1.397   0.160  11.434  0.4199 -0.3222 -0.5735
   37TMC2    C4  565   1.437   0.060  11.685 -0.0965 -0.1378 -0.0716
   37TMC2    C5  566   1.539   0.057  11.588 -0.4674 -0.7684  0.0018
   37TMC2    C6  567   1.518   0.111  11.462 -0.3482  0.0944  0.0915
   37TMC2     C  568   1.216   0.106  11.753 -0.4342 -0.7315  0.4457
   37TMC2     O  569   1.120   0.180  11.728 -0.5899  0.1345 -0.2809
   37TMC2     H  570   1.201   0.221  11.510  0.1547  0.1744  0.5429
   37TMC2    H1  571   1.450   0.037  11.790 -2.1081 -1.8701 -0.1966
   37TMC2    H2  572   1.591   0.091  11.384 -0.3951 -2.4225  0.6995
   37TMC2    C7  573   1.677   0.010  11.625 -0.3357 -0.5047 -0.4648
   37TMC2    C8  574   1.396   0.217  11.302  0.1861 -0.0213  0.8542
   37TMC2    O1  575   1.684   4.655  11.719  0.0158 -0.3067 -0.7747
   37TMC2    O2  576   1.492   0.269  11.250 -0.2907  0.2153  0.5716
   37TMC2    O5  577   1.272   0.257  11.272 -0.0332 -0.1965 -0.8242
   37TMC2    H5  578   1.197   0.207  11.311 -0.9790  1.7511 -0.1244
   38MPD2     C  579   0.953   4.558  12.110  0.0610 -0.6496 -0.0789
   38MPD2    C1  580   1.076   4.494  12.088  0.8167  0.6337  0.2311
   38MPD2    C2  581   1.161   4.550  11.996  0.2135 -0.1609 -0.4828
   38MPD2    C3  582   1.132   4.658  11.921 -1.0496 -0.9629 -0.5788
   38MPD2    C4  583   1.006   4.719  11.941  0.3952 -0.0520  0.0379
   38MPD2    C5  584   0.918   4.666  12.040 -0.6142 -0.2558 -0.3672
   38MPD2     H  585   1.259   4.503  11.992 -0.5849 -2.0325  1.3680
   38MPD2    H1  586   0.989   0.097  11.902  1.0529  0.5899  1.3727
   38MPD2    H2  587   0.889   4.525  12.190 -2.3593 -3.6613 -3.2697
   38MPD2    H3  588   0.820   4.711  12.048  0.0716  1.4315 -1.6550
   38MPD2     N  589   1.230   4.716  11.836  0.1451 -0.3928 -0.0344
   38MPD2    H5  590   1.311   4.659  11.816  0.8826 -0.1485  2.2309
   38MPD2    N1  591   1.114   4.383  12.173  0.7176 -0.8605  0.5101
   38MPD2    H7  592   1.214   4.368  12.182  0.6674 -1.9523 -0.7608
   39MPD2     C  593   3.815   1.045   2.097  0.0871 -0.7027 -0.0119
   39MPD2    C1  594   3.883   0.966   2.007 -0.4459 -0.5869 -0.0646
   39MPD2    C2  595   3.815   0.870   1.931 -0.0800  0.1852  0.1557
   39MPD2    C3  596   3.679   0.864   1.941 -0.5067  0.0209 -0.0583
   39MPD2    C4  597   3.606   0.947   2.019  0.1734 -0.2939 -0.4733
   39MPD2    C5  598   3.680   1.026   2.107  0.8461  0.2650 -1.2741
   39MPD2     H  599   3.866   0.807   1.859 -1.6210  0.5552 -1.2898
   39MPD2    H1  600   3.500   0.946   2.043  0.2994  2.7230  0.2667
   39MPD2    H2  601   3.852   1.105   2.179 -0.0978  1.6092 -1.6394
   39MPD2    H3  602   3.632   1.092   2.179 -0.4287 -0.0097 -1.8733
   39MPD2     N  603   3.600   0.772   1.876  0.1517 -0.2612 -0.0293
   39MPD2    H5  604   3.504   0.801   1.859  1.2535  3.4926  0.1393
   39MPD2    N1  605   4.017   0.987   1.993 -0.1512 -0.1425 -0.0109
   39MPD2    H7  606   4.057   1.055   2.057 -0.1348 -0.8902  0.7759
   40TCq2    C1  607   4.109   0.924   1.922 -0.0106  0.3097 -0.1468
   40TCq2    O2  608   4.094   0.831   1.837  0.1559 -0.2887  0.2051
   40TCq2    C2  609   4.248   0.966   1.941 -0.0308 -0.1989  1.1597
   40TCq2    C3  610   4.347   0.876   1.896 -0.7417  0.8777  0.5686
   40TCq2    C4  611   4.472   0.929   1.873 -0.2370  0.0149 -0.2510
   40TCq2    C5  612   4.507   1.061   1.890  0.0618 -0.5175 -0.1852
   40TCq2    C6  613   4.398   1.140   1.928  0.9612 -0.1916 -0.6249
   40TCq2    C7  614   4.273   1.100   1.959 -0.4098  0.2778 -0.1124
   40TCq2    C8  615   4.423   1.280   1.958 -0.9091  0.0735  0.2121
   40TCq2    O4  616   4.344   1.336   2.032  0.1024  0.6078  0.2955
   40TCq2    C9  617   4.580   0.846   1.829 -0.7323 -0.0056  0.1858
   40TCq2    O5  618   4.698   0.893   1.839 -0.2150  0.0754  0.1679
   40TCq2    O6  619   4.558   0.727   1.797  0.4960 -0.0883  0.3920
   40TCq2    H2  620   4.319   0.779   1.856 -0.2306  0.4450  1.2690
   40TCq2    H3  621   4.607   1.092   1.862  0.3259 -1.0802  0.1495
   40TCq2    H4  622   4.190   1.165   1.985  1.1681  2.5922 -0.9167
   41TMC2    C1  623   3.366   3.846  13.709  0.1677 -0.2571  0.6432
   41TMC2    C2  624   3.418   3.971  13.731  0.0460 -0.0168  0.0314
   41TMC2    C3  625   3.444   4.046  13.622 -0.9629 -0.0106 -0.4932
   41TMC2    C4  626   3.332   3.807  13.580 -0.4206  0.0024  0.8476
   41TMC2    C5  627   3.360   3.892  13.474 -0.0335 -0.9686  0.5949
   41TMC2    C6  628   3.414   4.014  13.493 -0.2235  0.7975 -0.2228
   41TMC2     C  629   3.364   3.752  13.811  0.1829 -0.3776 -0.0597
   41TMC2     O  630   3.339   3.640  13.779  0.3229  0.1254  0.2194
   41TMC2     H  631   3.432   4.017  13.828 -0.6578 -1.9503  1.0672
   41TMC2    H1  632   3.295   3.706  13.565  0.0011  0.0056 -0.1623
   41TMC2    H2  633   3.402   4.096  13.422 -1.2855  0.7246 -0.1358
   41TMC2    C7  634   3.301   3.853  13.345 -0.6583 -0.2437 -0.2510
   41TMC2    C8  635   3.485   4.186  13.644 -0.0594  0.4198 -0.3544
   41TMC2    O1  636   3.200   3.792  13.345  0.1270 -0.5958  0.6195
   41TMC2    O2  637   3.450   4.278  13.570  0.8003 -0.1961  0.3864
   41TMC2    O5  638   3.577   4.193  13.741 -0.3285 -0.0218 -0.6287
   41TMC2    H5  639   3.595   4.101  13.768  0.4563 -0.4588 -2.5970
   42MPD2     C  640   3.377   3.610  14.062  0.4359  0.9056  0.4411
   42MPD2    C1  641   3.333   3.738  14.043  0.4018  0.0201 -0.0726
   42MPD2    C2  642   3.293   3.808  14.151 -0.1649 -0.3107  0.1697
   42MPD2    C3  643   3.267   3.746  14.271 -0.3224 -0.1186 -0.2685
   42MPD2    C4  644   3.292   3.611  14.280  0.1773  0.1764 -0.0265
   42MPD2    C5  645   3.352   3.542  14.176 -0.5913 -0.4406  0.3565
   42MPD2     H  646   3.286   3.916  14.139 -0.5815 -0.3206  0.3171
   42MPD2    H1  647   3.270   3.551  14.368  1.7186  0.0360  0.2590
   42MPD2    H2  648   3.415   3.554  13.977  1.0125  1.1430  0.5459
   42MPD2    H3  649   3.384   3.439  14.188 -1.9022 -0.4746  3.5706
   42MPD2     N  650   3.195   3.805  14.381 -0.1682 -0.4362 -0.2016
   42MPD2    H5  651   3.178   3.752  14.466 -0.2846 -0.4207 -0.2151
   42MPD2    N1  652   3.351   3.816  13.933 -0.0052  0.1457  0.1704
   42MPD2    H7  653   3.346   3.916  13.946  0.5374  0.6265 -3.2427
   43MPD2     C  654   0.739   2.625   0.582 -0.2039  0.2549 -0.0803
   43MPD2    C1  655   0.704   2.505   0.639 -0.0072 -0.8688  0.0653
   43MPD2    C2  656   0.640   2.506   0.761 -0.0871  0.1724 -0.6347
   43MPD2    C3  657   0.617   2.624   0.827 -0.3831  0.6470 -0.1545
   43MPD2    C4  658   0.644   2.743   0.765 -0.0884 -0.1763  0.0234
   43MPD2    C5  659   0.710   2.744   0.642 -0.6279  0.0257 -0.2719
   43MPD2     H  660   0.614   2.413   0.811 -1.7182  1.5237  1.0390
   43MPD2    H1  661   0.616   2.840   0.806  0.6146 -0.3639  0.9263
   43MPD2    H2  662   0.775   2.623   0.480 -3.5611  0.1448 -1.2659
   43MPD2    H3  663   0.726   2.835   0.585 -0.8354  1.0709  1.3367
   43MPD2     N  664   0.558   2.628   0.955  0.1156 -0.2981 -0.2359
   43MPD2    H5  665   0.555   2.716   1.005  1.0509 -0.9108  0.8933
   43MPD2    N1  666   0.722   2.377   0.593 -0.6580 -0.5277  0.0585
   43MPD2    H7  667   0.707   2.308   0.665 -0.6591 -0.8970 -0.2966
   44TCq2    C1  668   0.213   2.323   1.339  0.1717 -0.3746  0.0118
   44TCq2    O2  669   0.162   2.261   1.246  0.0282 -0.1411  0.0737
   44TCq2    C2  670   0.315   2.428   1.312  0.1783 -0.1197  0.2051
   44TCq2    C3  671   0.397   2.481   1.412  0.5001  1.1378 -0.0038
   44TCq2    C4  672   0.494   2.572   1.377 -0.3581 -0.9024 -0.6745
   44TCq2    C5  673   0.519   2.604   1.247  0.6502 -0.4835 -0.7544
   44TCq2    C6  674   0.449   2.534   1.150  0.1103 -0.2152  0.0900
   44TCq2    C7  675   0.346   2.445   1.183 -0.3502  0.0043 -0.2016
   44TCq2    C8  676   0.492   2.521   1.010 -0.0735 -0.3192  0.1328
   44TCq2    O4  677   0.437   2.428   0.949 -0.0871  0.1098  0.0714
   44TCq2    C9  678   0.586   2.634   1.475  0.2475  0.1921  0.1312
   44TCq2    O5  679   0.556   2.635   1.600  0.5227  0.1461  0.2356
   44TCq2    O6  680   0.702   2.651   1.440 -0.6659 -0.6653  0.6278
   44TCq2    H2  681   0.377   2.460   1.517 -2.4023 -1.8620 -1.1672
   44TCq2    H3  682   0.595   2.680   1.233  0.4738 -0.0266  0.6950
   44TCq2    H4  683   0.287   2.395   1.107 -3.7274  0.7831  1.9002
   45TMC2    C1  684   0.676   4.345   9.582 -0.3655 -0.2144  0.5799
   45TMC2    C2  685   0.575   4.433   9.609 -0.4463 -0.0966 -0.5771
   45TMC2    C3  686   0.609   4.562   9.626  0.0062 -0.1584  0.3149
   45TMC2    C4  687   0.803   4.381   9.578  0.0561 -0.2355  0.5318
   45TMC2    C5  688   0.839   4.511   9.597  0.5736  0.4898  0.3202
   45TMC2    C6  689   0.746   4.607   9.621 -0.8780 -0.2316 -0.1574
   45TMC2     C  690   0.644   4.206   9.587  0.8044 -0.3475  0.4556
   45TMC2     O  691   0.733   4.129   9.614  0.3295 -0.2631 -0.1775
   45TMC2     H  692   0.470   4.404   9.606 -0.8320  1.1377  1.2163
   45TMC2    H1  693   0.884   4.309   9.577  0.4493  0.2065  0.6256
   45TMC2    H2  694   0.771   4.711   9.636  1.5115 -0.8954  0.3606
   45TMC2    C7  695   0.978   4.541   9.616 -0.0626  0.0199  0.5037
   45TMC2    C8  696   0.495   4.651   9.650  0.1654  0.4752  0.5508
   45TMC2    O1  697   1.064   4.481   9.558  0.1001  0.2565 -0.1600
   45TMC2    O2  698   0.385   4.605   9.675  0.1563 -0.4779 -0.6654
   45TMC2    O5  699   0.548   0.034   9.724  0.4726  0.0123 -0.7800
   45TMC2    H5  700   0.625   0.079   9.683  0.5152  1.4968  0.9079
   46MPD2     C  701   0.533   3.929   9.565 -0.2835 -0.4231  0.3532
   46MPD2    C1  702   0.468   4.045   9.519  0.2317  0.7766 -0.0612
   46MPD2    C2  703   0.340   4.034   9.474 -0.2324 -0.4197  0.0196
   46MPD2    C3  704   0.279   3.912   9.465 -0.5652 -1.3650 -0.5322
   46MPD2    C4  705   0.337   3.805   9.506  0.1372 -0.4784  0.2744
   46MPD2    C5  706   0.455   3.810   9.569 -0.2840  0.7984  0.3510
   46MPD2     H  707   0.283   4.124   9.451 -2.0695 -1.4962  0.3257
   46MPD2    H1  708   0.288   3.708   9.511  1.8555 -1.4749 -2.0572
   46MPD2    H2  709   0.630   3.912   9.611  0.3435 -3.4328 -2.0859
   46MPD2    H3  710   0.490   3.712   9.600  1.7310  1.5929  0.6353
   46MPD2     N  711   0.144   3.907   9.423  0.3008  0.1361  0.2076
   46MPD2    H5  712   0.102   3.990   9.385 -1.8969 -1.0775 -0.0052
   46MPD2    N1  713   0.522   4.181   9.537 -0.0815 -0.1129 -0.2179
   46MPD2    H7  714   0.461   4.258   9.512 -2.1036 -0.7057  2.8988
   47TMC2    C1  715   3.025   0.745   8.992 -0.3019 -0.2106 -0.0024
   47TMC2    C2  716   2.979   0.683   9.106 -1.0629  0.3051 -0.0144
   47TMC2    C3  717   2.858   0.735   9.142 -0.1434  0.3767 -0.1243
   47TMC2    C4  718   2.949   0.837   8.918 -0.0186 -0.4811  0.4199
   47TMC2    C5  719   2.826   0.872   8.958  0.1319  0.0788  0.2671
   47TMC2    C6  720   2.780   0.823   9.076 -0.0028  0.3143  0.3680
   47TMC2     C  721   3.163   0.717   8.952  0.1006 -0.0876 -0.1065
   47TMC2     O  722   3.181   0.716   8.831 -0.1760  0.1859 -0.4196
   47TMC2     H  723   3.032   0.606   9.160 -1.5581 -0.1524 -0.1866
   47TMC2    H1  724   2.991   0.892   8.834 -1.9129 -0.5911 -0.5885
   47TMC2    H2  725   2.675   0.830   9.103  0.0204 -0.2723  0.6290
   47TMC2    C7  726   2.765   0.992   8.898 -0.4449 -0.0778 -0.2723
   47TMC2    C8  727   2.802   0.688   9.265  0.2760 -0.1712  0.1744
   47TMC2    O1  728   2.758   0.993   8.774 -0.3703 -0.2361  0.1532
   47TMC2    O2  729   2.710   0.746   9.323  0.1780  0.1196  0.1390
   47TMC2    O5  730   2.823   0.556   9.271  0.8738  0.1855 -0.0104
   47TMC2    H5  731   2.861   0.526   9.186 -1.7483 -2.8411 -0.1126
   48MPD2     C  732   3.458   0.697   8.955  0.2533 -0.6355 -0.1045
   48MPD2    C1  733   3.378   0.671   9.066 -0.8419  0.4189  0.1788
   48MPD2    C2  734   3.429   0.613   9.183  0.7572  0.3052 -0.2479
   48MPD2    C3  735   3.560   0.587   9.187  0.9295 -0.6065 -0.2388
   48MPD2    C4  736   3.640   0.616   9.082 -0.0524  0.3358  0.0793
   48MPD2    C5  737   3.593   0.674   8.969  0.4352 -0.1689 -0.0783
   48MPD2     H  738   3.362   0.588   9.264 -1.4119  0.5530 -1.9602
   48MPD2    H1  739   3.747   0.597   9.078 -0.2930 -1.3286  1.4248
   48MPD2    H2  740   3.420   0.732   8.860 -1.9705 -0.2462  0.9197
   48MPD2    H3  741   3.662   0.690   8.886 -2.6602  0.6534 -2.4846
   48MPD2     N  742   3.611   0.533   9.307  0.2640  0.3934 -0.2232
   48MPD2    H5  743   3.541   0.494   9.369 -2.0396  1.5689 -2.1232
   48MPD2    N1  744   3.239   0.694   9.064  0.5569  0.0558 -0.3198
   48MPD2    H7  745   3.190   0.721   9.149  1.3920  2.0779 -0.5036
   49MPD2     C  746   1.161   2.380   9.773 -0.9618  0.4374 -0.1632
   49MPD2    C1  747   1.203   2.294   9.870 -0.1066  0.0027 -0.6478
   49MPD2    C2  748   1.245   2.342   9.989 -0.0162 -0.1211 -0.2234
   49MPD2    C3  749   1.248   2.473  10.017  0.4537  0.2297  0.3193
   49MPD2    C4  750   1.221   2.561   9.910 -0.7044  0.2186 -0.4631
   49MPD2    C5  751   1.167   2.512   9.794 -0.2855 -0.5288 -0.0195
   49MPD2     H  752   1.276   2.265  10.059 -0.5944 -1.0162 -0.9508
   49MPD2    H1  753   1.228   2.668   9.926 -2.3955 -0.1147  2.3262
   49MPD2    H2  754   1.131   2.345   9.675  2.2528  0.1573 -1.0593
   49MPD2    H3  755   1.127   2.581   9.721 -0.4343  0.5186  1.0512
   49MPD2     N  756   1.278   2.530  10.142 -0.5628  0.6953  0.7749
   49MPD2    H5  757   1.290   2.631  10.139  3.2831  0.2520  0.4554
   49MPD2    N1  758   1.214   2.156   9.858 -0.1440  0.5203  1.0758
   49MPD2    H7  759   1.245   2.100   9.936 -0.3665  1.5291  1.8941
   50TCq2    C1  760   1.186   2.091   9.740 -0.2307 -0.3033  0.0125
   50TCq2    O2  761   1.160   2.132   9.625 -0.6806  0.3203 -0.3570
   50TCq2    C2  762   1.205   1.947   9.759  0.3318  0.4280 -0.6928
   50TCq2    C3  763   1.231   1.872   9.650  0.2410  0.1844 -0.2613
   50TCq2    C4  764   1.264   1.740   9.666 -0.1238 -0.3324  0.3069
   50TCq2    C5  765   1.249   1.681   9.790 -0.3701 -0.1702 -0.6086
   50TCq2    C6  766   1.195   1.747   9.894 -0.6118  0.0032 -0.1791
   50TCq2    C7  767   1.187   1.883   9.880  0.2946  0.0852  0.1235
   50TCq2    C8  768   1.205   1.697  10.034  0.5265 -0.4920  0.2660
   50TCq2    O4  769   1.199   1.777  10.128 -0.1559 -0.0064 -0.2687
   50TCq2    C9  770   1.303   1.667   9.548  0.1370  0.0149 -0.6278
   50TCq2    O5  771   1.345   1.551   9.566 -0.3907  0.3506 -0.0301
   50TCq2    O6  772   1.292   1.726   9.436 -0.1007  0.1098  0.1647
   50TCq2    H2  773   1.243   1.916   9.552 -0.7314  3.2183  0.9783
   50TCq2    H3  774   1.269   1.574   9.789  1.1704  0.1071 -0.4014
   50TCq2    H4  775   1.138   1.945   9.955 -1.0387 -1.7948  0.7892
   51MPD2     C  776   1.390   3.920   1.140  0.6909  0.3085  0.5118
   51MPD2    C1  777   1.405   4.033   1.064  0.3277  0.0279 -0.5389
   51MPD2    C2  778   1.507   4.119   1.090  0.1114 -0.2640  0.5430
   51MPD2    C3  779   1.614   4.091   1.183 -0.5366 -0.2686  0.2369
   51MPD2    C4  780   1.593   3.965   1.247 -0.0805 -0.7751  0.9454
   51MPD2    C5  781   1.481   3.887   1.231 -0.4510  0.3420 -0.2417
   51MPD2     H  782   1.510   4.215   1.039 -2.7316  0.1170  1.1289
   51MPD2    H1  783   1.658   3.930   1.326  1.2396  0.4632  0.3981
   51MPD2    H2  784   1.318   3.843   1.118  2.0814 -1.3587  1.7852
   51MPD2    H3  785   1.463   3.799   1.290  0.3639 -0.3310 -1.0005
   51MPD2     N  786   1.707   4.186   1.226 -0.2247  0.7539  0.0826
   51MPD2    H5  787   1.779   4.157   1.290  0.9042  1.9292 -0.6461
   51MPD2    N1  788   1.337   4.070   0.947 -0.2570  0.6420 -0.3399
   51MPD2    H7  789   1.346   4.165   0.913  1.9998  0.5210 -0.0488
   52TCq2    C1  790   1.710   4.318   1.197 -0.6578  0.8297  0.1602
   52TCq2    O2  791   1.634   4.390   1.139 -0.1769 -0.1322  0.2198
   52TCq2    C2  792   1.836   4.374   1.245 -0.2013 -0.0769 -0.1349
   52TCq2    C3  793   1.943   4.287   1.253 -0.0262 -0.0974  0.8654
   52TCq2    C4  794   2.055   4.328   1.315 -0.0486  0.5915  0.5940
   52TCq2    C5  795   2.049   4.436   1.399  0.1326 -0.4904  0.5819
   52TCq2    C6  796   1.938   4.515   1.398  0.1529  0.8528  0.2613
   52TCq2    C7  797   1.828   4.490   1.320 -0.1456  0.7017  0.2037
   52TCq2    C8  798   1.923   4.631   1.493  0.2472  0.0602 -0.6576
   52TCq2    O4  799   1.821   4.706   1.481  0.1477  0.4920 -0.3805
   52TCq2    C9  800   2.181   4.248   1.305 -0.2410 -0.4245  0.8167
   52TCq2    O5  801   2.201   4.192   1.191  0.2086 -0.0778 -0.0756
   52TCq2    O6  802   2.258   4.259   1.405 -0.4944 -0.1622  0.2152
   52TCq2    H2  803   1.953   4.194   1.199  0.6088 -0.4917  1.6718
   52TCq2    H3  804   2.138   4.470   1.449  1.8781 -1.7615 -1.6570
   52TCq2    H4  805   1.736   4.547   1.327 -1.3209 -1.3884  1.7347
   53TMC2    C1  806   2.290   4.430  11.882 -0.6805  0.2003  1.3087
   53TMC2    C2  807   2.374   4.325  11.892  0.2919 -0.0131 -0.4847
   53TMC2    C3  808   2.367   4.250  12.008  0.6208 -0.6199 -0.3650
   53TMC2    C4  809   2.211   4.470  11.985 -0.7776  0.9960  0.0557
   53TMC2    C5  810   2.215   4.396  12.101  0.0866  0.5110  0.4898
   53TMC2    C6  811   2.286   4.277  12.112  0.7342  0.0587 -0.4475
   53TMC2     C  812   2.275   4.511  11.757  0.1794 -0.0160  0.4453
   53TMC2     O  813   2.363   4.503  11.666 -0.3889 -0.8574 -0.2155
   53TMC2     H  814   2.434   4.303  11.805 -0.5153  0.2909 -1.1140
   53TMC2    H1  815   2.155   4.563  11.990 -1.9789  0.1616  2.2419
   53TMC2    H2  816   2.285   4.212  12.199 -0.4161 -1.0678 -1.3095
   53TMC2    C7  817   2.096   4.413  12.179  0.2246 -0.6649  0.6518
   53TMC2    C8  818   2.430   4.117  12.010 -0.2117  0.1790 -0.3568
   53TMC2    O1  819   2.009   4.474  12.122 -0.4248  0.3459  0.4944
   53TMC2    O2  820   2.490   4.065  12.103 -0.0019 -0.3217  0.0113
   53TMC2    O5  821   2.451   4.081  11.887  0.2886  0.5824  0.0824
   53TMC2    H5  822   2.395   4.119  11.816  1.0206 -0.3949 -1.0225
   54MPD2     C  823   2.186   4.711  11.562 -0.6919 -0.5374  0.0026
   54MPD2    C1  824   2.101   4.655  11.652  0.1883  0.5559 -0.4235
   54MPD2    C2  825   1.963   4.677  11.644  0.0072 -0.3030  0.5157
   54MPD2    C3  826   1.910   0.036  11.549  0.6428  0.4856  0.3901
   54MPD2    C4  827   1.997   0.106  11.465 -0.4979 -0.1211  0.0578
   54MPD2    C5  828   2.134   0.084  11.470 -0.4395 -0.5493 -0.5844
   54MPD2     H  829   1.901   4.625  11.716 -0.3005  0.4699  0.8118
   54MPD2    H1  830   1.957   0.165  11.383  2.6382  0.6688 -0.8951
   54MPD2    H2  831   2.294   4.697  11.564 -0.5454  0.8998  2.1846
   54MPD2    H3  832   2.197   0.137  11.399 -1.8564  0.8360 -0.8192
   54MPD2     N  833   1.770   0.063  11.544  0.3189 -0.0203  0.3538
   54MPD2    H5  834   1.728   0.119  11.471  1.6635  0.5971  0.0749
   54MPD2    N1  835   2.151   4.567  11.755  0.2241 -0.1349  0.0444
   54MPD2    H7  836   2.094   4.537  11.834  2.1862 -0.8386  1.2025
   55MPD2     C  837   2.735   1.555   1.087 -0.0004  0.1305  0.3078
   55MPD2    C1  838   2.615   1.497   1.119 -0.4156 -0.1406 -0.0713
   55MPD2    C2  839   2.494   1.558   1.101  0.6420 -0.3398 -0.6265
   55MPD2    C3  840   2.498   1.690   1.046 -0.3967  0.4045 -0.1553
   55MPD2    C4  841   2.620   1.752   1.015  0.3948  0.8798 -0.1522
   55MPD2    C5  842   2.735   1.685   1.036 -0.0522 -0.2505 -0.3950
   55MPD2     H  843   2.404   1.502   1.125  1.4904 -0.9193  1.2274
   55MPD2    H1  844   2.628   1.848   0.965  0.9598  0.8118 -0.1893
   55MPD2    H2  845   2.831   1.508   1.106  0.7483  0.4797 -2.5158
   55MPD2    H3  846   2.832   1.731   1.018 -0.4077  0.5931 -0.1547
   55MPD2     N  847   2.372   1.745   1.011 -0.4004 -0.0512 -0.4471
   55MPD2    H5  848   2.291   1.684   1.019  1.6216 -2.7378 -0.6044
   55MPD2    N1  849   2.630   1.367   1.161  0.2177  1.0223  0.1375
   55MPD2    H7  850   2.721   1.338   1.196  0.3266 -0.2763 -1.1672
   56TCq2    C1  851   2.527   1.272   1.173 -0.0244  0.0715  0.6815
   56TCq2    O2  852   2.417   1.277   1.125 -0.1784 -0.3970  0.0984
   56TCq2    C2  853   2.571   1.141   1.226 -0.0905 -0.5626 -0.8065
   56TCq2    C3  854   2.664   1.133   1.322 -0.1787  0.5725  0.3746
   56TCq2    C4  855   2.702   1.014   1.369 -0.5148  0.9632  0.6390
   56TCq2    C5  856   2.641   0.903   1.327  0.5980  0.4184 -0.0256
   56TCq2    C6  857   2.541   0.914   1.231 -0.1336 -0.4263  0.3372
   56TCq2    C7  858   2.504   1.035   1.182 -0.4929  0.7686  0.5083
   56TCq2    C8  859   2.468   0.790   1.211  0.0662  0.2075  1.2347
   56TCq2    O4  860   2.518   0.679   1.229  0.4610  0.1865  0.6602
   56TCq2    C9  861   2.799   0.992   1.473  0.3156 -0.2225  1.0255
   56TCq2    O5  862   2.866   1.092   1.510  0.0622 -0.3054 -0.6347
   56TCq2    O6  863   2.790   0.890   1.545 -0.1533  0.3378  1.0660
   56TCq2    H2  864   2.730   1.213   1.355  0.9390 -0.1026 -0.2070
   56TCq2    H3  865   2.676   0.811   1.372 -1.5834 -1.0933 -1.4049
   56TCq2    H4  866   2.439   1.028   1.095  0.7430 -0.1499 -0.3366
   57TMC2    C1  867   1.847   3.119  13.562 -0.1121 -0.3469 -0.5262
   57TMC2    C2  868   1.908   3.072  13.680 -0.5674 -0.6482 -0.5596
   57TMC2    C3  869   2.038   3.105  13.699  0.1772 -0.3620  0.3318
   57TMC2    C4  870   1.912   3.201  13.478 -0.6069  0.2578 -0.4168
   57TMC2    C5  871   2.046   3.237  13.505 -0.4154 -0.0407 -0.1923
   57TMC2    C6  872   2.113   3.186  13.615  0.9964  0.6113 -0.0130
   57TMC2     C  873   1.703   3.116  13.543 -0.5339 -0.2469  0.1092
   57TMC2     O  874   1.654   3.215  13.485  0.3930  0.1853 -0.3789
   57TMC2     H  875   1.851   3.009  13.747 -0.9179  0.4755  0.2097
   57TMC2    H1  876   1.856   3.246  13.397 -0.7270  0.4478 -0.2271
   57TMC2    H2  877   2.220   3.191  13.631  0.8562 -0.9239  1.3539
   57TMC2    C7  878   2.132   3.272  13.395  0.0238  0.3726  0.2468
   57TMC2    C8  879   2.098   3.058  13.822  0.8369 -0.2622  0.1811
   57TMC2    O1  880   2.102   3.368  13.322 -0.4882  0.0058 -0.2547
   57TMC2    O2  881   2.146   2.945  13.841  0.2389 -0.2060  0.0111
   57TMC2    O5  882   2.038   3.133  13.910 -0.3463 -0.1075 -0.0706
   57TMC2    H5  883   2.005   3.221  13.881  2.8050  0.2982 -2.4463
   58MPD2     C  884   1.243   2.895  13.623  0.2640 -0.2796  0.6413
   58MPD2    C1  885   1.274   3.030  13.629  0.1138 -0.4305 -1.5366
   58MPD2    C2  886   1.409   3.065  13.600  0.4425  1.3566  0.4332
   58MPD2    C3  887   1.506   2.965  13.597 -0.1646  0.6599 -0.3245
   58MPD2    C4  888   1.476   2.833  13.622 -0.1006  0.2719  0.3545
   58MPD2    C5  889   1.342   2.800  13.619 -0.5734 -0.2391  0.1199
   58MPD2     H  890   1.443   3.167  13.591 -0.1164  1.4485 -0.7864
   58MPD2    H1  891   1.553   2.756  13.623 -1.6063 -1.2480 -1.0552
   58MPD2    H2  892   1.144   2.852  13.626 -0.4884  1.3998 -0.4498
   58MPD2    H3  893   1.303   2.699  13.617  1.1181 -0.8487 -2.4314
   58MPD2     N  894   1.643   2.996  13.581 -0.3484 -0.0358 -0.5905
   58MPD2    H5  895   1.707   2.923  13.608  1.8387  0.9031 -3.1803
   58MPD2    N1  896   1.167   3.125  13.643  0.1564  0.6986  0.1913
   58MPD2    H7  897   1.195   3.222  13.642  0.1730  0.6788 -1.5118
   59MPD2     C  898   4.166   3.272  12.540  0.3216 -0.3817 -0.7007
   59MPD2    C1  899   4.265   3.368  12.512 -0.3298  0.2551  0.1319
   59MPD2    C2  900   4.311   3.434  12.628 -0.6032 -0.1045 -0.0595
   59MPD2    C3  901   4.277   3.398  12.754  0.2590 -0.7632  0.9118
   59MPD2    C4  902   4.173   3.307  12.769 -0.1537 -0.2101 -0.3686
   59MPD2    C5  903   4.118   3.248  12.663 -0.4475 -0.3053 -0.6628
   59MPD2     H  904   4.387   3.508  12.607 -1.3173  0.5660 -0.2810
   59MPD2    H1  905   4.132   3.285  12.867  1.3440  0.8064  0.4881
   59MPD2    H2  906   4.133   3.210  12.457 -2.2103  2.7589 -2.0483
   59MPD2    H3  907   4.042   3.175  12.690 -0.4844  0.2961  0.8601
   59MPD2     N  908   4.333   3.465  12.872 -0.1703  0.0575  0.1299
   59MPD2    H5  909   4.328   3.412  12.958  2.1466  0.7828  0.6876
   59MPD2    N1  910   4.293   3.397  12.377 -0.4903  0.1270 -0.8529
   59MPD2    H7  911   4.373   3.459  12.362 -1.1032  1.0884 -0.1425
   60TCq2    C1  912   4.217   3.358  12.270 -0.6197 -0.2127 -0.4928
   60TCq2    O2  913   4.103   3.311  12.262 -0.4563  0.1105  0.4040
   60TCq2    C2  914   4.271   3.407  12.139 -0.1978  0.9876 -0.7022
   60TCq2    C3  915   4.232   3.325  12.037 -0.1723  0.1128  0.5038
   60TCq2    C4  916   4.305   3.336  11.920 -0.3511 -0.4887 -0.5080
   60TCq2    C5  917   4.397   3.436  11.900 -0.4011  0.3813 -0.0444
   60TCq2    C6  918   4.425   3.521  12.003  0.3362  0.6001 -0.1196
   60TCq2    C7  919   4.362   3.508  12.130 -0.3024 -0.5047  0.0654
   60TCq2    C8  920   4.502   3.639  11.974  0.2063 -0.0599 -0.0439
   60TCq2    O4  921   4.562   3.636  11.870  0.5254 -0.7042  0.8572
   60TCq2    C9  922   4.266   3.255  11.812  0.1410  0.0352  0.1449
   60TCq2    O5  923   4.211   3.143  11.835  0.4042 -0.4011  0.3332
   60TCq2    O6  924   4.315   3.274  11.702 -0.2552 -0.3909 -0.5577
   60TCq2    H2  925   4.175   3.234  12.046  1.4565 -1.2979 -3.3341
   60TCq2    H3  926   4.445   3.458  11.805  0.8157 -0.3226  0.3984
   60TCq2    H4  927   4.374   3.572  12.216  0.7063 -0.1478 -0.3402
   61MPD2     C  928   3.550   4.713  14.427  0.1090  0.0969  0.2467
   61MPD2    C1  929   3.426   4.709  14.489 -1.0449 -0.0350  0.3834
   61MPD2    C2  930   3.312   0.029  14.423 -0.1196  0.0343  0.4781
   61MPD2    C3  931   3.321   0.072  14.294 -0.5018  0.1559 -0.8168
   61MPD2    C4  932   3.437   0.089  14.232  1.1824  0.0178  0.5048
   61MPD2    C5  933   3.551   0.050  14.297 -0.4481  0.2205  0.1763
   61MPD2     H  934   3.213   0.021  14.466 -0.6732 -0.5432 -0.9099
   61MPD2    H1  935   3.438   0.136  14.134  0.0029 -0.3291  0.3352
   61MPD2    H2  936   3.647   4.693  14.471 -0.8449 -1.0541  1.8294
   61MPD2    H3  937   3.643   0.058  14.241 -1.2379 -3.4282 -1.6144
   61MPD2     N  938   3.195   0.110  14.237 -0.4421 -0.0460 -0.0670
   61MPD2    H5  939   3.117   0.096  14.300  0.1667 -0.1957  0.6451
   61MPD2    N1  940   3.399   4.656  14.616  0.1754 -0.5892 -0.2885
   61MPD2    H7  941   3.304   4.648  14.649  0.1270 -0.9163 -0.5092
   62TCq2    C1  942   3.488   4.590  14.696 -0.4465  0.1125 -0.5377
   62TCq2    O2  943   3.605   4.562  14.668  0.0522 -0.0831 -0.2901
   62TCq2    C2  944   3.419   4.564  14.819  0.2753  0.5753 -0.3055
   62TCq2    C3  945   3.425   4.437  14.865  0.8903  0.0979 -0.3179
   62TCq2    C4  946   3.343   4.403  14.965 -0.5637  0.5562  0.2792
   62TCq2    C5  947   3.249   4.489  15.012  0.4581 -0.1705 -0.0187
   62TCq2    C6  948   3.244   4.611  14.955  0.7842 -0.2378 -0.3701
   62TCq2    C7  949   3.331   4.665  14.860  0.5399 -0.4837 -0.6484
   62TCq2    C8  950   3.150   4.699  15.020 -0.2067  0.1868  0.4530
   62TCq2    O4  951   3.057   4.647  15.084 -0.2683  0.7141  0.5732
   62TCq2    C9  952   3.362   4.263  15.011  0.1274 -0.0672  0.3376
   62TCq2    O5  953   3.253   4.209  15.042  0.1133  0.0457  1.0210
   62TCq2    O6  954   3.465   4.208  14.971 -0.1539  0.0135  0.0252
   62TCq2    H2  955   3.500   4.372  14.822 -0.0194  0.8919 -3.0706
   62TCq2    H3  956   3.197   4.462  15.104 -0.2862 -0.9593 -0.6793
   62TCq2    H4  957   3.316   0.037  14.807  0.2321  1.2280  2.4582
   63TMC2    C1  958   3.064   0.415  10.327  0.0704  0.4439 -0.1628
   63TMC2    C2  959   3.190   0.374  10.351 -0.3422 -0.1215 -0.2395
   63TMC2    C3  960   3.297   0.438  10.289  0.9478  0.1241 -0.3446
   63TMC2    C4  961   3.043   0.517  10.231 -0.1925 -0.1083  0.7428
   63TMC2    C5  962   3.159   0.578  10.174 -0.2711  0.2554  0.2719
   63TMC2    C6  963   3.290   0.543  10.202  0.1468  0.1064  0.0799
   63TMC2     C  964   2.952   0.345  10.386 -0.2115 -0.3930 -0.1257
   63TMC2     O  965   2.847   0.396  10.356  0.1558  0.3610  0.5679
   63TMC2     H  966   3.211   0.310  10.436 -0.6800  2.6427  1.9410
   63TMC2    H1  967   2.943   0.537  10.193  0.5880  1.6683 -0.3844
   63TMC2    H2  968   3.382   0.582  10.161 -0.3868 -0.3805 -1.6091
   63TMC2    C7  969   3.135   0.680  10.073 -0.3820 -0.1565 -0.4048
   63TMC2    C8  970   3.432   0.415  10.343 -0.0277  0.4403  0.2986
   63TMC2    O1  971   3.031   0.700  10.020 -0.8476  0.5814 -0.0734
   63TMC2    O2  972   3.462   0.480  10.445  0.2427  0.1059 -0.2923
   63TMC2    O5  973   3.449   0.281  10.336 -0.4062 -0.2965 -0.3626
   63TMC2    H5  974   3.393   0.239  10.268  0.4127 -1.4405 -0.3324
   64MPD2     C  975   2.742   4.710  10.703 -1.1816  0.6932  1.1667
   64MPD2    C1  976   2.870   0.011  10.745  0.4483 -0.5886 -0.7068
   64MPD2    C2  977   2.944   0.103  10.676  0.8464  0.4294  1.1638
   64MPD2    C3  978   2.896   0.171  10.561  0.8433 -0.4071 -0.0060
   64MPD2    C4  979   2.761   0.145  10.528 -0.2620 -0.1322  0.2049
   64MPD2    C5  980   2.686   0.058  10.599 -0.3402 -1.0725  0.6467
   64MPD2     H  981   3.047   0.126  10.702  1.2590  1.8824 -1.8373
   64MPD2    H1  982   2.722   0.195  10.440  0.0962 -0.5242 -0.1799
   64MPD2    H2  983   2.675   4.642  10.754 -1.2332  0.2314  0.4950
   64MPD2    H3  984   2.583   0.029  10.578 -0.7021 -1.9065  3.5782
   64MPD2     N  985   2.983   0.251  10.481 -0.2141  0.4298 -0.6521
   64MPD2    H5  986   3.080   0.255  10.512 -0.2921 -0.5177 -0.2816
   64MPD2    N1  987   2.930   4.666  10.854  0.2391  0.6403 -0.5427
   64MPD2    H7  988   3.021   4.705  10.877  0.6531 -1.1068  0.8505
   65MPD2     C  989   3.969   3.805  15.813 -0.2553 -0.5769 -0.0441
   65MPD2    C1  990   4.000   3.790  15.678 -0.3772  0.2897 -0.4601
   65MPD2    C2  991   3.995   3.665  15.618  0.2524  1.1897  0.2162
   65MPD2    C3  992   3.968   3.555  15.697  0.7321  0.3933  0.5806
   65MPD2    C4  993   3.936   3.567  15.830 -0.0238 -0.3520  0.2077
   65MPD2    C5  994   3.940   3.691  15.882 -0.0955  0.1438  0.3362
   65MPD2     H  995   4.022   3.651  15.514 -2.6091 -0.8079 -0.2394
   65MPD2    H1  996   3.897   3.485  15.889  1.8155 -0.3578  1.4281
   65MPD2    H2  997   3.956   3.898  15.867 -1.0759  1.2573 -3.4211
   65MPD2    H3  998   3.927   3.708  15.988 -1.6740 -0.0295  0.1633
   65MPD2     N  999   3.956   3.425  15.635  0.0557 -0.1974 -0.3119
   65MPD2    H5 1000   3.919   3.352  15.695 -0.9687 -0.0714 -0.7972
   65MPD2    N1 1001   4.052   3.895  15.595  0.4412  0.5015  0.2590
   65MPD2    H7 1002   4.081   3.868  15.501 -0.5390  2.4052 -0.5952
   66TCq2    C1 1003   4.053   4.032  15.624 -0.6796 -1.2247  0.7470
   66TCq2    O2 1004   4.006   4.085  15.723  0.3537 -0.3205  0.7857
   66TCq2    C2 1005   4.104   4.117  15.518 -0.4863  0.2423  0.4526
   66TCq2    C3 1006   4.141   4.062  15.396  0.3506 -0.3177 -0.3653
   66TCq2    C4 1007   4.235   4.136  15.326 -0.1944 -0.0398 -0.9922
   66TCq2    C5 1008   4.265   4.263  15.359  0.0160  1.3850  0.2073
   66TCq2    C6 1009   4.214   4.326  15.468  0.4257  0.3595 -0.0823
   66TCq2    C7 1010   4.140   4.245  15.553 -0.2156  0.1698 -0.1030
   66TCq2    C8 1011   4.224   4.470  15.491  0.1799 -0.9753 -0.4351
   66TCq2    O4 1012   4.299   4.534  15.419  0.1633  0.1187  0.1930
   66TCq2    C9 1013   4.285   4.069  15.200 -0.2456 -0.1876 -0.2785
   66TCq2    O5 1014   4.307   3.943  15.199 -0.0418 -0.1751 -0.4477
   66TCq2    O6 1015   4.297   4.148  15.108 -1.0368 -0.8233  0.3638
   66TCq2    H2 1016   4.112   3.966  15.353 -2.4900  0.5685 -0.3766
   66TCq2    H3 1017   4.343   4.306  15.298 -1.9610  1.3563 -2.3476
   66TCq2    H4 1018   4.105   4.283  15.649  0.6931  3.8268 -1.2071
   67MPD2     C 1019   4.158   3.102  14.089 -0.1503 -0.6549 -0.1741
   67MPD2    C1 1020   4.062   3.084  14.185 -0.9125 -0.1578 -0.6132
   67MPD2    C2 1021   3.929   3.079  14.136  0.0876  0.3054  0.1090
   67MPD2    C3 1022   3.899   3.084  14.003 -0.7331  0.1449  0.3840
   67MPD2    C4 1023   4.001   3.095  13.911 -0.2252 -0.0242  0.6666
   67MPD2    C5 1024   4.129   3.113  13.957 -0.2639  0.4719  0.1578
   67MPD2     H 1025   3.844   3.061  14.201  1.4100 -0.5812  1.5655
   67MPD2    H1 1026   3.984   3.109  13.805  1.9784  5.8153  1.0673
   67MPD2    H2 1027   4.261   3.113  14.120 -0.2482 -0.0133 -0.0784
   67MPD2    H3 1028   4.211   3.130  13.888 -0.5230 -1.7535 -0.6996
   67MPD2     N 1029   3.773   3.101  13.952 -0.3436 -0.1023 -0.1647
   67MPD2    H5 1030   3.761   3.111  13.852 -0.3980 -0.0380 -0.1515
   67MPD2    N1 1031   4.078   3.071  14.330  0.1708 -0.6832 -0.0336
   67MPD2    H7 1032   3.998   3.070  14.393 -0.9058  2.6290 -1.3572
   68TCq2    C1 1033   4.201   3.072  14.400 -0.0451  0.7618  0.1121
   68TCq2    O2 1034   4.317   3.079  14.349  0.0098  0.4652 -0.1151
   68TCq2    C2 1035   4.188   3.092  14.542  0.2663  0.2148 -0.0522
   68TCq2    C3 1036   4.062   3.100  14.589  0.0178  0.2242  0.2177
   68TCq2    C4 1037   4.040   3.151  14.712 -0.1094 -0.6996  0.4830
   68TCq2    C5 1038   4.150   3.192  14.785 -0.1931 -0.4188  0.4281
   68TCq2    C6 1039   4.278   3.182  14.736 -0.3897 -0.7984 -0.4534
   68TCq2    C7 1040   4.299   3.133  14.612 -0.2925  0.1215 -0.1451
   68TCq2    C8 1041   4.384   3.255  14.803 -0.0018 -0.4144  0.4566
   68TCq2    O4 1042   4.468   3.300  14.731 -0.1492  0.1758 -0.4209
   68TCq2    C9 1043   3.908   3.155  14.766 -0.6276 -0.2138  0.0284
   68TCq2    O5 1044   3.823   3.106  14.685 -0.3394 -0.1108 -0.2431
   68TCq2    O6 1045   3.885   3.235  14.862  0.0260  0.2743  0.0540
   68TCq2    H2 1046   3.973   3.062  14.539  0.8220 -0.3670 -0.7800
   68TCq2    H3 1047   4.119   3.236  14.879 -0.2631 -0.1166  0.2619
   68TCq2    H4 1048   4.391   3.125  14.555  0.9420  1.2228  1.6519
   69TMC2    C1 1049   1.490   0.528  12.317  0.6010 -0.2734 -1.3461
   69TMC2    C2 1050   1.469   0.651  12.376 -0.2764  0.2201 -0.0076
   69TMC2    C3 1051   1.476   0.761  12.297 -0.0998  0.3190  0.1040
   69TMC2    C4 1052   1.518   0.519  12.191  0.0449 -0.0676  0.0962
   69TMC2    C5 1053   1.542   0.630  12.114 -0.1951  0.0904 -0.6924
   69TMC2    C6 1054   1.508   0.755  12.159  0.0628  0.3014  0.6921
   69TMC2     C 1055   1.541   0.425  12.412  0.1782  0.3435  0.6641
   69TMC2     O 1056   1.517   0.433  12.530  0.0898  0.2695 -0.3067
   69TMC2     H 1057   1.477   0.663  12.483 -2.2704 -2.0749  0.3982
   69TMC2    H1 1058   1.539   0.419  12.156 -0.2598 -0.1795  0.2357
   69TMC2    H2 1059   1.527   0.848  12.107  0.3068  0.2028  0.6041
   69TMC2    C7 1060   1.667   0.633  12.046  0.4303  0.1470  0.4200
   69TMC2    C8 1061   1.515   0.894  12.355  0.0704 -0.3571 -0.1864
   69TMC2    O1 1062   1.735   0.541  12.083 -0.2575  0.7649 -0.2936
   69TMC2    O2 1063   1.448   0.991  12.326  0.0977 -0.0746 -0.3591
   69TMC2    O5 1064   1.645   0.901  12.374 -0.1741 -0.1937  0.4253
   69TMC2    H5 1065   1.673   0.809  12.393  1.0969  0.4402  1.5593
   70MPD2     C 1066   1.830   0.211  12.355  1.1338 -0.4006 -0.2222
   70MPD2    C1 1067   1.725   0.260  12.423 -0.3817 -0.5114  0.5666
   70MPD2    C2 1068   1.699   0.207  12.546  0.2249 -0.3713 -0.1174
   70MPD2    C3 1069   1.784   0.122  12.611  0.3789 -0.2522  0.3437
   70MPD2    C4 1070   1.897   0.090  12.548 -0.0054  0.3407  0.6346
   70MPD2    C5 1071   1.919   0.124  12.419  0.5680  1.1430  0.0046
   70MPD2     H 1072   1.605   0.238  12.591 -0.2779 -2.5215  0.3271
   70MPD2    H1 1073   1.968   0.020  12.590 -0.5973 -1.0799 -0.7270
   70MPD2    H2 1074   1.855   0.238  12.253  0.2072 -2.8325 -1.0981
   70MPD2    H3 1075   2.012   0.082  12.384  0.6757  1.3683  0.0259
   70MPD2     N 1076   1.756   0.065  12.739 -0.0680  0.2460 -0.4686
   70MPD2    H5 1077   1.824   4.717  12.767 -1.8000  0.2877  3.8148
   70MPD2    N1 1078   1.636   0.350  12.351  0.1297 -1.0432  0.1945
   70MPD2    H7 1079   1.659   0.374  12.255  0.1962  0.1232  0.4957
   71TMC2    C1 1080   3.615   4.567   1.926 -0.1627 -0.1877 -0.1623
   71TMC2    C2 1081   3.664   4.474   2.016  0.1130 -0.2279  0.5752
   71TMC2    C3 1082   3.576   4.438   2.114 -0.3667 -0.3460 -0.5041
   71TMC2    C4 1083   3.480   4.607   1.924 -0.3117 -0.3903 -0.4629
   71TMC2    C5 1084   3.398   4.549   2.015 -0.3617 -0.3338 -0.2433
   71TMC2    C6 1085   3.447   4.461   2.111  0.0589  0.6728 -0.3768
   71TMC2     C 1086   3.703   4.612   1.812 -0.1623 -0.7427 -0.5319
   71TMC2     O 1087   3.647   4.681   1.735 -0.7250  0.0208  0.4714
   71TMC2     H 1088   3.768   4.442   2.008  0.8686  2.1494  0.9430
   71TMC2    H1 1089   3.446   4.683   1.854  0.6280 -1.2612 -1.8624
   71TMC2    H2 1090   3.381   4.429   2.190 -0.4418  0.2715 -0.9571
   71TMC2    C7 1091   3.253   4.567   2.009 -0.4799 -0.6966 -1.5002
   71TMC2    C8 1092   3.640   4.384   2.226  0.0072 -0.2434  0.6258
   71TMC2    O1 1093   3.187   4.538   2.109 -1.0786 -0.7583  0.0310
   71TMC2    O2 1094   3.761   4.406   2.246  0.7642  0.2082 -0.5275
   71TMC2    O5 1095   3.575   4.269   2.261  0.3637 -0.1818  0.0714
   71TMC2    H5 1096   3.492   4.251   2.210  0.8095 -1.5266 -0.1801
   72MPD2     C 1097   4.164   4.705   1.603 -0.4508 -0.0977 -0.6656
   72MPD2    C1 1098   4.046   0.038   1.559  0.7812  0.8791 -0.8549
   72MPD2    C2 1099   3.928   0.007   1.633  0.3720  0.1552 -0.5540
   72MPD2    C3 1100   3.940   4.639   1.737 -0.0241 -0.7148  0.1958
   72MPD2    C4 1101   4.065   4.596   1.783  0.1439 -0.2201 -0.2595
   72MPD2    C5 1102   4.174   4.635   1.719 -0.3319 -0.1954 -0.6977
   72MPD2     H 1103   3.835   0.046   1.593 -0.7646  0.0426  2.0305
   72MPD2    H1 1104   4.078   4.522   1.861  2.9051 -0.8992 -1.3683
   72MPD2    H2 1105   4.258   0.004   1.552 -1.0949 -0.4465 -1.9852
   72MPD2    H3 1106   4.272   4.595   1.744 -0.1796 -0.7288 -2.1464
   72MPD2     N 1107   3.837   4.596   1.825 -0.1583 -0.4374 -0.3363
   72MPD2    H5 1108   3.875   4.530   1.890  0.3214 -0.1716 -0.3479
   72MPD2    N1 1109   4.031   0.136   1.454  0.4402  0.4599  0.3667
   72MPD2    H7 1110   3.940   0.174   1.430  0.0063 -2.2917 -2.2951
   73TMC2    C1 1111   3.516   2.264  13.968 -0.6673 -0.3291  0.3623
   73TMC2    C2 1112   3.449   2.287  14.083 -0.4010 -0.1597  0.4429
   73TMC2    C3 1113   3.482   2.225  14.198  0.1011  0.5780  0.2775
   73TMC2    C4 1114   3.621   2.180  13.979  0.6622 -0.9111  0.0442
   73TMC2    C5 1115   3.657   2.122  14.095  0.2411 -0.4773  0.7911
   73TMC2    C6 1116   3.584   2.134  14.205  0.1680  0.8827  0.7432
   73TMC2     C 1117   3.541   2.377  13.886  0.7422 -0.1290  0.6172
   73TMC2     O 1118   3.655   2.380  13.852  0.1466 -0.2359  0.3823
   73TMC2     H 1119   3.366   2.356  14.073 -0.1737 -0.1079 -1.0782
   73TMC2    H1 1120   3.661   2.149  13.883 -0.1777 -0.5655 -0.4270
   73TMC2    H2 1121   3.618   2.088  14.297  1.4769 -1.8783 -1.0902
   73TMC2    C7 1122   3.798   2.128  14.104 -0.0680  0.0051 -0.4257
   73TMC2    C8 1123   3.376   2.237  14.300  0.2610  0.1097  0.2293
   73TMC2    O1 1124   3.861   2.066  14.188  0.1372  0.6854  0.3184
   73TMC2    O2 1125   3.354   2.346  14.348  0.1368  0.8289  0.0476
   73TMC2    O5 1126   3.397   2.125  14.367 -0.3401  0.2530 -0.0029
   73TMC2    H5 1127   3.426   2.049  14.312 -3.1725 -0.1408 -0.9271
   74MPD2     C 1128   3.481   2.866  13.716 -0.1692 -0.6834 -0.0774
   74MPD2    C1 1129   3.590   2.782  13.734 -0.5474  0.2459 -0.8524
   74MPD2    C2 1130   3.574   2.648  13.770  0.2567 -1.0107  0.2201
   74MPD2    C3 1131   3.451   2.595  13.800  0.0441  0.0653 -0.3842
   74MPD2    C4 1132   3.344   2.678  13.791  0.0953 -0.3095  0.0342
   74MPD2    C5 1133   3.357   2.813  13.746 -0.0800  0.6478 -0.3777
   74MPD2     H 1134   3.664   2.587  13.772  0.3124 -0.8992  1.1849
   74MPD2    H1 1135   3.247   2.636  13.813 -1.2042  2.0164 -1.2168
   74MPD2    H2 1136   3.502   2.966  13.682  0.8457 -1.0899 -0.6394
   74MPD2    H3 1137   3.270   2.877  13.752 -1.6113 -1.7270  2.8926
   74MPD2     N 1138   3.437   2.466  13.863 -0.6236  0.1107  0.0236
   74MPD2    H5 1139   3.344   2.429  13.877 -0.7942  0.2892 -0.6718
   74MPD2    N1 1140   3.716   2.832  13.708 -0.1023 -0.1776 -0.1033
   74MPD2    H7 1141   3.720   2.925  13.669  0.8331  0.1701  0.8143
   75TCq2    C1 1142   3.657   3.094  14.015  0.4701 -0.1245  0.3403
   75TCq2    O2 1143   3.635   3.035  14.117 -0.1941 -0.2765  0.0253
   75TCq2    C2 1144   3.557   3.146  13.934  0.4485 -0.8049 -0.8068
   75TCq2    C3 1145   3.428   3.115  13.973  0.3053 -0.0676 -0.1468
   75TCq2    C4 1146   3.326   3.164  13.897  0.4687 -0.1504 -0.1170
   75TCq2    C5 1147   3.344   3.247  13.793  0.0527  0.2456  0.5488
   75TCq2    C6 1148   3.473   3.279  13.755 -0.5150  0.0640  0.0474
   75TCq2    C7 1149   3.581   3.237  13.832 -0.3512 -0.4276  0.1349
   75TCq2    C8 1150   3.488   3.348  13.633  0.0894  0.2436  0.1191
   75TCq2    O4 1151   3.467   3.277  13.538  0.0173 -0.1452  0.4443
   75TCq2    C9 1152   3.188   3.141  13.941  0.0432  0.9912 -0.3595
   75TCq2    O5 1153   3.175   3.100  14.061 -0.0035 -0.3828 -0.4495
   75TCq2    O6 1154   3.103   3.205  13.876 -0.4536  0.1738  1.1752
   75TCq2    H2 1155   3.407   3.035  14.044  0.3928 -1.4781 -1.7230
   75TCq2    H3 1156   3.261   3.287  13.735 -1.7354 -1.3039  2.0316
   75TCq2    H4 1157   3.680   3.267  13.801 -1.6313  2.8416 -0.7296
   76MPD2     C 1158   2.508   4.591  12.114  0.4041 -0.4128  0.2918
   76MPD2    C1 1159   2.546   4.622  11.987  0.6828 -0.1212  0.2344
   76MPD2    C2 1160   2.647   4.544  11.936 -0.7951  0.3324  0.1778
   76MPD2    C3 1161   2.698   4.429  11.992  0.4970  0.0916 -0.1783
   76MPD2    C4 1162   2.636   4.389  12.108  0.2020  0.4683  0.0595
   76MPD2    C5 1163   2.549   4.475  12.176 -0.4984 -0.6711 -0.4177
   76MPD2     H 1164   2.670   4.562  11.831 -0.3082 -1.3338  0.0074
   76MPD2    H1 1165   2.648   4.291  12.151 -2.0818 -0.3073 -1.0465
   76MPD2    H2 1166   2.437   4.655  12.166  2.9283  3.0274 -0.4976
   76MPD2    H3 1167   2.517   4.451  12.276  2.6072 -0.6713  0.5959
   76MPD2     N 1168   2.774   4.328  11.935 -0.7350 -0.0558  0.3746
   76MPD2    H5 1169   2.782   4.243  11.989 -0.1914 -0.1050  0.2211
   76MPD2    N1 1170   2.490   4.719  11.901 -0.9293 -0.0107  0.2675
   76MPD2    H7 1171   2.516   4.710  11.803  0.7843 -1.4613  0.8519
   77TCq2    C1 1172   2.850   4.343  11.819  0.0799 -0.5059  0.4923
   77TCq2    O2 1173   2.878   4.445  11.757 -0.0971  0.2264 -0.3035
   77TCq2    C2 1174   2.915   4.222  11.772 -0.6772 -0.6469  0.6635
   77TCq2    C3 1175   2.856   4.105  11.802  0.2574  0.5091 -0.1196
   77TCq2    C4 1176   2.930   3.994  11.797 -0.8150  0.3278  0.1529
   77TCq2    C5 1177   3.063   3.993  11.763 -0.2159  0.4815 -0.1714
   77TCq2    C6 1178   3.113   4.109  11.724  0.3549 -0.0074  0.2026
   77TCq2    C7 1179   3.045   4.225  11.730 -0.2143  0.5508 -0.3686
   77TCq2    C8 1180   3.262   4.121  11.721 -0.5294 -0.2193 -0.0971
   77TCq2    O4 1181   3.315   4.212  11.656  0.2603 -0.4028  0.0269
   77TCq2    C9 1182   2.876   3.867  11.852 -0.3123  0.1615  0.0940
   77TCq2    O5 1183   2.754   3.852  11.874  0.1715  0.5901 -0.3107
   77TCq2    O6 1184   2.948   3.768  11.823 -0.1847  0.5409 -0.0827
   77TCq2    H2 1185   2.753   4.099  11.837 -0.1754  1.4077 -1.1917
   77TCq2    H3 1186   3.116   3.898  11.761 -0.2332  0.4492  0.7685
   77TCq2    H4 1187   3.099   4.316  11.706  0.5822  0.2726  0.3758
   78MPD1     C 1188   2.588   4.478   1.434 -0.2642 -0.0826 -0.0514
   78MPD1    C1 1189   2.598   4.491   1.573  0.1445  0.8946 -0.2056
   78MPD1    C2 1190   2.710   4.424   1.635 -0.5307  0.4228 -0.0834
   78MPD1    C3 1191   2.805   4.363   1.563 -0.0662  0.4088  0.2262
   78MPD1    C4 1192   2.801   4.363   1.422  0.7380  0.5091  0.2661
   78MPD1    C5 1193   2.690   4.419   1.364  0.0624 -0.1538  0.1451
   78MPD1     H 1194   2.717   4.422   1.744 -3.1415  0.4254  0.0915
   78MPD1    H1 1195   2.884   4.325   1.362 -1.3641 -0.5944 -1.9298
   78MPD1    H2 1196   2.503   4.510   1.374  0.5558 -0.0044 -1.1686
   78MPD1    H3 1197   2.675   4.398   1.259 -0.1175  1.4480 -0.1529
   78MPD1     N 1198   2.928   4.314   1.623 -0.1751 -0.3050 -0.1695
   78MPD1    H5 1199   3.002   4.280   1.562  0.2883  1.2686 -0.5081
   78MPD1    N1 1200   2.483   4.529   1.649 -0.9530  0.0285  0.1242
   78MPD1    H6 1201   2.423   4.591   1.596 -0.3800 -1.1161 -1.8843
   78MPD1    H7 1202   2.507   4.563   1.742 -1.9793  0.5269  0.2080
   79TCq2    C1 1203   2.960   4.321   1.758  0.6991 -0.2288 -1.0255
   79TCq2    O2 1204   2.888   4.333   1.853  0.5741 -0.2266 -0.0362
   79TCq2    C2 1205   3.104   4.273   1.771 -0.3710 -0.7035  0.3349
   79TCq2    C3 1206   3.122   4.241   1.905 -0.3649  0.5330 -0.1382
   79TCq2    C4 1207   3.247   4.206   1.940 -0.4957  0.5574 -0.0237
   79TCq2    C5 1208   3.353   4.222   1.849  0.0865 -0.1254 -0.1104
   79TCq2    C6 1209   3.332   4.262   1.721  0.2771 -0.3652  0.6177
   79TCq2    C7 1210   3.203   4.292   1.677  0.1346  0.0440  0.3616
   79TCq2    C8 1211   3.443   4.277   1.631 -0.3737  1.0332  0.3658
   79TCq2    O4 1212   3.555   4.296   1.679 -0.0081 -0.0613 -0.8758
   79TCq2    C9 1213   3.284   4.158   2.075  0.1674  0.2314 -0.1348
   79TCq2    O5 1214   3.189   4.124   2.148  0.2652 -0.0483  0.3865
   79TCq2    O6 1215   3.402   4.176   2.113  0.6744 -0.2618 -0.0147
   79TCq2    H2 1216   3.039   4.228   1.973 -0.2539 -0.0647 -0.1092
   79TCq2    H3 1217   3.453   4.201   1.883 -0.4167  1.0129  2.0448
   79TCq2    H4 1218   3.176   4.335   1.581 -0.7616 -1.6668 -0.1464
   80MPD2     C 1219   1.914   4.106  12.641 -0.5639  0.5667  0.0967
   80MPD2    C1 1220   1.858   4.121  12.513 -0.2854  0.5034 -1.1059
   80MPD2    C2 1221   1.725   4.159  12.497 -0.2746 -0.1663  0.6006
   80MPD2    C3 1222   1.642   4.188  12.607 -0.3074 -0.5083 -0.9155
   80MPD2    C4 1223   1.700   4.165  12.729 -0.8293 -0.2930  0.0545
   80MPD2    C5 1224   1.835   4.130  12.746  0.1234  0.6870  0.4225
   80MPD2     H 1225   1.687   4.161  12.395  0.1189  1.2857  0.4869
   80MPD2    H1 1226   1.638   4.163  12.818 -0.1022  0.9670  0.5882
   80MPD2    H2 1227   2.012   4.063  12.660  0.5202  1.7147 -3.0537
   80MPD2    H3 1228   1.867   4.107  12.847  2.4103 -0.9124 -0.6853
   80MPD2     N 1229   1.506   4.202  12.594 -0.6978 -0.4937  0.2405
   80MPD2    H5 1230   1.454   4.207  12.681  1.0683 -0.6988  1.3241
   80MPD2    N1 1231   1.929   4.072  12.400 -0.4094  0.4006 -0.0406
   80MPD2    H7 1232   1.871   4.062  12.318 -1.4111 -0.2547  0.7477
   81TCq2    C1 1233   2.060   4.029  12.399  0.3813  0.1657  0.2194
   81TCq2    O2 1234   2.149   4.033  12.487  0.3735  0.1037 -0.6023
   81TCq2    C2 1235   2.102   3.998  12.258 -0.2145  0.1474  0.1766
   81TCq2    C3 1236   2.208   3.918  12.249 -0.7620 -0.7481 -0.2734
   81TCq2    C4 1237   2.243   3.868  12.125 -0.1863  0.7498  0.8729
   81TCq2    C5 1238   2.176   3.903  12.014 -0.2564  0.5527 -0.1081
   81TCq2    C6 1239   2.072   3.990  12.024  0.3736 -0.1828  0.1755
   81TCq2    C7 1240   2.025   4.035  12.150  0.0813  0.5113  0.3488
   81TCq2    C8 1241   1.967   3.967  11.925 -0.4911 -0.3483  1.1897
   81TCq2    O4 1242   1.917   4.060  11.862 -0.2533  0.1298 -0.4984
   81TCq2    C9 1243   2.356   3.778  12.115  0.6721 -0.4363 -0.3082
   81TCq2    O5 1244   2.403   3.759  12.002  0.0338 -0.5637  0.5385
   81TCq2    O6 1245   2.402   3.741  12.225 -0.3367 -0.5330  0.0908
   81TCq2    H2 1246   2.276   3.894  12.329 -0.7052 -0.2284 -0.1675
   81TCq2    H3 1247   2.199   3.859  11.918 -0.4864 -2.1270  1.0585
   81TCq2    H4 1248   1.931   4.089  12.157  0.4268  1.1466  0.0535
   82MPD2     C 1249   0.490   4.009  10.672  0.6755  1.0307  0.2290
   82MPD2    C1 1250   0.404   3.908  10.714  0.4805 -0.2993 -1.3231
   82MPD2    C2 1251   0.450   3.790  10.769 -0.1945  0.3613  0.5815
   82MPD2    C3 1252   0.593   3.770  10.776 -0.3022  0.0451  0.6646
   82MPD2    C4 1253   0.675   3.870  10.730 -0.7274  0.6098 -0.8045
   82MPD2    C5 1254   0.622   3.989  10.681 -0.1767 -0.8149 -0.2911
   82MPD2     H 1255   0.377   3.717  10.804  0.9194 -1.0385  0.0160
   82MPD2    H1 1256   0.781   3.853  10.718 -0.6767  2.0574 -2.4614
   82MPD2    H2 1257   0.461   4.107  10.635 -3.0063 -0.0554  0.2755
   82MPD2    H3 1258   0.686   4.070  10.647 -2.4629  0.1443 -2.3382
   82MPD2     N 1259   0.658   3.658  10.822  0.7951 -0.8913  0.5736
   82MPD2    H5 1260   0.759   3.660  10.826  0.7932 -1.3727  0.8437
   82MPD2    N1 1261   0.268   3.934  10.682 -0.0082 -0.2254 -0.2146
   82MPD2    H7 1262   0.248   4.016  10.625  3.6706  0.6940 -0.2130
   83TCq2    C1 1263   0.588   3.550  10.885 -0.2503 -0.5349 -0.4469
   83TCq2    O2 1264   0.468   3.527  10.885  0.1170  0.1810  0.2856
   83TCq2    C2 1265   0.667   3.442  10.938  0.2893 -0.2230 -0.1603
   83TCq2    C3 1266   0.796   3.421  10.895  0.3450  0.6105 -0.3853
   83TCq2    C4 1267   0.846   3.296  10.932 -0.1922 -0.6807 -0.5504
   83TCq2    C5 1268   0.780   3.207  11.011  0.0354  0.6103 -0.0862
   83TCq2    C6 1269   0.657   3.234  11.054  0.0609  0.3441  0.2132
   83TCq2    C7 1270   0.597   3.349  11.016  0.4934 -0.1947 -0.3918
   83TCq2    C8 1271   0.557   3.133  11.101  0.4171  0.1617 -0.0775
   83TCq2    O4 1272   0.455   3.184  11.151 -0.1400 -0.1888  0.0072
   83TCq2    C9 1273   0.976   3.261  10.882 -0.7032  0.1737 -0.3257
   83TCq2    O5 1274   1.024   3.339  10.793  0.3679  0.2390  0.2781
   83TCq2    O6 1275   1.044   3.191  10.964 -0.6096  0.3273 -0.4376
   83TCq2    H2 1276   0.847   3.481  10.820 -1.0801  1.8629 -0.3493
   83TCq2    H3 1277   0.830   3.112  11.026 -1.3477 -0.3705 -1.7166
   83TCq2    H4 1278   0.499   3.378  11.053  0.9244 -0.1336  0.7217
   84TCq2    C1 1279   1.297   2.463  10.257 -0.0695  0.0268  0.0572
   84TCq2    O2 1280   1.301   2.343  10.278 -0.1023 -0.4445  0.0454
   84TCq2    C2 1281   1.312   2.551  10.371  0.1027  0.8142  0.0047
   84TCq2    C3 1282   1.357   2.673  10.335 -0.0078  0.4789  0.0773
   84TCq2    C4 1283   1.356   2.768  10.434  0.0479  0.0920 -0.3539
   84TCq2    C5 1284   1.309   2.738  10.562 -0.4108  0.8949  0.8238
   84TCq2    C6 1285   1.270   2.613  10.591  0.1905 -0.2115 -0.7236
   84TCq2    C7 1286   1.277   2.508  10.493 -0.0009  0.7043  0.3629
   84TCq2    C8 1287   1.204   2.588  10.717 -0.4424  0.0039  0.5093
   84TCq2    O4 1288   1.192   2.681  10.798  0.3243  0.0362  0.1012
   84TCq2    C9 1289   1.385   2.899  10.389 -0.9925 -0.2191 -0.0817
   84TCq2    O5 1290   1.451   2.912  10.280 -0.1566  0.3223 -0.2154
   84TCq2    O6 1291   1.351   2.996  10.455  0.7854 -0.5543  0.3996
   84TCq2    H2 1292   1.391   2.704  10.236  0.7510  0.5830  0.3710
   84TCq2    H3 1293   1.311   2.824  10.628  5.5168  2.2487 -1.1298
   84TCq2    H4 1294   1.230   2.411  10.490  0.1783  0.6369 -0.3588
   85MPD2     C 1295   1.503   4.561  16.548  0.0961 -0.4850  1.1887
   85MPD2    C1 1296   1.405   4.584  16.453 -1.0012 -0.1675  0.5296
   85MPD2    C2 1297   1.413   4.694  16.373  0.0359  0.3151 -0.1533
   85MPD2    C3 1298   1.508   0.072  16.400  0.5794 -0.0232 -0.4181
   85MPD2    C4 1299   1.595   0.058  16.501 -0.0574  0.2663 -0.1756
   85MPD2    C5 1300   1.589   4.666  16.578  0.0980 -0.8525 -0.6455
   85MPD2     H 1301   1.338   4.706  16.296  0.7100  2.1663 -0.5167
   85MPD2    H1 1302   1.672   0.126  16.536 -0.2957 -0.2318  1.3157
   85MPD2    H2 1303   1.507   4.471  16.608 -0.4254 -0.8836  0.6235
   85MPD2    H3 1304   1.680   4.645  16.634  1.2576  4.1583 -0.6341
   85MPD2     N 1305   1.511   0.188  16.315 -0.2390  0.1417  0.0001
   85MPD2    H5 1306   1.441   0.196  16.242  1.3140  1.2107 -1.3606
   85MPD2    N1 1307   1.301   4.497  16.430 -0.1447 -0.7965 -0.2190
   85MPD2    H7 1308   1.221   4.531  16.378 -0.0260 -0.7398 -0.3651
   86TCq2    C1 1309   1.616   0.282  16.315 -0.5633  0.3418  0.8131
   86TCq2    O2 1310   1.725   0.281  16.371 -0.0068 -0.0795  0.2858
   86TCq2    C2 1311   1.600   0.372  16.207 -0.2813 -0.0664  0.0428
   86TCq2    C3 1312   1.479   0.423  16.177  0.4504 -0.9498  0.7005
   86TCq2    C4 1313   1.486   0.547  16.133  0.0634  0.4097  0.1708
   86TCq2    C5 1314   1.597   0.617  16.107  0.2338 -0.0885  0.6961
   86TCq2    C6 1315   1.715   0.547  16.120  0.3133 -0.7438 -0.2180
   86TCq2    C7 1316   1.722   0.428  16.185 -0.6268  0.9479  0.3254
   86TCq2    C8 1317   1.837   0.576  16.046 -0.1897  0.0241  0.2349
   86TCq2    O4 1318   1.941   0.515  16.079 -0.4066  0.1425 -0.1584
   86TCq2    C9 1319   1.363   0.615  16.108 -0.1406 -0.0032  0.0375
   86TCq2    O5 1320   1.253   0.554  16.125  0.2109 -0.4807  0.0721
   86TCq2    O6 1321   1.368   0.722  16.042 -0.6660 -0.0345  0.0928
   86TCq2    H2 1322   1.386   0.379  16.210  0.5868 -1.2525  0.6809
   86TCq2    H3 1323   1.596   0.711  16.053 -0.4172 -1.4792 -1.7359
   86TCq2    H4 1324   1.816   0.375  16.194 -1.2308  0.0295  1.1233
   87MPD2     C 1325   4.483   3.762   1.791  0.0994  0.2554  0.1690
   87MPD2    C1 1326   4.434   3.701   1.681 -0.3067 -0.3000 -0.4593
   87MPD2    C2 1327   4.317   3.751   1.623 -0.0887  0.3784 -0.6766
   87MPD2    C3 1328   4.246   3.863   1.666 -0.0360 -0.6749 -0.1189
   87MPD2    C4 1329   4.289   3.909   1.786 -0.0910  0.2411  0.7059
   87MPD2    C5 1330   4.399   3.858   1.850 -0.3649  0.2864 -0.4445
   87MPD2     H 1331   4.282   3.702   1.532  1.8847  2.1356 -2.3986
   87MPD2    H1 1332   4.247   3.993   1.840 -0.4277  1.0229 -0.7595
   87MPD2    H2 1333   4.568   3.727   1.848 -0.5954 -0.1499  0.9622
   87MPD2    H3 1334   4.428   3.912   1.940 -0.2244  1.0479 -0.9495
   87MPD2     N 1335   4.131   3.919   1.597 -0.0766 -0.1833  0.3400
   87MPD2    H5 1336   4.097   4.007   1.634  1.8248  0.7738 -0.1669
   87MPD2    N1 1337   4.512   3.592   1.630  0.0557 -0.2097  0.0816
   87MPD2    H7 1338   4.607   3.571   1.659  0.3960 -0.3228 -1.1441
   88TCq2    C1 1339   4.477   3.519   1.527 -0.7234  0.9829 -0.2671
   88TCq2    O2 1340   4.388   3.528   1.441 -0.1664  0.0687  0.0526
   88TCq2    C2 1341   4.563   3.400   1.516 -0.1680  0.3763 -1.3408
   88TCq2    C3 1342   4.596   3.339   1.634  0.1700 -0.0599  0.5274
   88TCq2    C4 1343   4.642   3.210   1.621  0.2873  0.1565  0.1034
   88TCq2    C5 1344   4.642   3.136   1.509 -0.0241  0.3303 -0.0501
   88TCq2    C6 1345   4.596   3.205   1.397 -0.0977 -0.1488  0.0114
   88TCq2    C7 1346   4.553   3.333   1.400  0.6397  0.8597  0.7756
   88TCq2    C8 1347   4.558   3.130   1.280 -0.3058 -0.0723  0.4511
   88TCq2    O4 1348   4.530   3.177   1.175  0.2888  0.0150 -1.0015
   88TCq2    C9 1349   4.703   3.133   1.731  0.3087 -0.1223  0.0208
   88TCq2    O5 1350   0.036   3.200   1.823  0.1216 -0.1053 -0.4983
   88TCq2    O6 1351   4.689   3.007   1.734  0.3056  0.4219  0.1927
   88TCq2    H2 1352   4.590   3.385   1.732  2.3076  3.1662 -0.8728
   88TCq2    H3 1353   4.696   3.042   1.512 -0.1973  0.2521  0.4634
   88TCq2    H4 1354   4.519   3.375   1.306  0.7216 -0.5693  0.1054
   89MPD2     C 1355   4.539   1.541   1.996 -0.2700 -0.6951 -0.0828
   89MPD2    C1 1356   4.584   1.454   1.898 -0.5092  0.3305 -0.6344
   89MPD2    C2 1357   4.670   1.507   1.805  0.1518 -0.8864  0.4743
   89MPD2    C3 1358   4.711   1.640   1.814  0.1274 -0.3756  0.2412
   89MPD2    C4 1359   4.666   1.723   1.914  0.2306 -0.0554  0.0513
   89MPD2    C5 1360   4.577   1.674   2.009 -0.1683  0.2877  0.0632
   89MPD2     H 1361   4.688   1.452   1.714  1.5957 -0.1963  0.3480
   89MPD2    H1 1362   4.696   1.827   1.920 -0.7818  0.2176  0.3957
   89MPD2    H2 1363   4.461   1.515   2.067 -0.6382 -0.1148 -0.2747
   89MPD2    H3 1364   4.548   1.735   2.094 -2.7150 -0.7057 -0.1025
   89MPD2     N 1365   0.073   1.678   1.705 -0.2743 -0.2307  0.2337
   89MPD2    H5 1366   0.072   1.608   1.631 -0.5239 -0.0489  0.0653
   89MPD2    N1 1367   4.536   1.321   1.895  0.4529  0.3631  0.2401
   89MPD2    H7 1368   4.582   1.257   1.831  1.4717  0.4691  0.8527
   90TCq2    C1 1369   0.136   1.801   1.702  0.2174  0.5669 -0.2531
   90TCq2    O2 1370   0.166   1.878   1.795 -0.2089 -0.5925 -0.1458
   90TCq2    C2 1371   0.205   1.827   1.572  0.1395  0.4395 -0.3109
   90TCq2    C3 1372   0.206   1.720   1.476 -0.1592  0.7800  0.1758
   90TCq2    C4 1373   0.317   1.710   1.398 -0.4314  0.0748 -0.2524
   90TCq2    C5 1374   0.408   1.808   1.390 -0.6859  0.2890  0.0426
   90TCq2    C6 1375   0.408   1.902   1.490  0.1547 -0.2798  0.1617
   90TCq2    C7 1376   0.298   1.925   1.569  0.1740 -0.4706  0.0001
   90TCq2    C8 1377   0.496   2.014   1.481 -0.4187  0.3267 -0.0501
   90TCq2    O4 1378   0.474   2.111   1.553  1.0180  0.2323  0.5774
   90TCq2    C9 1379   0.337   1.592   1.312 -0.2826  0.8347  0.2129
   90TCq2    O5 1380   0.278   1.487   1.351 -0.3356 -0.5564 -0.6670
   90TCq2    O6 1381   0.449   1.604   1.247  0.6155 -0.4078 -0.0367
   90TCq2    H2 1382   0.129   1.644   1.466  0.8918 -0.3804  0.8668
   90TCq2    H3 1383   0.491   1.806   1.321  0.0936 -1.3783  1.0201
   90TCq2    H4 1384   0.318   1.984   1.658 -1.2736  0.5362 -0.3443
   91TMC2    C1 1385   1.645   1.507  15.873  0.2934 -0.4240 -0.0175
   91TMC2    C2 1386   1.742   1.594  15.915  0.3081 -0.4736  0.1444
   91TMC2    C3 1387   1.708   1.667  16.025 -0.4159 -0.5471 -0.4490
   91TMC2    C4 1388   1.515   1.489  15.921  0.5200 -0.6447 -0.1332
   91TMC2    C5 1389   1.487   1.566  16.029  0.2397 -0.1672  0.1170
   91TMC2    C6 1390   1.582   1.653  16.073 -0.5544 -0.0510  0.4607
   91TMC2     C 1391   1.687   1.401  15.780  0.2191  0.4398  0.6055
   91TMC2     O 1392   1.597   1.350  15.713  0.4878  0.1288 -0.5214
   91TMC2     H 1393   1.825   1.626  15.853 -0.5082 -1.6420 -1.5324
   91TMC2    H1 1394   1.441   1.420  15.883  0.2437 -0.3373 -0.1467
   91TMC2    H2 1395   1.553   1.726  16.148  1.5289 -0.4715  1.6655
   91TMC2    C7 1396   1.349   1.570  16.080  0.7896 -0.3053  0.2487
   91TMC2    C8 1397   1.788   1.787  16.026  0.1302  0.4098  0.0086
   91TMC2    O1 1398   1.333   1.603  16.200  0.0646 -0.4722  0.3017
   91TMC2    O2 1399   1.908   1.777  16.006  0.6570 -0.5816 -0.3861
   91TMC2    O5 1400   1.709   1.860  15.943 -0.4427  0.2340 -0.2090
   91TMC2    H5 1401   1.613   1.840  15.945 -0.1940 -0.6961  2.0525
   92MPD2     C 1402   1.855   1.233  15.615 -0.7030 -0.1128 -0.1543
   92MPD2    C1 1403   1.897   1.282  15.735 -0.1341 -0.1602 -0.4284
   92MPD2    C2 1404   2.029   1.244  15.781 -0.0955  0.1405 -0.5062
   92MPD2    C3 1405   2.114   1.179  15.692 -0.2846  0.5844 -0.5741
   92MPD2    C4 1406   2.068   1.141  15.569  0.9404  0.2063  0.1496
   92MPD2    C5 1407   1.941   1.163  15.529 -0.0442 -0.2522 -0.1178
   92MPD2     H 1408   2.070   1.278  15.875  0.9438  1.3520 -1.3965
   92MPD2    H1 1409   2.140   1.091  15.505 -0.0346 -1.1145  0.0791
   92MPD2    H2 1410   1.751   1.247  15.586 -0.5739  1.9143  0.3715
   92MPD2    H3 1411   1.899   1.128  15.436 -1.2341  2.8616 -0.7319
   92MPD2     N 1412   2.245   1.153  15.735  0.0855 -0.6019 -0.3283
   92MPD2    H5 1413   2.280   1.201  15.816 -1.1010  2.6370 -1.7562
   92MPD2    N1 1414   1.816   1.368  15.810 -0.3111 -0.0576  0.2959
   92MPD2    H7 1415   1.855   1.418  15.889  0.0600 -0.0005  0.0784
   93MPD2     C 1416   3.339   1.222  13.758  0.3390 -0.7330 -0.4735
   93MPD2    C1 1417   3.289   1.354  13.770 -0.1176  0.2949 -0.6182
   93MPD2    C2 1418   3.164   1.381  13.719 -0.3366  0.7929  0.5037
   93MPD2    C3 1419   3.093   1.292  13.638  0.3832 -0.3200 -0.2624
   93MPD2    C4 1420   3.156   1.178  13.604 -0.6406  0.8855 -0.6611
   93MPD2    C5 1421   3.273   1.148  13.665  0.5651 -0.3475  0.8396
   93MPD2     H 1422   3.123   1.480  13.734  2.8912  2.5329 -2.0367
   93MPD2    H1 1423   3.094   1.111  13.546  1.1437  0.7812 -2.4408
   93MPD2    H2 1424   3.434   1.184  13.794  0.3325 -0.4940 -0.2113
   93MPD2    H3 1425   3.314   1.049  13.653  0.2803 -0.4771  0.9308
   93MPD2     N 1426   2.969   1.328  13.571 -0.5981 -0.5319 -0.1711
   93MPD2    H5 1427   2.926   1.259  13.510 -1.4856  0.0011 -0.1377
   93MPD2    N1 1428   3.355   1.458  13.841  0.3637 -0.7642 -0.3602
   93MPD2    H7 1429   3.309   1.546  13.864  0.7295 -0.2346 -1.6464
   94TCq2    C1 1430   3.489   1.459  13.879 -0.0113 -0.3529  0.1700
   94TCq2    O2 1431   3.580   1.384  13.852 -0.4444  0.1491 -0.6098
   94TCq2    C2 1432   3.521   1.582  13.951 -0.7263 -0.5456  0.2478
   94TCq2    C3 1433   3.436   1.629  14.049  0.0304 -0.7460 -0.4129
   94TCq2    C4 1434   3.479   1.723  14.140  1.2387  0.5863 -0.6456
   94TCq2    C5 1435   3.613   1.755  14.145 -0.5485  0.5351  0.3399
   94TCq2    C6 1436   3.696   1.705  14.049  0.2766  0.2422  0.2121
   94TCq2    C7 1437   3.648   1.618  13.953  0.0465 -0.7377 -0.0236
   94TCq2    C8 1438   3.826   1.759  14.030 -0.0505 -0.0566  0.3806
   94TCq2    O4 1439   3.904   1.750  14.123 -0.7985 -0.1175 -0.2073
   94TCq2    C9 1440   3.388   1.795  14.220  0.4656  0.1681 -0.5851
   94TCq2    O5 1441   3.446   1.870  14.310  0.3453 -0.1310 -0.2509
   94TCq2    O6 1442   3.274   1.815  14.168 -0.0964 -0.1090 -0.3291
   94TCq2    H2 1443   3.330   1.612  14.041 -0.4267  2.6229 -1.5655
   94TCq2    H3 1444   3.648   1.831  14.215 -2.7504  2.8780 -1.0796
   94TCq2    H4 1445   3.721   1.565  13.894 -0.6686 -0.4202 -1.1796
   95TMC2    C1 1446   3.639   2.533  16.048 -0.1439 -0.5707 -0.2846
   95TMC2    C2 1447   3.691   2.437  16.133 -0.5008  0.9564  0.5842
   95TMC2    C3 1448   3.607   2.401  16.238 -0.3355  0.3505 -0.4526
   95TMC2    C4 1449   3.515   2.590  16.061 -0.1296  0.1815  0.1480
   95TMC2    C5 1450   3.443   2.550  16.163 -0.2049  0.8084  1.1339
   95TMC2    C6 1451   3.483   2.451  16.249  0.2530  0.2771  0.6121
   95TMC2     C 1452   3.723   2.590  15.951  0.7940 -0.8272 -0.1222
   95TMC2     O 1453   3.688   2.695  15.900 -0.5836 -0.0150  0.0248
   95TMC2     H 1454   3.798   2.417  16.135 -0.6319  0.1655 -0.4356
   95TMC2    H1 1455   3.489   2.668  15.990 -0.0937  0.2511  0.2110
   95TMC2    H2 1456   3.423   2.431  16.337 -1.2038  1.0684 -0.2093
   95TMC2    C7 1457   3.342   2.645  16.204  0.1262  0.2845 -0.0447
   95TMC2    C8 1458   3.660   2.348  16.361  0.0919 -0.3259 -0.4414
   95TMC2    O1 1459   3.340   2.664  16.325 -0.3126 -0.3396 -0.4098
   95TMC2    O2 1460   3.626   2.365  16.474  0.0397  0.1599  0.1865
   95TMC2    O5 1461   3.764   2.265  16.322  0.7360  0.0682  0.6143
   95TMC2    H5 1462   3.756   2.248  16.225  1.0366  0.8985  0.4401
   96MPD2     C 1463   4.130   2.597  15.657  0.4461  0.1812  0.2238
   96MPD2    C1 1464   4.052   2.699  15.692 -0.1154 -0.1077 -0.3742
   96MPD2    C2 1465   3.951   2.670  15.784  0.7129 -0.4127 -0.5345
   96MPD2    C3 1466   3.930   2.537  15.824  1.1432 -0.8096 -0.0270
   96MPD2    C4 1467   4.015   2.436  15.783  0.1389  0.0738  0.4301
   96MPD2    C5 1468   4.117   2.467  15.696  0.1985 -0.0204 -0.1649
   96MPD2     H 1469   3.896   2.755  15.823 -1.0580 -1.2338 -1.2183
   96MPD2    H1 1470   4.007   2.332  15.812 -1.8683  0.1716  0.2170
   96MPD2    H2 1471   4.212   2.609  15.588  0.8694 -2.3044  0.2930
   96MPD2    H3 1472   4.184   2.392  15.656  0.4936 -0.2307  0.7372
   96MPD2     N 1473   3.819   2.499  15.915  0.3030 -0.3413  0.2526
   96MPD2    H5 1474   3.817   2.402  15.943 -1.0233  0.1501  1.8788
   96MPD2    N1 1475   4.069   2.824  15.635  0.5269  0.2477 -0.1609
   96MPD2    H7 1476   4.157   2.831  15.584  0.8337  0.7811  0.4337
   97MPD2     C 1477   0.610   0.080   0.682  0.1211 -0.0150  0.0095
   97MPD2    C1 1478   0.623   0.217   0.683 -0.1406 -0.5227 -1.1382
   97MPD2    C2 1479   0.669   0.281   0.569 -0.2141 -0.2340  0.4113
   97MPD2    C3 1480   0.692   0.208   0.453 -0.4990  0.2144 -0.4830
   97MPD2    C4 1481   0.662   0.075   0.448  0.9192 -0.4183 -0.2108
   97MPD2    C5 1482   0.634   0.004   0.563  0.4032 -0.5381  0.6821
   97MPD2     H 1483   0.671   0.389   0.559  0.9122 -0.3498 -0.5653
   97MPD2    H1 1484   0.665   0.018   0.356 -1.3304  1.5462 -1.5119
   97MPD2    H2 1485   0.583   0.025   0.772  2.5948  0.4598  1.0394
   97MPD2    H3 1486   0.612   4.619   0.561 -0.0123 -0.4766  1.8800
   97MPD2     N 1487   0.754   0.267   0.334 -0.0015 -0.0327  0.5388
   97MPD2    H5 1488   0.751   0.199   0.259 -1.6685  2.3858 -1.5830
   97MPD2    N1 1489   0.600   0.283   0.800 -0.0098  0.1833  0.1388
   97MPD2    H7 1490   0.558   0.228   0.874 -0.5643  0.1624 -0.1854
   98TCq2    C1 1491   0.819   0.392   0.330 -0.2530 -0.2569 -0.3443
   98TCq2    O2 1492   0.842   0.463   0.427  0.0063  0.1004 -0.7180
   98TCq2    C2 1493   0.882   0.422   0.206 -0.7551 -0.2768 -0.6714
   98TCq2    C3 1494   0.839   0.363   0.092  0.5703  0.5766  0.0589
   98TCq2    C4 1495   0.903   0.394  17.669  0.5903 -0.3738  0.6648
   98TCq2    C5 1496   0.998   0.491  17.665 -0.2840  0.6417 -0.6118
   98TCq2    C6 1497   1.035   0.553   0.097 -0.4348 -0.8099 -0.0472
   98TCq2    C7 1498   0.976   0.517   0.210  0.0048  0.1653  0.0522
   98TCq2    C8 1499   1.120   0.670   0.100 -0.4964 -0.4402 -0.0322
   98TCq2    O4 1500   1.176   0.701   0.202  0.3170  0.1367  0.4652
   98TCq2    C9 1501   0.863   0.326  17.556 -0.1866 -0.5987 -0.5817
   98TCq2    O5 1502   0.791   0.224  17.570 -0.2791 -0.1363  0.2877
   98TCq2    O6 1503   0.920   0.357  17.453 -0.1684  0.0775  0.4081
   98TCq2    H2 1504   0.762   0.288   0.095  1.4813 -0.3090  1.6062
   98TCq2    H3 1505   1.049   0.504  17.570 -1.8232  0.7506 -1.4367
   98TCq2    H4 1506   1.001   0.559   0.307  1.4972 -0.2436 -0.1695
   99MPD2     C 1507   4.616   2.051   1.625 -0.3699 -0.3440  0.2360
   99MPD2    C1 1508   4.677   2.143   1.712 -0.7587  1.3170 -0.1440
   99MPD2    C2 1509   0.059   2.218   1.653 -0.3083  0.9161  1.2111
   99MPD2    C3 1510   0.091   2.206   1.517 -0.1729  0.4034  0.1253
   99MPD2    C4 1511   0.020   2.112   1.441  0.4022 -0.1284  0.4054
   99MPD2    C5 1512   4.642   2.039   1.498 -0.4833  0.4370  0.3698
   99MPD2     H 1513   0.127   2.279   1.713  1.4150  1.3912 -1.2355
   99MPD2    H1 1514   0.035   2.104   1.334 -1.4675 -0.5760  0.1899
   99MPD2    H2 1515   4.541   1.982   1.664 -0.7649 -0.2655 -0.3880
   99MPD2    H3 1516   4.592   1.958   1.446  2.9105 -0.6177 -1.2342
   99MPD2     N 1517   0.184   2.298   1.471 -0.0513 -0.0107  0.2253
   99MPD2    H5 1518   0.236   2.357   1.535 -1.4600  1.2376  0.2254
   99MPD2    N1 1519   4.646   2.160   1.846  0.1649  0.4660  0.4788
   99MPD2    H7 1520   4.717   2.209   1.898 -0.5737  1.3415  0.6511
  100TCq2    C1 1521   4.536   2.107   1.906 -0.6928  0.7764  0.0160
  100TCq2    O2 1522   4.449   2.039   1.861 -0.2203 -0.2919  0.4555
  100TCq2    C2 1523   4.538   2.163   2.040  0.3202  0.1727  0.6369
  100TCq2    C3 1524   4.657   2.186   2.108 -0.4428 -0.2302  0.1234
  100TCq2    C4 1525   4.650   2.231   2.241  0.5121  0.5874 -0.2173
  100TCq2    C5 1526   4.529   2.250   2.309  0.2072 -0.2448  0.5463
  100TCq2    C6 1527   4.416   2.218   2.239  0.2592 -0.1400 -0.4133
  100TCq2    C7 1528   4.421   2.175   2.107  0.2305 -0.0678 -0.2209
  100TCq2    C8 1529   4.290   2.244   2.309  0.2210  0.2314 -0.5473
  100TCq2    O4 1530   4.291   2.320   2.406 -0.5950 -0.1309 -0.1862
  100TCq2    C9 1531   0.048   2.240   2.310 -0.2828 -0.2645  0.0171
  100TCq2    O5 1532   0.044   2.292   2.429 -0.2028  0.2037  0.3632
  100TCq2    O6 1533   0.151   2.197   2.250  0.3696 -0.2129  0.3841
  100TCq2    H2 1534   0.032   2.175   2.062 -0.2338  0.5227  0.3730
  100TCq2    H3 1535   4.522   2.276   2.414 -1.0434  1.0614  0.1423
  100TCq2    H4 1536   4.330   2.162   2.049 -0.6005  1.2009  0.8091
  101MPD2     C 1537   0.503   3.927  13.039 -0.1288  0.0210 -0.2121
  101MPD2    C1 1538   0.394   4.008  13.008  0.1487  0.5076 -0.1376
  101MPD2    C2 1539   0.267   3.964  13.040 -0.5976 -0.2772  0.1937
  101MPD2    C3 1540   0.242   3.836  13.079 -0.1697  0.1264 -0.2922
  101MPD2    C4 1541   0.347   3.750  13.093 -0.2886  0.4223  0.3623
  101MPD2    C5 1542   0.479   3.801  13.084 -0.2469 -0.7972  0.4584
  101MPD2     H 1543   0.181   4.022  13.008 -2.1889 -3.1635 -0.8105
  101MPD2    H1 1544   0.330   3.644  13.106 -0.1877  0.1617 -1.6415
  101MPD2    H2 1545   0.606   3.954  13.022  0.1513 -1.5263 -0.9310
  101MPD2    H3 1546   0.562   3.733  13.101  1.9050  1.7972  0.2256
  101MPD2     N 1547   0.108   3.803  13.103 -0.2404  0.1945  0.5839
  101MPD2    H5 1548   0.034   3.868  13.078  0.0309  0.7681  1.2938
  101MPD2    N1 1549   0.426   4.138  12.963  0.6815  0.2155 -0.0528
  101MPD2    H7 1550   0.522   4.151  12.933  0.5061  1.0009 -0.2773
  102TCq2    C1 1551   0.621   4.512  12.684  0.3737 -0.3392 -0.3391
  102TCq2    O2 1552   0.714   4.436  12.664 -0.1376 -0.6224  0.3082
  102TCq2    C2 1553   0.539   4.504  12.805  0.0112  0.4872  0.0994
  102TCq2    C3 1554   0.475   4.613  12.849  0.4269  0.1152  0.6220
  102TCq2    C4 1555   0.375   4.605  12.949  1.1021  0.3493  0.2168
  102TCq2    C5 1556   0.339   4.484  12.996 -0.3958 -0.5082 -0.4515
  102TCq2    C6 1557   0.404   4.375  12.953 -0.7411 -0.2497  0.1480
  102TCq2    C7 1558   0.506   4.378  12.861  0.0674  0.5717 -0.2523
  102TCq2    C8 1559   0.342   4.251  12.985  0.7510 -0.1555  0.0634
  102TCq2    O4 1560   0.238   4.252  13.049 -0.3923  0.1049 -0.5898
  102TCq2    C9 1561   0.313   0.003  12.998  0.3903  0.6036 -0.5927
  102TCq2    O5 1562   0.381   0.105  13.026  0.1362  0.0034 -0.5052
  102TCq2    O6 1563   0.188   0.012  12.978 -0.0312  0.2891  0.1158
  102TCq2    H2 1564   0.501   4.712  12.812  1.3656  0.0233  1.0501
  102TCq2    H3 1565   0.247   4.479  13.054 -0.0777 -0.7877  0.0383
  102TCq2    H4 1566   0.559   4.292  12.820  0.5307  0.9292 -0.4056
  103TMC2    C1 1567   3.629   4.035  12.430 -0.4775 -0.7849 -0.5226
  103TMC2    C2 1568   3.767   4.040  12.440  0.8706  0.0452 -0.1655
  103TMC2    C3 1569   3.814   4.074  12.558 -0.2271 -0.0393 -0.7269
  103TMC2    C4 1570   3.544   4.052  12.537  0.0975  0.0565 -0.6196
  103TMC2    C5 1571   3.600   4.096  12.649  0.0995 -0.6253 -0.6151
  103TMC2    C6 1572   3.736   4.111  12.660  0.0126 -0.0308 -0.5591
  103TMC2     C 1573   3.572   4.008  12.301 -0.2554  0.0036 -0.2533
  103TMC2     O 1574   3.452   3.979  12.302  0.3058 -0.1143  0.3283
  103TMC2     H 1575   3.823   3.990  12.361  1.3379 -1.2760  1.0072
  103TMC2    H1 1576   3.437   4.039  12.540  0.2602 -1.3793 -0.9459
  103TMC2    H2 1577   3.787   4.142  12.751 -0.0581 -4.6198  1.0144
  103TMC2    C7 1578   3.533   4.077  12.781 -0.2075  0.8582 -0.1556
  103TMC2    C8 1579   3.953   4.058  12.583  0.0481  0.0674 -0.4508
  103TMC2    O1 1580   3.598   4.122  12.874 -0.1102  0.3724  0.1695
  103TMC2    O2 1581   4.006   4.049  12.694 -0.3456  0.4050  0.0825
  103TMC2    O5 1582   4.017   4.076  12.466  0.7096 -0.1823  0.9906
  103TMC2    H5 1583   3.958   4.085  12.388  3.0272  0.6548 -0.6733
  104MPD2     C 1584   3.707   4.130  11.972  0.0244  0.0811  0.7910
  104MPD2    C1 1585   3.612   4.076  12.056 -0.4971 -0.1507 -0.4023
  104MPD2    C2 1586   3.482   4.055  12.005 -0.6228  0.5979 -0.0300
  104MPD2    C3 1587   3.448   4.083  11.873 -0.1316  0.7980  0.0181
  104MPD2    C4 1588   3.549   4.131  11.791 -0.1530 -0.3233 -0.8647
  104MPD2    C5 1589   3.678   4.153  11.838 -0.4626  0.5668 -0.2562
  104MPD2     H 1590   3.400   4.014  12.063  2.9219 -3.0850  2.3416
  104MPD2    H1 1591   3.529   4.145  11.686  0.3793  1.9580 -0.6741
  104MPD2    H2 1592   3.807   4.148  12.007  0.1930 -0.5418  0.6404
  104MPD2    H3 1593   3.754   4.193  11.772  0.4968  0.0278  0.5167
  104MPD2     N 1594   3.320   4.064  11.831 -0.1772 -0.3442  0.1468
  104MPD2    H5 1595   3.253   4.016  11.890 -0.0249  1.8065  2.0327
  104MPD2    N1 1596   3.654   4.046  12.195 -0.0244 -0.3928  0.3971
  104MPD2    H7 1597   3.748   4.077  12.214 -0.8439  1.0694  2.0656
  105MPD2     C 1598   0.268   2.520  17.605 -0.0547  0.1451 -0.2920
  105MPD2    C1 1599   0.264   2.656  17.599  0.4336 -0.1961  0.4899
  105MPD2    C2 1600   0.215   2.723   0.022 -0.0233 -0.1949 -0.5170
  105MPD2    C3 1601   0.174   2.660   0.136  0.0928  0.4439  0.4126
  105MPD2    C4 1602   0.193   2.524   0.135 -0.1970  0.2957  0.1720
  105MPD2    C5 1603   0.258   2.455   0.031  0.1609  0.3232 -0.0985
  105MPD2     H 1604   0.190   2.827   0.006 -0.7023 -0.2177  0.4091
  105MPD2    H1 1605   0.178   2.459   0.220 -1.6887 -2.0398 -1.8979
  105MPD2    H2 1606   0.317   2.473  17.520  1.7529 -1.0891  1.4447
  105MPD2    H3 1607   0.260   2.346   0.028 -0.2085  0.3103  0.3354
  105MPD2     N 1608   0.112   2.729   0.241  0.9946  0.4647  0.2201
  105MPD2    H5 1609   0.112   2.830   0.235  2.4125  0.3256 -2.1571
  105MPD2    N1 1610   0.295   2.736  17.482 -0.5394 -0.0565 -0.2106
  105MPD2    H7 1611   0.284   2.836  17.492 -1.3139 -0.0037 -1.5388
  106TCq2    C1 1612   0.057   2.668   0.354 -0.2609 -0.0034 -0.4674
  106TCq2    O2 1613   0.041   2.551   0.374  0.1118 -0.7397  0.2621
  106TCq2    C2 1614   4.714   2.765   0.441 -0.3612  0.2021 -0.4286
  106TCq2    C3 1615   4.676   2.884   0.400  0.7184 -0.2830  0.1143
  106TCq2    C4 1616   4.599   2.955   0.491 -0.0084  0.1824 -0.8542
  106TCq2    C5 1617   4.575   2.904   0.622  0.4379 -0.2337  0.6232
  106TCq2    C6 1618   4.609   2.780   0.652  0.7111  0.7519 -0.2029
  106TCq2    C7 1619   4.686   2.707   0.563  0.4738  0.3006 -0.0852
  106TCq2    C8 1620   4.575   2.720   0.782  0.4451 -0.5518 -0.3984
  106TCq2    O4 1621   4.558   2.598   0.789 -0.2658 -0.2927  0.0128
  106TCq2    C9 1622   4.559   3.083   0.468 -0.2743  0.5191  0.4062
  106TCq2    O5 1623   4.604   3.145   0.365  0.6378  0.2428  0.2837
  106TCq2    O6 1624   4.472   3.132   0.542 -0.0700 -0.1397 -0.3100
  106TCq2    H2 1625   4.711   2.933   0.310 -0.4025 -1.5109 -0.9843
  106TCq2    H3 1626   4.531   2.967   0.698  1.7497 -0.6477  1.7362
  106TCq2    H4 1627   4.718   2.606   0.585  1.8633  1.3952  3.0034
  107TMC2    C1 1628   1.021   2.541  11.668 -1.0824 -0.0543 -0.1278
  107TMC2    C2 1629   1.157   2.554  11.683  0.2367  0.4982 -0.3021
  107TMC2    C3 1630   1.238   2.534  11.575  0.6202 -0.4675 -0.1530
  107TMC2    C4 1631   0.964   2.497  11.549  0.0922 -0.4361 -0.5525
  107TMC2    C5 1632   1.041   2.484  11.434  0.4232 -0.0582  0.1240
  107TMC2    C6 1633   1.179   2.505  11.451  0.6746 -0.2603 -0.4304
  107TMC2     C 1634   0.942   2.610  11.765  0.0530 -0.3215  0.0635
  107TMC2     O 1635   0.989   2.624  11.878  0.0591  0.2163  0.9209
  107TMC2     H 1636   1.205   2.580  11.777 -0.6564  1.0352  0.0110
  107TMC2    H1 1637   0.858   2.482  11.531 -0.1887  0.7034  0.1743
  107TMC2    H2 1638   1.249   2.473  11.375 -1.6832 -0.4783 -2.4979
  107TMC2    C7 1639   0.990   2.412  11.319 -0.2215  0.8275 -0.3051
  107TMC2    C8 1640   1.383   2.545  11.580 -0.1358 -0.0498 -0.2676
  107TMC2    O1 1641   0.885   2.345  11.333 -0.0930  0.4734  0.1450
  107TMC2    O2 1642   1.452   2.469  11.518  0.5479  0.4565 -0.0037
  107TMC2    O5 1643   1.420   2.625  11.685  0.2971  0.5288 -0.1543
  107TMC2    H5 1644   1.348   2.690  11.694  0.3126  0.8348 -2.1724
  108MPD2     C 1645   0.661   2.814  11.656  0.5670  0.0883  0.0556
  108MPD2    C1 1646   0.733   2.746  11.744  0.3213 -0.1097  0.1503
  108MPD2    C2 1647   0.720   2.780  11.868  0.0026 -0.2497 -0.1241
  108MPD2    C3 1648   0.650   2.891  11.911 -0.6212  0.5765 -0.0380
  108MPD2    C4 1649   0.587   2.965  11.819  0.7803  0.2188 -0.1459
  108MPD2    C5 1650   0.580   2.916  11.696 -0.7951 -0.2444  0.3038
  108MPD2     H 1651   0.780   2.717  11.933  3.1951  1.4592 -1.4260
  108MPD2    H1 1652   0.538   3.058  11.845  2.8301  1.3668 -0.4047
  108MPD2    H2 1653   0.660   2.785  11.551 -2.3927  0.1522  0.0741
  108MPD2    H3 1654   0.517   2.964  11.622 -0.7899 -2.2263 -0.9798
  108MPD2     N 1655   0.639   2.939  12.042 -0.2689 -0.2408 -0.1062
  108MPD2    H5 1656   0.579   3.018  12.058  0.6261  0.3255  0.4660
  108MPD2    N1 1657   0.828   2.652  11.698 -0.3814 -0.5902  0.2280
  108MPD2    H7 1658   0.831   2.633  11.598  0.9506  1.8154 -0.1816
  109MPD2     C 1659   4.359   4.304   1.901  0.0973  0.5244 -0.5313
  109MPD2    C1 1660   4.426   4.329   1.785 -0.0901  0.0408 -0.1453
  109MPD2    C2 1661   4.553   4.397   1.779  0.5236  0.5155 -0.2000
  109MPD2    C3 1662   4.625   4.405   1.896 -0.9499  0.0751 -0.2582
  109MPD2    C4 1663   4.565   4.362   2.015 -0.1217 -0.2521  0.3921
  109MPD2    C5 1664   4.434   4.321   2.014 -0.4068 -0.1534  0.3819
  109MPD2     H 1665   4.606   4.402   1.684  0.0999  1.6641 -0.3741
  109MPD2    H1 1666   4.611   4.355   2.113  0.8101 -1.2405 -0.1178
  109MPD2    H2 1667   4.268   4.245   1.901  0.3678  0.1143 -0.3621
  109MPD2    H3 1668   4.382   4.277   2.098  2.4111  0.7671  2.5760
  109MPD2     N 1669   0.041   4.443   1.904 -0.0715  0.0678  0.4640
  109MPD2    H5 1670   0.077   4.453   1.998 -1.0912  0.6137  0.7917
  109MPD2    N1 1671   4.349   4.313   1.669  0.1306  0.1774  0.1491
  109MPD2    H7 1672   4.257   4.271   1.681 -0.4101  1.0558 -0.8993
  110TCq2    C1 1673   0.128   4.459   1.795 -0.3969  0.3040  0.1404
  110TCq2    O2 1674   0.109   4.463   1.674  0.3817  0.5638 -0.5579
  110TCq2    C2 1675   0.259   4.503   1.838 -0.1974  0.4849  0.1171
  110TCq2    C3 1676   0.298   4.478   1.963 -0.3046 -1.0148 -0.0770
  110TCq2    C4 1677   0.426   4.506   1.991 -0.6643  0.0255  0.0808
  110TCq2    C5 1678   0.517   4.564   1.902 -0.2090 -0.4578  0.1757
  110TCq2    C6 1679   0.464   4.587   1.778  0.2100  0.9601  0.1729
  110TCq2    C7 1680   0.344   4.549   1.739 -0.5719  0.0091  0.0110
  110TCq2    C8 1681   0.526   4.681   1.685  0.2112 -0.4372 -0.4131
  110TCq2    O4 1682   0.502   4.670   1.564  0.3859  0.0614 -0.2548
  110TCq2    C9 1683   0.466   4.482   2.129 -0.6581 -0.3086  0.3391
  110TCq2    O5 1684   0.387   4.416   2.202  0.5243  0.1666  0.0391
  110TCq2    O6 1685   0.583   4.522   2.157  0.1839  0.4059 -0.4671
  110TCq2    H2 1686   0.238   4.428   2.038 -0.5085  1.6640  1.5465
  110TCq2    H3 1687   0.622   4.578   1.923  0.1666 -0.1188 -1.9920
  110TCq2    H4 1688   0.316   4.564   1.636  0.0395 -0.6203 -0.2449
  111TMC2    C1 1689   1.364   0.569  11.467  0.0968 -0.7420  0.1353
  111TMC2    C2 1690   1.457   0.615  11.378 -0.3956  0.3365 -0.1019
  111TMC2    C3 1691   1.583   0.637  11.425  0.2856 -0.4949  0.5217
  111TMC2    C4 1692   1.387   0.535  11.592  0.4550 -0.3350 -0.3392
  111TMC2    C5 1693   1.519   0.553  11.630  0.0408 -0.3985  0.2527
  111TMC2    C6 1694   1.619   0.606  11.555 -0.6294  0.7650  0.6896
  111TMC2     C 1695   1.228   0.564  11.413  0.5191 -0.3073 -1.0493
  111TMC2     O 1696   1.222   0.600  11.298  0.2032  0.2875  0.0463
  111TMC2     H 1697   1.440   0.629  11.272  1.1221  2.8794 -0.0229
  111TMC2    H1 1698   1.312   0.495  11.659  1.9042 -0.3241  1.2767
  111TMC2    H2 1699   1.720   0.614  11.594  0.1217  1.1906 -1.3503
  111TMC2    C7 1700   1.547   0.468  11.744 -0.2535 -0.3799 -0.3647
  111TMC2    C8 1701   1.693   0.673  11.347  1.2297 -0.0094  0.8884
  111TMC2    O1 1702   1.454   0.447  11.817 -0.0428 -0.7138  0.0892
  111TMC2    O2 1703   1.729   0.636  11.237  0.2838 -0.0116 -0.3170
  111TMC2    O5 1704   1.691   0.804  11.386 -0.4915 -0.5290  0.9279
  111TMC2    H5 1705   1.640   0.831  11.465  2.2949 -0.8512  2.8307
  112MPD2     C 1706   0.727   0.634  11.502 -0.1779  0.6657  0.0256
  112MPD2    C1 1707   0.799   0.630  11.382  0.0591 -0.1710 -0.3282
  112MPD2    C2 1708   0.927   0.595  11.387  0.0816  0.4970  0.4758
  112MPD2    C3 1709   0.999   0.574  11.506  0.3531 -0.1572  0.4620
  112MPD2    C4 1710   0.928   0.575  11.619 -1.3210 -0.2611 -0.1075
  112MPD2    C5 1711   0.794   0.603  11.616 -0.8315  0.8735  0.8220
  112MPD2     H 1712   0.981   0.601  11.293 -1.3210  0.0792 -0.3636
  112MPD2    H1 1713   0.964   0.546  11.717  1.3031 -1.3566 -1.4080
  112MPD2    H2 1714   0.620   0.646  11.510  0.1941  5.0743 -1.6851
  112MPD2    H3 1715   0.733   0.595  11.705 -1.0200 -0.0581  0.6170
  112MPD2     N 1716   1.138   0.559  11.516  0.0237 -0.3021  0.0604
  112MPD2    H5 1717   1.172   0.563  11.611 -0.9812  1.5571  0.3442
  112MPD2    N1 1718   0.743   0.665  11.260  0.1403  0.1890 -0.2111
  112MPD2    H7 1719   0.810   0.651  11.185  0.9737  0.4905  0.4708
  113MPD2     C 1720   3.882   2.057   1.665 -0.6739 -0.9428  0.6747
  113MPD2    C1 1721   3.811   2.164   1.717  0.4074 -0.0573 -0.1750
  113MPD2    C2 1722   3.677   2.171   1.690  0.0281 -1.0187  0.5230
  113MPD2    C3 1723   3.611   2.075   1.614  0.7755 -0.6336  0.0933
  113MPD2    C4 1724   3.692   1.973   1.554  0.3422 -0.2360  0.1573
  113MPD2    C5 1725   3.824   1.961   1.584  0.1512  0.4599  0.2201
  113MPD2     H 1726   3.628   2.266   1.710  0.9969 -0.6868  1.3299
  113MPD2    H1 1727   3.654   1.898   1.486 -1.1080  1.0371 -0.4257
  113MPD2    H2 1728   3.985   2.038   1.692 -0.6940 -1.4998  0.3682
  113MPD2    H3 1729   3.882   1.879   1.545 -0.6743 -1.7603  3.7253
  113MPD2     N 1730   3.472   2.078   1.579 -0.6417  0.5372 -0.5415
  113MPD2    H5 1731   3.446   1.997   1.524 -0.0595  0.4369 -0.6700
  113MPD2    N1 1732   3.868   2.260   1.802  0.3206 -0.0004 -0.4509
  113MPD2    H7 1733   3.798   2.328   1.829 -1.4236 -1.0744 -2.2576
  114TCq2    C1 1734   3.384   2.183   1.602 -0.7197  0.5060 -0.5782
  114TCq2    O2 1735   3.400   2.289   1.658 -0.0627 -0.2767 -0.4529
  114TCq2    C2 1736   3.248   2.166   1.550 -0.5852 -0.1244  0.3018
  114TCq2    C3 1737   3.141   2.209   1.625 -0.1943  0.1201 -0.1539
  114TCq2    C4 1738   3.020   2.148   1.601  0.0365  0.1233 -0.3282
  114TCq2    C5 1739   2.998   2.048   1.510  0.1622 -0.3872  0.0574
  114TCq2    C6 1740   3.108   2.001   1.444 -0.1277  0.4167  0.4052
  114TCq2    C7 1741   3.230   2.057   1.462 -0.2559  0.2664  0.3750
  114TCq2    C8 1742   3.105   1.869   1.387 -0.7717 -0.2261  0.0629
  114TCq2    O4 1743   3.196   1.842   1.312  0.1200 -0.4165 -0.9417
  114TCq2    C9 1744   2.915   2.199   1.687 -0.6232 -0.0553 -0.2709
  114TCq2    O5 1745   2.819   2.127   1.718  0.2751  0.3044 -0.0734
  114TCq2    O6 1746   2.941   2.319   1.718  0.4835 -0.3384 -0.7804
  114TCq2    H2 1747   3.158   2.279   1.706 -2.0354 -1.0977  1.2731
  114TCq2    H3 1748   2.899   2.009   1.494  0.7717 -1.3587 -1.3496
  114TCq2    H4 1749   3.312   2.021   1.401 -1.7504  0.6693 -1.8793
  115TMC2    C1 1750   4.327   4.581   0.065 -0.0916  0.7187  0.1165
  115TMC2    C2 1751   4.446   4.533   0.014 -0.0292 -0.2775  0.0224
  115TMC2    C3 1752   4.548   4.625  17.683 -0.2749 -0.1460  0.2015
  115TMC2    C4 1753   4.304   4.717   0.092  0.4193 -0.4123 -0.0832
  115TMC2    C5 1754   4.409   0.082   0.050 -0.4287  0.1894 -0.4923
  115TMC2    C6 1755   4.526   0.035   0.006  0.4507  0.3899 -0.2309
  115TMC2     C 1756   4.218   4.491   0.035  0.5194 -0.2890  0.2695
  115TMC2     O 1757   4.241   4.418  17.628  0.6676 -0.4258  0.0232
  115TMC2     H 1758   4.459   4.426   0.021 -0.6005 -0.3083  0.5869
  115TMC2    H1 1759   4.204   0.023   0.126  0.7533 -1.8817  2.0988
  115TMC2    H2 1760   4.618   0.092  17.683  1.0752 -0.8451 -1.3404
  115TMC2    C7 1761   4.403   0.212   0.110  0.3403 -0.1063 -0.1313
  115TMC2    C8 1762   4.688   4.585  17.662 -0.1165 -0.6537  0.0864
  115TMC2    O1 1763   4.293   0.246   0.154  0.2488 -0.0728 -0.4262
  115TMC2    O2 1764   0.051   4.630   0.046  0.2030  0.4324  0.3236
  115TMC2    O5 1765   4.685   4.459  17.597  0.0305 -0.1112  0.2184
  115TMC2    H5 1766   4.616   4.462  17.528 -0.6808 -0.6625  0.8998
  116MPD2     C 1767   3.727   4.317   0.058  0.2760  0.1565  0.2397
  116MPD2    C1 1768   3.827   4.289  17.657 -1.3331 -0.9267 -0.5529
  116MPD2    C2 1769   3.951   4.345  17.673 -0.0979  0.9328  0.0665
  116MPD2    C3 1770   3.976   4.437   0.089  0.7547 -0.8901  0.0883
  116MPD2    C4 1771   3.879   4.461   0.181  0.6205  0.4325  0.2077
  116MPD2    C5 1772   3.756   4.394   0.167 -1.0247 -0.1253  0.0071
  116MPD2     H 1773   4.025   4.337  17.594 -2.2741  2.0352 -2.1156
  116MPD2    H1 1774   3.904   4.535   0.256  0.7860 -0.0091  0.5838
  116MPD2    H2 1775   3.621   4.292   0.063  0.3038 -0.4925 -2.1882
  116MPD2    H3 1776   3.684   4.411   0.246  0.9786 -0.5174  1.9232
  116MPD2     N 1777   4.100   4.503   0.111 -0.0788 -0.1061 -0.2962
  116MPD2    H5 1778   4.095   4.578   0.179  0.3915  0.3822 -0.7974
  116MPD2    N1 1779   3.800   4.199  17.554 -0.0692  0.2394  0.2724
  116MPD2    H7 1780   3.706   4.162  17.541 -1.0354  1.9265  2.5358
  117TMC2    C1 1781   2.867   1.807  13.646  0.0411 -0.7218 -0.1705
  117TMC2    C2 1782   2.992   1.761  13.614 -0.1391  0.1735 -0.6032
  117TMC2    C3 1783   3.094   1.779  13.713  0.1933 -0.0367  0.2315
  117TMC2    C4 1784   2.839   1.861  13.769 -0.1716 -0.0807  0.4744
  117TMC2    C5 1785   2.937   1.875  13.859  0.8269  0.2597  0.4704
  117TMC2    C6 1786   3.064   1.839  13.836 -0.0016  0.2547 -0.1117
  117TMC2     C 1787   2.774   1.843  13.545 -0.7128  0.0096 -1.0097
  117TMC2     O 1788   2.771   1.776  13.446  0.0904  0.1014  0.4077
  117TMC2     H 1789   3.012   1.740  13.510  0.4824 -0.3435 -0.3772
  117TMC2    H1 1790   2.739   1.890  13.801 -0.7332  0.1752 -1.5203
  117TMC2    H2 1791   3.147   1.846  13.905  0.0652  1.5544 -0.3346
  117TMC2    C7 1792   2.918   1.978  13.959 -0.0808  0.2594  0.7256
  117TMC2    C8 1793   3.237   1.766  13.677 -0.9800 -0.4414 -0.1149
  117TMC2    O1 1794   3.020   2.029  14.000  0.0462 -0.2373  0.4233
  117TMC2    O2 1795   3.323   1.732  13.761  0.2602 -0.5947 -0.6319
  117TMC2    O5 1796   3.254   1.855  13.574 -0.0633 -0.2919 -1.1534
  117TMC2    H5 1797   3.163   1.867  13.540 -1.2263 -3.9448  0.6567
  118MPD2     C 1798   2.610   2.081  14.142  0.5847  0.1281 -0.0423
  118MPD2    C1 1799   2.740   2.094  14.092  0.2084  0.0703 -0.2085
  118MPD2    C2 1800   2.813   2.211  14.116  0.2314 -0.0100  0.0357
  118MPD2    C3 1801   2.777   2.290  14.224 -0.1007 -0.1510 -0.1043
  118MPD2    C4 1802   2.667   2.254  14.296 -0.2126  0.5493 -0.0286
  118MPD2    C5 1803   2.578   2.162  14.248  0.2921  0.5884  0.1197
  118MPD2     H 1804   2.898   2.238  14.055 -0.3813 -2.3673 -1.8562
  118MPD2    H1 1805   2.641   2.319  14.378 -0.6175  0.4493 -0.0750
  118MPD2    H2 1806   2.542   1.997  14.131 -0.2643  0.8008  0.1026
  118MPD2    H3 1807   2.484   2.155  14.301  0.2126  1.6810  0.1318
  118MPD2     N 1808   2.842   2.408  14.258  0.1471  0.0406 -0.0818
  118MPD2    H5 1809   2.796   2.479  14.313  0.6005  0.8332 -0.7350
  118MPD2    N1 1810   2.787   1.997  14.000  0.4666  0.1198  0.6131
  118MPD2    H7 1811   2.728   1.919  13.973  2.7834 -1.0292 -1.0920
  119MPD2     C 1812   1.335   3.631  13.697  0.5701  0.3478  0.3207
  119MPD2    C1 1813   1.199   3.601  13.684  0.2646 -0.1654  0.5153
  119MPD2    C2 1814   1.155   3.570  13.556 -0.7257 -1.0560 -0.1725
  119MPD2    C3 1815   1.244   3.545  13.459  0.0407 -0.8087  0.0461
  119MPD2    C4 1816   1.378   3.564  13.480  0.1428  0.9162  0.8657
  119MPD2    C5 1817   1.424   3.616  13.601 -0.7710 -1.0619 -0.8615
  119MPD2     H 1818   1.050   3.551  13.534 -0.3467  0.0569 -2.9190
  119MPD2    H1 1819   1.450   3.541  13.402 -1.1405  1.7937 -0.5645
  119MPD2    H2 1820   1.376   3.665  13.792  0.6351 -0.9487  0.7541
  119MPD2    H3 1821   1.526   3.648  13.620 -1.6221  1.1224  0.0940
  119MPD2     N 1822   1.208   3.481  13.338  0.3848 -0.0110  0.0675
  119MPD2    H5 1823   1.276   3.464  13.266 -0.7567 -1.1061 -0.7506
  119MPD2    N1 1824   1.114   3.611  13.796 -0.4242  0.0719  0.0020
  119MPD2    H7 1825   1.152   3.667  13.871  0.1690 -0.4519  0.0864
  120TCq2    C1 1826   1.083   3.433  13.301  1.1661  0.1178  0.6161
  120TCq2    O2 1827   0.977   3.411  13.365 -0.1413 -0.0248  0.3928
  120TCq2    C2 1828   1.089   3.388  13.160 -0.2512 -0.1383  0.3428
  120TCq2    C3 1829   1.168   3.452  13.074  0.1327  0.1257  0.5879
  120TCq2    C4 1830   1.147   3.430  12.941 -0.0088  0.4046  0.0133
  120TCq2    C5 1831   1.038   3.360  12.897 -0.5349  0.4110  0.0335
  120TCq2    C6 1832   0.955   3.298  12.986  0.2247 -0.8492 -0.6091
  120TCq2    C7 1833   0.979   3.319  13.120  0.0659  0.2224 -0.4244
  120TCq2    C8 1834   0.853   3.203  12.935  0.0606 -0.1383  0.2843
  120TCq2    O4 1835   0.842   3.203  12.813  0.1138 -0.8131 -0.0926
  120TCq2    C9 1836   1.194   3.526  12.844  0.0151  0.1899  0.0975
  120TCq2    O5 1837   1.142   3.531  12.730 -0.0349  0.6095 -0.0771
  120TCq2    O6 1838   1.287   3.604  12.875  0.5452 -0.2969 -0.0904
  120TCq2    H2 1839   1.241   3.526  13.105 -0.7573  1.4724 -0.5898
  120TCq2    H3 1840   1.020   3.363  12.790  1.2286  2.6459 -0.2102
  120TCq2    H4 1841   0.932   3.264  13.201  0.6475  0.2916 -0.0319
  121TMC2    C1 1842   2.431   0.119  13.752 -0.0428  0.1831 -0.0939
  121TMC2    C2 1843   2.375   0.192  13.647 -0.2147  0.5850 -0.3218
  121TMC2    C3 1844   2.243   0.181  13.641 -0.3376 -0.0992  0.3267
  121TMC2    C4 1845   2.362   0.017  13.822  0.1967 -0.2928  0.5896
  121TMC2    C5 1846   2.229   0.023  13.815  0.1595  0.0065 -0.0207
  121TMC2    C6 1847   2.163   0.102  13.725 -0.5323 -0.0717  0.3296
  121TMC2     C 1848   2.567   0.150  13.787  1.2297  0.0309  0.2644
  121TMC2     O 1849   2.609   0.091  13.884  0.4143  0.5785  0.2183
  121TMC2     H 1850   2.430   0.243  13.568 -0.8856  2.3212  0.3248
  121TMC2    H1 1851   2.411   4.676  13.895 -3.0674 -1.4410  1.8130
  121TMC2    H2 1852   2.057   0.087  13.711 -1.1865  5.2468 -0.6108
  121TMC2    C7 1853   2.171   4.705  13.943  0.0230  0.3176  0.3080
  121TMC2    C8 1854   2.174   0.236  13.522 -0.4801  0.2586 -0.0398
  121TMC2    O1 1855   2.229   4.621  14.010  0.1955  0.6281 -0.0874
  121TMC2    O2 1856   2.226   0.240  13.411 -0.0825  0.0469  0.1749
  121TMC2    O5 1857   2.041   0.252  13.542 -0.3349 -0.0483  0.2525
  121TMC2    H5 1858   2.026   0.246  13.639 -0.7180 -2.1815  0.0610
  122MPD2     C 1859   2.858   0.236  13.807 -0.4085  0.6627  0.1512
  122MPD2    C1 1860   2.772   0.260  13.697  0.7072 -0.2869 -0.3675
  122MPD2    C2 1861   2.807   0.329  13.582  0.2689 -0.1958 -0.6598
  122MPD2    C3 1862   2.931   0.371  13.563 -0.5149 -0.2117  0.0387
  122MPD2    C4 1863   3.021   0.355  13.666  1.0988  0.0544  0.6148
  122MPD2    C5 1864   2.987   0.299  13.793  0.1995  0.4543 -0.3818
  122MPD2     H 1865   2.731   0.336  13.505  0.5955  0.1974 -0.9500
  122MPD2    H1 1866   3.124   0.388  13.655  0.8123  0.9262  0.5277
  122MPD2    H2 1867   2.818   0.197  13.900  1.1365  1.0631  0.9875
  122MPD2    H3 1868   3.064   0.292  13.869  0.2793  1.3768 -0.3803
  122MPD2     N 1869   2.979   0.441  13.450  0.5206 -0.8145  0.0798
  122MPD2    H5 1870   3.080   0.454  13.447  0.1484  1.7966 -1.1239
  122MPD2    N1 1871   2.637   0.222  13.694 -0.4806  0.4067  0.2219
  122MPD2    H7 1872   2.580   0.247  13.613 -1.4356 -0.1947  0.7027
  123MPD2     C 1873   1.169   4.118   9.353 -0.2861  0.2298  0.4853
  123MPD2    C1 1874   1.078   4.023   9.386  0.0610 -0.1271  0.3904
  123MPD2    C2 1875   1.110   3.940   9.494 -0.3368  0.0360  0.5732
  123MPD2    C3 1876   1.228   3.954   9.574  0.0549  0.2341 -0.5817
  123MPD2    C4 1877   1.306   4.061   9.533 -0.6080  0.6963  0.8216
  123MPD2    C5 1878   1.282   4.135   9.420  0.0990 -0.1750 -0.1186
  123MPD2     H 1879   1.032   3.871   9.524  0.6832 -1.1601  0.4727
  123MPD2    H1 1880   1.387   4.098   9.594 -0.5784  1.1611  0.4946
  123MPD2    H2 1881   1.154   4.193   9.275  1.8818  1.1051  0.9291
  123MPD2    H3 1882   1.350   4.218   9.402 -1.0986  0.9917  0.6942
  123MPD2     N 1883   1.248   3.876   9.687  0.0148  0.3876 -0.0057
  123MPD2    H5 1884   1.185   3.797   9.701 -0.4319  0.3274 -2.3698
  123MPD2    N1 1885   0.960   4.019   9.314  0.6623  0.3262  0.1143
  123MPD2    H7 1886   0.938   4.094   9.249 -1.0771 -0.2148  0.0691
  124TCq2    C1 1887   1.348   3.881   9.780  0.3707 -0.7146 -0.0508
  124TCq2    O2 1888   1.437   3.964   9.792 -0.1771 -0.6193 -0.2202
  124TCq2    C2 1889   1.344   3.778   9.895 -0.3598  0.4963  0.6784
  124TCq2    C3 1890   1.464   3.760   9.956 -0.4157  1.0784 -0.5965
  124TCq2    C4 1891   1.483   3.642  10.028  0.4629  0.8204  0.3997
  124TCq2    C5 1892   1.387   3.548  10.041  0.7104 -0.1269 -0.1651
  124TCq2    C6 1893   1.271   3.566   9.971 -0.2313  0.5619  0.6924
  124TCq2    C7 1894   1.245   3.683   9.905  0.0257 -0.0145 -0.1128
  124TCq2    C8 1895   1.167   3.465   9.988  0.6307  0.5593 -0.0563
  124TCq2    O4 1896   1.204   3.360  10.039 -0.5938 -0.1476  0.2508
  124TCq2    C9 1897   1.605   3.622  10.095  0.1490 -0.0973 -1.5179
  124TCq2    O5 1898   1.688   3.715  10.095  0.7832 -0.0136 -0.3851
  124TCq2    O6 1899   1.623   3.510  10.156 -0.3827  0.2121 -0.5361
  124TCq2    H2 1900   1.547   3.829   9.966  0.5696 -0.2394  0.4599
  124TCq2    H3 1901   1.412   3.464  10.104  0.8724 -0.4158 -0.6181
  124TCq2    H4 1902   1.153   3.693   9.848  1.4965 -1.0327 -2.6003
  125TMC2    C1 1903   2.200   1.542   8.343  0.0571  0.3677  0.3290
  125TMC2    C2 1904   2.290   1.504   8.251 -0.2530  0.3177 -0.4260
  125TMC2    C3 1905   2.403   1.438   8.301  0.1585 -0.8680 -0.4539
  125TMC2    C4 1906   2.210   1.524   8.476 -0.4364  0.2697  0.2053
  125TMC2    C5 1907   2.323   1.463   8.524  0.1195 -0.7060  0.2623
  125TMC2    C6 1908   2.421   1.423   8.435  0.3226 -0.2508  0.3675
  125TMC2     C 1909   2.062   1.592   8.307  0.5099 -0.0182 -0.0336
  125TMC2     O 1910   1.986   1.628   8.396  0.0348  0.2751  0.2374
  125TMC2     H 1911   2.273   1.533   8.148 -1.4907  1.3511  0.0677
  125TMC2    H1 1912   2.122   1.544   8.536 -1.7513 -1.2262 -1.2343
  125TMC2    H2 1913   2.507   1.372   8.477 -0.4459  1.3317  3.8699
  125TMC2    C7 1914   2.331   1.438   8.666  0.3405  0.3394  0.2027
  125TMC2    C8 1915   2.507   1.421   8.203  0.4204  0.0772  0.1109
  125TMC2    O1 1916   2.246   1.499   8.733  0.1045 -0.0635 -0.5577
  125TMC2    O2 1917   2.524   1.479   8.096  0.0697  0.1323  0.0380
  125TMC2    O5 1918   2.556   1.302   8.243  0.1314 -0.2033 -0.4301
  125TMC2    H5 1919   2.505   1.253   8.311  0.5895  0.0036  0.0612
  126MPD1     C 1920   1.711   1.671   7.936  0.0623  0.6288 -0.4934
  126MPD1    C1 1921   1.822   1.625   7.878  0.2619 -0.0860 -0.1962
  126MPD1    C2 1922   1.935   1.608   7.957  0.0607 -0.3360  0.0490
  126MPD1    C3 1923   1.925   1.616   8.094 -0.1376  0.2450 -0.7293
  126MPD1    C4 1924   1.803   1.657   8.152 -0.8146  0.4258 -0.6472
  126MPD1    C5 1925   1.697   1.695   8.071 -0.2992  0.0921 -0.0906
  126MPD1     H 1926   2.031   1.583   7.913 -0.2795  2.7815 -2.4293
  126MPD1    H1 1927   1.780   1.677   8.256 -1.0302  0.3881 -0.6868
  126MPD1    H2 1928   1.627   1.703   7.875 -1.2225 -1.8014  0.0205
  126MPD1    H3 1929   1.606   1.733   8.115 -0.7047 -0.7576 -0.2063
  126MPD1     N 1930   2.045   1.576   8.166  0.3487  0.1848 -0.2181
  126MPD1    H5 1931   2.123   1.543   8.110 -0.4642 -0.8732 -0.7320
  126MPD1    N1 1932   1.828   1.620   7.737  0.5791 -0.3815  0.5527
  126MPD1    H6 1933   1.889   1.547   7.702  2.1019  1.3405 -0.3555
  126MPD1    H7 1934   1.735   1.614   7.697  0.7248  0.4191  0.0932
  127MPD2     C 1935   3.073   0.065   9.831 -0.0659 -0.0238  0.2414
  127MPD2    C1 1936   3.174   0.075   9.924 -1.0963  0.6836 -0.1178
  127MPD2    C2 1937   3.294   0.123   9.887 -0.6297  0.1197 -0.9621
  127MPD2    C3 1938   3.320   0.164   9.761 -0.4710 -0.4939 -0.8809
  127MPD2    C4 1939   3.215   0.158   9.674  0.2623  0.0298 -0.4623
  127MPD2    C5 1940   3.089   0.116   9.708 -0.3214 -0.4916  0.0987
  127MPD2     H 1941   3.374   0.124   9.961  0.5213  0.6558 -2.1980
  127MPD2    H1 1942   3.223   0.183   9.569  2.5870  0.1643 -0.2477
  127MPD2    H2 1943   2.979   0.013   9.847 -0.7308  0.2705 -2.6829
  127MPD2    H3 1944   3.012   0.118   9.632  0.9976 -2.2761 -1.2687
  127MPD2     N 1945   3.447   0.212   9.726  0.5998  0.2444  0.0363
  127MPD2    H5 1946   3.514   0.209   9.802  1.3297  1.1246 -0.5730
  127MPD2    N1 1947   3.145   0.031  10.056 -0.4209 -0.2702  0.2975
  127MPD2    H7 1948   3.056   4.704  10.065  0.9510 -2.8101  0.0377
  128TCq2    C1 1949   3.220   0.056  10.165 -0.1056 -0.1328  0.8424
  128TCq2    O2 1950   3.317   0.125  10.173  0.3818 -0.0951 -0.0571
  128TCq2    C2 1951   3.165   4.706  10.284  0.5120  0.6679 -0.6734
  128TCq2    C3 1952   3.251   4.668  10.384  0.1217  0.2072 -0.0188
  128TCq2    C4 1953   3.207   4.579  10.475 -0.0477 -0.0689  0.9102
  128TCq2    C5 1954   3.090   4.517  10.458 -0.3576 -0.4252  0.1573
  128TCq2    C6 1955   3.000   4.571  10.374  0.1198 -0.4681  0.1842
  128TCq2    C7 1956   3.032   4.673  10.285  0.3642 -0.5181  0.4022
  128TCq2    C8 1957   2.859   4.531  10.367  0.2130 -0.2444  0.2504
  128TCq2    O4 1958   2.795   4.592  10.282 -0.2139  0.1337  0.0177
  128TCq2    C9 1959   3.289   4.562  10.594  0.0985 -0.1513 -0.2415
  128TCq2    O5 1960   3.382   4.646  10.615 -0.1082  0.1300 -0.2232
  128TCq2    O6 1961   3.254   4.473  10.679  0.2697  0.0232  0.3923
  128TCq2    H2 1962   3.352   4.707  10.389  0.4905 -0.6023 -1.1979
  128TCq2    H3 1963   3.073   4.442  10.534 -2.1426 -1.2337 -1.0562
  128TCq2    H4 1964   2.965   0.001  10.216 -1.4753 -0.8561  1.9625
  129MPD2     C 1965   0.938   0.088   1.007 -0.2297  0.1697  0.6001
  129MPD2    C1 1966   0.969   4.705   1.099  0.1597  0.4446  0.0847
  129MPD2    C2 1967   1.013   4.585   1.042 -0.2073  0.0031 -0.6365
  129MPD2    C3 1968   1.015   4.567   0.907  0.4384  0.0072 -0.1843
  129MPD2    C4 1969   0.989   4.672   0.822  0.7256  0.1087  0.3236
  129MPD2    C5 1970   0.953   0.071   0.870 -0.2476  0.2585 -0.2794
  129MPD2     H 1971   1.030   4.499   1.106 -0.4703  0.7898  0.4882
  129MPD2    H1 1972   0.997   4.662   0.715  0.2890 -0.4361  0.3413
  129MPD2    H2 1973   0.913   0.183   1.054  0.0924  0.7770 -0.4570
  129MPD2    H3 1974   0.930   0.152   0.803  0.2972  0.5913 -0.0628
  129MPD2     N 1975   1.034   4.432   0.872  0.5719 -0.1361  0.2302
  129MPD2    H5 1976   1.040   4.359   0.942  0.7320  0.4523  0.8256
  129MPD2    N1 1977   0.957   4.714   1.242  0.7446  0.2854  0.2416
  129MPD2    H7 1978   0.995   4.638   1.299 -0.3347  0.1901  0.8453
  130TCq2    C1 1979   0.940   0.108   1.310  0.5477  0.5999 -0.0671
  130TCq2    O2 1980   0.945   0.225   1.273  0.1705  0.6603 -0.2207
  130TCq2    C2 1981   0.926   0.085   1.453  0.4167 -0.2750 -0.6846
  130TCq2    C3 1982   0.986   0.179   1.529 -0.1001  0.2948  0.6873
  130TCq2    C4 1983   1.006   0.150   1.662  0.1065 -0.2129  0.6934
  130TCq2    C5 1984   0.967   0.034   1.713 -0.5670  0.2459  0.2389
  130TCq2    C6 1985   0.912   4.660   1.634  0.2750 -0.2697 -0.1838
  130TCq2    C7 1986   0.890   4.686   1.505 -0.4713  0.2196 -0.6322
  130TCq2    C8 1987   0.875   4.535   1.682 -0.5072  1.0052  0.4789
  130TCq2    O4 1988   0.781   4.470   1.630  0.5647 -0.0938  0.1016
  130TCq2    C9 1989   1.090   0.237   1.740  0.2015 -0.8513 -0.7612
  130TCq2    O5 1990   1.138   0.191   1.845 -0.0396  0.0914 -1.1483
  130TCq2    O6 1991   1.126   0.336   1.680  0.0078 -0.4257 -0.4850
  130TCq2    H2 1992   1.009   0.274   1.482  2.7560 -0.9472 -0.4287
  130TCq2    H3 1993   0.984   0.010   1.817 -1.9463 -0.0332  0.4072
  130TCq2    H4 1994   0.851   4.611   1.438  1.6265 -1.5787  0.1358
  131MPD2     C 1995   0.642   0.065   9.301 -0.0867  0.3099 -0.4961
  131MPD2    C1 1996   0.768   0.001   9.289 -0.1815 -0.0984 -0.6266
  131MPD2    C2 1997   0.768   4.588   9.268  0.0408 -0.1002 -1.1033
  131MPD2    C3 1998   0.657   4.516   9.231  0.6219 -0.0487  0.6822
  131MPD2    C4 1999   0.532   4.591   9.231  0.1430 -0.4686 -0.1846
  131MPD2    C5 2000   0.525   4.720   9.272  0.1580 -0.3911  0.2858
  131MPD2     H 2001   0.865   4.541   9.281 -0.2444  0.4014  2.8639
  131MPD2    H1 2002   0.440   4.541   9.206 -0.5769  1.3751 -1.2953
  131MPD2    H2 2003   0.634   0.170   9.326  1.6003 -0.3610  2.8466
  131MPD2    H3 2004   0.433   0.056   9.275  0.2181 -0.3803  1.6917
  131MPD2     N 2005   0.667   4.377   9.201  0.2825 -0.0143 -0.6202
  131MPD2    H5 2006   0.760   4.338   9.195  0.0862 -0.6171  0.2158
  131MPD2    N1 2007   0.885   0.070   9.328  0.7403 -0.3535 -0.5106
  131MPD2    H7 2008   0.867   0.166   9.356  0.3890 -0.4306 -0.4652
  132TCq2    C1 2009   1.126   0.433   9.597 -0.6341 -0.2268 -0.3127
  132TCq2    O2 2010   1.023   0.414   9.661  0.0142  0.0473  0.3181
  132TCq2    C2 2011   1.160   0.331   9.500 -0.3976  0.5772  1.3265
  132TCq2    C3 2012   1.293   0.308   9.469  1.0071  0.2262 -0.1208
  132TCq2    C4 2013   1.332   0.209   9.380  0.1348 -0.2311  0.1490
  132TCq2    C5 2014   1.239   0.117   9.334 -0.2681  0.4823 -0.8729
  132TCq2    C6 2015   1.110   0.140   9.374 -0.3160 -0.1670 -0.3745
  132TCq2    C7 2016   1.072   0.241   9.456  0.6417  0.2268  0.8940
  132TCq2    C8 2017   1.018   0.033   9.324 -0.1110  0.7487  0.4577
  132TCq2    O4 2018   1.059   4.657   9.272  0.3446  0.1069  0.3671
  132TCq2    C9 2019   1.472   0.176   9.360  0.4399 -0.2794  0.5117
  132TCq2    O5 2020   1.499   0.063   9.308 -0.1506 -0.2061  0.3809
  132TCq2    O6 2021   1.559   0.260   9.401 -0.5301 -0.5644  0.6358
  132TCq2    H2 2022   1.367   0.381   9.502  0.1643  0.8959  0.2737
  132TCq2    H3 2023   1.262   0.039   9.262  1.1059 -0.8283  0.9890
  132TCq2    H4 2024   0.969   0.247   9.489  0.3332  0.1893 -0.0517
  133MPD2     C 2025   4.245   3.137   9.545  0.7029 -0.0524 -0.1118
  133MPD2    C1 2026   4.174   3.211   9.452 -0.0005 -0.0803 -0.8529
  133MPD2    C2 2027   4.223   3.334   9.422 -0.6244 -0.2717  0.3916
  133MPD2    C3 2028   4.332   3.385   9.482 -0.0470 -0.6583  0.3910
  133MPD2    C4 2029   4.400   3.314   9.576  0.2165  0.6567  1.3805
  133MPD2    C5 2030   4.361   3.179   9.609  0.3524  0.1039  0.4037
  133MPD2     H 2031   4.166   3.400   9.358 -1.4521 -2.3312 -0.9518
  133MPD2    H1 2032   4.487   3.361   9.620  0.3840  2.8893 -1.3918
  133MPD2    H2 2033   4.232   3.029   9.555 -1.5593  0.2476  0.0972
  133MPD2    H3 2034   4.409   3.109   9.676 -0.5982 -1.0347 -0.1046
  133MPD2     N 2035   4.383   3.515   9.451 -0.7632 -0.5963 -0.3566
  133MPD2    H5 2036   4.465   3.547   9.501 -0.3095 -0.8230 -0.9593
  133MPD2    N1 2037   4.058   3.172   9.377  0.4246 -0.1372 -0.3306
  133MPD2    H7 2038   4.030   3.239   9.307  1.9478  1.0100  0.1482
  134TCq2    C1 2039   3.987   3.055   9.388  0.2688 -0.0206  0.0981
  134TCq2    O2 2040   4.011   2.967   9.467  0.2063 -0.5231 -0.6079
  134TCq2    C2 2041   3.866   3.046   9.305  0.2663 -0.1902 -0.0037
  134TCq2    C3 2042   3.808   3.155   9.247  0.2258  0.9561 -0.5429
  134TCq2    C4 2043   3.673   3.146   9.201 -0.5388  0.0907 -0.0586
  134TCq2    C5 2044   3.603   3.031   9.211 -0.0484  0.3521  0.0835
  134TCq2    C6 2045   3.667   2.921   9.256 -0.1124  0.0709  0.7640
  134TCq2    C7 2046   3.798   2.929   9.306 -0.4492 -0.1556  0.0029
  134TCq2    C8 2047   3.602   2.789   9.231 -0.3239  0.2541  0.3171
  134TCq2    O4 2048   3.662   2.692   9.271 -0.1593  0.3390  0.9751
  134TCq2    C9 2049   3.625   3.256   9.121  0.3229  0.6649 -0.4464
  134TCq2    O5 2050   3.498   3.258   9.094 -0.4074  0.4269  0.4345
  134TCq2    O6 2051   3.706   3.352   9.109  0.7900  0.0103  0.0742
  134TCq2    H2 2052   3.859   3.251   9.249  1.1571  0.4763 -1.6727
  134TCq2    H3 2053   3.500   3.036   9.179  0.0176  0.8332 -0.0649
  134TCq2    H4 2054   3.843   2.842   9.354  1.2803  0.6645 -0.1278
  135MPD2     C 2055   2.204   1.812   9.451 -0.4898  0.0965 -0.0715
  135MPD2    C1 2056   2.288   1.703   9.481  0.4930  0.4469 -0.3574
  135MPD2    C2 2057   2.354   1.636   9.377  0.1209 -0.4761 -0.7046
  135MPD2    C3 2058   2.357   1.694   9.249 -0.2532  0.4013 -0.5583
  135MPD2    C4 2059   2.273   1.804   9.221 -0.1221  0.0793 -0.4748
  135MPD2    C5 2060   2.194   1.854   9.323 -0.3708  0.0891 -0.2996
  135MPD2     H 2061   2.409   1.544   9.395  2.2805  0.7973 -0.7962
  135MPD2    H1 2062   2.274   1.848   9.122  0.1496  2.4740  0.5839
  135MPD2    H2 2063   2.147   1.870   9.523 -1.9380  2.5876 -3.2089
  135MPD2    H3 2064   2.125   1.937   9.307 -0.2595  0.9237  3.7172
  135MPD2     N 2065   2.456   1.662   9.144  0.4363 -0.2412  0.6089
  135MPD2    H5 2066   2.452   1.708   9.053 -0.3993  1.3942  1.4651
  135MPD2    N1 2067   2.310   1.657   9.614 -0.8114 -0.2014 -0.0268
  135MPD2    H7 2068   2.367   1.574   9.629  0.2656  0.4294 -0.6762
  136TCq2    C1 2069   2.283   1.725   9.732  0.5098  0.9106 -0.6040
  136TCq2    O2 2070   2.194   1.810   9.757  0.2854 -0.1837  0.6340
  136TCq2    C2 2071   2.370   1.695   9.842 -0.3680 -0.2376 -0.0013
  136TCq2    C3 2072   2.331   1.726   9.971 -0.3636 -0.0743  0.2991
  136TCq2    C4 2073   2.396   1.658  10.077  0.0516  0.0808  0.0852
  136TCq2    C5 2074   2.492   1.570  10.056  0.5287  0.1925 -0.3674
  136TCq2    C6 2075   2.522   1.539   9.923 -0.0649  0.1075 -0.4823
  136TCq2    C7 2076   2.467   1.602   9.821  0.4627 -0.7902  0.0941
  136TCq2    C8 2077   2.590   1.418   9.896  0.2706 -0.2612 -0.4328
  136TCq2    O4 2078   2.627   1.387   9.784 -0.0827  0.5806  0.6717
  136TCq2    C9 2079   2.362   1.686  10.212  0.6058 -0.0089 -0.7047
  136TCq2    O5 2080   2.434   1.636  10.298 -0.2418 -0.5537  0.8339
  136TCq2    O6 2081   2.261   1.765  10.223 -0.0916 -0.1183 -0.1282
  136TCq2    H2 2082   2.257   1.804   9.987  1.7585  1.8278  0.7654
  136TCq2    H3 2083   2.547   1.522  10.136 -0.1080  0.4309  0.2207
  136TCq2    H4 2084   2.509   1.587   9.722  0.2579 -1.1296  0.0571
  137MPD2     C 2085   2.687   0.490   8.793 -0.5831  0.7146  0.2346
  137MPD2    C1 2086   2.600   0.569   8.868 -0.4632 -0.0310  0.8688
  137MPD2    C2 2087   2.558   0.519   8.988 -0.1509  0.6561 -0.3664
  137MPD2    C3 2088   2.604   0.395   9.037  0.2910  0.1375 -0.0661
  137MPD2    C4 2089   2.705   0.325   8.973 -0.5858 -0.4101  0.6110
  137MPD2    C5 2090   2.732   0.371   8.840  0.4679  0.7311  0.2991
  137MPD2     H 2091   2.491   0.575   9.052 -1.6419  1.0190 -2.2377
  137MPD2    H1 2092   2.741   0.229   9.008 -0.9168 -1.4073 -1.7845
  137MPD2    H2 2093   2.729   0.522   8.698 -0.3036 -1.3721 -0.3258
  137MPD2    H3 2094   2.792   0.304   8.779 -0.1464  0.9399 -0.5382
  137MPD2     N 2095   2.536   0.349   9.151 -0.0012  0.0625 -1.0810
  137MPD2    H5 2096   2.455   0.403   9.181 -0.3156 -0.2037 -1.4499
  137MPD2    N1 2097   2.551   0.697   8.817 -0.1609 -0.6245  0.5178
  137MPD2    H7 2098   2.569   0.713   8.719 -1.8061  1.0900  0.5058
  138TCq2    C1 2099   2.452   0.772   8.865 -0.0457  0.1038 -0.4205
  138TCq2    O2 2100   2.407   0.778   8.979 -0.0938  0.0644 -0.5839
  138TCq2    C2 2101   2.421   0.891   8.788  0.0953  0.3195  0.4426
  138TCq2    C3 2102   2.475   0.914   8.664 -0.7398  0.2575  0.1589
  138TCq2    C4 2103   2.412   0.993   8.572 -0.1701  0.2095  0.2024
  138TCq2    C5 2104   2.297   1.062   8.603 -0.0755 -0.0573  0.7011
  138TCq2    C6 2105   2.247   1.036   8.733  0.2985  0.3005  0.2927
  138TCq2    C7 2106   2.308   0.954   8.827 -0.4596  0.0626 -0.0752
  138TCq2    C8 2107   2.128   1.116   8.768  0.5105 -0.7977  0.4334
  138TCq2    O4 2108   2.057   1.142   8.665  0.4170 -0.2207 -1.0031
  138TCq2    C9 2109   2.493   1.035   8.453  0.3349  0.1814 -0.0371
  138TCq2    O5 2110   2.452   1.142   8.402 -0.6229  0.0505  0.3284
  138TCq2    O6 2111   2.614   0.988   8.446 -0.4013  0.4135  0.2196
  138TCq2    H2 2112   2.571   0.871   8.639  0.3842  2.7282  0.2364
  138TCq2    H3 2113   2.252   1.132   8.534  0.9291 -2.2664 -2.2082
  138TCq2    H4 2114   2.270   0.926   8.924  2.2265 -1.3784  0.5668
  139TMC2    C1 2115   2.814   3.053  13.300 -0.5934  0.6148 -0.5885
  139TMC2    C2 2116   2.867   3.112  13.189  0.1867  0.0975 -0.7486
  139TMC2    C3 2117   2.801   3.227  13.154 -0.7511  0.0113  0.0586
  139TMC2    C4 2118   2.711   3.100  13.373  0.5124  0.7578  0.3751
  139TMC2    C5 2119   2.659   3.220  13.330  0.4817 -0.6148  0.0166
  139TMC2    C6 2120   2.710   3.294  13.227 -0.2501  0.1052 -1.1230
  139TMC2     C 2121   2.860   2.920  13.339  0.3348  0.3133 -0.0552
  139TMC2     O 2122   2.892   2.848  13.249 -0.2260 -0.0213 -0.5485
  139TMC2     H 2123   2.932   3.058  13.120  1.5100  1.3581 -0.4883
  139TMC2    H1 2124   2.648   3.038  13.435  1.3725 -0.6063 -0.1082
  139TMC2    H2 2125   2.675   3.391  13.193  1.6375 -0.3660 -4.3829
  139TMC2    C7 2126   2.569   3.300  13.417  0.2091 -0.3429  0.1632
  139TMC2    C8 2127   2.822   3.288  13.015  0.5139  0.1500 -0.0286
  139TMC2    O1 2128   2.529   3.407  13.365 -0.3962 -0.1156 -0.0515
  139TMC2    O2 2129   2.729   3.336  12.952 -0.0243  0.0780 -0.0325
  139TMC2    O5 2130   2.921   3.223  12.953  0.2449  0.4409  0.4781
  139TMC2    H5 2131   3.002   3.206  13.005  0.2360  3.2695  1.4436
  140MPD2     C 2132   2.890   2.769  13.683  0.2185  1.2580 -0.1066
  140MPD2    C1 2133   2.900   2.783  13.544 -0.0260 -0.1312 -0.2243
  140MPD2    C2 2134   2.977   2.692  13.477 -0.2254  0.0329  0.6135
  140MPD2    C3 2135   3.037   2.585  13.536 -0.0769 -0.2763 -0.3136
  140MPD2    C4 2136   3.021   2.567  13.673 -0.5285  0.0481 -0.3374
  140MPD2    C5 2137   2.950   2.663  13.747  0.3520 -0.3496 -0.3971
  140MPD2     H 2138   3.013   2.713  13.377  0.3422  3.1818  1.4806
  140MPD2    H1 2139   3.058   2.483  13.730 -1.6452 -0.1412  0.1097
  140MPD2    H2 2140   2.834   2.839  13.744 -0.1038  2.3458 -1.6652
  140MPD2    H3 2141   2.930   2.650  13.852 -0.1372 -4.4836 -1.0180
  140MPD2     N 2142   3.133   2.505  13.470 -0.4549  0.1737  0.2104
  140MPD2    H5 2143   3.172   2.541  13.383 -0.7203  1.0002  0.4293
  140MPD2    N1 2144   2.853   2.899  13.477 -1.2900 -0.1373 -0.2770
  140MPD2    H7 2145   2.816   2.973  13.536  0.1965 -1.2007  2.0040
  141TCq2    C1 2146   3.128   3.924  14.390 -0.1101  0.4706 -0.2494
  141TCq2    O2 2147   3.117   4.010  14.305 -0.1884 -0.0701  0.3185
  141TCq2    C2 2148   3.059   3.936  14.511  0.0902  0.1937  0.2923
  141TCq2    C3 2149   3.046   3.833  14.598  0.6068 -0.0702  0.3478
  141TCq2    C4 2150   2.940   3.837  14.687  0.0531  0.7977  0.3871
  141TCq2    C5 2151   2.844   3.938  14.684 -0.3398 -0.1012 -0.4517
  141TCq2    C6 2152   2.865   4.046  14.595  0.4652 -0.2824  0.6045
  141TCq2    C7 2153   2.973   4.044  14.512  0.4488 -0.4868  0.2680
  141TCq2    C8 2154   2.767   4.146  14.596 -0.5493  0.1466  0.4645
  141TCq2    O4 2155   2.659   4.123  14.654 -0.1011  0.2782 -0.0584
  141TCq2    C9 2156   2.903   3.717  14.763  1.0878 -0.5028  0.1897
  141TCq2    O5 2157   2.971   3.616  14.739 -0.4018 -0.0503  0.3844
  141TCq2    O6 2158   2.806   3.723  14.841 -0.0598 -0.4475  0.3544
  141TCq2    H2 2159   3.111   3.747  14.598 -1.3952 -1.5979 -0.6388
  141TCq2    H3 2160   2.761   3.947  14.754 -0.8573 -3.1444 -0.6626
  141TCq2    H4 2161   2.993   4.130  14.449 -0.9040 -0.4234 -0.0578
  142MPD2     C 2162   0.957   2.326  10.410  0.3428  0.7898  0.2411
  142MPD2    C1 2163   0.928   2.264  10.294 -0.7251  0.3174  0.1358
  142MPD2    C2 2164   0.899   2.337  10.178 -0.6252 -0.1599  0.3507
  142MPD2    C3 2165   0.902   2.473  10.182  0.0685 -0.7165  0.2295
  142MPD2    C4 2166   0.930   2.532  10.300  0.8298  0.1937  0.1948
  142MPD2    C5 2167   0.962   2.463  10.411  0.7327  0.0433  0.5882
  142MPD2     H 2168   0.880   2.289  10.083 -2.2029  0.2103  0.4895
  142MPD2    H1 2169   0.951   2.637  10.313  0.6074  0.3529 -0.7141
  142MPD2    H2 2170   0.984   2.276  10.502 -0.3279 -2.3577 -1.2719
  142MPD2    H3 2171   0.975   2.518  10.504  1.0929  1.9483 -0.5967
  142MPD2     N 2172   0.873   2.562  10.072 -0.3281  0.6464  0.1935
  142MPD2    H5 2173   0.898   2.659  10.086  0.2049  0.4474  0.6541
  142MPD2    N1 2174   0.935   2.122  10.293 -0.2118  0.3788  0.2054
  142MPD2    H7 2175   0.930   2.075  10.383  0.7190  3.6607  1.9676
  143TCq2    C1 2176   0.833   2.524   9.947  0.4169  0.5001 -0.3647
  143TCq2    O2 2177   0.794   2.417   9.903  1.1412 -0.1184 -0.4138
  143TCq2    C2 2178   0.863   2.626   9.847  0.6804 -0.5924  0.9683
  143TCq2    C3 2179   0.818   2.608   9.721  0.1228 -0.5939  0.2939
  143TCq2    C4 2180   0.841   2.700   9.624 -0.1853  0.4711  0.2255
  143TCq2    C5 2181   0.903   2.815   9.650  0.2659  0.4979 -0.1835
  143TCq2    C6 2182   0.946   2.829   9.779  0.2991  0.2900  0.0601
  143TCq2    C7 2183   0.935   2.743   9.883  0.3952 -0.0367 -0.7494
  143TCq2    C8 2184   0.976   2.962   9.816  0.2830 -0.0776  0.2971
  143TCq2    O4 2185   1.050   2.979   9.913 -0.1003 -0.1388 -0.3367
  143TCq2    C9 2186   0.813   2.668   9.488 -0.3531  0.2476 -0.6109
  143TCq2    O5 2187   0.782   2.548   9.462  0.2352  0.1388 -0.2596
  143TCq2    O6 2188   0.833   2.754   9.398 -0.5578 -0.6195  0.2500
  143TCq2    H2 2189   0.784   2.509   9.691 -0.6767 -0.3182  0.2910
  143TCq2    H3 2190   0.930   2.886   9.572  0.3371  1.9400  1.1435
  143TCq2    H4 2191   0.971   2.759   9.984  2.8622 -0.3080 -1.5917
  144MPD2     C 2192   2.782   1.127   0.962  0.5570  0.3556  0.4169
  144MPD2    C1 2193   2.879   1.222   0.941 -0.1062 -0.1976  0.6281
  144MPD2    C2 2194   3.004   1.210   0.995  0.5838  0.2065  0.0782
  144MPD2    C3 2195   3.038   1.098   1.070 -0.0580  0.3327  0.0734
  144MPD2    C4 2196   2.943   1.003   1.092  0.3118  0.3627 -0.0534
  144MPD2    C5 2197   2.815   1.012   1.034 -0.0861  0.3850 -0.0610
  144MPD2     H 2198   3.084   1.280   0.976  1.4764 -0.6281  0.7412
  144MPD2    H1 2199   2.955   0.912   1.149 -0.1806  1.1804  1.3544
  144MPD2    H2 2200   2.685   1.120   0.913 -0.4561  2.4743  2.1521
  144MPD2    H3 2201   2.742   0.933   1.052  1.3166 -0.5783  1.4017
  144MPD2     N 2202   3.172   1.076   1.110 -0.0767  0.2119 -1.0714
  144MPD2    H5 2203   3.189   0.982   1.144  1.0346  0.5683 -0.6358
  144MPD2    N1 2204   2.865   1.325   0.845 -0.9014 -0.4062  0.3036
  144MPD2    H7 2205   2.949   1.380   0.831 -2.8742  2.4804 -0.2489
  145TCq2    C1 2206   3.286   1.163   1.092 -0.8735  0.1563 -0.3616
  145TCq2    O2 2207   3.289   1.281   1.074  0.0294  0.3983 -0.3569
  145TCq2    C2 2208   3.399   1.087   1.135 -0.4786 -0.3293  0.3629
  145TCq2    C3 2209   3.441   0.982   1.054 -0.2546  0.1103  0.8576
  145TCq2    C4 2210   3.558   0.928   1.067 -0.2389  0.2002 -0.0935
  145TCq2    C5 2211   3.656   1.000   1.136  0.2994 -0.2315  0.1511
  145TCq2    C6 2212   3.616   1.111   1.205 -0.1327  0.2803 -0.5439
  145TCq2    C7 2213   3.488   1.159   1.205 -0.7322  0.5859 -0.3187
  145TCq2    C8 2214   3.723   1.186   1.264 -0.7231 -0.6607  0.1026
  145TCq2    O4 2215   3.841   1.158   1.244  0.7631 -0.2248 -0.0035
  145TCq2    C9 2216   3.587   0.805   1.000 -0.7940 -0.2521 -0.0114
  145TCq2    O5 2217   3.705   0.788   0.956 -0.4003 -0.7004 -0.0868
  145TCq2    O6 2218   3.495   0.728   0.971 -0.4763 -0.3751  0.1860
  145TCq2    H2 2219   3.368   0.929   0.994  0.6639 -0.1531 -0.0311
  145TCq2    H3 2220   3.755   0.955   1.140  1.0830  1.3579 -1.1591
  145TCq2    H4 2221   3.465   1.263   1.229 -0.3614  1.0301 -1.8526
  146TMC2    C1 2222   0.607   0.670  12.700 -0.2380  0.0731  0.2635
  146TMC2    C2 2223   0.552   0.721  12.585  0.3200 -0.0886 -0.2127
  146TMC2    C3 2224   0.597   0.681  12.463  0.1723  0.0328  0.3415
  146TMC2    C4 2225   0.709   0.580  12.696 -0.1989  0.6345  0.2320
  146TMC2    C5 2226   0.759   0.546  12.578  0.1114 -0.2695  0.6083
  146TMC2    C6 2227   0.704   0.588  12.460  0.1125 -0.1806 -0.3172
  146TMC2     C 2228   0.580   0.734  12.819  0.4569 -0.6522  0.7388
  146TMC2     O 2229   0.503   0.827  12.816 -0.0598  0.1037 -0.2070
  146TMC2     H 2230   0.470   0.792  12.585  1.6648  1.4456 -1.6239
  146TMC2    H1 2231   0.774   0.560  12.781  0.4995  2.7194  0.1973
  146TMC2    H2 2232   0.756   0.566  12.368  1.1434 -1.4785  0.5744
  146TMC2    C7 2233   0.879   0.458  12.579 -0.2959  0.5639 -1.1656
  146TMC2    C8 2234   0.519   0.685  12.342 -0.5970 -0.4940 -0.2491
  146TMC2    O1 2235   0.963   0.474  12.487 -0.3081  0.4579 -0.0874
  146TMC2    O2 2236   0.535   0.605  12.251 -0.1241  0.0193 -0.2499
  146TMC2    O5 2237   0.484   0.815  12.334  0.2913  0.1962 -0.0623
  146TMC2    H5 2238   0.498   0.875  12.410 -0.6619 -0.7243  0.8320
  147MPD2     C 2239   1.162   0.075  12.761  0.5558 -0.4796 -0.2629
  147MPD2    C1 2240   1.037   0.061  12.802 -0.3889  0.1479 -0.6151
  147MPD2    C2 2241   0.935   0.152  12.776 -0.1196  0.1401  0.2681
  147MPD2    C3 2242   0.966   0.267  12.704 -0.8932 -0.0182  0.4890
  147MPD2    C4 2243   1.094   0.281  12.650 -0.6001  0.0071 -0.3890
  147MPD2    C5 2244   1.186   0.183  12.680 -0.6071  0.4868 -0.5288
  147MPD2     H 2245   0.834   0.131  12.808 -0.0792 -0.2472  0.1390
  147MPD2    H1 2246   1.131   0.355  12.580  0.8372 -1.0361 -0.7180
  147MPD2    H2 2247   1.245   0.006  12.772 -0.7940 -2.0796 -0.1179
  147MPD2    H3 2248   1.285   0.193  12.638 -0.2985  0.4401  0.1841
  147MPD2     N 2249   0.867   0.367  12.682  0.1478  0.2122  0.3106
  147MPD2    H5 2250   0.776   0.349  12.725  1.1527  0.9126  2.7259
  147MPD2    N1 2251   1.023   4.667  12.889 -0.4202  0.1161  0.0670
  147MPD2    H7 2252   1.107   4.627  12.931 -0.3433  1.7700  1.4687
  148MPD2     C 2253   0.885   4.353  10.044  0.0768  0.1211 -0.2113
  148MPD2    C1 2254   0.952   4.247  10.095  0.0847 -0.5285  0.3769
  148MPD2    C2 2255   0.884   4.138  10.140 -0.3129  0.3879  0.0461
  148MPD2    C3 2256   0.746   4.136  10.128  0.1787  0.2511  0.3670
  148MPD2    C4 2257   0.678   4.246  10.079  0.0936  0.7722 -0.0425
  148MPD2    C5 2258   0.747   4.355  10.039 -0.2239  0.2073 -0.2138
  148MPD2     H 2259   0.939   4.062  10.194 -2.7574 -0.6730  1.0681
  148MPD2    H1 2260   0.572   4.267  10.073 -0.3882 -2.0497 -1.0193
  148MPD2    H2 2261   0.934   4.435   9.994  0.6545  0.4847  0.9688
  148MPD2    H3 2262   0.692   4.443  10.008 -0.2606  0.3460  0.2481
  148MPD2     N 2263   0.669   4.039  10.195 -0.0882 -0.3462 -1.0437
  148MPD2    H5 2264   0.570   4.055  10.214  0.0409  2.1651 -2.4661
  148MPD2    N1 2265   1.090   4.242  10.097 -0.1386  0.4971 -0.2744
  148MPD2    H7 2266   1.133   4.161  10.140 -0.0133  0.1292 -1.0987
  149TCq2    C1 2267   1.177   4.346  10.070  0.2642 -0.0698  0.1220
  149TCq2    O2 2268   1.170   4.468  10.054 -0.6765 -0.2542  0.0634
  149TCq2    C2 2269   1.306   4.294  10.090  0.0515 -0.4172  0.3759
  149TCq2    C3 2270   1.371   4.347  10.196 -0.1233  0.0502  0.0397
  149TCq2    C4 2271   1.457   4.267  10.273  0.1130  0.3167  0.5083
  149TCq2    C5 2272   1.433   4.133  10.268 -0.1333  0.8118  0.0196
  149TCq2    C6 2273   1.367   4.079  10.162 -0.2473  0.3558 -0.2940
  149TCq2    C7 2274   1.318   4.160  10.064  0.1107  0.6795  0.4941
  149TCq2    C8 2275   1.304   3.947  10.170 -0.6898 -0.2560 -0.2676
  149TCq2    O4 2276   1.192   3.940  10.125 -0.0454 -0.3468  0.0707
  149TCq2    C9 2277   1.501   4.324  10.403 -0.2780  0.6825  0.1935
  149TCq2    O5 2278   1.550   4.249  10.488  0.3749 -0.3692  1.0745
  149TCq2    O6 2279   1.498   4.449  10.416 -0.1370  0.3841  0.5830
  149TCq2    H2 2280   1.382   4.454  10.213 -0.8346  0.2581 -0.8356
  149TCq2    H3 2281   1.456   4.081  10.360 -1.3038 -2.1877 -1.4079
  149TCq2    H4 2282   1.286   4.109   9.975 -0.8479  2.1987 -0.0383
  150MPD2     C 2283   2.149   3.255  12.259  0.1379 -0.0985  0.4881
  150MPD2    C1 2284   2.177   3.369  12.182 -0.0564 -0.1703  0.3802
  150MPD2    C2 2285   2.294   3.429  12.192  0.6427 -0.7233 -1.4405
  150MPD2    C3 2286   2.379   3.390  12.287  0.0056  0.2813 -0.6549
  150MPD2    C4 2287   2.350   3.282  12.369  0.5299  0.0278 -0.8177
  150MPD2    C5 2288   2.235   3.214  12.357  0.3429 -0.1225 -0.1966
  150MPD2     H 2289   2.317   3.512  12.125  0.4480 -0.2545 -0.9243
  150MPD2    H1 2290   2.422   3.256  12.446  1.3290  1.4304 -1.0928
  150MPD2    H2 2291   2.053   3.210  12.238  0.6379 -0.1522 -1.6131
  150MPD2    H3 2292   2.211   3.125  12.414 -0.8312  0.1804 -0.2075
  150MPD2     N 2293   2.495   3.461  12.306  0.0995 -0.0146 -0.7982
  150MPD2    H5 2294   2.506   3.549  12.258  2.0536 -0.1632 -0.6103
  150MPD2    N1 2295   2.081   3.397  12.085  0.1671 -0.3105  0.4292
  150MPD2    H7 2296   1.990   3.351  12.085  1.1081 -2.1845 -3.0452
  151TCq2    C1 2297   2.606   3.415  12.371 -0.2027 -0.1476 -0.0076
  151TCq2    O2 2298   2.635   3.301  12.407  0.1864  0.3052 -0.0492
  151TCq2    C2 2299   2.718   3.510  12.372  1.1648 -0.2351  0.5069
  151TCq2    C3 2300   2.710   3.627  12.296  0.7301 -0.6440  0.5518
  151TCq2    C4 2301   2.827   3.702  12.300 -0.3689 -0.2612  0.1487
  151TCq2    C5 2302   2.940   3.663  12.365  0.2418 -0.2894  0.5700
  151TCq2    C6 2303   2.943   3.550  12.435  0.3470 -0.7955 -0.5835
  151TCq2    C7 2304   2.834   3.467  12.435 -0.0465 -0.0011 -0.1021
  151TCq2    C8 2305   3.076   3.496  12.475  0.0571 -0.1124  0.5008
  151TCq2    O4 2306   3.177   3.549  12.431  0.0741 -0.5580 -0.5261
  151TCq2    C9 2307   2.830   3.829  12.223  0.3363  0.7985 -0.2278
  151TCq2    O5 2308   2.727   3.891  12.194  0.4301 -0.1635  0.1589
  151TCq2    O6 2309   2.943   3.862  12.183  0.3007  0.1248 -0.0253
  151TCq2    H2 2310   2.630   3.660  12.230  1.6681  0.6619  0.0713
  151TCq2    H3 2311   3.021   3.735  12.362  1.6389 -1.9495 -1.4242
  151TCq2    H4 2312   2.846   3.373  12.489  1.1646 -1.0690 -2.2639
  152MPD2     C 2313   1.876   3.000  12.754 -0.6538 -1.0729 -0.6135
  152MPD2    C1 2314   1.923   3.107  12.683 -0.6875 -0.0355  0.2557
  152MPD2    C2 2315   1.836   3.180  12.602  0.1016  0.4178  0.1034
  152MPD2    C3 2316   1.703   3.147  12.600 -0.4271 -0.1837  0.3074
  152MPD2    C4 2317   1.660   3.041  12.674 -0.2984  0.2401  0.5188
  152MPD2    C5 2318   1.744   2.970  12.754  0.4016  0.0021 -0.1688
  152MPD2     H 2319   1.876   3.260  12.541 -0.3298  0.0182 -0.7125
  152MPD2    H1 2320   1.556   3.013  12.686 -0.9635  1.9726 -1.1518
  152MPD2    H2 2321   1.940   2.937  12.815 -0.2869 -0.6251 -0.5362
  152MPD2    H3 2322   1.715   2.885  12.814  2.9765 -1.2513 -0.6803
  152MPD2     N 2323   1.615   3.230  12.522 -0.0061 -0.3006  0.0022
  152MPD2    H5 2324   1.656   3.306  12.468  0.1318 -0.3707  0.0074
  152MPD2    N1 2325   2.057   3.143  12.708 -0.5172  0.0212 -0.7292
  152MPD2    H7 2326   2.116   3.074  12.754 -1.2628  1.9209  3.0365
  153TCq2    C1 2327   2.109   3.263  12.682  0.4061  0.4429 -0.0130
  153TCq2    O2 2328   2.058   3.371  12.651 -0.2879 -0.5933  0.0698
  153TCq2    C2 2329   2.250   3.269  12.702  0.1537  0.6922  0.0222
  153TCq2    C3 2330   2.321   3.151  12.685  0.3936 -1.2407 -0.3783
  153TCq2    C4 2331   2.454   3.166  12.706 -0.3359 -0.0118 -0.3032
  153TCq2    C5 2332   2.512   3.289  12.728  0.1598  0.5558  0.0143
  153TCq2    C6 2333   2.439   3.404  12.737 -0.7779  0.2847  0.0907
  153TCq2    C7 2334   2.300   3.391  12.733  1.1579  0.5159  0.0667
  153TCq2    C8 2335   2.505   3.528  12.726  0.6720 -0.0082  0.4712
  153TCq2    O4 2336   2.443   3.619  12.669 -0.1985  0.0341  0.3142
  153TCq2    C9 2337   2.548   3.052  12.688  0.5257 -0.5069  0.1639
  153TCq2    O5 2338   2.666   3.077  12.708 -0.4172  0.3134  0.1703
  153TCq2    O6 2339   2.493   2.941  12.670 -0.3675  0.2748 -0.8680
  153TCq2    H2 2340   2.280   3.054  12.660  1.1007 -1.5580 -0.2971
  153TCq2    H3 2341   2.619   3.298  12.742  0.5042 -0.6066 -1.8816
  153TCq2    H4 2342   2.244   3.482  12.747  0.0726 -0.2999  0.9429
  154MPD2     C 2343   3.372   2.874   0.931 -0.3201  0.2263 -0.2950
  154MPD2    C1 2344   3.442   2.806   1.029 -0.0303  0.3669 -0.2571
  154MPD2    C2 2345   3.434   2.856   1.160 -0.0104 -0.3783 -1.2923
  154MPD2    C3 2346   3.358   2.968   1.202 -0.4423  0.1494  0.5007
  154MPD2    C4 2347   3.294   3.036   1.103  0.0121  0.4816  0.2010
  154MPD2    C5 2348   3.297   2.978   0.974  0.1855  0.5071 -0.2724
  154MPD2     H 2349   3.498   2.813   1.235 -2.1722  1.4834  1.6205
  154MPD2    H1 2350   3.230   3.120   1.124 -0.6013  0.1098 -0.1674
  154MPD2    H2 2351   3.382   2.846   0.826 -1.2071 -0.1559 -0.2741
  154MPD2    H3 2352   3.241   3.030   0.897 -0.0287 -1.5907 -1.5366
  154MPD2     N 2353   3.348   3.000   1.338 -0.0560 -0.6759  0.0632
  154MPD2    H5 2354   3.409   2.940   1.393  0.9270 -1.3798 -1.7870
  154MPD2    N1 2355   3.515   2.691   0.977 -0.1674  0.9038  0.1789
  154MPD2    H7 2356   3.519   2.682   0.876  1.5099  0.8781  0.2503
  155TCq2    C1 2357   3.576   2.597   1.059 -0.3819 -0.3775 -0.2692
  155TCq2    O2 2358   3.573   2.583   1.182  0.4204  0.2115 -0.5862
  155TCq2    C2 2359   3.658   2.507   0.981 -0.4251  0.5239  0.1045
  155TCq2    C3 2360   3.643   2.501   0.839 -0.1410 -0.3937 -0.1127
  155TCq2    C4 2361   3.698   2.389   0.782  0.1696 -0.6624 -0.2141
  155TCq2    C5 2362   3.740   2.282   0.859  0.3692 -0.7748 -1.1909
  155TCq2    C6 2363   3.752   2.288   0.996  0.5487  0.5773 -0.8912
  155TCq2    C7 2364   3.716   2.404   1.055  0.5199  0.2121 -0.1649
  155TCq2    C8 2365   3.774   2.172   1.078 -0.0887 -0.8447  0.1378
  155TCq2    O4 2366   3.767   2.187   1.201 -0.2565 -0.1149 -0.8794
  155TCq2    C9 2367   3.693   2.381   0.641  0.2268 -0.5388  0.2123
  155TCq2    O5 2368   3.689   2.494   0.586 -0.1380  0.0030  0.2059
  155TCq2    O6 2369   3.714   2.273   0.580 -0.3246 -0.6065 -0.5199
  155TCq2    H2 2370   3.608   2.582   0.775 -0.3338 -1.5591 -1.4618
  155TCq2    H3 2371   3.760   2.193   0.800  2.5728 -0.5177 -0.8142
  155TCq2    H4 2372   3.703   2.409   1.162 -1.8925 -0.1390 -0.4311
  156MPD2     C 2373   2.558   0.441  12.023 -0.4067 -0.2778 -0.4216
  156MPD2    C1 2374   2.541   0.549  11.938  0.2503  0.3508  0.4062
  156MPD2    C2 2375   2.443   0.634  11.982  0.3922 -0.3767 -0.1401
  156MPD2    C3 2376   2.370   0.632  12.095 -0.0731 -1.0030  0.2864
  156MPD2    C4 2377   2.392   0.529  12.178 -0.4304 -0.4455  0.8615
  156MPD2    C5 2378   2.488   0.437  12.144  0.0354  0.7040 -0.0519
  156MPD2     H 2379   2.425   0.718  11.916  1.3810 -0.7112 -0.8192
  156MPD2    H1 2380   2.334   0.509  12.267 -2.0028 -1.5475 -0.3908
  156MPD2    H2 2381   2.626   0.358  12.010 -0.5006 -0.3321 -0.5604
  156MPD2    H3 2382   2.505   0.359  12.217  0.0744 -0.6347 -1.4786
  156MPD2     N 2383   2.265   0.727  12.113 -0.1800  0.0966 -0.4182
  156MPD2    H5 2384   2.248   0.789  12.034 -3.0989  1.4084  1.2369
  156MPD2    N1 2385   2.593   0.551  11.806 -0.5036  0.5915  0.5322
  156MPD2    H7 2386   2.675   0.493  11.789 -0.2503  0.5542  1.8337
  157TCq2    C1 2387   2.565   0.637  11.705 -0.3147  0.0756 -0.6255
  157TCq2    O2 2388   2.463   0.706  11.691 -0.4159  0.0249  0.7305
  157TCq2    C2 2389   2.656   0.624  11.584  0.2237 -0.2501 -0.2192
  157TCq2    C3 2390   2.787   0.589  11.589  0.4345 -0.7202 -0.2840
  157TCq2    C4 2391   2.869   0.619  11.485 -0.1415  0.8228 -0.8149
  157TCq2    C5 2392   2.824   0.668  11.365  0.4090 -0.5349  0.2264
  157TCq2    C6 2393   2.690   0.696  11.357  0.2572  0.3548  0.0823
  157TCq2    C7 2394   2.606   0.682  11.466 -0.6285 -0.0734 -0.1383
  157TCq2    C8 2395   2.666   0.815  11.272  0.1593  0.8093 -0.1398
  157TCq2    O4 2396   2.757   0.899  11.252  0.4725  0.3230 -0.0331
  157TCq2    C9 2397   2.998   0.551  11.489  0.1211 -0.4547 -0.0611
  157TCq2    O5 2398   3.028   0.481  11.591 -0.6456 -0.6609  0.6062
  157TCq2    O6 2399   3.087   0.586  11.405 -0.3109 -0.3168 -0.7212
  157TCq2    H2 2400   2.832   0.545  11.678 -0.5290  1.7084  1.4134
  157TCq2    H3 2401   2.894   0.697  11.287 -1.6765  1.1853 -1.0291
  157TCq2    H4 2402   2.514   0.738  11.457 -0.0477  1.3273  2.5426
  158TMC2    C1 2403   2.989   4.193  13.358  0.8977  0.3831  0.2185
  158TMC2    C2 2404   3.077   4.204  13.253  0.6324 -0.0475 -0.2297
  158TMC2    C3 2405   3.029   4.262  13.137  0.5321 -0.3335 -0.1848
  158TMC2    C4 2406   2.856   4.237  13.342  0.2429 -0.6994  0.0682
  158TMC2    C5 2407   2.813   4.291  13.220 -0.0273 -0.4684  0.2765
  158TMC2    C6 2408   2.898   4.308  13.116  0.2611  0.1241 -0.4670
  158TMC2     C 2409   3.047   4.234  13.481  0.0181  0.0698  0.9855
  158TMC2     O 2410   3.156   4.286  13.471  0.1190  0.4192  0.4262
  158TMC2     H 2411   3.180   4.173  13.269  0.4827  0.4424  1.6825
  158TMC2    H1 2412   2.793   4.245  13.430  0.8158  1.7550  0.2779
  158TMC2    H2 2413   2.856   4.337  13.020  0.7308 -0.6896 -0.9263
  158TMC2    C7 2414   2.676   4.327  13.200  0.2239 -0.0366 -0.7260
  158TMC2    C8 2415   3.134   4.328  13.058  0.2599  0.0071 -0.4753
  158TMC2    O1 2416   2.655   4.409  13.109  0.5789 -0.3681  0.4226
  158TMC2    O2 2417   3.249   4.305  13.084  0.0326  0.8922 -0.4783
  158TMC2    O5 2418   3.089   4.449  13.013 -0.1527  0.5031 -0.7079
  158TMC2    H5 2419   2.994   4.445  13.034 -0.2253 -0.5628 -1.2307
  159MPD2     C 2420   3.156   4.149  13.975 -0.0338  0.0401 -0.4787
  159MPD2    C1 2421   3.048   4.063  13.947 -0.8223 -0.1792  0.3272
  159MPD2    C2 2422   2.997   4.067  13.818  0.2427 -0.2200 -0.1420
  159MPD2    C3 2423   3.057   4.152  13.725  0.0740  0.0668  0.0253
  159MPD2    C4 2424   3.169   4.229  13.752 -0.2902  0.0559  0.7796
  159MPD2    C5 2425   3.217   4.228  13.877  0.1170 -0.3414 -0.0775
  159MPD2     H 2426   2.909   4.010  13.791 -0.1899  0.0686  0.6292
  159MPD2    H1 2427   3.219   4.288  13.676 -1.7092  0.9697  0.5599
  159MPD2    H2 2428   3.198   4.155  14.075 -0.9328  1.8361 -0.2147
  159MPD2    H3 2429   3.307   4.285  13.897 -0.3087  0.4511 -0.3951
  159MPD2     N 2430   2.999   4.167  13.589  0.5874 -0.0484  0.0964
  159MPD2    H5 2431   2.913   4.114  13.580 -0.0512  1.0606 -0.3860
  159MPD2    N1 2432   2.998   3.987  14.056  0.0208  0.0212  0.2839
  159MPD2    H7 2433   3.030   4.013  14.149 -1.2683  1.1745  0.4044
  160TMC2    C1 2434   1.644   1.318   1.560 -0.3338 -0.3094  0.0968
  160TMC2    C2 2435   1.629   1.184   1.539  0.2337 -0.3237 -0.1677
  160TMC2    C3 2436   1.739   1.111   1.506 -0.1749 -0.3507 -0.0347
  160TMC2    C4 2437   1.769   1.377   1.537 -0.0822  0.0581 -0.5033
  160TMC2    C5 2438   1.871   1.303   1.492  0.4950 -0.1541 -0.0208
  160TMC2    C6 2439   1.855   1.174   1.469  0.0518 -0.2197 -0.8115
  160TMC2     C 2440   1.529   1.401   1.587 -0.6147  0.5883  0.4341
  160TMC2     O 2441   1.421   1.345   1.577 -0.7766  1.0156 -0.2480
  160TMC2     H 2442   1.537   1.128   1.554  0.6246 -0.6680  0.9691
  160TMC2    H1 2443   1.791   1.482   1.551  1.2185 -0.2450 -0.3395
  160TMC2    H2 2444   1.942   1.125   1.427 -0.0320 -1.6961  0.7019
  160TMC2    C7 2445   1.987   1.369   1.442 -0.6449  0.4258  0.5592
  160TMC2    C8 2446   1.737   0.973   1.463 -0.0565 -0.1964 -0.9422
  160TMC2    O1 2447   2.040   1.323   1.345  0.4629  0.0447  0.1814
  160TMC2    O2 2448   1.838   0.924   1.411 -0.5674 -0.0238  0.1594
  160TMC2    O5 2449   1.682   0.914   1.571 -0.2420  0.8195  0.0599
  160TMC2    H5 2450   1.620   0.968   1.625  0.0341  1.0241  0.1693
  161MPD2     C 2451   1.335   1.630   1.598  0.1145 -0.4687 -0.4809
  161MPD2    C1 2452   1.469   1.646   1.614  0.2624  0.0010  0.0008
  161MPD2    C2 2453   1.517   1.774   1.628 -0.5820 -0.1748  0.2649
  161MPD2    C3 2454   1.437   1.890   1.617 -0.1892 -0.8192  0.3344
  161MPD2    C4 2455   1.304   1.877   1.601 -0.4218  0.2579  0.8812
  161MPD2    C5 2456   1.258   1.746   1.598 -0.5664  0.3614 -0.4308
  161MPD2     H 2457   1.625   1.775   1.645 -0.9697  2.4490  2.5216
  161MPD2    H1 2458   1.229   1.954   1.585 -0.7369  0.1730  1.9508
  161MPD2    H2 2459   1.292   1.533   1.578  1.1125 -0.5992 -2.0120
  161MPD2    H3 2460   1.152   1.732   1.584 -0.6148  1.6145 -1.3781
  161MPD2     N 2461   1.487   2.026   1.608  0.4260  0.1700 -0.1486
  161MPD2    H5 2462   1.419   2.101   1.613  1.8546  1.4694 -0.1068
  161MPD2    N1 2463   1.556   1.534   1.619 -0.8043 -0.0148 -0.3307
  161MPD2    H7 2464   1.652   1.566   1.617 -1.2605  1.2484 -2.0765
  162TMC2    C1 2465   4.543   3.612   1.140  0.8092 -0.9564  0.1900
  162TMC2    C2 2466   4.421   3.600   1.094 -0.9520 -0.6251 -0.5048
  162TMC2    C3 2467   4.329   3.676   1.157  0.4125 -0.7082 -0.6276
  162TMC2    C4 2468   4.586   3.694   1.241  0.3365 -0.5955  0.0552
  162TMC2    C5 2469   4.498   3.783   1.294 -0.3249  0.2266  0.1136
  162TMC2    C6 2470   4.367   3.778   1.251 -0.6997  0.5103 -0.2238
  162TMC2     C 2471   4.639   3.549   1.056 -0.0457 -0.5507 -0.2617
  162TMC2     O 2472   4.614   3.526   0.935 -0.3113 -0.4199 -0.0275
  162TMC2     H 2473   4.392   3.530   1.017 -0.0151  1.2081 -2.5216
  162TMC2    H1 2474   4.691   3.686   1.265  0.1715  0.4115  1.1128
  162TMC2    H2 2475   4.293   3.851   1.280 -0.2469  2.5930 -4.2634
  162TMC2    C7 2476   4.543   3.881   1.385 -0.2024  0.0284 -0.1965
  162TMC2    C8 2477   4.207   3.694   1.083 -0.6185 -0.2127  0.3955
  162TMC2    O1 2478   4.466   3.972   1.420 -0.2262  0.0975  0.1392
  162TMC2    O2 2479   4.202   3.660   0.964 -0.1064 -0.2369 -0.3344
  162TMC2    O5 2480   4.101   3.708   1.165  0.3127 -0.1651  0.2292
  162TMC2    H5 2481   4.127   3.713   1.259 -1.6781 -0.6812  0.7934
  163MPD2     C 2482   0.395   3.372   0.980 -0.4875 -0.6045 -0.5555
  163MPD2    C1 2483   0.294   3.370   0.888 -0.2067  0.3315  0.5087
  163MPD2    C2 2484   0.168   3.418   0.931 -0.5375  0.2464 -0.1776
  163MPD2    C3 2485   0.145   3.449   1.066  0.2506 -0.6844 -0.2401
  163MPD2    C4 2486   0.247   3.437   1.151 -0.4211 -0.7611 -0.2673
  163MPD2    C5 2487   0.371   3.400   1.110  0.2564  0.4595 -0.2591
  163MPD2     H 2488   0.098   3.448   0.855  1.1305 -0.0175 -1.8053
  163MPD2    H1 2489   0.243   3.460   1.257 -1.0342  0.0022 -0.4598
  163MPD2    H2 2490   0.495   3.349   0.946 -0.1909  0.6668 -0.5102
  163MPD2    H3 2491   0.449   3.411   1.185  3.0603  2.9844 -3.5619
  163MPD2     N 2492   0.030   3.516   1.121 -0.2315  0.0881 -0.1219
  163MPD2    H5 2493   0.037   3.542   1.219 -1.7872 -1.3296  0.3490
  163MPD2    N1 2494   0.330   3.344   0.753  0.7835 -0.2297  0.3001
  163MPD2    H7 2495   0.430   3.328   0.739  0.4764  0.5341 -2.7455
  164TCq2    C1 2496   0.987   4.483  10.449 -0.0863  0.1227  0.1325
  164TCq2    O2 2497   0.869   4.448  10.439  0.2944 -0.1847 -0.6019
  164TCq2    C2 2498   1.004   4.621  10.501 -0.2588  0.2410 -0.4429
  164TCq2    C3 2499   1.134   4.656  10.517  0.6569 -0.3196 -0.1028
  164TCq2    C4 2500   1.149   0.044  10.590  0.0622 -1.0708  0.3794
  164TCq2    C5 2501   1.046   0.102  10.668  0.3331 -0.0780  0.1615
  164TCq2    C6 2502   0.921   0.057  10.662  0.0474 -0.3153 -0.5101
  164TCq2    C7 2503   0.896   4.673  10.572  0.4814 -0.0318  0.1031
  164TCq2    C8 2504   0.816   0.100  10.750  0.5355  0.3091  0.4496
  164TCq2    O4 2505   0.704   0.059  10.736 -0.8726 -0.1257  0.4455
  164TCq2    C9 2506   1.287   0.102  10.609  0.1289  0.4019 -0.0431
  164TCq2    O5 2507   1.302   0.182  10.707 -0.7750  0.1990 -0.4784
  164TCq2    O6 2508   1.381   0.035  10.556 -0.6670 -0.0376 -0.4513
  164TCq2    H2 2509   1.219   4.622  10.458 -0.2832 -0.3507 -1.4451
  164TCq2    H3 2510   1.067   0.191  10.727 -1.3169  0.7193 -0.4591
  164TCq2    H4 2511   0.798   4.627  10.569  1.5508 -2.2981 -0.0552
  165MPD2     C 2512   2.130   4.688   1.792 -0.1493  0.4479  0.0946
  165MPD2    C1 2513   2.036   0.003   1.699  0.4882 -0.1146 -0.4119
  165MPD2    C2 2514   1.973   0.121   1.709  0.3716  0.5957  0.4591
  165MPD2    C3 2515   1.986   0.199   1.821 -0.6811 -0.3218  0.2520
  165MPD2    C4 2516   2.081   0.162   1.912  0.1880 -0.2221  0.4560
  165MPD2    C5 2517   2.155   0.050   1.897  0.1311  0.5125  0.4420
  165MPD2     H 2518   1.914   0.158   1.626  1.1575  1.0954  0.1173
  165MPD2    H1 2519   2.105   0.222   1.998 -1.8105 -0.5386  1.2398
  165MPD2    H2 2520   2.191   4.599   1.784  0.1036  0.5552  0.8110
  165MPD2    H3 2521   2.232   0.029   1.970 -0.0835 -3.0084 -0.3588
  165MPD2     N 2522   1.911   0.312   1.844 -0.5683 -0.2196 -0.0072
  165MPD2    H5 2523   1.927   0.365   1.929 -2.7894 -1.0013  0.9227
  165MPD2    N1 2524   2.027   4.640   1.587  0.2668 -0.6711 -0.0594
  165MPD2    H7 2525   2.094   4.564   1.588  1.4212  0.3450 -1.1074
  166TCq2    C1 2526   1.792   0.340   1.779 -0.0646  0.0556 -0.4902
  166TCq2    O2 2527   1.739   0.297   1.676  0.0229 -0.1559  0.5565
  166TCq2    C2 2528   1.730   0.464   1.825  0.2846 -0.0857 -0.0837
  166TCq2    C3 2529   1.602   0.489   1.797 -0.9963  0.1039  0.0700
  166TCq2    C4 2530   1.556   0.615   1.821  0.7667  0.0810 -0.9384
  166TCq2    C5 2531   1.631   0.711   1.859  0.1438  0.3106 -0.0270
  166TCq2    C6 2532   1.763   0.693   1.864 -0.3899 -0.7033  0.0217
  166TCq2    C7 2533   1.811   0.566   1.853 -0.9534 -0.7292  0.2230
  166TCq2    C8 2534   1.853   0.806   1.853 -0.7614 -0.6970  0.0625
  166TCq2    O4 2535   1.971   0.779   1.855 -0.1815 -0.6587 -0.0778
  166TCq2    C9 2536   1.418   0.655   1.801  0.2312 -0.3115 -0.0831
  166TCq2    O5 2537   1.396   0.772   1.841  0.6326 -0.1448 -0.0654
  166TCq2    O6 2538   1.341   0.583   1.735  0.0066  0.1570 -0.4563
  166TCq2    H2 2539   1.539   0.413   1.753 -0.6983  1.4036 -2.5706
  166TCq2    H3 2540   1.595   0.807   1.895 -1.1532 -0.2523  0.1939
  166TCq2    H4 2541   1.918   0.545   1.853 -1.2175 -2.0648 -0.2643
  167TMC2    C1 2542   0.193   4.495  12.644 -0.4352 -0.5434  0.3647
  167TMC2    C2 2543   0.114   4.554  12.731 -0.0482  0.0377  0.0932
  167TMC2    C3 2544   0.031   4.473  12.799 -0.0037 -0.4220  0.8810
  167TMC2    C4 2545   0.211   4.357  12.639  0.5025  0.0114  0.3635
  167TMC2    C5 2546   0.117   4.284  12.707  0.4100  0.3537  0.1148
  167TMC2    C6 2547   0.030   4.342  12.785 -0.3337 -0.0405 -0.3529
  167TMC2     C 2548   0.245   4.573  12.534  0.1406 -0.3215  0.6418
  167TMC2     O 2549   0.256   4.690  12.567  0.4563  0.7524 -0.4229
  167TMC2     H 2550   0.093   4.659  12.717 -1.3971 -0.1241  0.9789
  167TMC2    H1 2551   0.303   4.323  12.593 -0.6889 -1.9199 -0.5959
  167TMC2    H2 2552   4.684   4.294  12.854 -1.3520  0.1705 -1.2018
  167TMC2    C7 2553   0.132   4.143  12.720 -0.0430 -0.2336  0.7250
  167TMC2    C8 2554   4.641   4.534  12.865  0.2651  0.7811  0.2128
  167TMC2    O1 2555   0.059   4.082  12.797 -0.0154 -0.2566  0.0594
  167TMC2    O2 2556   4.532   4.479  12.875  0.4615 -0.0083  0.2536
  167TMC2    O5 2557   4.675   4.659  12.917 -0.1167  0.2987 -0.3877
  167TMC2    H5 2558   0.048   4.683  12.925  0.0852 -1.1318  1.6335
  168MPD2     C 2559   0.304   4.701  12.272  0.3618  0.0472  0.3889
  168MPD2    C1 2560   0.279   4.568  12.289  0.9555  0.1133 -0.2515
  168MPD2    C2 2561   0.263   4.483  12.183  1.2902  0.5653 -0.0360
  168MPD2    C3 2562   0.267   4.537  12.054 -0.0640 -0.4681  0.2944
  168MPD2    C4 2563   0.283   4.671  12.038  0.3225 -0.1968  0.1139
  168MPD2    C5 2564   0.304   0.033  12.143 -0.1100 -0.3421  0.0279
  168MPD2     H 2565   0.262   4.376  12.205 -1.0118  0.9313  1.7576
  168MPD2    H1 2566   0.289   4.704  11.935  4.1595 -1.2828 -0.0069
  168MPD2    H2 2567   0.309   0.043  12.360  1.6506 -0.0543  0.3898
  168MPD2    H3 2568   0.315   0.140  12.128 -3.0486 -0.0210  0.0426
  168MPD2     N 2569   0.260   4.458  11.938 -0.3637 -0.1858 -0.0085
  168MPD2    H5 2570   0.253   4.511  11.851 -2.9255 -1.6969 -0.7389
  168MPD2    N1 2571   0.258   4.508  12.414 -0.3027  0.2635  0.2380
  168MPD2    H7 2572   0.231   4.410  12.409  1.1513 -0.0163 -2.1594
  169MPD1     C 2573   2.077   0.123   9.829  0.0152 -0.2695 -0.3088
  169MPD1    C1 2574   2.168   0.155   9.933 -0.2309  0.3608 -0.1497
  169MPD1    C2 2575   2.252   0.050   9.963  0.7740  0.1259  0.4259
  169MPD1    C3 2576   2.244   4.645   9.905  0.2342  0.0681  0.1477
  169MPD1    C4 2577   2.164   4.626   9.799 -0.0987  0.8113 -0.0688
  169MPD1    C5 2578   2.074   0.003   9.770  0.2906 -0.7147 -0.3735
  169MPD1     H 2579   2.320   0.061  10.047  0.7958 -1.2128  0.5808
  169MPD1    H1 2580   2.157   4.534   9.743  0.4578 -0.0505  1.2736
  169MPD1    H2 2581   2.002   0.197   9.802  1.7923  1.6778  0.0828
  169MPD1    H3 2582   2.020   0.000   9.676  0.6532 -1.2424 -0.5678
  169MPD1     N 2583   2.332   4.545   9.955  0.0926 -0.5241  0.1634
  169MPD1    H5 2584   2.386   4.576  10.035  0.3041  2.7091 -1.1974
  169MPD1    N1 2585   2.148   0.271  10.017 -0.0450 -0.1356 -0.2785
  169MPD1    H6 2586   2.231   0.303  10.066  0.5526 -2.2952  0.1518
  169MPD1    H7 2587   2.117   0.353   9.965  1.3680  1.2602  1.0929
  170MPD1     C 2588   0.646   1.815  12.904 -0.5464 -0.2527  0.0230
  170MPD1    C1 2589   0.755   1.898  12.925  0.0088 -0.6303  0.6346
  170MPD1    C2 2590   0.838   1.890  13.029 -0.3204 -0.2781  0.0037
  170MPD1    C3 2591   0.823   1.786  13.116  0.6398 -0.0706 -0.0294
  170MPD1    C4 2592   0.714   1.706  13.107 -0.4046  0.3031 -0.4754
  170MPD1    C5 2593   0.632   1.713  12.990  0.5145  0.2590  0.9715
  170MPD1     H 2594   0.922   1.958  13.042  1.6968 -2.8904  0.6801
  170MPD1    H1 2595   0.701   1.612  13.159 -0.1612  1.5835  1.8657
  170MPD1    H2 2596   0.579   1.824  12.819 -1.7078 -0.9016  0.8562
  170MPD1    H3 2597   0.559   1.637  12.967 -0.2820  0.6875  2.0899
  170MPD1     N 2598   0.922   1.778  13.218 -0.8433 -0.6441  0.6206
  170MPD1    H5 2599   0.991   1.852  13.229  0.6259 -2.3612  2.8436
  170MPD1    N1 2600   0.764   2.008  12.838 -0.3598  0.0231  0.0611
  170MPD1    H6 2601   0.707   1.969  12.763 -1.5298 -0.0865  1.0143
  170MPD1    H7 2602   0.861   2.014  12.806 -0.4203 -3.5393 -0.7925
  171MPD1     C 2603   0.158   2.396  14.699 -0.2364  0.6807 -0.2416
  171MPD1    C1 2604   0.045   2.348  14.753 -0.3812  0.3759  0.1989
  171MPD1    C2 2605   0.066   2.251  14.852  0.5991 -0.1836 -0.3527
  171MPD1    C3 2606   0.192   2.230  14.911  0.0536  0.6972  0.6886
  171MPD1    C4 2607   0.300   2.286  14.848 -0.3859 -0.4691 -0.4269
  171MPD1    C5 2608   0.282   2.350  14.737  0.3808  0.1850 -0.2200
  171MPD1     H 2609   4.702   2.196  14.887  0.5394  0.7572  0.9805
  171MPD1    H1 2610   0.401   2.274  14.885 -0.0216  1.3279 -0.8757
  171MPD1    H2 2611   0.147   2.471  14.621 -0.5101  0.1800 -0.6826
  171MPD1    H3 2612   0.370   2.386  14.685 -0.4507  0.7453 -1.2363
  171MPD1     N 2613   0.213   2.158  15.031 -0.3148 -0.0024 -0.3046
  171MPD1    H5 2614   0.307   2.142  15.066 -0.5683  0.1972  0.4672
  171MPD1    N1 2615   4.641   2.360  14.690  0.0344 -0.1571 -0.1540
  171MPD1    H6 2616   4.569   2.358  14.762  0.7267 -1.0830  0.5154
  171MPD1    H7 2617   4.638   2.457  14.659  0.5206 -0.0998 -0.0246
  172MPD1     C 2618   3.053   0.862   0.604  0.5205 -0.3771 -0.1774
  172MPD1    C1 2619   2.997   0.969   0.671 -0.7229 -0.0627  0.0386
  172MPD1    C2 2620   3.073   1.081   0.689 -0.6050 -0.2092 -0.3032
  172MPD1    C3 2621   3.213   1.076   0.659  0.2951 -0.7495 -0.1155
  172MPD1    C4 2622   3.268   0.966   0.598 -0.0848  0.3695  0.9340
  172MPD1    C5 2623   3.186   0.859   0.576  0.3904 -0.8073  0.5591
  172MPD1     H 2624   3.029   1.170   0.734 -0.8815 -0.6968  0.4007
  172MPD1    H1 2625   3.373   0.952   0.575 -0.0136 -1.8264  2.5335
  172MPD1    H2 2626   2.988   0.781   0.573  0.0738  0.5485 -1.6448
  172MPD1    H3 2627   3.229   0.778   0.518  2.6558  0.3169  0.7137
  172MPD1     N 2628   3.301   1.189   0.676 -0.3160 -0.2965 -0.2285
  172MPD1    H5 2629   3.400   1.169   0.675 -0.0801  0.8399  0.9757
  172MPD1    N1 2630   2.851   0.981   0.672  0.9291  0.5223  0.3482
  172MPD1    H6 2631   2.815   1.048   0.739 -1.1015 -0.8844  0.6702
  172MPD1    H7 2632   2.810   0.890   0.695  1.1375 -0.0628 -1.5702
  173MPD1     C 2633   0.458   1.580  14.559  0.0811 -0.2632  0.4384
  173MPD1    C1 2634   0.393   1.536  14.446 -0.1439  0.3833 -0.1556
  173MPD1    C2 2635   0.288   1.448  14.460  0.1739 -0.6208  0.1704
  173MPD1    C3 2636   0.230   1.424  14.586 -0.4450 -0.1750 -0.1514
  173MPD1    C4 2637   0.285   1.484  14.690 -0.0814  0.0047 -0.2411
  173MPD1    C5 2638   0.395   1.559  14.683  0.6125 -0.7866  0.1895
  173MPD1     H 2639   0.241   1.392  14.380  0.3859  1.0493 -1.1015
  173MPD1    H1 2640   0.252   1.455  14.789 -2.0475 -1.2036 -1.2368
  173MPD1    H2 2641   0.552   1.633  14.562  1.2050 -2.2316  0.0999
  173MPD1    H3 2642   0.450   1.603  14.765  1.0127 -0.7875 -0.0797
  173MPD1     N 2643   0.126   1.332  14.597 -0.6214 -0.2267  0.2198
  173MPD1    H5 2644   0.082   1.305  14.510  0.1508  1.2269 -0.6204
  173MPD1    N1 2645   0.460   1.555  14.327  0.2764  0.5372  0.2980
  173MPD1    H6 2646   0.491   1.652  14.328  2.1388 -0.0872  2.5837
  173MPD1    H7 2647   0.404   1.542  14.243 -0.2473 -0.9309  0.8824
  174MPD1     C 2648   4.478   0.522  14.167 -0.5908  0.4958  0.9159
  174MPD1    C1 2649   4.506   0.654  14.132  0.1897  0.2449  0.4039
  174MPD1    C2 2650   4.526   0.751  14.227 -0.6491  0.1575  0.3583
  174MPD1    C3 2651   4.526   0.717  14.362  0.4009  0.9557  0.3039
  174MPD1    C4 2652   4.504   0.585  14.394  0.5787  0.0444 -0.2679
  174MPD1    C5 2653   4.479   0.489  14.301 -0.7236  0.2781  0.1686
  174MPD1     H 2654   4.540   0.853  14.193  0.7875 -1.4214 -3.7519
  174MPD1    H1 2655   4.515   0.551  14.496  1.0785 -0.1241 -0.3774
  174MPD1    H2 2656   4.466   0.449  14.087  0.0636  0.2551  1.0361
  174MPD1    H3 2657   4.452   0.392  14.342  1.3071 -0.7739 -0.9940
  174MPD1     N 2658   4.541   0.815  14.467  0.1988  0.5970 -0.3502
  174MPD1    H5 2659   4.569   0.778  14.557 -0.0448  1.4769  0.0872
  174MPD1    N1 2660   4.514   0.692  13.993 -0.2091 -0.2171  0.3123
  174MPD1    H6 2661   4.466   0.779  13.972 -0.2820 -0.4961 -0.6606
  174MPD1    H7 2662   4.469   0.612  13.950 -0.5156  0.8745 -1.4138
  175MPD1     C 2663   3.399   2.004  15.924 -0.5309 -0.6482 -1.0742
  175MPD1    C1 2664   3.369   2.118  15.997 -0.1201 -0.7450  0.0731
  175MPD1    C2 2665   3.396   2.118  16.129  0.0293 -0.2508  0.4558
  175MPD1    C3 2666   3.449   2.006  16.191  0.7656 -0.3549 -0.6340
  175MPD1    C4 2667   3.469   1.894  16.115 -0.3737 -0.3628 -0.3860
  175MPD1    C5 2668   3.442   1.893  15.979  0.3069 -0.4098 -0.7666
  175MPD1     H 2669   3.374   2.208  16.185 -1.7481 -1.2363  1.3190
  175MPD1    H1 2670   3.503   1.804  16.166  0.1059 -0.2293 -0.4645
  175MPD1    H2 2671   3.371   2.007  15.819 -0.7875 -0.4838 -1.0000
  175MPD1    H3 2672   3.453   1.802  15.921  1.3014 -1.3958  0.9719
  175MPD1     N 2673   3.479   2.001  16.331 -0.5045  0.2878  0.5709
  175MPD1    H5 2674   3.532   1.922  16.367  2.1305  1.8101 -0.0082
  175MPD1    N1 2675   3.336   2.237  15.936  0.7196  0.2801 -0.0493
  175MPD1    H6 2676   3.281   2.294  15.999  1.0499  1.3258 -0.6997
  175MPD1    H7 2677   3.286   2.234  15.847 -2.4314  0.3670  1.6978
  176MPD1     C 2678   0.676   3.212  16.086  0.4520 -0.1065  0.3939
  176MPD1    C1 2679   0.647   3.189  16.218 -0.5501 -0.1835 -0.2442
  176MPD1    C2 2680   0.586   3.277  16.299  0.6721 -0.1730  0.4115
  176MPD1    C3 2681   0.574   3.407  16.255 -0.3144  0.3231  0.5481
  176MPD1    C4 2682   0.612   3.435  16.124  0.0206  0.1305 -0.9300
  176MPD1    C5 2683   0.658   3.341  16.039 -0.4892 -0.0082 -0.4815
  176MPD1     H 2684   0.547   3.258  16.399  0.5606 -0.1395  0.3749
  176MPD1    H1 2685   0.594   3.533  16.083 -2.5378  0.9121  2.1107
  176MPD1    H2 2686   0.720   3.139  16.019  2.0018  0.1763  1.1012
  176MPD1    H3 2687   0.684   3.372  15.939 -0.6182  1.9143  0.0877
  176MPD1     N 2688   0.498   3.496  16.338  0.4203  0.5819 -0.1794
  176MPD1    H5 2689   0.480   3.462  16.432  1.0283 -3.0964 -1.4161
  176MPD1    N1 2690   0.670   3.061  16.262 -0.1976  0.2514  0.3968
  176MPD1    H6 2691   0.707   3.057  16.357  0.1789 -0.4663  0.2220
  176MPD1    H7 2692   0.728   3.011  16.195  0.2958  0.8605  0.3686
  177MPD1     C 2693   4.217   0.310  10.166 -0.0923  0.1478  0.8585
  177MPD1    C1 2694   4.113   0.225  10.160  0.3398 -0.4233  0.2887
  177MPD1    C2 2695   4.020   0.255  10.063  0.7365 -0.1677 -1.0419
  177MPD1    C3 2696   4.036   0.350   9.967 -0.4123 -0.6065 -0.0947
  177MPD1    C4 2697   4.135   0.442   9.982 -0.1455  0.9399  0.3683
  177MPD1    C5 2698   4.224   0.422  10.081 -0.0622 -0.0325 -0.1009
  177MPD1     H 2699   3.933   0.191  10.055  0.2972 -0.0963  2.8919
  177MPD1    H1 2700   4.153   0.528   9.918 -1.7485  0.7653 -0.3177
  177MPD1    H2 2701   4.302   0.294  10.231  0.0214 -0.5628  0.5388
  177MPD1    H3 2702   4.309   0.489  10.081  0.5937 -0.8705 -2.0549
  177MPD1     N 2703   3.934   0.351   9.865 -0.2686 -0.3633  0.8079
  177MPD1    H5 2704   3.878   0.267   9.867 -1.8069  0.5732 -2.8893
  177MPD1    N1 2705   4.105   0.105  10.226  0.1102 -0.1236 -0.2385
  177MPD1    H6 2706   4.010   0.090  10.260  1.0907 -3.6759  0.9170
  177MPD1    H7 2707   4.167   0.104  10.307 -0.0828 -1.4147 -0.1017
  178MPD1     C 2708   1.245   0.271   0.266 -1.2253  0.1821 -0.1424
  178MPD1    C1 2709   1.164   0.156   0.295  0.4463  0.0513 -0.2338
  178MPD1    C2 2710   1.122   0.072   0.189  0.8441  0.0789  1.1718
  178MPD1    C3 2711   1.157   0.110   0.059 -0.3074  0.9951  0.4909
  178MPD1    C4 2712   1.226   0.223   0.029  0.2414  0.1293  0.2324
  178MPD1    C5 2713   1.269   0.302   0.134  0.1062  0.3343  0.3448
  178MPD1     H 2714   1.066   4.705   0.217  2.3703 -1.2040  0.1570
  178MPD1    H1 2715   1.249   0.248  17.615 -0.0954  1.2450  0.4209
  178MPD1    H2 2716   1.285   0.330   0.347 -1.2249 -3.6062  2.6268
  178MPD1    H3 2717   1.317   0.397   0.121 -1.1066  0.7081 -1.4543
  178MPD1     N 2718   1.135   0.021  17.638 -0.3299  0.3396 -0.0205
  178MPD1    H5 2719   1.167   0.049  17.546  0.8986 -1.5207 -0.1691
  178MPD1    N1 2720   1.138   0.112   0.429 -1.0238 -0.4943 -0.1093
  178MPD1    H6 2721   1.060   0.047   0.435 -1.8863  0.5060 -0.4486
  178MPD1    H7 2722   1.132   0.194   0.489  0.2583  1.1779 -2.2587
  179MPD1     C 2723   0.882   3.758  15.525 -0.2397  0.8999 -0.4786
  179MPD1    C1 2724   0.808   3.666  15.449 -0.2233  0.7477 -0.1401
  179MPD1    C2 2725   0.789   3.536  15.499 -0.0256 -0.0739  0.1015
  179MPD1    C3 2726   0.847   3.503  15.626  0.0759 -0.0389 -0.1097
  179MPD1    C4 2727   0.923   3.597  15.690  0.8605 -0.0857  0.0147
  179MPD1    C5 2728   0.934   3.724  15.644  0.9842 -0.1529 -0.5264
  179MPD1     H 2729   0.729   3.469  15.439 -2.2587  0.7179  1.4567
  179MPD1    H1 2730   0.971   3.580  15.786  0.0776  0.4289  0.5053
  179MPD1    H2 2731   0.882   3.862  15.497 -1.9241  0.6524 -1.4173
  179MPD1    H3 2732   1.008   3.789  15.690 -1.0273  1.7713 -0.0133
  179MPD1     N 2733   0.841   3.379  15.696 -0.2664 -0.4515 -0.0059
  179MPD1    H5 2734   0.895   3.376  15.782 -0.9578  1.7466  0.4845
  179MPD1    N1 2735   0.728   3.705  15.342 -0.2454 -0.3568 -0.1519
  179MPD1    H6 2736   0.701   3.631  15.278 -0.1325  1.1474 -1.9674
  179MPD1    H7 2737   0.758   3.790  15.294  0.9806 -0.3903  0.5427
  180MPD1     C 2738   0.752   4.653  15.319  0.5529 -1.0101  0.6112
  180MPD1    C1 2739   0.801   4.678  15.194 -0.5256 -0.5490  0.1152
  180MPD1    C2 2740   0.712   4.673  15.092  0.1253  0.1315  0.3308
  180MPD1    C3 2741   0.573   4.656  15.110 -1.1166  0.3108  0.3872
  180MPD1    C4 2742   0.525   4.649  15.240  0.0426  1.0498 -0.6836
  180MPD1    C5 2743   0.618   4.638  15.343  0.1012  0.0932  0.1816
  180MPD1     H 2744   0.736   4.701  14.990  1.9307  1.9879  1.2626
  180MPD1    H1 2745   0.419   4.638  15.256  0.1052 -0.0543 -1.0298
  180MPD1    H2 2746   0.826   4.640  15.398  0.1873  0.2468  1.1529
  180MPD1    H3 2747   0.585   4.620  15.445  0.1798 -0.6372  0.0744
  180MPD1     N 2748   0.495   4.658  14.996  0.1535 -0.5889 -0.0110
  180MPD1    H5 2749   0.545   4.669  14.908  1.2018 -0.1937  0.6435
  180MPD1    N1 2750   0.940   4.695  15.177  0.3314  0.3516  0.6132
  180MPD1    H6 2751   0.989   4.716  15.264  2.1900 -1.7177  0.0774
  180MPD1    H7 2752   0.967   0.035  15.101 -2.1335  1.1525  0.3863
  181MPD1     C 2753   1.861   2.285   9.678  0.2610 -0.4534 -0.4940
  181MPD1    C1 2754   1.921   2.403   9.631 -1.0425 -0.4441  0.0317
  181MPD1    C2 2755   2.039   2.449   9.696  0.1610  0.5244 -0.6037
  181MPD1    C3 2756   2.106   2.365   9.776  0.1506 -0.1984  0.2255
  181MPD1    C4 2757   2.045   2.245   9.820  0.3701 -0.9368  0.0214
  181MPD1    C5 2758   1.923   2.208   9.772  1.0615  1.5282 -0.0930
  181MPD1     H 2759   2.074   2.544   9.657  1.9011  0.6408  1.2815
  181MPD1    H1 2760   2.090   2.176   9.889 -1.5720 -2.5697 -0.3649
  181MPD1    H2 2761   1.765   2.244   9.651  0.0102  1.0155 -1.8587
  181MPD1    H3 2762   1.872   2.119   9.807 -1.6090  2.7806 -0.8846
  181MPD1     N 2763   2.243   2.391   9.820  0.1174 -0.6076 -0.4013
  181MPD1    H5 2764   2.282   2.310   9.867 -0.2566 -1.3063 -1.3095
  181MPD1    N1 2765   1.847   2.486   9.546  0.2475 -0.1257 -0.7104
  181MPD1    H6 2766   1.909   2.536   9.482 -0.1430  1.7554  0.3631
  181MPD1    H7 2767   1.783   2.437   9.484  0.5262  0.2981 -1.3352
  182MPD1     C 2768   2.807   0.109   2.380  0.0000 -0.5450  1.0486
  182MPD1    C1 2769   2.918   0.122   2.304  0.0168  0.2359  0.0631
  182MPD1    C2 2770   2.907   0.195   2.193  0.3682 -0.0445  0.6380
  182MPD1    C3 2771   2.786   0.253   2.145 -0.6189 -1.0460 -0.2080
  182MPD1    C4 2772   2.679   0.239   2.228 -0.5852 -0.5899  0.4474
  182MPD1    C5 2773   2.688   0.161   2.333 -0.0012  0.4235  0.1048
  182MPD1     H 2774   2.991   0.208   2.125 -1.4922  0.5056 -1.5778
  182MPD1    H1 2775   2.578   0.270   2.202 -0.0067 -1.6876 -3.1336
  182MPD1    H2 2776   2.808   0.050   2.471  0.6586 -0.5167  1.0605
  182MPD1    H3 2777   2.596   0.149   2.388 -0.2118  0.1804 -0.3038
  182MPD1     N 2778   2.771   0.314   2.019  0.6762  0.7618  0.3822
  182MPD1    H5 2779   2.678   0.338   1.986 -0.8190 -1.7975  2.7842
  182MPD1    N1 2780   3.042   0.089   2.358 -0.0139  0.2421 -0.5601
  182MPD1    H6 2781   3.034   0.025   2.437 -2.2559  0.4475 -0.6157
  182MPD1    H7 2782   3.101   0.045   2.288  0.0091 -1.5371  0.5774
  183MPD1     C 2783   3.542   1.308   8.571 -0.2160 -0.1469 -0.5594
  183MPD1    C1 2784   3.415   1.320   8.625 -0.0185  0.3415 -0.2475
  183MPD1    C2 2785   3.403   1.370   8.753 -0.2010 -0.3435 -0.1738
  183MPD1    C3 2786   3.514   1.377   8.837  0.0516  0.1484 -0.3879
  183MPD1    C4 2787   3.630   1.327   8.795 -0.4728 -0.0573  0.5227
  183MPD1    C5 2788   3.645   1.304   8.663  0.1862 -0.5054  0.0031
  183MPD1     H 2789   3.303   1.397   8.783 -0.0400 -0.1252  0.1763
  183MPD1    H1 2790   3.722   1.315   8.851  0.5530 -0.3642 -1.2406
  183MPD1    H2 2791   3.556   1.283   8.466 -0.6868 -1.4052 -0.3147
  183MPD1    H3 2792   3.744   1.272   8.631  0.3952 -1.4329  1.5647
  183MPD1     N 2793   3.488   1.427   8.970 -0.1339  0.2114 -0.0675
  183MPD1    H5 2794   3.394   1.449   9.001  0.8595  0.9636  2.3824
  183MPD1    N1 2795   3.302   1.327   8.543  0.1628 -0.0902 -0.6371
  183MPD1    H6 2796   3.216   1.300   8.591 -0.6815  0.6872 -1.7120
  183MPD1    H7 2797   3.322   1.263   8.466 -2.5764  0.4488 -1.8017
  184MPD1     C 2798   2.389   0.848   9.871 -0.1509  1.0850 -0.2801
  184MPD1    C1 2799   2.390   0.709   9.888  0.0644  0.2859 -0.5528
  184MPD1    C2 2800   2.488   0.640   9.814  0.7522 -0.0162 -0.6731
  184MPD1    C3 2801   2.588   0.714   9.747  0.5358  0.5612  0.3412
  184MPD1    C4 2802   2.593   0.851   9.757  0.2883 -0.1066  0.2466
  184MPD1    C5 2803   2.489   0.916   9.810 -0.1698 -0.4136  0.2103
  184MPD1     H 2804   2.486   0.532   9.809 -0.5736  0.0301 -1.1062
  184MPD1    H1 2805   2.675   0.905   9.712 -0.0720  0.6092  0.4613
  184MPD1    H2 2806   2.305   0.908   9.906 -1.5384 -1.5420  0.8987
  184MPD1    H3 2807   2.467   1.022   9.803 -0.5988 -0.3433  2.6742
  184MPD1     N 2808   2.698   0.652   9.677  0.0726 -0.7232  0.2321
  184MPD1    H5 2809   2.782   0.703   9.656 -0.6968  1.3309  2.1767
  184MPD1    N1 2810   2.280   0.639   9.950  0.1737  0.1386  0.2261
  184MPD1    H6 2811   2.252   0.705  10.022 -2.6622 -1.5782  0.7028
  184MPD1    H7 2812   2.308   0.556  10.002 -1.2737 -0.0006  0.7814
  185MPD1     C 2813   3.187   4.459   9.360  0.4249 -0.1471 -0.2769
  185MPD1    C1 2814   3.058   4.482   9.406  0.5835  0.3972 -0.5919
  185MPD1    C2 2815   3.011   4.612   9.408  0.3212  0.0780 -0.3532
  185MPD1    C3 2816   3.092   4.721   9.364 -0.7778 -0.1139  0.0378
  185MPD1    C4 2817   3.224   4.696   9.331  0.2372  0.1377  0.3177
  185MPD1    C5 2818   3.259   4.566   9.318 -0.6346  0.4998  0.3650
  185MPD1     H 2819   2.911   4.629   9.446  0.9541  0.8615  0.9629
  185MPD1    H1 2820   3.302   0.048   9.314  1.2906 -1.0111  0.1761
  185MPD1    H2 2821   3.236   4.362   9.370 -1.9947 -1.2990  0.3919
  185MPD1    H3 2822   3.360   4.548   9.285 -1.4717 -0.5904 -1.5787
  185MPD1     N 2823   3.059   0.135   9.371  1.2553  0.6438 -0.3202
  185MPD1    H5 2824   3.132   0.201   9.345  1.9207  0.3666  0.8383
  185MPD1    N1 2825   2.968   4.376   9.427  0.3053 -0.1997 -0.2235
  185MPD1    H6 2826   2.903   4.396   9.503 -0.8856 -2.0223 -0.7642
  185MPD1    H7 2827   3.009   4.293   9.468  0.0012 -0.6966 -0.9180
  186MPD1     C 2828   0.578   4.121  15.616 -0.2380 -0.2140 -0.8584
  186MPD1    C1 2829   0.543   3.994  15.657 -1.0147  0.6588  0.0217
  186MPD1    C2 2830   0.633   3.925  15.738  0.5513  0.1894 -0.6565
  186MPD1    C3 2831   0.732   3.983  15.808  0.2012 -0.4076  0.4631
  186MPD1    C4 2832   0.751   4.116  15.775 -0.3760  0.3530  0.1405
  186MPD1    C5 2833   0.674   4.179  15.686 -0.4719 -0.0538  1.2278
  186MPD1     H 2834   0.604   3.823  15.760 -0.5058  0.9273  1.4443
  186MPD1    H1 2835   0.833   4.165  15.827 -0.0766  0.8021 -0.7678
  186MPD1    H2 2836   0.523   4.174  15.538 -1.1733  0.6496  0.3932
  186MPD1    H3 2837   0.689   4.285  15.665  0.9414 -0.2622  1.2465
  186MPD1     N 2838   0.822   3.923  15.895  0.0844  0.3427 -0.2519
  186MPD1    H5 2839   0.895   3.987  15.925 -1.2234  0.8203  1.8607
  186MPD1    N1 2840   0.431   3.935  15.584  0.4287 -0.0721 -0.0025
  186MPD1    H6 2841   0.391   3.865  15.646 -1.3105  0.3065 -0.6994
  186MPD1    H7 2842   0.370   4.006  15.545  0.5503 -0.2347 -0.4899
  187MPD1     C 2843   0.114   4.580   0.665  0.3422 -0.1233  0.0157
  187MPD1    C1 2844   0.092   4.711   0.699 -0.2921 -0.2393  0.2928
  187MPD1    C2 2845   0.163   0.087   0.624  0.0800  0.3901 -0.0901
  187MPD1    C3 2846   0.235   0.055   0.508  0.6155 -0.5728 -0.8646
  187MPD1    C4 2847   0.236   4.646   0.468  0.3654  0.3041 -0.0966
  187MPD1    C5 2848   0.189   4.548   0.555  1.0967  0.4153  0.2728
  187MPD1     H 2849   0.152   0.190   0.655  0.2619  1.0795 -2.2841
  187MPD1    H1 2850   0.277   4.617   0.372  0.8105  0.5050  0.0342
  187MPD1    H2 2851   0.084   4.496   0.727  0.0757  0.6021  0.8602
  187MPD1    H3 2852   0.211   4.445   0.532  0.7776  0.4455 -0.1732
  187MPD1     N 2853   0.293   0.150   0.422 -0.3555 -0.0963 -0.1972
  187MPD1    H5 2854   0.323   0.124   0.329 -0.2182 -0.9308  0.0783
  187MPD1    N1 2855   0.025   0.024   0.814 -0.0507 -0.6976  0.2562
  187MPD1    H6 2856   4.713   0.118   0.833  0.2577 -1.0503  2.5594
  187MPD1    H7 2857   4.674   4.686   0.853 -0.1092 -1.1371 -0.5334
  188MPD1     C 2858   0.115   1.264   9.514  0.0686  0.5206 -0.0302
  188MPD1    C1 2859   0.071   1.237   9.645 -0.3334 -0.0493  0.5476
  188MPD1    C2 2860   0.067   1.109   9.694  0.2248 -0.2817 -0.1636
  188MPD1    C3 2861   0.098   1.006   9.605 -0.2184 -0.5153  0.7652
  188MPD1    C4 2862   0.126   1.029   9.470 -0.3698  0.2074 -0.5161
  188MPD1    C5 2863   0.125   1.162   9.426 -0.1565 -0.1828  0.5628
  188MPD1     H 2864   0.036   1.087   9.795 -1.7871 -0.2763 -0.7785
  188MPD1    H1 2865   0.175   0.952   9.411  1.5713 -0.8112  2.4396
  188MPD1    H2 2866   0.122   1.365   9.474 -0.4360 -0.1408 -1.7738
  188MPD1    H3 2867   0.146   1.190   9.324 -0.6802  0.7464  0.7121
  188MPD1     N 2868   0.120   0.872   9.648  0.5385 -0.2249  0.1946
  188MPD1    H5 2869   0.148   0.801   9.581 -1.0590  0.6582 -1.4201
  188MPD1    N1 2870   0.052   1.338   9.740  0.7905 -0.1360  0.1252
  188MPD1    H6 2871   0.010   1.417   9.690  0.9276  0.8240  1.5417
  188MPD1    H7 2872   4.717   1.316   9.822 -0.8750  0.0693 -0.9665
  189MPD1     C 2873   2.014   0.545   0.775 -0.7794  0.1841  0.3580
  189MPD1    C1 2874   1.940   0.497   0.671  0.5588  0.1216  0.0490
  189MPD1    C2 2875   1.900   0.586   0.580 -0.6002 -0.0541  0.5211
  189MPD1    C3 2876   1.931   0.726   0.581  0.0572  0.2540 -0.3302
  189MPD1    C4 2877   1.999   0.772   0.690  0.5260  0.0574 -1.0878
  189MPD1    C5 2878   2.033   0.683   0.785 -0.7064  0.0208 -0.6452
  189MPD1     H 2879   1.854   0.546   0.490 -1.7107  0.7673  0.7204
  189MPD1    H1 2880   2.025   0.875   0.708 -0.8591 -0.1515  2.0511
  189MPD1    H2 2881   2.064   0.483   0.848 -1.1850 -0.7557 -0.1550
  189MPD1    H3 2882   2.093   0.711   0.871 -0.5025 -0.4361 -0.6406
  189MPD1     N 2883   1.870   0.814   0.492  0.3899 -0.5449 -0.0555
  189MPD1    H5 2884   1.827   0.761   0.417  1.4471 -0.4012 -0.7656
  189MPD1    N1 2885   1.952   0.361   0.627 -0.0343 -0.1982  0.1598
  189MPD1    H6 2886   1.868   0.330   0.578  0.9475 -2.6672  0.0638
  189MPD1    H7 2887   1.956   0.296   0.705  0.4243  0.9560  1.0901
  190MPD1     C 2888   0.529   0.362  15.519 -0.1078 -0.5544  0.3478
  190MPD1    C1 2889   0.617   0.276  15.465 -0.2218  0.2171  0.2047
  190MPD1    C2 2890   0.710   0.221  15.544 -0.1303  0.2634  0.7991
  190MPD1    C3 2891   0.721   0.254  15.681  0.1892 -0.0365  0.4197
  190MPD1    C4 2892   0.640   0.347  15.730  0.8397 -0.0022  0.1669
  190MPD1    C5 2893   0.540   0.404  15.652  0.0807 -0.1525  0.3401
  190MPD1     H 2894   0.779   0.146  15.507 -0.3145  1.0318 -1.0740
  190MPD1    H1 2895   0.645   0.385  15.832  0.3684  0.9765 -0.1744
  190MPD1    H2 2896   0.447   0.407  15.464  0.6178 -0.4209 -0.6234
  190MPD1    H3 2897   0.485   0.485  15.698  1.1109  0.9116 -0.3387
  190MPD1     N 2898   0.815   0.178  15.758 -0.0742 -0.5584 -0.0862
  190MPD1    H5 2899   0.877   0.118  15.705 -1.4865 -0.9868 -1.2440
  190MPD1    N1 2900   0.613   0.254  15.326 -0.2864  0.1937  0.4818
  190MPD1    H6 2901   0.526   0.285  15.283 -1.7458  0.7844  3.8658
  190MPD1    H7 2902   0.641   0.159  15.304 -0.7583  0.6175 -1.9759
  191MPD1     C 2903   0.254   1.400  12.825 -1.2487 -0.1935 -0.3579
  191MPD1    C1 2904   0.149   1.418  12.740  0.1565  0.3074  0.0745
  191MPD1    C2 2905   0.109   1.551  12.727 -0.4094 -0.0907 -0.5397
  191MPD1    C3 2906   0.174   1.661  12.786 -0.3498  0.5485 -1.1963
  191MPD1    C4 2907   0.266   1.633  12.888  0.4045 -0.3565 -0.0459
  191MPD1    C5 2908   0.297   1.504  12.907  0.5008 -0.4751 -0.6577
  191MPD1     H 2909   0.023   1.571  12.665 -1.0433 -1.9090 -0.2456
  191MPD1    H1 2910   0.317   1.709  12.946  2.6606 -1.6718 -0.3136
  191MPD1    H2 2911   0.297   1.301  12.829  1.5909  1.1557  2.0326
  191MPD1    H3 2912   0.371   1.484  12.984  0.1985 -1.7664 -0.6995
  191MPD1     N 2913   0.137   1.788  12.749  0.1283  0.0049 -0.2398
  191MPD1    H5 2914   0.058   1.802  12.688  0.2341  1.3918 -0.0500
  191MPD1    N1 2915   0.095   1.309  12.664 -0.8248 -0.4897  0.0792
  191MPD1    H6 2916   0.001   1.329  12.631 -0.5641 -1.2094 -1.1061
  191MPD1    H7 2917   0.102   1.225  12.721  0.4589 -0.0985  0.5054
  192MPD1     C 2918   4.401   2.282  12.104 -0.4071 -0.0861 -0.0837
  192MPD1    C1 2919   4.367   2.169  12.182  0.3914 -0.4712 -0.4690
  192MPD1    C2 2920   4.436   2.152  12.297  0.2907 -0.3915 -0.2703
  192MPD1    C3 2921   4.512   2.257  12.355  0.1855  0.4353  0.2465
  192MPD1    C4 2922   4.528   2.380  12.286 -0.5013  0.0143  0.2309
  192MPD1    C5 2923   4.476   2.382  12.154 -0.5380 -0.4392  0.5051
  192MPD1     H 2924   4.441   2.058  12.351 -0.8683  0.1219  0.7346
  192MPD1    H1 2925   4.566   2.473  12.327 -0.6807  0.5990 -0.9333
  192MPD1    H2 2926   4.359   2.290  12.004  1.3280  1.1903 -0.7100
  192MPD1    H3 2927   4.485   2.470  12.091  1.1490 -1.1913 -0.3166
  192MPD1     N 2928   4.567   2.247  12.483  0.5435 -0.1092  0.0270
  192MPD1    H5 2929   4.619   2.328  12.515  3.6263 -1.5537 -1.3936
  192MPD1    N1 2930   4.305   2.065  12.120 -0.0530 -0.2902  0.0644
  192MPD1    H6 2931   4.231   2.093  12.055 -0.3296 -3.3946 -0.9881
  192MPD1    H7 2932   4.262   2.007  12.192  0.4275 -0.1945  0.4264
  193MPD1     C 2933   0.060   1.820  16.387  0.5812 -0.8711 -0.2667
  193MPD1    C1 2934   0.033   1.871  16.511 -0.4045  0.4386  0.7046
  193MPD1    C2 2935   0.143   1.872  16.600  0.3249  0.1421  0.2164
  193MPD1    C3 2936   0.267   1.813  16.569 -0.1073 -0.2785  0.2485
  193MPD1    C4 2937   0.289   1.756  16.444  0.1131 -0.0641 -0.3146
  193MPD1    C5 2938   0.182   1.757  16.357 -0.6055 -0.1144  0.1729
  193MPD1     H 2939   0.131   1.916  16.699 -0.3439  1.8765 -0.6465
  193MPD1    H1 2940   0.386   1.714  16.419 -0.2994 -2.0195  1.3374
  193MPD1    H2 2941   4.714   1.834  16.304 -1.1070 -2.1661  0.8962
  193MPD1    H3 2942   0.201   1.713  16.260  0.7629 -0.1157  0.4419
  193MPD1     N 2943   0.382   1.817  16.653 -0.0768  0.4466 -0.5690
  193MPD1    H5 2944   0.471   1.778  16.626 -1.2049 -0.8148 -2.4134
  193MPD1    N1 2945   4.637   1.950  16.534 -0.5582  0.6348  0.5840
  193MPD1    H6 2946   4.622   1.953  16.634 -0.2246  0.6041  0.6361
  193MPD1    H7 2947   4.562   1.903  16.483 -0.1412  0.9799 -0.3487
  194MPD1     C 2948   1.540   3.699   0.091 -0.3097  0.0684 -0.4729
  194MPD1    C1 2949   1.575   3.612   0.185  0.6154 -0.7503 -0.3774
  194MPD1    C2 2950   1.706   3.559   0.178 -0.1222 -0.6328  0.2055
  194MPD1    C3 2951   1.792   3.580   0.073 -0.2427 -0.5624 -0.1675
  194MPD1    C4 2952   1.744   3.657  17.659  0.4273  0.2882  0.7205
  194MPD1    C5 2953   1.621   3.718  17.670  0.9461  0.5853  0.6401
  194MPD1     H 2954   1.738   3.503   0.265 -0.6837  0.3236  1.0316
  194MPD1    H1 2955   1.785   3.685  17.563  1.9950 -1.5087  0.8406
  194MPD1    H2 2956   1.442   3.744   0.086 -0.7035 -0.8277 -0.7856
  194MPD1    H3 2957   1.588   3.775  17.584 -2.2116 -2.0562  0.1073
  194MPD1     N 2958   1.920   3.519   0.064 -0.1284 -0.1216  0.1496
  194MPD1    H5 2959   1.975   3.526  17.667  0.8338  1.7519  0.9297
  194MPD1    N1 2960   1.501   3.599   0.307  0.6222 -0.1263  0.9594
  194MPD1    H6 2961   1.401   3.590   0.291  0.8056 -1.1231  0.3816
  194MPD1    H7 2962   1.517   3.510   0.355 -0.5749 -2.4920 -3.0389
  195MPD1     C 2963   0.548   4.623  17.280  0.2216 -0.3775  0.3015
  195MPD1    C1 2964   0.568   4.559  17.406  0.3690 -0.0539 -1.2052
  195MPD1    C2 2965   0.486   4.449  17.434 -0.3504 -0.4215  0.3592
  195MPD1    C3 2966   0.399   4.404  17.347 -0.4946 -1.3410 -0.1272
  195MPD1    C4 2967   0.381   4.459  17.217  0.3748  0.6410 -0.3836
  195MPD1    C5 2968   0.467   4.566  17.186  0.6006 -0.2648 -0.4367
  195MPD1     H 2969   0.507   4.392  17.524  2.4087 -0.3993 -0.2888
  195MPD1    H1 2970   0.311   4.422  17.144  0.9482  0.1657 -0.6901
  195MPD1    H2 2971   0.594   4.715  17.247  1.6965 -0.9376  0.8245
  195MPD1    H3 2972   0.441   4.612  17.092 -0.4772  1.1022  0.5200
  195MPD1     N 2973   0.307   4.294  17.377 -0.4615 -0.3507 -0.5465
  195MPD1    H5 2974   0.237   4.270  17.307 -1.1830 -0.1371  0.1079
  195MPD1    N1 2975   0.642   4.621  17.505  0.5074 -0.7538  0.7028
  195MPD1    H6 2976   0.723   4.666  17.462 -0.3018  0.8273  0.8537
  195MPD1    H7 2977   0.680   4.548  17.566 -0.2562 -0.4879  1.4973
  196MPD1     C 2978   4.091   0.337   0.394 -0.0559  0.4013  0.8116
  196MPD1    C1 2979   4.175   0.269   0.480  0.4775  0.3996 -0.0413
  196MPD1    C2 2980   4.156   0.271   0.615  0.2596 -0.2916  0.1538
  196MPD1    C3 2981   4.060   0.360   0.676  0.7357 -0.1091  0.1751
  196MPD1    C4 2982   3.976   0.424   0.582  0.5146 -0.1477 -0.0320
  196MPD1    C5 2983   3.989   0.403   0.449  0.1972  0.0183  0.3458
  196MPD1     H 2984   4.221   0.215   0.681  0.7866 -1.1099 -1.0520
  196MPD1    H1 2985   3.897   0.483   0.626 -0.1666  0.5791 -2.2501
  196MPD1    H2 2986   4.113   0.325   0.289 -0.6312 -0.9829  0.8378
  196MPD1    H3 2987   3.916   0.452   0.385  1.3510  0.6718 -0.4776
  196MPD1     N 2988   4.023   0.370   0.813 -0.4648  0.3460 -0.0851
  196MPD1    H5 2989   3.960   0.447   0.836  1.9083  1.7790  1.5224
  196MPD1    N1 2990   4.272   0.179   0.429  0.1383  0.2325 -0.4186
  196MPD1    H6 2991   4.314   0.197   0.338  1.2578  0.5616  0.1709
  196MPD1    H7 2992   4.344   0.181   0.501 -0.8328 -1.7785  0.6153
  197MPD1     C 2993   4.297   2.725   0.461 -0.3270 -0.1724  1.2197
  197MPD1    C1 2994   4.282   2.602   0.392 -0.1669 -0.6780 -1.0289
  197MPD1    C2 2995   4.199   2.596   0.285  0.3974  0.7011 -0.1384
  197MPD1    C3 2996   4.122   2.703   0.247  0.4257 -0.0885  0.1956
  197MPD1    C4 2997   4.136   2.819   0.314 -0.0648  0.6850 -1.2143
  197MPD1    C5 2998   4.223   2.832   0.423  0.1654  0.0166 -0.1253
  197MPD1     H 2999   4.186   2.507   0.225 -0.7691  1.0556 -0.4072
  197MPD1    H1 3000   4.080   2.905   0.280 -0.2989  0.9511 -0.1755
  197MPD1    H2 3001   4.356   2.736   0.552  2.0946  0.4232 -0.4361
  197MPD1    H3 3002   4.232   2.929   0.471  0.4743  0.3916 -0.9398
  197MPD1     N 3003   4.034   2.709   0.131  0.0646  0.8764 -0.0648
  197MPD1    H5 3004   3.987   2.795   0.109 -0.6086  1.0039  1.8923
  197MPD1    N1 3005   4.367   2.496   0.424 -0.1399 -0.2009  0.3135
  197MPD1    H6 3006   4.393   2.501   0.522  0.2821  1.1462  0.1209
  197MPD1    H7 3007   4.329   2.402   0.412 -1.0510 -0.1452  2.6488
  198MPD1     C 3008   4.596   1.734  15.328  0.1573  0.2744  0.1261
  198MPD1    C1 3009   4.683   1.705  15.227  0.4067  1.2555  0.5411
  198MPD1    C2 3010   0.091   1.653  15.257 -0.1511 -0.3968 -0.6374
  198MPD1    C3 3011   0.125   1.649  15.391 -0.2896 -0.1593  0.0032
  198MPD1    C4 3012   0.037   1.690  15.486 -0.3486  0.0477 -0.1125
  198MPD1    C5 3013   4.632   1.727  15.460 -0.1672  0.2186  0.3012
  198MPD1     H 3014   0.166   1.638  15.180  2.4433  0.1231  1.7630
  198MPD1    H1 3015   0.069   1.691  15.590 -0.7103 -1.3069  0.0199
  198MPD1    H2 3016   4.496   1.767  15.304 -0.2282 -0.0609  1.2875
  198MPD1    H3 3017   4.564   1.749  15.542  0.9098 -2.2134  1.8290
  198MPD1     N 3018   0.258   1.603  15.410 -0.6851  0.4045  0.1007
  198MPD1    H5 3019   0.310   1.577  15.327 -1.3460  3.4917 -1.2476
  198MPD1    N1 3020   4.632   1.707  15.099  0.0392  0.3859  0.3405
  198MPD1    H6 3021   4.568   1.786  15.087  1.4231  1.3294 -0.9928
  198MPD1    H7 3022   4.706   1.716  15.029  1.1534 -0.1080  1.4695
  199MPD1     C 3023   2.756   2.585   9.592 -0.2759 -0.1536 -0.3051
  199MPD1    C1 3024   2.817   2.689   9.654 -1.1675  0.4163  0.2820
  199MPD1    C2 3025   2.738   2.798   9.687 -0.3589  1.0773  0.1403
  199MPD1    C3 3026   2.607   2.816   9.636 -0.2207  0.3815 -0.7633
  199MPD1    C4 3027   2.550   2.706   9.574  0.1403 -0.0145  0.3985
  199MPD1    C5 3028   2.619   2.585   9.570  0.0439 -0.5485  0.8409
  199MPD1     H 3029   2.791   2.866   9.753  0.0254  0.2256  0.7192
  199MPD1    H1 3030   2.452   2.717   9.529  0.0022 -1.3131  0.3754
  199MPD1    H2 3031   2.797   2.485   9.579  2.6330  1.1532 -1.0558
  199MPD1    H3 3032   2.580   2.501   9.514  0.2771 -1.5035  2.1166
  199MPD1     N 3033   2.530   2.935   9.637  0.0714  0.1440 -0.3983
  199MPD1    H5 3034   2.434   2.928   9.606 -0.5098 -2.2469  1.9195
  199MPD1    N1 3035   2.943   2.671   9.715  0.7003  0.2741 -0.1226
  199MPD1    H6 3036   3.008   2.603   9.677 -1.5856 -1.5012 -0.8818
  199MPD1    H7 3037   2.987   2.756   9.748  0.2255  0.3481  0.3285
  200MPD1     C 3038   1.785   2.281  15.565 -1.0628 -0.0239  0.5178
  200MPD1    C1 3039   1.701   2.237  15.463 -0.2512 -0.2270 -0.2551
  200MPD1    C2 3040   1.715   2.268  15.328 -0.5607  0.1331  0.0791
  200MPD1    C3 3041   1.830   2.345  15.291 -0.0057  0.8145  0.3221
  200MPD1    C4 3042   1.916   2.396  15.389  0.8848  1.0131 -0.6315
  200MPD1    C5 3043   1.886   2.366  15.521  0.7992  0.4190 -0.8532
  200MPD1     H 3044   1.653   2.223  15.251 -1.3443 -1.4871  1.6407
  200MPD1    H1 3045   2.004   2.450  15.356  0.3019  2.1499 -0.3325
  200MPD1    H2 3046   1.777   2.260  15.671 -2.2420 -0.7132  0.2856
  200MPD1    H3 3047   1.943   2.408  15.603  3.2847 -0.5056 -2.0917
  200MPD1     N 3048   1.844   2.370  15.152 -0.1716 -0.6204  0.1146
  200MPD1    H5 3049   1.772   2.338  15.087 -2.0747  0.9822  1.4179
  200MPD1    N1 3050   1.600   2.149  15.499  0.2466 -0.4324 -0.7275
  200MPD1    H6 3051   1.590   2.133  15.599 -0.3845 -0.0169 -0.7248
  200MPD1    H7 3052   1.512   2.180  15.460  0.1180  1.6452  1.2100
  201MPD1     C 3053   4.374   1.818  13.443 -0.7836  0.0423 -0.7981
  201MPD1    C1 3054   4.466   1.723  13.406 -0.2127  0.7403  0.3227
  201MPD1    C2 3055   4.450   1.592  13.446  0.2241 -0.1557  0.0416
  201MPD1    C3 3056   4.341   1.546  13.515 -0.9834 -0.3821 -0.4093
  201MPD1    C4 3057   4.250   1.633  13.556 -0.6926  0.0583  0.0866
  201MPD1    C5 3058   4.277   1.766  13.521 -0.2640 -0.4081  0.0282
  201MPD1     H 3059   4.529   1.525  13.417  1.6982  1.6294 -0.0493
  201MPD1    H1 3060   4.162   1.617  13.617  0.0820 -1.6176  0.7616
  201MPD1    H2 3061   4.374   1.922  13.412 -0.2180  0.3057  0.0796
  201MPD1    H3 3062   4.202   1.835  13.559 -0.7630 -0.4096 -0.9558
  201MPD1     N 3063   4.324   1.407  13.537  0.3330  0.0809 -0.9016
  201MPD1    H5 3064   4.380   1.342  13.482  2.6229  0.4753  0.9380
  201MPD1    N1 3065   4.591   1.769  13.354  0.4765  0.2774  0.0653
  201MPD1    H6 3066   4.579   1.844  13.287 -1.6116 -2.1477 -2.2751
  201MPD1    H7 3067   4.641   1.699  13.299 -0.7982  0.1171 -0.8934
  202MPD1     C 3068   4.691   1.176   8.910 -0.3943  0.3624 -0.4129
  202MPD1    C1 3069   0.015   1.064   8.980 -0.3360 -0.4982 -0.3403
  202MPD1    C2 3070   4.648   1.009   9.069  0.3351 -0.7940 -0.2407
  202MPD1    C3 3071   4.539   1.072   9.115 -0.4034  0.1090 -0.2249
  202MPD1    C4 3072   4.508   1.189   9.059  0.5354  0.7823 -0.6423
  202MPD1    C5 3073   4.582   1.239   8.955  0.2841 -0.3774 -0.5917
  202MPD1     H 3074   4.679   0.915   9.114  0.3389 -0.3397  0.7119
  202MPD1    H1 3075   4.418   1.242   9.087 -0.7065 -1.8066  0.2527
  202MPD1    H2 3076   0.011   1.213   8.816 -0.2583  0.5017 -0.2973
  202MPD1    H3 3077   4.552   1.331   8.907  1.0054  0.3054  0.2666
  202MPD1     N 3078   4.458   1.030   9.228 -0.4341  0.2167 -0.2459
  202MPD1    H5 3079   4.382   1.092   9.256 -0.0894 -0.2898  1.8476
  202MPD1    N1 3080   0.121   0.996   8.917 -0.5281 -0.0576 -0.6009
  202MPD1    H6 3081   0.169   0.932   8.979 -0.3106 -0.5541 -1.2818
  202MPD1    H7 3082   0.192   1.060   8.883  0.0081 -1.0539 -1.3404
  203MPD1     C 3083   1.998   1.415  12.121 -0.7456  0.0316  1.0621
  203MPD1    C1 3084   2.089   1.410  12.020 -0.0075  0.1328 -0.0914
  203MPD1    C2 3085   2.227   1.416  12.043 -0.0407 -0.2374  0.3036
  203MPD1    C3 3086   2.266   1.400  12.172 -0.4058 -0.5765  0.0298
  203MPD1    C4 3087   2.174   1.410  12.276  0.0961 -0.7391 -0.6334
  203MPD1    C5 3088   2.040   1.412  12.248 -0.2940  0.1698 -1.1167
  203MPD1     H 3089   2.296   1.427  11.961  1.8344 -0.2319  1.8844
  203MPD1    H1 3090   2.203   1.398  12.380 -2.1762  0.3614  0.1470
  203MPD1    H2 3091   1.892   1.421  12.099 -0.5123  2.7070  0.6674
  203MPD1    H3 3092   1.966   1.433  12.325 -0.3456  0.8791 -1.3612
  203MPD1     N 3093   2.405   1.378  12.196 -0.3731 -0.3846  0.3397
  203MPD1    H5 3094   2.478   1.380  12.125 -0.9139  1.3906 -0.1745
  203MPD1    N1 3095   2.038   1.419  11.890 -0.1430  0.1504  0.5852
  203MPD1    H6 3096   1.953   1.364  11.888  0.7568 -1.2584  0.9386
  203MPD1    H7 3097   2.104   1.402  11.815  1.1283 -0.3265  1.8027
  204MPD1     C 3098   2.412   2.693   0.557 -0.8250 -0.3055 -0.5439
  204MPD1    C1 3099   2.377   2.563   0.523  0.1095  0.2194 -0.2635
  204MPD1    C2 3100   2.457   2.495   0.430  0.6678  0.4271 -0.0274
  204MPD1    C3 3101   2.557   2.558   0.360 -0.1017  0.0594 -0.2902
  204MPD1    C4 3102   2.570   2.693   0.372  0.6125 -0.1095 -0.0081
  204MPD1    C5 3103   2.502   2.763   0.475 -0.6982 -0.2312 -0.9890
  204MPD1     H 3104   2.448   2.387   0.425 -0.6338  0.4403  2.1763
  204MPD1    H1 3105   2.652   2.739   0.318 -0.1973  0.5066 -0.7121
  204MPD1    H2 3106   2.372   2.742   0.644  0.7978 -0.9816  0.5911
  204MPD1    H3 3107   2.533   2.864   0.500  0.0711 -0.6653 -0.2160
  204MPD1     N 3108   2.645   2.480   0.284  0.3555  0.3368 -0.4188
  204MPD1    H5 3109   2.617   2.386   0.259 -3.8245  0.9577  1.8950
  204MPD1    N1 3110   2.286   2.496   0.605  0.5179 -0.4576 -0.1039
  204MPD1    H6 3111   2.252   2.410   0.561  0.5315  0.1066 -1.2124
  204MPD1    H7 3112   2.201   2.550   0.618  0.1060 -0.7025 -1.7972
  205MPD1     C 3113   3.589   1.097  17.570  0.3972  0.2784  0.3034
  205MPD1    C1 3114   3.521   1.029  17.674  0.1696 -0.3243  0.4685
  205MPD1    C2 3115   3.389   1.065  17.685  0.2304 -0.0064 -0.2007
  205MPD1    C3 3116   3.327   1.158  17.600  0.7036 -0.2188 -0.3918
  205MPD1    C4 3117   3.398   1.221  17.501 -0.1369 -0.1996 -1.1039
  205MPD1    C5 3118   3.532   1.189  17.485  0.6215 -0.3808 -0.0023
  205MPD1     H 3119   3.331   1.021   0.078  1.0326 -0.1014  0.3226
  205MPD1    H1 3120   3.352   1.287  17.429  1.5216  0.3639 -1.6325
  205MPD1    H2 3121   3.692   1.083  17.538  0.5813 -0.9694  1.4420
  205MPD1    H3 3122   3.599   1.244  17.421  1.7800 -1.4023  0.3203
  205MPD1     N 3123   3.194   1.206  17.622  0.4463  0.4484 -0.2417
  205MPD1    H5 3124   3.162   1.272  17.552  1.9228 -0.6698 -1.9613
  205MPD1    N1 3125   3.597   0.972   0.086  0.1070 -0.3769 -0.1159
  205MPD1    H6 3126   3.556   0.904   0.149 -1.8246 -0.0264 -1.0222
  205MPD1    H7 3127   3.679   0.939   0.035 -0.1344 -1.1310 -0.0086
  206MPD1     C 3128   2.919   4.316  16.775 -0.2278  0.4452  0.4995
  206MPD1    C1 3129   2.806   4.396  16.793  1.1749  0.5441  0.5413
  206MPD1    C2 3130   2.690   4.370  16.712  0.7926 -0.1654 -0.6636
  206MPD1    C3 3131   2.690   4.275  16.612 -0.1658 -0.0688 -0.5455
  206MPD1    C4 3132   2.804   4.207  16.593  0.0468 -0.3744 -0.5532
  206MPD1    C5 3133   2.923   4.225  16.675 -0.4351 -0.3886  0.2152
  206MPD1     H 3134   2.604   4.424  16.750  2.2508  2.0372 -0.5621
  206MPD1    H1 3135   2.819   4.138  16.511  3.9831  0.1723 -0.3127
  206MPD1    H2 3136   3.009   4.331  16.833 -0.3260  0.4012  0.6632
  206MPD1    H3 3137   3.012   4.165  16.656 -1.4206 -1.3059 -1.5106
  206MPD1     N 3138   2.581   4.242  16.528  0.2354  0.6202 -0.1582
  206MPD1    H5 3139   2.594   4.183  16.446  0.2952  1.0093 -0.4264
  206MPD1    N1 3140   2.796   4.461  16.916  0.0016 -0.0837 -0.0255
  206MPD1    H6 3141   2.885   4.500  16.949 -0.6554  2.8318 -1.6576
  206MPD1    H7 3142   2.716   4.523  16.924 -1.6569 -2.1348 -0.7011
  207MPD1     C 3143   0.330   1.567   9.775  0.0427 -0.0145  0.2804
  207MPD1    C1 3144   0.372   1.474   9.867 -0.1683 -0.0778  0.5192
  207MPD1    C2 3145   0.473   1.515   9.956 -0.9773  0.0077 -0.1178
  207MPD1    C3 3146   0.509   1.649   9.961  0.9394  0.6593 -0.6297
  207MPD1    C4 3147   0.442   1.743   9.886 -0.3099  0.0708 -0.3090
  207MPD1    C5 3148   0.349   1.703   9.794 -0.3551  0.1121  0.2258
  207MPD1     H 3149   0.525   1.441  10.016 -2.2520  1.0705  2.2897
  207MPD1    H1 3150   0.459   1.850   9.881 -2.0280  0.3976  0.9607
  207MPD1    H2 3151   0.259   1.547   9.695 -0.5992  1.0797  0.5817
  207MPD1    H3 3152   0.285   1.764   9.732 -1.2105 -1.6988 -0.6754
  207MPD1     N 3153   0.621   1.697  10.037 -0.0244  0.4447 -0.6905
  207MPD1    H5 3154   0.647   1.794  10.018 -1.0114  1.3341  2.5519
  207MPD1    N1 3155   0.339   1.335   9.848  0.6293  0.4412  0.6362
  207MPD1    H6 3156   0.350   1.283   9.934 -0.7498  0.2474  0.7012
  207MPD1    H7 3157   0.242   1.318   9.823  0.6880  0.0953  0.6474
  208MPD1     C 3158   3.678   0.606   0.462  0.0303 -0.6878  0.2038
  208MPD1    C1 3159   3.640   0.655   0.585  0.1517  0.2212 -0.0944
  208MPD1    C2 3160   3.511   0.614   0.623  0.5793 -0.3228  0.3536
  208MPD1    C3 3161   3.440   0.515   0.563  0.3735  0.0320  0.3261
  208MPD1    C4 3162   3.498   0.454   0.452  0.1008 -0.9902 -0.7652
  208MPD1    C5 3163   3.614   0.502   0.394 -0.2701 -0.3451 -0.2883
  208MPD1     H 3164   3.467   0.660   0.710 -2.3510  1.7529 -2.2319
  208MPD1    H1 3165   3.438   0.380   0.399 -1.8203 -1.0140  1.4217
  208MPD1    H2 3166   3.769   0.650   0.422  0.1980 -0.1312  1.1941
  208MPD1    H3 3167   3.651   0.473   0.296 -2.5431 -0.4211 -1.1246
  208MPD1     N 3168   3.307   0.503   0.595  0.3809  0.0639  0.4169
  208MPD1    H5 3169   3.272   0.542   0.682  0.3554  1.3895 -0.1826
  208MPD1    N1 3170   3.704   0.761   0.653  0.1847 -1.1797  0.6167
  208MPD1    H6 3171   3.663   0.776   0.744  2.1442 -0.0127  1.2996
  208MPD1    H7 3172   3.686   0.851   0.608 -2.0255 -2.4639 -1.1002
  209MPD1     C 3173   0.919   1.590  11.922 -1.3156  0.3857 -0.4102
  209MPD1    C1 3174   0.908   1.721  11.909  0.0321 -0.6773  0.2667
  209MPD1    C2 3175   0.963   1.775  11.797 -0.0716  0.4609  0.6759
  209MPD1    C3 3176   1.011   1.688  11.697 -0.1820 -1.3942  0.3844
  209MPD1    C4 3177   1.011   1.550  11.706  0.0757 -0.6451 -0.0066
  209MPD1    C5 3178   0.980   1.506  11.832 -0.3366 -0.6306 -0.5391
  209MPD1     H 3179   0.977   1.882  11.795 -0.0722  0.4193 -0.9919
  209MPD1    H1 3180   1.049   1.482  11.631 -0.5507 -1.0814  0.0778
  209MPD1    H2 3181   0.896   1.537  12.015  1.2614  1.3559  0.7655
  209MPD1    H3 3182   0.981   1.401  11.862  0.7466 -0.2163  0.8547
  209MPD1     N 3183   1.060   1.751  11.578  0.4638  0.6288  0.5062
  209MPD1    H5 3184   1.046   1.851  11.581 -1.9245  0.3831 -3.5867
  209MPD1    N1 3185   0.864   1.795  12.021 -0.4900  0.5103 -0.6814
  209MPD1    H6 3186   0.821   1.884  11.995  0.0840  1.0699  0.2723
  209MPD1    H7 3187   0.786   1.755  12.072 -1.3890  0.0185 -2.4359
  210MPD1     C 3188   1.475   2.497  11.038  0.2753  0.2488 -0.2176
  210MPD1    C1 3189   1.461   2.471  11.176 -0.5453  0.5909 -0.3930
  210MPD1    C2 3190   1.415   2.347  11.215 -0.0569 -0.4090  0.1922
  210MPD1    C3 3191   1.378   2.252  11.117  0.3443  0.1836  0.7017
  210MPD1    C4 3192   1.403   2.281  10.977 -0.3476  0.0711 -0.1119
  210MPD1    C5 3193   1.446   2.403  10.941 -0.0958  0.4937  0.6760
  210MPD1     H 3194   1.413   2.319  11.320  1.1042  1.3663  0.6758
  210MPD1    H1 3195   1.381   2.214  10.895  1.0645 -1.4166  0.7148
  210MPD1    H2 3196   1.486   2.599  11.003 -1.5719  1.0065  1.3808
  210MPD1    H3 3197   1.464   2.429  10.837 -1.0585  0.3811  0.4873
  210MPD1     N 3198   1.320   2.133  11.141 -0.2740  1.2849 -0.2326
  210MPD1    H5 3199   1.290   2.085  11.057  0.7370  0.2576 -0.0036
  210MPD1    N1 3200   1.489   2.571  11.264 -0.3196  0.4498 -0.3119
  210MPD1    H6 3201   1.503   2.542  11.361 -0.3435  2.1272  0.2106
  210MPD1    H7 3202   1.562   2.635  11.231  2.2547 -2.5898 -0.4874
  211MPD1     C 3203   3.210   0.622  15.792 -0.0599 -0.3776  0.1461
  211MPD1    C1 3204   3.228   0.755  15.826  0.0804 -0.0418 -0.1145
  211MPD1    C2 3205   3.123   0.847  15.811 -0.2086 -0.0982  0.1957
  211MPD1    C3 3206   3.011   0.806  15.739 -1.3439 -0.2294 -1.4152
  211MPD1    C4 3207   2.998   0.675  15.695  0.1045 -0.0261 -0.0680
  211MPD1    C5 3208   3.095   0.586  15.721  0.2958  0.1009 -0.5868
  211MPD1     H 3209   3.126   0.949  15.846 -1.6906  0.1613 -0.4519
  211MPD1    H1 3210   2.917   0.641  15.632  0.3582 -3.0306  1.2216
  211MPD1    H2 3211   3.291   0.555  15.821  0.4182  0.4850  0.8269
  211MPD1    H3 3212   3.093   0.495  15.663 -0.2921  1.0956 -2.1229
  211MPD1     N 3213   2.915   0.908  15.715  0.6541  0.3762 -0.9183
  211MPD1    H5 3214   2.928   1.001  15.752 -0.2955  0.6430 -1.2461
  211MPD1    N1 3215   3.342   0.794  15.898  0.5650 -0.4173  0.2190
  211MPD1    H6 3216   3.417   0.727  15.886  0.1001 -0.7559 -0.7908
  211MPD1    H7 3217   3.372   0.885  15.863  0.1902 -0.3848 -0.0189
  212MPD1     C 3218   2.154   4.107  16.690 -0.0555 -0.1695  0.1930
  212MPD1    C1 3219   2.051   4.132  16.784 -0.1570  0.0206  0.0353
  212MPD1    C2 3220   1.922   4.093  16.765  0.5595  0.1727 -0.4735
  212MPD1    C3 3221   1.895   4.003  16.666 -0.6410 -0.1058 -0.1800
  212MPD1    C4 3222   1.994   3.975  16.570 -0.3049  0.3929 -0.0901
  212MPD1    C5 3223   2.115   4.036  16.579 -0.8518 -0.3968  0.4252
  212MPD1     H 3224   1.850   4.100  16.846 -0.2525 -0.7301 -1.1123
  212MPD1    H1 3225   1.978   3.894  16.499 -2.3971  0.7499 -0.0295
  212MPD1    H2 3226   2.251   4.153  16.699  0.8670 -1.8008 -1.4633
  212MPD1    H3 3227   2.194   4.015  16.507 -1.2645  0.8458 -0.3901
  212MPD1     N 3228   1.774   3.934  16.653  0.2583  0.0945  0.5433
  212MPD1    H5 3229   1.776   3.865  16.578  2.0991  0.7932 -0.0402
  212MPD1    N1 3230   2.075   4.226  16.887  0.2449 -0.8046  0.1791
  212MPD1    H6 3231   2.025   4.209  16.973  0.3434 -2.3959 -0.0857
  212MPD1    H7 3232   2.175   4.232  16.904  0.2855  0.9890 -0.6756
  213MPD1     C 3233   0.137   0.066  15.582  0.2131  0.6808  0.2686
  213MPD1    C1 3234   4.720   0.052  15.560 -0.5004 -0.3336 -0.1529
  213MPD1    C2 3235   4.655   0.154  15.481  0.1122 -0.0264  0.3880
  213MPD1    C3 3236   0.009   0.232  15.395  0.2343  0.0650 -0.3404
  213MPD1    C4 3237   0.145   0.222  15.401 -0.1284  0.0856 -0.5893
  213MPD1    C5 3238   0.206   0.137  15.487 -0.8534  0.6790  0.8297
  213MPD1     H 3239   4.548   0.169  15.477  0.2190  1.0522  1.5418
  213MPD1    H1 3240   0.208   0.285  15.339  1.2044  0.5855  1.2766
  213MPD1    H2 3241   0.191   0.006  15.655 -1.7524  1.2390  2.1916
  213MPD1    H3 3242   0.313   0.129  15.498 -1.1508 -1.1701  2.3206
  213MPD1     N 3243   4.661   0.325  15.303 -0.4220 -0.5723 -0.5289
  213MPD1    H5 3244   4.566   0.302  15.274 -0.7263  2.3103 -1.8559
  213MPD1    N1 3245   4.645   4.709  15.658 -0.3250  0.2315  0.0214
  213MPD1    H6 3246   4.675   4.630  15.714 -0.5801  0.3342  0.3033
  213MPD1    H7 3247   4.550   4.697  15.623  0.1703 -0.1915 -1.2007
  214MPD1     C 3248   3.862   0.205  15.174 -0.2716  0.1438  0.5755
  214MPD1    C1 3249   3.949   0.209  15.278  0.6066 -0.3918  0.7149
  214MPD1    C2 3250   4.064   0.289  15.252  0.3020  0.0454  0.5325
  214MPD1    C3 3251   4.099   0.333  15.128 -0.0162  0.2991 -0.8538
  214MPD1    C4 3252   4.022   0.295  15.021 -0.5376 -0.4218 -0.0522
  214MPD1    C5 3253   3.900   0.247  15.053  0.2488  0.5071 -0.1265
  214MPD1     H 3254   4.122   0.316  15.340  2.8724  1.5654 -1.6431
  214MPD1    H1 3255   4.049   0.307  14.917  2.3670 -0.3134  0.7119
  214MPD1    H2 3256   3.763   0.161  15.182  0.4617 -1.7661 -1.0160
  214MPD1    H3 3257   3.838   0.229  14.967  0.0819  0.7992 -0.0683
  214MPD1     N 3258   4.221   0.401  15.121 -0.0508  0.0562  0.4913
  214MPD1    H5 3259   4.270   0.409  15.209  0.3021 -2.7537  0.5608
  214MPD1    N1 3260   3.910   0.170  15.401  0.8614 -0.5665  0.0055
  214MPD1    H6 3261   3.987   0.125  15.449  0.7109 -2.3461 -1.4310
  214MPD1    H7 3262   3.840   0.096  15.395 -1.0702  1.1088  1.4957
  215MPD1     C 3263   0.679   0.869  10.595 -0.0354  0.0179 -0.0469
  215MPD1    C1 3264   0.750   0.927  10.694  0.1106  0.2448  1.4432
  215MPD1    C2 3265   0.736   1.059  10.721  0.5991 -0.5935 -0.5320
  215MPD1    C3 3266   0.628   1.126  10.667 -0.4749  0.7887  0.1807
  215MPD1    C4 3267   0.551   1.067  10.569  0.0211  0.3615  0.8643
  215MPD1    C5 3268   0.579   0.937  10.531 -0.5753 -0.3205  0.8101
  215MPD1     H 3269   0.806   1.096  10.795 -0.9790 -0.5047  0.9093
  215MPD1    H1 3270   0.468   1.120  10.524  0.1633 -0.4434 -0.3411
  215MPD1    H2 3271   0.689   0.765  10.568 -0.9267 -0.2796  0.7915
  215MPD1    H3 3272   0.525   0.894  10.447 -0.2141  0.4022  0.2033
  215MPD1     N 3273   0.623   1.269  10.693 -0.5650 -0.7992  0.3430
  215MPD1    H5 3274   0.687   1.303  10.765 -0.5410 -1.7812  0.7816
  215MPD1    N1 3275   0.855   0.860  10.758 -0.5671  0.4986 -0.3083
  215MPD1    H6 3276   0.862   0.865  10.860  2.1954 -1.6041 -0.3893
  215MPD1    H7 3277   0.857   0.761  10.733 -0.6463  0.2591  0.6097
  216MPD1     C 3278   0.558   3.597   0.700  0.0919  0.6909 -0.4387
  216MPD1    C1 3279   0.600   3.591   0.572  0.3825 -0.2101  0.7061
  216MPD1    C2 3280   0.718   3.514   0.549 -0.4716  0.1955  0.0751
  216MPD1    C3 3281   0.790   3.461   0.648  0.3606  0.1513  0.0904
  216MPD1    C4 3282   0.738   3.478   0.775  0.6958 -0.1591 -0.5978
  216MPD1    C5 3283   0.630   3.556   0.803 -0.2158  0.8253  0.3500
  216MPD1     H 3284   0.743   3.488   0.447  0.3547 -1.2527  0.6545
  216MPD1    H1 3285   0.787   3.435   0.862  1.7645 -1.7944 -2.0107
  216MPD1    H2 3286   0.475   3.664   0.723  0.7728  1.0673  0.9692
  216MPD1    H3 3287   0.602   3.563   0.908  0.5457  0.1101  0.5987
  216MPD1     N 3288   0.913   3.401   0.614 -0.4178  0.1202 -0.2437
  216MPD1    H5 3289   0.929   3.383   0.515  1.2955  1.5047 -0.2251
  216MPD1    N1 3290   0.509   3.634   0.471  0.1983  0.7383 -0.1263
  216MPD1    H6 3291   0.447   3.710   0.498 -0.1805  0.8514 -1.3270
  216MPD1    H7 3292   0.567   3.665   0.394 -0.7347  1.7075 -0.4312
  217MPD1     C 3293   2.317   1.898   8.357  0.2859 -0.4238  0.2539
  217MPD1    C1 3294   2.433   1.833   8.328  0.0990  0.2996 -0.2801
  217MPD1    C2 3295   2.503   1.783   8.438  0.4214 -0.5573 -0.2065
  217MPD1    C3 3296   2.460   1.785   8.569 -0.0974  0.7193 -0.6994
  217MPD1    C4 3297   2.345   1.853   8.597  0.6549  0.3108 -0.0042
  217MPD1    C5 3298   2.279   1.909   8.490 -0.3870 -0.5777  0.1833
  217MPD1     H 3299   2.596   1.730   8.417  2.4042  3.1115 -0.7673
  217MPD1    H1 3300   2.301   1.855   8.696  2.0555 -0.5323  0.6300
  217MPD1    H2 3301   2.256   1.941   8.279 -0.8172 -3.1027 -0.3376
  217MPD1    H3 3302   2.190   1.964   8.515 -1.4485 -1.4289 -1.7721
  217MPD1     N 3303   2.518   1.724   8.680 -0.3342  0.1901 -0.0576
  217MPD1    H5 3304   2.477   1.756   8.767 -1.0565  1.6217 -0.9276
  217MPD1    N1 3305   2.475   1.826   8.201 -0.2250  0.9941  0.5156
  217MPD1    H6 3306   2.543   1.751   8.186  0.1862  1.2183  1.2361
  217MPD1    H7 3307   2.399   1.819   8.135 -0.5188  0.5861  0.8969
  218MPD1     C 3308   4.576   0.226  12.802 -0.1496  0.1341  0.4049
  218MPD1    C1 3309   4.464   0.306  12.787  0.7272 -0.4087 -0.3320
  218MPD1    C2 3310   4.479   0.441  12.797 -0.3590  0.6656 -0.3336
  218MPD1    C3 3311   4.595   0.500  12.838 -0.0300 -0.1793  0.8235
  218MPD1    C4 3312   4.700   0.418  12.859 -0.0117 -0.2968  0.2395
  218MPD1    C5 3313   4.692   0.280  12.840 -0.0048 -0.3605 -0.2131
  218MPD1     H 3314   4.391   0.501  12.778  0.0900  0.9857 -1.3637
  218MPD1    H1 3315   0.077   0.459  12.877 -0.1847 -0.1291  0.7819
  218MPD1    H2 3316   4.573   0.120  12.781 -2.4633  0.2788 -0.0012
  218MPD1    H3 3317   0.058   0.217  12.849  0.6850  0.0482 -4.0522
  218MPD1     N 3318   4.592   0.635  12.870 -0.6341  0.1528  0.2179
  218MPD1    H5 3319   4.500   0.674  12.883 -1.6947 -2.2169 -0.1957
  218MPD1    N1 3320   4.354   0.243  12.730 -0.6298 -0.4092  0.8124
  218MPD1    H6 3321   4.356   0.141  12.733  1.0542 -0.3342  1.9333
  218MPD1    H7 3322   4.261   0.284  12.732 -0.4996 -0.1921  2.0546
  219MPD1     C 3323   4.466   1.333  12.373 -0.0744  0.1639 -0.4563
  219MPD1    C1 3324   4.360   1.314  12.452  0.3678  0.2464 -1.1444
  219MPD1    C2 3325   4.380   1.241  12.576  0.4038 -0.2288  0.7740
  219MPD1    C3 3326   4.496   1.165  12.599 -0.6260  0.1924  0.1897
  219MPD1    C4 3327   4.593   1.161  12.501 -0.0520  0.7435 -0.6598
  219MPD1    C5 3328   4.580   1.256  12.396 -0.0741  0.5261 -0.8133
  219MPD1     H 3329   4.301   1.241  12.650  0.4721 -1.3984  0.8453
  219MPD1    H1 3330   4.689   1.112  12.508  0.2329  1.8703  3.4268
  219MPD1    H2 3331   4.476   1.409  12.296  0.0276 -1.2516 -1.8223
  219MPD1    H3 3332   4.650   1.269  12.315 -0.9226 -0.8701 -1.7607
  219MPD1     N 3333   4.526   1.098  12.721  0.6947 -0.0621 -0.1346
  219MPD1    H5 3334   4.612   1.044  12.718  0.8499  0.2878 -2.0279
  219MPD1    N1 3335   4.242   1.393  12.438  0.2449 -1.1549  0.1279
  219MPD1    H6 3336   4.222   1.402  12.339  0.1737  1.8601  0.4163
  219MPD1    H7 3337   4.159   1.349  12.478 -1.4034 -0.2212 -2.2759
  220MPD1     C 3338   4.717   1.082  10.079 -0.3152  0.0921  0.0710
  220MPD1    C1 3339   0.066   1.168  10.165  0.1124 -0.1332 -0.0761
  220MPD1    C2 3340   0.053   1.302  10.134 -0.4663  0.2006  0.4727
  220MPD1    C3 3341   4.679   1.344  10.043  0.0408  0.3245  0.1091
  220MPD1    C4 3342   4.587   1.258   9.990  0.4959 -0.0661  0.2175
  220MPD1    C5 3343   4.616   1.125   9.996 -0.3455  0.4569 -0.4814
  220MPD1     H 3344   0.118   1.375  10.180 -1.1634  2.3164 -1.8807
  220MPD1    H1 3345   4.503   1.287   9.927  1.6601 -0.3563 -1.4722
  220MPD1    H2 3346   0.031   0.980  10.070 -1.8929 -0.4909  0.4018
  220MPD1    H3 3347   4.564   1.065   9.922  0.1428  3.4368 -3.2387
  220MPD1     N 3348   4.680   1.484  10.021 -0.1374  0.9453  0.3436
  220MPD1    H5 3349   0.017   1.538  10.084  1.1275  1.8448 -1.6361
  220MPD1    N1 3350   0.170   1.115  10.248 -0.0151  0.3387 -0.4526
  220MPD1    H6 3351   0.204   1.185  10.313  1.0861 -0.1994 -0.4538
  220MPD1    H7 3352   0.127   1.036  10.297  1.1928  1.4032  2.3084
  221MPD1     C 3353   2.599   1.328  16.405  0.2340 -0.5848  0.5052
  221MPD1    C1 3354   2.474   1.289  16.430 -0.0267 -0.5829 -0.3595
  221MPD1    C2 3355   2.449   1.183  16.512  0.9918  0.1642 -0.3239
  221MPD1    C3 3356   2.557   1.097  16.545  0.1363 -0.5008  0.2837
  221MPD1    C4 3357   2.685   1.139  16.513 -0.2361 -0.1621 -0.9074
  221MPD1    C5 3358   2.707   1.253  16.447 -0.4455  0.5010  0.4549
  221MPD1     H 3359   2.349   1.145  16.527  0.4648  1.6506 -0.0698
  221MPD1    H1 3360   2.773   1.078  16.528 -0.8586 -1.1597 -1.3183
  221MPD1    H2 3361   2.609   1.414  16.341 -2.0503 -1.6464 -1.2724
  221MPD1    H3 3362   2.811   1.276  16.423 -0.5086  1.0577  0.7108
  221MPD1     N 3363   2.543   0.964  16.601  0.1049 -0.3430  0.4237
  221MPD1    H5 3364   2.630   0.924  16.637 -0.2787 -1.1033  0.5098
  221MPD1    N1 3365   2.367   1.371  16.389 -0.2998  0.1566 -0.2522
  221MPD1    H6 3366   2.283   1.319  16.364 -0.5241  0.4554 -0.1194
  221MPD1    H7 3367   2.390   1.438  16.317 -1.8205 -0.0159 -0.8894
  222MPD1     C 3368   2.736   3.869  16.566  0.0899 -0.1787 -1.0461
  222MPD1    C1 3369   2.672   3.793  16.474  0.2081  0.1293  0.1729
  222MPD1    C2 3370   2.539   3.755  16.475 -0.4119  0.9161 -0.1675
  222MPD1    C3 3371   2.468   3.790  16.594 -0.5147 -0.5526  0.8131
  222MPD1    C4 3372   2.530   3.866  16.688 -0.1050 -0.1794  0.0452
  222MPD1    C5 3373   2.668   3.896  16.679 -0.2600  0.4024 -0.1912
  222MPD1     H 3374   2.499   3.700  16.391 -0.3013  1.0675 -0.3192
  222MPD1    H1 3375   2.477   3.919  16.766  0.3448  0.0902  0.1705
  222MPD1    H2 3376   2.831   3.919  16.550  0.8470 -1.2604  0.0122
  222MPD1    H3 3377   2.712   3.957  16.757 -1.1838 -0.5837  1.0942
  222MPD1     N 3378   2.333   3.761  16.613 -0.4854 -0.0829 -0.2732
  222MPD1    H5 3379   2.301   3.799  16.702  2.0057  1.5476 -0.0758
  222MPD1    N1 3380   2.738   3.768  16.354  0.0785  0.3666 -0.1684
  222MPD1    H6 3381   2.836   3.756  16.379  0.1788 -0.1277 -0.8070
  222MPD1    H7 3382   2.695   3.685  16.314 -0.6964  0.7345 -0.0945
  223MPD1     C 3383   1.907   2.852  16.856  0.4128 -0.4757 -0.3436
  223MPD1    C1 3384   1.866   2.947  16.942 -0.0491 -0.6664  0.4628
  223MPD1    C2 3385   1.867   3.077  16.899  0.4443 -1.1049  0.2191
  223MPD1    C3 3386   1.920   3.113  16.775 -0.4450  0.0639  0.5613
  223MPD1    C4 3387   1.962   3.013  16.687 -0.0327  0.0559  0.3033
  223MPD1    C5 3388   1.948   2.884  16.730  0.7901 -0.5693  0.2415
  223MPD1     H 3389   1.842   3.151  16.973  1.8733 -0.6031  0.1890
  223MPD1    H1 3390   2.019   3.027  16.596 -0.9223  0.3328 -0.2088
  223MPD1    H2 3391   1.916   2.747  16.880  3.3019 -0.9553 -3.5834
  223MPD1    H3 3392   1.975   2.808  16.658 -0.1881  1.3079 -2.1137
  223MPD1     N 3393   1.935   3.247  16.752 -0.5737 -0.1807 -0.4420
  223MPD1    H5 3394   1.905   3.303  16.831 -3.2164 -2.0053 -0.1380
  223MPD1    N1 3395   1.784   2.905  17.049 -0.2032 -0.1194 -0.1765
  223MPD1    H6 3396   1.801   2.809  17.079  0.8954 -0.0110 -0.4433
  223MPD1    H7 3397   1.799   2.966  17.129  1.5617 -0.8523  0.0552
  224MPD1     C 3398   2.823   1.968   8.659 -0.1351  0.8133 -0.2672
  224MPD1    C1 3399   2.896   1.854   8.677  0.5304  0.7821 -0.2749
  224MPD1    C2 3400   2.919   1.808   8.805  0.4589 -0.2538 -0.6033
  224MPD1    C3 3401   2.872   1.874   8.917  0.0465  0.4786 -0.8179
  224MPD1    C4 3402   2.789   1.981   8.891 -0.4642 -0.7579 -0.4191
  224MPD1    C5 3403   2.763   2.035   8.765  0.8291 -0.5489  0.2141
  224MPD1     H 3404   2.989   1.727   8.822 -1.4608 -1.6235  0.6253
  224MPD1    H1 3405   2.744   2.037   8.972 -1.3050 -2.6462  0.4116
  224MPD1    H2 3406   2.819   2.010   8.559  2.0017  0.1074 -0.6335
  224MPD1    H3 3407   2.709   2.127   8.749  0.6051 -0.5293  1.0699
  224MPD1     N 3408   2.899   1.841   9.054 -0.2171 -0.0505 -0.4653
  224MPD1    H5 3409   2.853   1.901   9.123  0.0548 -0.9609  0.5052
  224MPD1    N1 3410   2.964   1.803   8.565 -0.0411 -0.1026 -0.0490
  224MPD1    H6 3411   2.988   1.705   8.551  0.4224  0.2683 -1.8719
  224MPD1    H7 3412   2.916   1.836   8.481 -0.6873 -2.2101 -0.5270
  225MPD1     C 3413   4.605   1.514  12.989 -0.2525  0.1644  0.5571
  225MPD1    C1 3414   4.629   1.647  13.023 -0.5775  0.7649 -0.6290
  225MPD1    C2 3415   4.540   1.735  12.960  0.4182  1.0444 -0.8060
  225MPD1    C3 3416   4.448   1.699  12.854 -0.6542  0.1398 -0.7355
  225MPD1    C4 3417   4.440   1.567  12.817 -1.2565 -0.2400  0.2734
  225MPD1    C5 3418   4.523   1.485  12.888 -0.6576  0.0336  0.4702
  225MPD1     H 3419   4.551   1.840  12.985 -1.9683  0.8208  1.2239
  225MPD1    H1 3420   4.389   1.530  12.729  0.6952  0.1141 -1.0101
  225MPD1    H2 3421   4.666   1.435  13.032 -0.3549 -0.4856 -0.4861
  225MPD1    H3 3422   4.525   1.381  12.859 -2.0866  0.4597 -1.1092
  225MPD1     N 3423   4.365   1.792  12.789 -0.3428  0.3863  0.2061
  225MPD1    H5 3424   4.307   1.749  12.717 -3.0901  0.9274  2.0732
  225MPD1    N1 3425   0.005   1.679  13.123 -0.3431  0.1811  1.0351
  225MPD1    H6 3426   0.042   1.774  13.124 -0.4697  0.2249  1.5504
  225MPD1    H7 3427   0.081   1.611  13.125 -1.1202 -0.6746  1.5035
  226MPD1     C 3428   2.524   3.236   9.332  0.5355  0.2285  0.8153
  226MPD1    C1 3429   2.662   3.252   9.327 -0.4847 -0.1834 -0.1306
  226MPD1    C2 3430   2.743   3.138   9.327 -0.2538 -0.7726 -0.6260
  226MPD1    C3 3431   2.689   3.011   9.315 -0.5855  0.0760  0.2397
  226MPD1    C4 3432   2.555   2.999   9.317  0.1924  0.3284 -0.0207
  226MPD1    C5 3433   2.474   3.108   9.330  0.3531 -0.5929  0.2389
  226MPD1     H 3434   2.850   3.150   9.343 -0.4843 -0.4082  0.6114
  226MPD1    H1 3435   2.518   2.897   9.319  0.9321  0.0436 -0.9771
  226MPD1    H2 3436   2.453   3.317   9.317 -1.7296 -1.5007  2.2834
  226MPD1    H3 3437   2.367   3.095   9.325  0.3104  0.5696 -1.8753
  226MPD1     N 3438   2.776   2.901   9.309  0.6266 -0.1503  0.4726
  226MPD1    H5 3439   2.870   2.930   9.337  0.1134  0.5717  1.4437
  226MPD1    N1 3440   2.714   3.385   9.320  0.1285 -0.1040 -0.7150
  226MPD1    H6 3441   2.792   3.395   9.384 -1.0554  6.1746 -0.2694
  226MPD1    H7 3442   2.639   3.450   9.343  1.1724  0.4451  1.1385
  227MPD1     C 3443   3.563   3.040   9.597  0.0208  0.1348  0.5174
  227MPD1    C1 3444   3.462   3.115   9.538 -0.6427  0.7824  0.0879
  227MPD1    C2 3445   3.346   3.043   9.502 -0.1109  0.2970 -0.2242
  227MPD1    C3 3446   3.344   2.898   9.495  0.0663  0.0845 -0.1076
  227MPD1    C4 3447   3.463   2.829   9.524 -0.6882  0.1703  0.6504
  227MPD1    C5 3448   3.562   2.901   9.586  0.0015  0.4157  0.1988
  227MPD1     H 3449   3.258   3.104   9.489 -0.8906 -0.9083 -0.5584
  227MPD1    H1 3450   3.480   2.724   9.505 -1.3538  0.3495 -0.9601
  227MPD1    H2 3451   3.645   3.091   9.647 -1.5992  1.1143  2.1412
  227MPD1    H3 3452   3.652   2.846   9.613  0.4476  2.1467  2.2527
  227MPD1     N 3453   3.235   2.833   9.437  0.4816  0.0066 -0.5752
  227MPD1    H5 3454   3.154   2.886   9.408  0.0379 -0.2191  0.2512
  227MPD1    N1 3455   3.451   3.250   9.570 -0.4145  0.3097  0.6936
  227MPD1    H6 3456   3.397   3.290   9.493 -2.2003 -1.2649  1.1323
  227MPD1    H7 3457   3.541   3.298   9.569 -0.5099  0.4768 -1.2514
  228MPD1     C 3458   1.556   4.383  13.491 -0.5483 -0.1241  0.3807
  228MPD1    C1 3459   1.476   4.491  13.491 -0.5005  0.1781 -0.0865
  228MPD1    C2 3460   1.361   4.496  13.405 -0.7948  0.1053 -0.5227
  228MPD1    C3 3461   1.322   4.388  13.338 -1.0759 -0.6980 -0.2878
  228MPD1    C4 3462   1.398   4.273  13.355 -0.1277 -0.3611 -0.2885
  228MPD1    C5 3463   1.511   4.273  13.422 -0.1578  0.1649  0.5689
  228MPD1     H 3464   1.298   4.584  13.400 -2.4487 -0.9859  1.0614
  228MPD1    H1 3465   1.370   4.178  13.311 -1.5687 -0.6381  1.1843
  228MPD1    H2 3466   1.647   4.373  13.550  0.3878  1.3075 -0.8285
  228MPD1    H3 3467   1.560   4.176  13.428  2.4581  1.3710 -1.2416
  228MPD1     N 3468   1.206   4.392  13.254 -0.0114 -0.4420 -0.7514
  228MPD1    H5 3469   1.159   4.482  13.245  0.6043  0.0721  1.1673
  228MPD1    N1 3470   1.488   4.591  13.584  0.0798 -0.4845  0.1600
  228MPD1    H6 3471   1.463   4.688  13.564  1.8802  0.2687  1.5244
  228MPD1    H7 3472   1.576   4.591  13.636  0.3709 -0.5902 -0.3233
  229MPD1     C 3473   0.308   3.705  14.354 -0.0882  0.4615  0.6487
  229MPD1    C1 3474   0.317   3.706  14.491 -0.1454 -0.0846  0.0052
  229MPD1    C2 3475   0.419   3.629  14.552 -0.9473 -0.0427 -0.4667
  229MPD1    C3 3476   0.508   3.556  14.476 -0.0737  0.0355 -0.1725
  229MPD1    C4 3477   0.497   3.566  14.339  0.8165  0.3688  0.4221
  229MPD1    C5 3478   0.403   3.635  14.280 -0.0200 -0.5427 -0.0237
  229MPD1     H 3479   0.422   3.625  14.660 -0.2527  1.2517 -0.4318
  229MPD1    H1 3480   0.560   3.508  14.273  2.4497  2.1204  0.4712
  229MPD1    H2 3481   0.230   3.765  14.308  0.3377  0.1997 -0.4028
  229MPD1    H3 3482   0.399   3.641  14.171 -2.3780 -1.3986  0.0123
  229MPD1     N 3483   0.620   3.482  14.523 -0.4530 -0.1954  1.7465
  229MPD1    H5 3484   0.676   3.446  14.447 -2.2342  0.6196  0.0701
  229MPD1    N1 3485   0.209   3.760  14.557 -0.5947  0.2205 -0.0600
  229MPD1    H6 3486   0.232   3.781  14.654 -0.0230 -1.3748  0.1423
  229MPD1    H7 3487   0.177   3.839  14.501  1.9960  1.6846  0.5462
  230MPD1     C 3488   1.258   3.450  15.342  0.3531  0.1273  0.4565
  230MPD1    C1 3489   1.154   3.543  15.320 -0.8491 -0.6962 -0.5372
  230MPD1    C2 3490   1.076   3.524  15.210 -0.2624  0.6733  0.5330
  230MPD1    C3 3491   1.067   3.397  15.151 -0.4957  0.0985 -0.2184
  230MPD1    C4 3492   1.162   3.301  15.190  0.0112 -0.1688  0.2292
  230MPD1    C5 3493   1.259   3.331  15.279 -0.3118 -0.2190  0.0806
  230MPD1     H 3494   1.016   3.605  15.169  0.6261  1.2689  0.4173
  230MPD1    H1 3495   1.165   3.204  15.143  2.1384  0.5407 -1.0714
  230MPD1    H2 3496   1.339   3.465  15.413  0.9327 -1.6109  0.1631
  230MPD1    H3 3497   1.340   3.266  15.312 -0.1842  1.1315  2.4497
  230MPD1     N 3498   0.995   3.383  15.027 -0.6070 -0.2133 -0.6131
  230MPD1    H5 3499   0.952   3.469  14.995 -1.7016 -0.3732  0.4487
  230MPD1    N1 3500   1.163   3.672  15.376  0.1662 -0.6109  0.3035
  230MPD1    H6 3501   1.077   3.725  15.384  0.2071 -0.5707  0.4917
  230MPD1    H7 3502   1.209   3.689  15.465 -2.4781 -0.3143  1.5975
  231MPD1     C 3503   3.468   4.615  15.300 -0.0351  0.1503  0.5847
  231MPD1    C1 3504   3.439   0.007  15.371 -0.6429  0.1671  0.2859
  231MPD1    C2 3505   3.434   0.125  15.298 -0.4508 -0.4903  0.2206
  231MPD1    C3 3506   3.473   0.129  15.173 -0.1123  0.3167 -0.1451
  231MPD1    C4 3507   3.520   0.017  15.112  0.1980  0.2900 -0.4077
  231MPD1    C5 3508   3.536   4.623  15.186  0.4152 -0.2624  0.0485
  231MPD1     H 3509   3.404   0.215  15.350  0.1601 -0.0796 -0.1313
  231MPD1    H1 3510   3.541   0.015  15.006 -1.0837 -1.3720 -0.6467
  231MPD1    H2 3511   3.463   4.516  15.343  0.1839 -0.4425 -0.7415
  231MPD1    H3 3512   3.568   4.535  15.131  1.6533  0.4661 -0.4096
  231MPD1     N 3513   3.486   0.260  15.114 -0.1266 -0.1425  0.1385
  231MPD1    H5 3514   3.474   0.339  15.176 -2.0184 -1.2809  1.2509
  231MPD1    N1 3515   3.389   4.712  15.500 -0.1237  0.7820 -0.1102
  231MPD1    H6 3516   3.443   4.648  15.558  0.2703  1.2505  0.0396
  231MPD1    H7 3517   3.381   0.080  15.548 -2.5654  0.1785  0.6467
  232MPD1     C 3518   2.031   2.756  17.625  0.4707 -0.5598 -0.5535
  232MPD1    C1 3519   1.962   2.822   0.033  0.2766  0.0598  0.3834
  232MPD1    C2 3520   1.881   2.750   0.114 -0.3660 -0.3010  0.2852
  232MPD1    C3 3521   1.850   2.614   0.095 -0.2555 -0.4521  0.0394
  232MPD1    C4 3522   1.912   2.548  17.685  0.3478 -0.6355  0.2511
  232MPD1    C5 3523   2.004   2.621  17.611  0.6353  0.4788 -0.0176
  232MPD1     H 3524   1.833   2.791   0.202  1.1544  2.4155 -0.1344
  232MPD1    H1 3525   1.888   2.450  17.643 -0.1879  0.9667 -3.1755
  232MPD1    H2 3526   2.113   2.802  17.570  0.4296  1.1595  0.8089
  232MPD1    H3 3527   2.048   2.579  17.521  0.1267  4.3371 -2.0749
  232MPD1     N 3528   1.749   2.548   0.175 -0.7660 -0.1324  0.0696
  232MPD1    H5 3529   1.707   2.608   0.246 -1.7267 -0.0098 -0.6110
  232MPD1    N1 3530   2.002   2.956   0.067  0.3193 -0.2793  0.6283
  232MPD1    H6 3531   1.927   3.013   0.104 -0.9108 -1.6799  0.3042
  232MPD1    H7 3532   2.030   3.003  17.669  0.2066  0.5347  1.0433
  233MPD1     C 3533   1.237   0.713   0.966 -0.4513 -0.1608 -0.1558
  233MPD1    C1 3534   1.262   0.782   1.078  1.2215 -0.1444 -0.1259
  233MPD1    C2 3535   1.376   0.743   1.154 -0.2565  0.2085 -0.3173
  233MPD1    C3 3536   1.442   0.624   1.135  0.0155  0.3088  0.6563
  233MPD1    C4 3537   1.404   0.552   1.027  0.4731 -0.1279  0.0437
  233MPD1    C5 3538   1.308   0.598   0.937  0.3050  1.1514 -0.1272
  233MPD1     H 3539   1.414   0.799   1.239 -0.6188 -0.3668  0.2260
  233MPD1    H1 3540   1.457   0.464   0.991 -0.4847  0.2155 -2.2221
  233MPD1    H2 3541   1.165   0.748   0.892 -1.7313 -1.5488  0.4534
  233MPD1    H3 3542   1.293   0.537   0.848  0.5173  0.4428  0.3234
  233MPD1     N 3543   1.543   0.570   1.216  0.1093  0.0875 -0.2794
  233MPD1    H5 3544   1.582   0.481   1.186 -1.2700 -0.0402 -1.7210
  233MPD1    N1 3545   1.208   0.918   1.094 -0.2708  0.6721 -0.3885
  233MPD1    H6 3546   1.207   0.942   1.193 -0.6838 -1.1230  0.0421
  233MPD1    H7 3547   1.113   0.920   1.058  0.0782 -1.7740 -1.4746
  234MPD1     C 3548   4.315   0.836   8.729  0.2809 -0.2251 -0.4668
  234MPD1    C1 3549   4.327   0.852   8.865  0.3791 -0.0429  0.6171
  234MPD1    C2 3550   4.217   0.886   8.945 -0.9191  0.2105 -0.4063
  234MPD1    C3 3551   4.093   0.914   8.882 -0.1919 -0.4086  0.2322
  234MPD1    C4 3552   4.087   0.906   8.743 -0.6330 -0.4725 -0.5265
  234MPD1    C5 3553   4.196   0.864   8.668  0.3558  0.4031 -0.2313
  234MPD1     H 3554   4.226   0.892   9.053  0.4752 -0.9030 -0.4618
  234MPD1    H1 3555   3.998   0.928   8.685 -1.3220 -2.1486 -0.0901
  234MPD1    H2 3556   4.403   0.816   8.669  0.2545 -0.7677 -0.3343
  234MPD1    H3 3557   4.183   0.860   8.561  0.6039  0.0844 -0.2513
  234MPD1     N 3558   3.979   0.941   8.969 -0.0360 -0.6984 -0.5361
  234MPD1    H5 3559   4.001   0.916   9.065  2.6159 -1.5825 -1.3582
  234MPD1    N1 3560   4.442   0.801   8.925  0.2236 -0.5357 -0.3374
  234MPD1    H6 3561   4.441   0.827   9.024 -0.0251  0.1242 -0.5166
  234MPD1    H7 3562   4.523   0.837   8.875  0.1452 -0.1443 -0.1835
  235MPD1     C 3563   4.644   3.739   9.054  0.2911 -0.4493 -0.7760
  235MPD1    C1 3564   4.666   3.869   9.028  0.1147 -0.8852  0.4422
  235MPD1    C2 3565   0.077   3.916   9.043 -0.2738 -0.1413 -0.3278
  235MPD1    C3 3566   0.175   3.844   9.095 -0.3273  0.9258 -0.0859
  235MPD1    C4 3567   0.147   3.714   9.134  0.2300 -0.7091  0.1250
  235MPD1    C5 3568   0.020   3.667   9.119 -0.1334  0.2478 -0.3672
  235MPD1     H 3569   0.103   4.011   8.999  0.8607  0.2173  1.1344
  235MPD1    H1 3570   0.223   3.650   9.178  1.7843 -0.1228 -1.7039
  235MPD1    H2 3571   4.548   3.694   9.033  1.3439 -2.1176 -2.0533
  235MPD1    H3 3572   0.004   3.560   9.128  0.9126  0.1215 -0.0727
  235MPD1     N 3573   0.305   3.905   9.096 -0.0609 -0.2621 -0.2410
  235MPD1    H5 3574   0.319   3.993   9.047  1.0488 -1.2185 -1.6621
  235MPD1    N1 3575   4.570   3.946   8.959  0.4270  0.1574  0.3966
  235MPD1    H6 3576   4.473   3.919   8.977  0.3371  0.6884  0.6931
  235MPD1    H7 3577   4.582   4.044   8.983  2.3890 -0.1377  0.6422
  236MPD1     C 3578   4.596   4.056  10.079 -0.1203  0.0961  0.0583
  236MPD1    C1 3579   4.597   3.928  10.136 -0.2588  0.4575  0.4805
  236MPD1    C2 3580   4.710   3.878  10.197  0.2592 -0.0765  0.1558
  236MPD1    C3 3581   0.107   3.954  10.196  0.4314 -0.0915 -0.3931
  236MPD1    C4 3582   0.105   4.076  10.130 -0.5997  0.1049  0.0983
  236MPD1    C5 3583   4.716   4.122  10.067 -1.0849 -0.3244 -0.2825
  236MPD1     H 3584   4.718   3.781  10.246 -0.2375  0.4303  1.2648
  236MPD1    H1 3585   0.195   4.135  10.121 -0.0737 -0.5752  0.9817
  236MPD1    H2 3586   4.512   4.106  10.033 -0.3820 -1.7125 -1.4506
  236MPD1    H3 3587   4.712   4.215  10.011  0.4568 -0.4690 -0.6480
  236MPD1     N 3588   0.233   3.910  10.256  0.4072  0.2629  0.3965
  236MPD1    H5 3589   0.305   3.982  10.257  0.1015  0.5286  3.5543
  236MPD1    N1 3590   4.475   3.868  10.150 -0.2122 -0.2547 -0.3712
  236MPD1    H6 3591   4.416   3.881  10.068 -0.4794 -1.1475 -0.3201
  236MPD1    H7 3592   4.478   3.768  10.165 -1.4921  0.0721  2.1812
  237MPD1     C 3593   4.336   2.225  16.166  0.0461 -0.5658  0.6565
  237MPD1    C1 3594   4.335   2.262  16.033 -0.4403  0.1716  0.1241
  237MPD1    C2 3595   4.245   2.200  15.947 -0.6956  0.3538 -0.3565
  237MPD1    C3 3596   4.145   2.110  15.988  0.5775 -0.9806 -0.3244
  237MPD1    C4 3597   4.152   2.077  16.127 -0.2405  0.0675  0.8208
  237MPD1    C5 3598   4.254   2.127  16.203  0.6380  0.1308 -0.4285
  237MPD1     H 3599   4.253   2.221  15.841 -0.0007  0.7475 -0.2238
  237MPD1    H1 3600   4.074   2.015  16.168 -2.1968  2.3316  0.5363
  237MPD1    H2 3601   4.408   2.260  16.239  0.9113  0.7546 -0.8230
  237MPD1    H3 3602   4.242   2.104  16.308 -0.5073 -0.7133 -0.7529
  237MPD1     N 3603   4.051   2.044  15.910  0.0312  0.0169  0.2033
  237MPD1    H5 3604   3.985   1.995  15.970 -0.7077 -0.2410 -0.8147
  237MPD1    N1 3605   4.404   2.377  15.980  0.2866  0.3747  0.3298
  237MPD1    H6 3606   4.405   2.375  15.878  0.6044 -1.8471  0.3680
  237MPD1    H7 3607   4.500   2.379  16.011  0.3610 -0.5556  0.1481
  238MPD1     C 3608   1.178   0.446  15.372  0.1114 -0.0357  0.2689
  238MPD1    C1 3609   1.214   0.402  15.243  0.7898  0.0568 -0.0579
  238MPD1    C2 3610   1.117   0.392  15.144  0.8008 -0.9787 -0.1211
  238MPD1    C3 3611   0.990   0.390  15.187 -0.3892  0.0573  0.1338
  238MPD1    C4 3612   0.960   0.415  15.321 -0.0222  0.0530 -0.8703
  238MPD1    C5 3613   1.051   0.448  15.416 -0.2734  0.0312 -0.2598
  238MPD1     H 3614   1.152   0.371  15.044 -0.4487 -0.2525 -0.6963
  238MPD1    H1 3615   0.861   0.392  15.358 -0.1944  1.5094 -0.4011
  238MPD1    H2 3616   1.256   0.474  15.442  1.3838 -1.0818 -0.7404
  238MPD1    H3 3617   1.017   0.495  15.508  0.8182  0.8419 -0.2637
  238MPD1     N 3618   0.871   0.382  15.106  0.2716  0.1814  0.6756
  238MPD1    H5 3619   0.781   0.386  15.153  0.8150  1.9853  1.5650
  238MPD1    N1 3620   1.351   0.421  15.213  0.4235  0.9559 -0.2637
  238MPD1    H6 3621   1.381   0.356  15.141 -1.1687  0.7880 -0.7873
  238MPD1    H7 3622   1.412   0.405  15.293 -2.8578 -0.8491  1.9025
  239MPD1     C 3623   1.630   1.471  14.837 -1.1739  0.0048  0.7637
  239MPD1    C1 3624   1.721   1.459  14.740  0.1862 -0.0625 -0.0787
  239MPD1    C2 3625   1.703   1.517  14.617  0.4566  0.2754  0.5477
  239MPD1    C3 3626   1.586   1.588  14.587 -0.3806 -0.2782  0.2548
  239MPD1    C4 3627   1.495   1.598  14.679 -0.1112 -0.1093 -0.5521
  239MPD1    C5 3628   1.509   1.543  14.809  0.3499 -0.4933 -0.4055
  239MPD1     H 3629   1.779   1.496  14.543 -1.1987  1.5338 -1.5382
  239MPD1    H1 3630   1.404   1.652  14.654 -0.3724  0.6263  1.9208
  239MPD1    H2 3631   1.647   1.413  14.927 -1.2840 -0.3910  0.5300
  239MPD1    H3 3632   1.439   1.568  14.887 -0.1002  1.3105 -1.3811
  239MPD1     N 3633   1.561   1.648  14.462  0.0254  0.2471 -0.5709
  239MPD1    H5 3634   1.464   1.676  14.459 -0.4968 -1.2779  2.2767
  239MPD1    N1 3635   1.828   1.369  14.751  0.0228 -0.0991  0.6910
  239MPD1    H6 3636   1.856   1.346  14.846  2.6752 -0.8318 -0.2567
  239MPD1    H7 3637   1.910   1.396  14.696 -0.5996  2.5488  1.0886
  240MPD1     C 3638   0.459   1.011  13.912  0.4947 -0.0941 -0.4130
  240MPD1    C1 3639   0.346   0.942  13.946  0.3825 -0.3286 -0.0040
  240MPD1    C2 3640   0.343   0.880  14.071 -0.4085  0.3934  0.4006
  240MPD1    C3 3641   0.454   0.873  14.151  0.5548  0.2963 -0.5556
  240MPD1    C4 3642   0.564   0.938  14.113 -0.2638 -0.0796 -0.3762
  240MPD1    C5 3643   0.570   1.006  13.996  0.2069  0.4338  0.0273
  240MPD1     H 3644   0.252   0.835  14.109 -0.6129 -0.1305 -0.7052
  240MPD1    H1 3645   0.655   0.940  14.172 -0.2178  0.5312 -0.4639
  240MPD1    H2 3646   0.463   1.067  13.820  1.5683 -1.2426 -1.0607
  240MPD1    H3 3647   0.664   1.041  13.955  0.4818 -3.6029 -2.7390
  240MPD1     N 3648   0.447   0.802  14.277 -0.3795  0.5343 -0.5706
  240MPD1    H5 3649   0.366   0.742  14.293 -0.9513  1.3358 -0.4200
  240MPD1    N1 3650   0.227   0.965  13.868 -0.1541  0.3562 -0.0278
  240MPD1    H6 3651   0.247   0.983  13.770 -2.1750 -2.8201 -1.0137
  240MPD1    H7 3652   0.145   0.906  13.878  0.3986 -0.3248  0.5550
  241MPD1     C 3653   0.840   0.701  15.247  0.4970 -0.5874  1.0783
  241MPD1    C1 3654   0.707   0.666  15.236 -0.7532  0.8478  0.7676
  241MPD1    C2 3655   0.640   0.695  15.119 -0.2401 -0.1055  0.1048
  241MPD1    C3 3656   0.714   0.729  15.008  0.4844  0.1214  0.4683
  241MPD1    C4 3657   0.843   0.767  15.021 -0.0553  0.6257 -0.2755
  241MPD1    C5 3658   0.906   0.751  15.137  0.1129  0.0434 -0.5962
  241MPD1     H 3659   0.534   0.670  15.113 -0.3957  0.4464  0.5522
  241MPD1    H1 3660   0.906   0.787  14.935  1.8208  0.9516  1.1861
  241MPD1    H2 3661   0.890   0.672  15.339  0.6442 -1.1571  0.8166
  241MPD1    H3 3662   1.006   0.794  15.136 -0.7073  2.0299  2.2405
  241MPD1     N 3663   0.663   0.742  14.873  0.1495 -0.6607  0.7411
  241MPD1    H5 3664   0.737   0.733  14.804 -0.0566  0.7270  0.3486
  241MPD1    N1 3665   0.635   0.624  15.347  0.0394  0.2432  0.0021
  241MPD1    H6 3666   0.538   0.595  15.332  0.4122 -0.9005 -0.1727
  241MPD1    H7 3667   0.678   0.552  15.404  1.2907 -0.3422 -1.6841
  242MPD1     C 3668   0.246   4.432  15.692  0.5465  0.3443 -0.0243
  242MPD1    C1 3669   0.205   4.299  15.704 -0.3793 -0.0644  0.6640
  242MPD1    C2 3670   0.200   4.223  15.590  0.7716  0.3710 -0.1843
  242MPD1    C3 3671   0.283   4.261  15.488 -0.7811  0.0525  0.7051
  242MPD1    C4 3672   0.351   4.386  15.489 -0.2135  0.3569 -0.9975
  242MPD1    C5 3673   0.316   4.477  15.586  0.0772 -0.3485 -0.0900
  242MPD1     H 3674   0.155   4.126  15.605 -2.6703  1.9990 -0.1713
  242MPD1    H1 3675   0.422   4.413  15.411 -1.6300  1.6287 -1.8290
  242MPD1    H2 3676   0.241   4.506  15.771 -0.4558  0.5861 -0.3177
  242MPD1    H3 3677   0.338   4.583  15.580  3.4452 -1.0030  0.9334
  242MPD1     N 3678   0.307   4.175  15.374 -0.3726 -0.0726  0.1228
  242MPD1    H5 3679   0.359   4.221  15.301 -0.2559  1.8035  1.3973
  242MPD1    N1 3680   0.133   4.251  15.820  0.4157 -0.1384  0.2924
  242MPD1    H6 3681   0.171   4.292  15.905  0.4295  1.9210 -0.7004
  242MPD1    H7 3682   0.135   4.149  15.829  2.3335 -0.0794  0.5158
  243MPD1     C 3683   2.384   3.066  17.332  0.4001 -0.1183  0.3890
  243MPD1    C1 3684   2.439   3.013  17.222  0.0406 -0.5082 -0.9466
  243MPD1    C2 3685   2.469   2.875  17.219  0.4835 -0.2225  0.4032
  243MPD1    C3 3686   2.446   2.798  17.326 -0.0301 -0.1647 -0.3840
  243MPD1    C4 3687   2.390   2.853  17.440 -0.2792  0.4536 -0.4775
  243MPD1    C5 3688   2.347   2.986  17.437  0.3782 -0.1054 -1.2230
  243MPD1     H 3689   2.521   2.835  17.133 -0.7693 -1.9638  0.4730
  243MPD1    H1 3690   2.354   2.788  17.518  0.2844  1.5313  0.6734
  243MPD1    H2 3691   2.340   3.165  17.328  0.1837 -0.1980  0.8410
  243MPD1    H3 3692   2.302   3.033  17.523  0.1342 -0.6461 -1.0555
  243MPD1     N 3693   2.473   2.658  17.312 -0.0189  0.5409 -0.5539
  243MPD1    H5 3694   2.498   2.632  17.217  2.2968  1.8249 -0.3079
  243MPD1    N1 3695   2.444   3.090  17.101  0.0758 -0.1790 -0.2015
  243MPD1    H6 3696   2.515   3.064  17.034  0.7401 -3.4985  1.7399
  243MPD1    H7 3697   2.439   3.189  17.124 -2.7654 -0.4452  0.3904
  244MPD1     C 3698   2.639   1.605  17.496  0.1884 -0.3525 -0.0210
  244MPD1    C1 3699   2.716   1.648  17.387  0.7869 -0.6326  0.2593
  244MPD1    C2 3700   2.706   1.783  17.352 -0.0817  0.2501 -0.7498
  244MPD1    C3 3701   2.645   1.868  17.438  0.2273  0.2224  0.2234
  244MPD1    C4 3702   2.588   1.825  17.552  0.0908  0.0027 -0.1339
  244MPD1    C5 3703   2.578   1.690  17.577 -0.5324 -0.6745 -0.2678
  244MPD1     H 3704   2.764   1.831  17.274 -1.5483 -0.1632 -2.0960
  244MPD1    H1 3705   2.537   1.898  17.614  1.7524  0.5099  0.6348
  244MPD1    H2 3706   2.641   1.499  17.517 -0.0286 -0.5278 -0.9162
  244MPD1    H3 3707   2.527   1.660  17.667  1.7765 -0.5365  1.0991
  244MPD1     N 3708   2.641   1.996  17.394 -0.7588  0.1211 -0.3485
  244MPD1    H5 3709   2.674   2.016  17.300  0.0253 -2.6102 -0.6560
  244MPD1    N1 3710   2.777   1.553  17.311 -0.2910  0.6041  0.0913
  244MPD1    H6 3711   2.862   1.595  17.273  0.3166 -0.8599 -0.1857
  244MPD1    H7 3712   2.805   1.481  17.377 -0.0982 -1.9053 -2.7136
  245MPD1     C 3713   3.804   3.307  12.823  0.6284 -0.2841 -0.3219
  245MPD1    C1 3714   3.834   3.261  12.950  0.2891 -0.0134 -1.1074
  245MPD1    C2 3715   3.894   3.346  13.038 -0.4141  0.4859  0.3907
  245MPD1    C3 3716   3.936   3.472  13.001  0.3140 -0.0778 -0.2055
  245MPD1    C4 3717   3.917   3.519  12.875  0.2256 -0.6979  0.0979
  245MPD1    C5 3718   3.846   3.435  12.793 -0.7456 -0.0895  0.6110
  245MPD1     H 3719   3.908   3.307  13.139  2.0458 -1.9951 -0.9020
  245MPD1    H1 3720   3.958   3.610  12.834  2.8762 -1.2462  1.5494
  245MPD1    H2 3721   3.742   3.255  12.752  2.0635  1.2037 -2.6615
  245MPD1    H3 3722   3.817   3.476  12.697 -1.1462 -0.0040  0.7693
  245MPD1     N 3723   3.996   3.560  13.098  0.0100 -0.3815 -0.0865
  245MPD1    H5 3724   3.971   3.538  13.194  2.0156 -2.5195 -0.0493
  245MPD1    N1 3725   3.776   3.146  12.999  0.3610 -0.2792  0.3654
  245MPD1    H6 3726   3.767   3.076  12.926  1.2732  0.1260 -0.1279
  245MPD1    H7 3727   3.832   3.103  13.072  0.5968  0.5500  0.6808
  246MPD1     C 3728   3.267   2.503   8.984 -0.0202  0.2143 -0.2913
  246MPD1    C1 3729   3.218   2.629   8.990  0.8339 -0.3877  0.0862
  246MPD1    C2 3730   3.290   2.726   9.055 -0.1487  0.4551 -0.4077
  246MPD1    C3 3731   3.407   2.695   9.122  1.2243  0.2728  0.6087
  246MPD1    C4 3732   3.442   2.563   9.130 -0.0789 -0.3486 -0.8288
  246MPD1    C5 3733   3.379   2.466   9.050 -0.4648  0.1416 -0.2967
  246MPD1     H 3734   3.260   2.830   9.040 -2.2323  0.0858  1.1822
  246MPD1    H1 3735   3.533   2.533   9.182 -0.5071  0.7269  0.5326
  246MPD1    H2 3736   3.211   2.426   8.933 -0.3765 -1.8837  3.2362
  246MPD1    H3 3737   3.394   2.360   9.069  1.0728 -0.1396 -3.0205
  246MPD1     N 3738   3.482   2.799   9.171  0.0655  0.5348  0.2375
  246MPD1    H5 3739   3.445   2.891   9.148 -1.8633 -0.1931  0.4232
  246MPD1    N1 3740   3.117   2.665   8.902 -0.2843  0.4953  0.5074
  246MPD1    H6 3741   3.059   2.747   8.922 -0.0396  0.8046 -0.0636
  246MPD1    H7 3742   3.049   2.590   8.898 -0.5011  0.6530  1.0685
  247MPD1     C 3743   2.929   2.932  16.133 -0.3639 -0.2576 -0.0383
  247MPD1    C1 3744   3.015   2.932  16.243  0.4613 -0.1549 -0.5123
  247MPD1    C2 3745   3.122   2.842  16.232 -0.1837  0.7604  0.3265
  247MPD1    C3 3746   3.163   2.790  16.113  0.3256 -0.5441  0.0323
  247MPD1    C4 3747   3.085   2.810  16.000  0.3501 -0.4892  0.8013
  247MPD1    C5 3748   2.959   2.875  16.015 -0.2851 -0.2272 -0.1748
  247MPD1     H 3749   3.173   2.819  16.325 -1.8406  0.0298  1.0479
  247MPD1    H1 3750   3.115   2.772  15.902  1.1053  1.8705  0.1284
  247MPD1    H2 3751   2.850   3.006  16.128 -0.5201 -0.4202  0.0045
  247MPD1    H3 3752   2.911   2.894  15.920 -0.4249 -1.0509 -0.2682
  247MPD1     N 3753   3.269   2.694  16.099  0.3140 -0.1539 -0.0887
  247MPD1    H5 3754   3.286   2.649  16.009  2.8376  1.3782 -0.3791
  247MPD1    N1 3755   2.967   2.991  16.361 -0.5802  0.2610 -0.1033
  247MPD1    H6 3756   3.041   3.019  16.425 -0.3060 -1.3745  0.3029
  247MPD1    H7 3757   2.907   3.071  16.340  0.3177  0.8072 -0.6127
  248MPD1     C 3758   3.876   1.672   1.155 -0.3422  0.2154  0.6667
  248MPD1    C1 3759   3.915   1.703   1.032  0.9823 -0.3633 -0.3336
  248MPD1    C2 3760   3.888   1.832   0.971 -0.6988  0.6763  0.2221
  248MPD1    C3 3761   3.827   1.934   1.051 -0.9759  0.0743  0.3842
  248MPD1    C4 3762   3.778   1.896   1.176 -0.3120  0.3815 -0.5442
  248MPD1    C5 3763   3.809   1.771   1.220  0.6175 -0.5724 -0.4273
  248MPD1     H 3764   3.926   1.861   0.874 -0.0905 -1.3057 -0.1295
  248MPD1    H1 3765   3.717   1.962   1.236 -3.3520 -0.6768 -2.5049
  248MPD1    H2 3766   3.910   1.585   1.211 -0.2296 -0.1940 -0.0483
  248MPD1    H3 3767   3.770   1.745   1.318 -0.9212 -0.2511 -0.9625
  248MPD1     N 3768   3.814   2.061   1.001  0.9361  0.2804 -0.3057
  248MPD1    H5 3769   3.835   2.078   0.903  1.9197  0.4770 -0.0638
  248MPD1    N1 3770   4.001   1.610   0.970  0.1286 -0.3846 -0.0274
  248MPD1    H6 3771   3.996   1.518   1.015 -1.4075 -0.1454  0.3004
  248MPD1    H7 3772   3.975   1.598   0.873  0.9133 -1.4103 -0.1119
  249MPD1     C 3773   1.307   1.335  10.389 -0.1264  0.2736  0.5794
  249MPD1    C1 3774   1.308   1.277  10.265  0.1593 -0.4213 -0.5055
  249MPD1    C2 3775   1.288   1.352  10.153 -0.4266  0.0270 -0.3611
  249MPD1    C3 3776   1.287   1.485  10.153  0.5953 -0.1712 -0.7430
  249MPD1    C4 3777   1.310   1.549  10.272  0.4666 -0.0193 -0.0322
  249MPD1    C5 3778   1.321   1.473  10.391  0.5837  0.3111 -0.1913
  249MPD1     H 3779   1.263   1.302  10.060  0.3212  2.2308 -1.7685
  249MPD1    H1 3780   1.325   1.656  10.279 -2.0686  0.3161  0.0849
  249MPD1    H2 3781   1.291   1.277  10.479 -0.1627 -0.8477 -0.1561
  249MPD1    H3 3782   1.320   1.522  10.487 -1.9986 -0.1588  0.0242
  249MPD1     N 3783   1.250   1.568  10.037 -0.6405  0.1371 -0.1071
  249MPD1    H5 3784   1.236   1.512   9.953 -1.4428 -0.2419  0.2901
  249MPD1    N1 3785   1.310   1.136  10.256 -0.1632 -0.1722  0.4352
  249MPD1    H6 3786   1.361   1.091  10.332 -0.1778 -1.7520 -0.4733
  249MPD1    H7 3787   1.358   1.106  10.171  1.2104 -0.0926  1.1807
  250MPD2     C 3788   2.591   1.966  13.075 -0.1700  0.8139  0.4186
  250MPD2    C1 3789   2.492   2.058  13.064  0.3443 -0.7100  0.5500
  250MPD2    C2 3790   2.358   2.023  13.068  0.9000 -0.4025 -0.4688
  250MPD2    C3 3791   2.323   1.888  13.066  0.8773 -0.2350 -0.0206
  250MPD2    C4 3792   2.427   1.795  13.068 -0.2116  0.1899 -0.1945
  250MPD2    C5 3793   2.554   1.833  13.065 -0.6958 -0.4399  0.1103
  250MPD2     H 3794   2.282   2.100  13.078  0.4438 -0.7221 -1.4223
  250MPD2    H1 3795   2.412   1.688  13.072 -1.2839  0.3725  0.6755
  250MPD2    H2 3796   2.695   1.989  13.095 -0.3305  3.4375 -1.7820
  250MPD2    H3 3797   2.624   1.753  13.083 -0.9316 -0.5509  0.5295
  250MPD2     N 3798   2.192   1.839  13.071 -0.2783  0.2471 -0.7953
  250MPD2    H5 3799   2.184   1.738  13.060 -0.7231  0.4699 -2.5157
  250MPD2    N1 3800   2.534   2.194  13.070  0.3420  0.2719  0.3217
  250MPD2    H7 3801   2.633   2.215  13.070  0.8038 -1.9251  2.9391
  251TMC3    C1 3802   2.544   2.426  13.071  0.6300 -0.2710  0.1794
  251TMC3    C2 3803   2.486   2.536  13.136 -1.1036 -0.1630 -0.6402
  251TMC3    C3 3804   2.557   2.655  13.124  0.0456  0.4851  0.1981
  251TMC3    C4 3805   2.672   2.426  13.031 -0.4542 -0.2962 -0.1278
  251TMC3    C5 3806   2.742   2.546  13.029  0.2628 -0.3840  0.9225
  251TMC3    C6 3807   2.685   2.660  13.073 -0.3528 -0.3961 -0.1463
  251TMC3     C 3808   2.461   2.308  13.062  0.6578 -0.6795  0.2241
  251TMC3     O 3809   2.338   2.322  13.071  0.2896  0.2963  0.4849
  251TMC3     H 3810   2.382   2.541  13.166 -1.3047  1.9223 -1.6661
  251TMC3    H1 3811   2.723   2.336  12.998 -0.8468  0.1981 -2.0785
  251TMC3    H2 3812   2.741   2.753  13.067  0.1969 -0.8224 -1.4888
  251TMC3    C7 3813   2.889   2.534  13.028  0.0117 -0.1204  0.5160
  251TMC3    C8 3814   2.492   2.772  13.171  0.3697  0.7694 -0.0278
  251TMC3    O1 3815   2.944   2.428  13.045 -0.4296 -0.9038 -0.3582
  251TMC3    O2 3816   2.413   2.750  13.265 -0.0976 -0.1800  0.2470
  252TMC3    C1 3817   2.456   4.352   9.984 -0.2900 -0.5551  0.7349
  252TMC3    C2 3818   2.574   4.417   9.982 -0.7844 -0.1627  0.4656
  252TMC3    C3 3819   2.691   4.345  10.012  0.1451  0.1443 -0.1430
  252TMC3    C4 3820   2.445   4.225  10.018 -0.2087 -0.3685  0.1327
  252TMC3    C5 3821   2.562   4.145  10.034 -1.1126  0.2796  0.1901
  252TMC3    C6 3822   2.687   4.209  10.025  0.8871  0.5734 -0.5280
  252TMC3     C 3823   2.348   4.417   9.918 -0.5460 -0.4719  0.3944
  252TMC3     O 3824   2.269   4.341   9.857  0.2099 -0.1393  0.1826
  252TMC3     H 3825   2.593   4.518   9.948  0.5922 -1.2211 -1.9657
  252TMC3    H1 3826   2.351   4.171  10.007 -0.0447 -1.0873  2.2233
  252TMC3    H2 3827   2.783   4.158  10.027  0.7066  0.1665 -2.3052
  252TMC3    C7 3828   2.557   4.000  10.030  0.7250  0.0384  0.1834
  252TMC3    C8 3829   2.822   4.407   9.994  0.3197 -0.1507  0.5613
  252TMC3    O1 3830   2.454   3.952   9.991  0.0428 -0.6470 -0.3689
  252TMC3    O2 3831   2.847   4.511   9.941  0.1203  0.8119  0.3256
  253MPD2     C 3832   3.395   1.605  15.203 -0.1636 -0.4838 -0.1124
  253MPD2    C1 3833   3.260   1.595  15.193 -0.1199  0.1835  0.0854
  253MPD2    C2 3834   3.193   1.595  15.319  0.0245 -0.3234  0.1524
  253MPD2    C3 3835   3.252   1.632  15.433 -0.3029  0.5470 -1.0361
  253MPD2    C4 3836   3.388   1.650  15.429 -0.1239  0.4530 -0.3951
  253MPD2    C5 3837   3.458   1.618  15.318 -0.8663 -0.3488 -0.1539
  253MPD2     H 3838   3.085   1.584  15.327 -0.0142  0.8396  1.3243
  253MPD2    H1 3839   3.449   1.683  15.512  1.3614 -0.6483 -1.0342
  253MPD2    H2 3840   3.450   1.593  15.110  1.5546  0.0625  0.8477
  253MPD2    H3 3841   3.564   1.639  15.314 -1.0374  0.3327 -1.1083
  253MPD2     N 3842   3.176   1.637  15.552  0.0135  0.0866  0.6178
  253MPD2    H5 3843   3.079   1.612  15.542  0.2578 -0.9579  0.8055
  253MPD2    N1 3844   3.191   1.588  15.074 -0.0126 -0.2425  0.5204
  253MPD2    H7 3845   3.089   1.584  15.080  0.1620 -1.7370  2.4731
  254TMC3    C1 3846   3.129   1.706  15.766 -0.3892  0.1148  0.0170
  254TMC3    C2 3847   3.094   1.829  15.810  0.2470 -0.3550 -0.6095
  254TMC3    C3 3848   3.001   1.830  15.908 -0.8858 -0.4084 -0.4669
  254TMC3    C4 3849   3.074   1.584  15.808  0.5239  0.0577 -0.4803
  254TMC3    C5 3850   2.998   1.588  15.920 -0.4029 -0.2607 -0.5729
  254TMC3    C6 3851   2.953   1.709  15.959  0.1008 -0.9383 -0.0032
  254TMC3     C 3852   3.229   1.696  15.664  0.0756  0.6981 -0.6626
  254TMC3     O 3853   3.310   1.791  15.665 -0.3780 -0.0404  0.4401
  254TMC3     H 3854   3.142   1.919  15.774  0.4974 -0.5019 -0.6402
  254TMC3    H1 3855   3.138   1.497  15.797 -1.4755 -1.5148  0.3938
  254TMC3    H2 3856   2.890   1.716  16.047 -0.7069  0.7054 -0.7011
  254TMC3    C7 3857   3.012   1.491  16.031 -0.2568 -0.4444 -0.3079
  254TMC3    C8 3858   3.016   1.934  16.002 -0.6380 -0.1842  0.1046
  254TMC3    O1 3859   3.015   1.533  16.148 -0.3439 -0.4258 -0.1920
  254TMC3    O2 3860   3.017   1.904  16.122 -0.2548 -0.2976 -0.6452
  255MPD2     C 3861   2.756   0.194  10.101  0.2100  0.5211  0.3056
  255MPD2    C1 3862   2.658   0.284  10.074  0.4310 -1.0144  0.5118
  255MPD2    C2 3863   2.586   0.271   9.959  0.4516  0.1342 -0.6011
  255MPD2    C3 3864   2.611   0.171   9.873  0.3606 -0.0832  0.5253
  255MPD2    C4 3865   2.710   0.078   9.890  0.5559  0.5954  0.3841
  255MPD2    C5 3866   2.786   0.097  10.002 -0.2409 -0.1484  0.7641
  255MPD2     H 3867   2.506   0.341   9.936  0.7917  0.8511  0.4188
  255MPD2    H1 3868   2.742   0.001   9.820 -1.6200 -1.9869  2.2604
  255MPD2    H2 3869   2.809   0.200  10.195  0.3492 -1.2568  0.3343
  255MPD2    H3 3870   2.861   0.023  10.027 -1.9722 -1.8441  0.9321
  255MPD2     N 3871   2.529   0.166   9.767  0.5017  0.1059  1.0523
  255MPD2    H5 3872   2.474   0.250   9.754  1.1777  0.0458 -2.2146
  255MPD2    N1 3873   2.635   0.394  10.156 -0.0724  0.5766  0.2687
  255MPD2    H7 3874   2.690   0.402  10.241  0.6419 -2.0010  0.0489
  256TMC3    C1 3875   2.510   0.568  10.272 -0.3345 -0.1029 -0.3417
  256TMC3    C2 3876   2.624   0.632  10.296  0.0650  0.2926  0.2430
  256TMC3    C3 3877   2.620   0.762  10.342  0.3528  0.0111 -0.1783
  256TMC3    C4 3878   2.393   0.636  10.282 -0.4854  0.5820  0.2260
  256TMC3    C5 3879   2.389   0.767  10.328  0.4882 -0.1419  0.1096
  256TMC3    C6 3880   2.505   0.828  10.371 -0.0732 -0.2109 -0.1926
  256TMC3     C 3881   2.517   0.469  10.159  0.0918 -0.1100  0.1867
  256TMC3     O 3882   2.408   0.444  10.105 -0.1495  0.1245 -0.3464
  256TMC3     H 3883   2.717   0.594  10.254  0.5187  0.4886  1.0754
  256TMC3    H1 3884   2.299   0.587  10.259  1.1723 -2.2065 -0.5631
  256TMC3    H2 3885   2.498   0.915  10.435 -0.5505 -0.9648  0.7996
  256TMC3    C7 3886   2.287   0.839  10.257  0.5168 -0.8688 -0.0404
  256TMC3    C8 3887   2.737   0.839  10.303 -0.2915  0.0423  0.3892
  256TMC3    O1 3888   2.197   0.779  10.197  0.0587 -0.0519  0.3647
  256TMC3    O2 3889   2.839   0.772  10.276  0.2991  0.2321 -0.4578
  257MPD2     C 3890   1.448   2.405  13.338  0.0041  0.2968  0.2554
  257MPD2    C1 3891   1.375   2.335  13.243 -0.2538 -0.7004  0.0028
  257MPD2    C2 3892   1.315   2.216  13.278  0.1357 -0.0771  0.0424
  257MPD2    C3 3893   1.317   2.166  13.405  0.0486  0.6015  0.9648
  257MPD2    C4 3894   1.397   2.229  13.492 -0.0293  0.6048 -0.3171
  257MPD2    C5 3895   1.468   2.345  13.457  0.7191  0.0135 -0.0964
  257MPD2     H 3896   1.252   2.165  13.205  1.7822 -0.9551 -0.7806
  257MPD2    H1 3897   1.406   2.180  13.588  2.4496 -0.0940 -0.9178
  257MPD2    H2 3898   1.484   2.504  13.316 -0.9689  0.2653 -1.4959
  257MPD2    H3 3899   1.521   2.400  13.534 -1.8841  0.9961  1.0139
  257MPD2     N 3900   1.250   2.045  13.424  0.1119 -0.1552  1.1537
  257MPD2    H5 3901   1.186   2.020  13.349  0.5691 -0.9515  1.0188
  257MPD2    N1 3902   1.330   2.406  13.132 -0.2055 -0.6757 -0.5242
  257MPD2    H7 3903   1.372   2.498  13.130  0.8924 -1.2077 -2.0868
  258TMC3    C1 3904   1.171   1.847  13.532 -0.2043  0.2297  0.2030
  258TMC3    C2 3905   1.107   1.822  13.418 -0.0738  0.5561 -0.2437
  258TMC3    C3 3906   1.037   1.704  13.417 -0.3587  0.1445  0.2950
  258TMC3    C4 3907   1.177   1.760  13.640 -0.6437 -0.1874 -0.7074
  258TMC3    C5 3908   1.116   1.641  13.627  0.3816 -0.5289 -0.0749
  258TMC3    C6 3909   1.039   1.613  13.521  0.1064  0.0660  0.2290
  258TMC3     C 3910   1.246   1.974  13.538  0.0698 -0.6256  0.4869
  258TMC3     O 3911   1.300   2.006  13.643  0.3886 -0.7545  0.3407
  258TMC3     H 3912   1.113   1.878  13.325  1.4008  0.9964  0.1198
  258TMC3    H1 3913   1.226   1.796  13.730 -0.6259 -0.1457 -0.7336
  258TMC3    H2 3914   0.976   1.525  13.517  0.4551 -0.2103  0.9563
  258TMC3    C7 3915   1.104   1.552  13.738  1.0478 -0.3314  0.7553
  258TMC3    C8 3916   0.927   1.685  13.320 -0.7967 -0.0281 -0.3556
  258TMC3    O1 3917   1.012   1.471  13.734  0.3129 -0.4146  0.4638
  258TMC3    O2 3918   0.855   1.590  13.343  0.0670  0.2488 -0.3975
  259MPD2     C 3919   0.097   3.067   0.941 -0.8176 -0.5570 -0.9053
  259MPD2    C1 3920   0.144   2.946   0.982 -0.1523  0.1860 -0.0963
  259MPD2    C2 3921   0.204   2.866   0.891 -0.2002  0.2796 -0.0237
  259MPD2    C3 3922   0.208   2.902   0.758 -0.2612 -0.1407 -0.2813
  259MPD2    C4 3923   0.152   3.019   0.719 -0.1860  1.3175  0.2948
  259MPD2    C5 3924   0.111   3.106   0.816 -0.0081 -0.3701 -0.2469
  259MPD2     H 3925   0.265   2.783   0.922 -1.5220 -0.7866 -0.2676
  259MPD2    H1 3926   0.159   3.055   0.617 -2.7764  3.0132  0.6873
  259MPD2    H2 3927   0.058   3.134   1.016  1.0006 -0.5912  0.0644
  259MPD2    H3 3928   0.070   3.201   0.785  1.7197  1.2095  2.2151
  259MPD2     N 3929   0.270   2.814   0.660  0.1100 -0.3623 -0.2245
  259MPD2    H5 3930   0.291   2.717   0.683 -0.5696 -0.9412 -2.0619
  259MPD2    N1 3931   0.144   2.923   1.120  0.3255  0.3140 -0.5636
  259MPD2    H7 3932   0.146   3.009   1.174 -0.4294 -0.6322  0.9561
  260TMC3    C1 3933   0.387   2.747   0.465  0.7930  0.4018  0.2606
  260TMC3    C2 3934   0.478   2.780   0.369  0.1091  0.1113 -0.0663
  260TMC3    C3 3935   0.545   2.675   0.306 -0.0782  0.3070  0.0483
  260TMC3    C4 3936   0.366   2.620   0.503  0.5500 -0.2247  0.3386
  260TMC3    C5 3937   0.428   2.520   0.439 -0.1422  0.5676  0.0571
  260TMC3    C6 3938   0.522   2.541   0.335 -0.1426 -0.7508 -0.0310
  260TMC3     C 3939   0.317   2.856   0.536 -0.0950 -0.2091 -0.5456
  260TMC3     O 3940   0.316   2.967   0.479  0.0214 -0.0420  0.2090
  260TMC3     H 3941   0.491   2.883   0.338 -0.0481  0.5969  1.4962
  260TMC3    H1 3942   0.291   2.606   0.580  1.6338  0.4115  1.5120
  260TMC3    H2 3943   0.578   2.459   0.292 -1.1690 -0.6822 -1.4947
  260TMC3    C7 3944   0.366   2.390   0.439  0.2700  0.4760  0.0817
  260TMC3    C8 3945   0.639   2.709   0.200 -0.6834 -0.0711  0.5845
  260TMC3    O1 3946   0.410   2.319   0.352 -0.2801 -0.1731 -1.1654
  260TMC3    O2 3947   0.624   2.823   0.161 -0.3312 -0.1441  0.5169
  261MPD2     C 3948   1.504   1.988  12.578  0.2990 -0.0246 -0.6689
  261MPD2    C1 3949   1.629   2.038  12.607  0.4993 -0.0647  0.2045
  261MPD2    C2 3950   1.675   2.139  12.526  0.1835  0.3694  0.1111
  261MPD2    C3 3951   1.604   2.195  12.420 -0.3136  0.8305  0.4375
  261MPD2    C4 3952   1.484   2.144  12.390 -0.3341  0.4688 -0.3965
  261MPD2    C5 3953   1.435   2.041  12.471  0.2344  0.3073 -0.1807
  261MPD2     H 3954   1.776   2.172  12.548 -0.0632  1.8500 -0.9555
  261MPD2    H1 3955   1.424   2.178  12.307  0.7483  3.1097 -0.0946
  261MPD2    H2 3956   1.450   1.912  12.633 -0.4718  0.2656 -1.0192
  261MPD2    H3 3957   1.337   1.996  12.460  0.5031 -0.5968  1.1590
  261MPD2     N 3958   1.662   2.305  12.355 -0.1359  0.2241 -0.7248
  261MPD2    H5 3959   1.743   2.346  12.400 -0.7568  2.2451 -1.4567
  261MPD2    N1 3960   1.713   1.988  12.713  0.2087  0.5920 -0.0952
  261MPD2    H7 3961   1.800   2.039  12.727  0.3926  0.2421  0.0187
  262TMC3    C1 3962   1.699   2.473  12.191 -0.1718 -0.1497 -0.7256
  262TMC3    C2 3963   1.664   2.544  12.091 -0.8989  0.6862  0.2588
  262TMC3    C3 3964   1.760   2.625  12.028 -0.0258  0.2551  0.4157
  262TMC3    C4 3965   1.826   2.481  12.245  0.0250 -0.2417  0.0492
  262TMC3    C5 3966   1.916   2.564  12.185  0.3132  0.3107 -0.5569
  262TMC3    C6 3967   1.888   2.640  12.072 -0.0437  0.0629 -0.8194
  262TMC3     C 3968   1.610   2.370  12.240 -0.3290  0.5395 -0.2940
  262TMC3     O 3969   1.515   2.351  12.166  0.1333 -0.4103  0.5002
  262TMC3     H 3970   1.562   2.544  12.053  0.0427 -2.0856 -2.2733
  262TMC3    H1 3971   1.864   2.404  12.311 -0.9805 -2.8837 -2.4762
  262TMC3    H2 3972   1.973   2.694  12.031 -0.2297  0.2702 -0.9301
  262TMC3    C7 3973   2.046   2.503  12.188 -0.0920  0.1084 -0.8269
  262TMC3    C8 3974   1.721   2.744  11.957 -0.4639 -0.1932  0.3632
  262TMC3    O1 3975   2.101   2.488  12.294 -0.7036 -0.6230 -0.5281
  262TMC3    O2 3976   1.810   2.799  11.892 -0.5153  0.2972 -0.2532
  263MPD2     C 3977   2.941   1.437  11.141 -0.2548 -0.6523 -0.2497
  263MPD2    C1 3978   2.983   1.555  11.201 -0.0100 -0.5511  0.0506
  263MPD2    C2 3979   2.975   1.670  11.125 -0.0681  0.6085 -0.1698
  263MPD2    C3 3980   2.920   1.671  10.995 -0.0565  0.2526 -0.1600
  263MPD2    C4 3981   2.872   1.553  10.945  1.0102  0.0873 -0.5169
  263MPD2    C5 3982   2.889   1.440  11.019 -0.1721  0.7312 -0.0268
  263MPD2     H 3983   3.013   1.765  11.160  2.0963 -0.3473  0.0746
  263MPD2    H1 3984   2.831   1.544  10.845  2.2145  1.4202 -1.1236
  263MPD2    H2 3985   2.956   1.338  11.183 -0.8937  0.3890  2.4472
  263MPD2    H3 3986   2.855   1.348  10.973  1.2247  0.2226 -0.0213
  263MPD2     N 3987   2.934   1.785  10.919  0.4090 -0.1063 -0.0445
  263MPD2    H5 3988   2.985   1.860  10.964  0.5033  0.0141 -0.3495
  263MPD2    N1 3989   3.060   1.551  11.324  0.3268 -0.3345 -0.3846
  263MPD2    H7 3990   3.062   1.462  11.373  0.7340 -0.2554 -0.2598
  264TMC3    C1 3991   2.974   1.924  10.741 -0.1000 -0.1911  0.1600
  264TMC3    C2 3992   2.926   2.035  10.814  0.4615  0.3623 -0.0431
  264TMC3    C3 3993   2.914   2.151  10.740  0.0036 -0.9842 -0.4817
  264TMC3    C4 3994   3.014   1.932  10.615  0.2038  0.3916 -0.2984
  264TMC3    C5 3995   3.002   2.053  10.551 -0.6085 -0.1440  0.4084
  264TMC3    C6 3996   2.939   2.159  10.608 -0.5819  1.2759 -0.1785
  264TMC3     C 3997   2.925   1.799  10.784  0.0529  0.4210 -0.6102
  264TMC3     O 3998   2.887   1.725  10.695  0.2995 -0.5814  0.4818
  264TMC3     H 3999   2.880   2.028  10.912 -2.3155  1.2412 -1.2678
  264TMC3    H1 4000   3.062   1.841  10.580  0.5013 -1.1902  4.2333
  264TMC3    H2 4001   2.943   2.255  10.558  0.3778  0.7546 -1.0918
  264TMC3    C7 4002   3.095   2.084  10.451  0.9879  0.2291 -0.3813
  264TMC3    C8 4003   2.944   2.265  10.808  0.0859  0.0193 -0.0221
  264TMC3    O1 4004   3.113   1.997  10.366 -0.6365  0.1222 -0.3695
  264TMC3    O2 4005   3.029   2.334  10.751  0.0653  0.3114  0.3789
  265MPD2     C 4006   0.721   1.738  15.303  0.8040  0.1334  0.1599
  265MPD2    C1 4007   0.604   1.720  15.226  0.7156 -0.8749  0.1479
  265MPD2    C2 4008   0.609   1.642  15.110  0.3835  0.1725 -0.7448
  265MPD2    C3 4009   0.724   1.572  15.082 -0.4246 -0.2316  0.0820
  265MPD2    C4 4010   0.837   1.602  15.150 -0.0508 -0.0402 -0.5427
  265MPD2    C5 4011   0.836   1.686  15.260  0.1255 -0.3999 -0.5188
  265MPD2     H 4012   0.534   1.647  15.033 -0.0496  1.2120 -0.2557
  265MPD2    H1 4013   0.928   1.551  15.120 -1.6909 -2.3467 -1.6139
  265MPD2    H2 4014   0.717   1.811  15.383 -3.1188  0.6274 -0.5111
  265MPD2    H3 4015   0.932   1.706  15.306  0.1356  1.2963 -1.2776
  265MPD2     N 4016   0.734   1.483  14.968  0.5008 -0.0279  0.3897
  265MPD2    H5 4017   0.822   1.436  14.947  0.3977 -0.4462  0.8820
  265MPD2    N1 4018   0.485   1.794  15.248 -0.4706  0.0143 -0.1278
  265MPD2    H7 4019   0.420   1.794  15.169 -0.1555  2.6951 -0.3955
  266TMC3    C1 4020   0.330   1.929  15.353 -0.2245 -0.3517  0.0293
  266TMC3    C2 4021   0.256   1.948  15.464 -0.1404 -0.0348 -0.0111
  266TMC3    C3 4022   0.135   2.015  15.449  0.0306  0.0146  1.0090
  266TMC3    C4 4023   0.288   1.974  15.229  0.0267  0.4375 -0.2858
  266TMC3    C5 4024   0.163   2.032  15.221  0.0038  0.2520 -0.2677
  266TMC3    C6 4025   0.084   2.054  15.331 -1.1791 -0.5731 -0.1728
  266TMC3     C 4026   0.455   1.860  15.364 -0.4563 -0.2339 -0.1203
  266TMC3     O 4027   0.498   1.842  15.478 -0.2116 -0.6565 -0.4348
  266TMC3     H 4028   0.288   1.910  15.560  0.2300  0.2189 -0.0335
  266TMC3    H1 4029   0.343   1.975  15.136  3.9791  0.1941  2.0112
  266TMC3    H2 4030   4.707   2.099  15.325 -0.9090  0.2406  1.5633
  266TMC3    C7 4031   0.113   2.093  15.102  0.7538  0.0479 -0.9652
  266TMC3    C8 4032   0.048   2.025  15.565  0.8680 -0.5698  0.9137
  266TMC3    O1 4033   4.714   2.110  15.095  0.1740  0.4636  0.0157
  266TMC3    O2 4034   4.647   2.039  15.546 -0.0818 -0.5554  0.1440
  267MPD2     C 4035   1.438   2.738   1.164  0.1844  0.2660 -0.7024
  267MPD2    C1 4036   1.524   2.787   1.071  0.1227 -0.0613 -0.2023
  267MPD2    C2 4037   1.469   2.860   0.965 -0.4422  0.1811 -0.9126
  267MPD2    C3 4038   1.336   2.888   0.955 -0.4446 -0.0574 -0.7229
  267MPD2    C4 4039   1.257   2.850   1.060 -0.3961  0.6988 -0.0684
  267MPD2    C5 4040   1.305   2.773   1.162 -0.0264 -0.0615  0.8569
  267MPD2     H 4041   1.532   2.898   0.886 -0.9027  1.3315 -0.7192
  267MPD2    H1 4042   1.150   2.867   1.065 -0.4419  1.0254 -2.3576
  267MPD2    H2 4043   1.463   2.687   1.256  0.2820  2.4415  0.4609
  267MPD2    H3 4044   1.242   2.725   1.236 -0.1300 -0.4416  0.5221
  267MPD2     N 4045   1.289   2.976   0.858  0.5400  0.3123  0.0195
  267MPD2    H5 4046   1.193   3.007   0.870  0.0385 -1.4518  0.6057
  267MPD2    N1 4047   1.668   2.765   1.085 -0.3406  0.5328  0.0346
  267MPD2    H7 4048   1.697   2.712   1.166 -0.4236 -2.1351 -1.6886
  268TMC3    C1 4049   1.897   2.747   1.022 -0.0714 -0.0520  0.1691
  268TMC3    C2 4050   1.995   2.797   0.937 -0.5484 -0.5589  0.6371
  268TMC3    C3 4051   2.126   2.755   0.953 -0.6667  0.5613 -0.3935
  268TMC3    C4 4052   1.921   2.654   1.114 -0.4919  0.1634 -0.7236
  268TMC3    C5 4053   2.051   2.606   1.122  0.3028  0.6222  0.1007
  268TMC3    C6 4054   2.152   2.654   1.045  0.6295  1.0556 -0.6918
  268TMC3     C 4055   1.767   2.801   0.995 -0.0358 -0.2174 -0.0514
  268TMC3     O 4056   1.756   2.881   0.900 -0.4569 -0.7408  0.2966
  268TMC3     H 4057   1.972   2.887   0.881  0.0797 -0.8874 -0.1614
  268TMC3    H1 4058   1.840   2.611   1.173 -0.2134 -0.1652 -0.5831
  268TMC3    H2 4059   2.251   2.612   1.060  0.2174  0.0029 -0.9254
  268TMC3    C7 4060   2.089   2.536   1.248  0.3564 -0.7408 -0.7290
  268TMC3    C8 4061   2.246   2.829   0.907 -0.3252  0.6928  0.2021
  268TMC3    O1 4062   2.198   2.484   1.257 -0.2804 -0.4271 -0.1129
  268TMC3    O2 4063   2.358   2.812   0.964  0.1433 -0.1744  0.2547
  269MPD2     C 4064   2.591   2.052  15.579  0.7573 -0.4004  0.2440
  269MPD2    C1 4065   2.467   2.046  15.630  0.8393  0.5625  0.0203
  269MPD2    C2 4066   2.398   2.166  15.646  0.4871  0.3180 -0.1131
  269MPD2    C3 4067   2.454   2.286  15.615  0.1795 -0.1799  0.1503
  269MPD2    C4 4068   2.588   2.287  15.582 -0.6329  0.2233  0.6959
  269MPD2    C5 4069   2.649   2.173  15.569  0.8526 -0.2439 -0.3370
  269MPD2     H 4070   2.295   2.156  15.677 -0.0443  1.6697 -1.4494
  269MPD2    H1 4071   2.653   2.371  15.563 -1.5508  1.0438  1.2142
  269MPD2    H2 4072   2.655   1.971  15.545  1.4882 -0.2584  1.2924
  269MPD2    H3 4073   2.749   2.174  15.527  1.1558  0.6445  0.4083
  269MPD2     N 4074   2.382   2.404  15.639  0.5110  0.0621 -0.1341
  269MPD2    H5 4075   2.283   2.393  15.663  0.5844 -1.8361 -0.6953
  269MPD2    N1 4076   2.407   1.917  15.640  0.5024  0.1609 -0.1948
  269MPD2    H7 4077   2.458   1.841  15.597  0.8702 -0.2552  0.9859
  270TMC3    C1 4078   2.248   1.740  15.685  0.2757 -0.1416  0.4273
  270TMC3    C2 4079   2.113   1.706  15.683  0.3226  0.0101  0.1529
  270TMC3    C3 4080   2.075   1.585  15.640 -0.0040  0.0076  0.5213
  270TMC3    C4 4081   2.342   1.647  15.654 -0.3389 -0.0717  0.9531
  270TMC3    C5 4082   2.299   1.527  15.599 -0.6960  0.0989  0.7058
  270TMC3    C6 4083   2.165   1.490  15.598  0.1943 -0.2452 -0.9902
  270TMC3     C 4084   2.283   1.878  15.697 -0.8340 -0.0046  0.1606
  270TMC3     O 4085   2.204   1.945  15.758  0.9310  0.2056 -0.2698
  270TMC3     H 4086   2.038   1.781  15.705 -0.0392 -0.6581  1.2060
  270TMC3    H1 4087   2.444   1.683  15.649 -1.4903  3.1643  0.6277
  270TMC3    H2 4088   2.133   1.404  15.541 -4.1452  0.6190  0.1324
  270TMC3    C7 4089   2.411   1.454  15.547  0.0333  0.7987 -0.1980
  270TMC3    C8 4090   1.944   1.590  15.568 -0.0310  0.0676 -0.3080
  270TMC3    O1 4091   2.521   1.509  15.546  0.1946 -0.3115  0.0929
  270TMC3    O2 4092   1.849   1.640  15.627 -0.2678 -0.5703 -1.0530
  271MPD2     C 4093   1.427   2.310  13.947 -0.0591 -0.1735 -0.5633
  271MPD2    C1 4094   1.384   2.212  14.031 -0.7733 -0.1804 -0.1925
  271MPD2    C2 4095   1.256   2.168  14.026 -0.2139 -0.8041  0.5895
  271MPD2    C3 4096   1.174   2.206  13.917 -0.0272 -0.2044 -0.7728
  271MPD2    C4 4097   1.223   2.287  13.815 -0.0778  0.5220 -0.2609
  271MPD2    C5 4098   1.348   2.340  13.839 -0.1652  0.4304  0.0159
  271MPD2     H 4099   1.236   2.096  14.104  1.8987  1.1481  2.9205
  271MPD2    H1 4100   1.164   2.315  13.729  1.8527  1.4469 -1.2800
  271MPD2    H2 4101   1.524   2.357  13.943  0.3750 -0.8765  1.4503
  271MPD2    H3 4102   1.399   2.405  13.770 -0.2804  1.1309  0.5863
  271MPD2     N 4103   1.045   2.150  13.914 -0.0175  0.1576 -0.5019
  271MPD2    H5 4104   1.002   2.172  13.824  1.0403 -2.9587 -1.7503
  271MPD2    N1 4105   1.463   2.156  14.126  0.8126  0.4673  0.1018
  271MPD2    H7 4106   1.423   2.092  14.194 -2.5775  0.5007 -1.8907
  272TMC3    C1 4107   1.662   2.089  14.226  0.3461 -0.1142  0.2775
  272TMC3    C2 4108   1.775   2.014  14.179 -0.0902 -0.0376  0.5973
  272TMC3    C3 4109   1.827   1.916  14.263 -0.0752  0.6147 -0.0244
  272TMC3    C4 4110   1.611   2.067  14.351 -0.4141  0.2533 -0.7962
  272TMC3    C5 4111   1.674   1.987  14.433 -0.2716 -0.7319  0.0873
  272TMC3    C6 4112   1.787   1.917  14.395  0.3386 -0.3144 -0.3109
  272TMC3     C 4113   1.599   2.182  14.137 -0.2620 -0.7954  0.4574
  272TMC3     O 4114   1.676   2.241  14.059 -0.3337 -0.0370 -0.1026
  272TMC3     H 4115   1.815   2.031  14.080 -0.6691 -1.1160  0.1707
  272TMC3    H1 4116   1.529   2.130  14.383  0.0724 -0.0349  1.0671
  272TMC3    H2 4117   1.832   1.865  14.478 -2.1320  3.4542  3.4220
  272TMC3    C7 4118   1.613   1.972  14.567  0.5300  0.2576  0.7433
  272TMC3    C8 4119   1.952   1.856  14.222  0.1135  0.4745  0.1881
  272TMC3    O1 4120   1.489   1.989  14.575  0.3423  0.1754  0.3616
  272TMC3    O2 4121   2.008   1.905  14.124  0.5185  0.1295 -0.2598
  273MPD2     C 4122   3.813   0.456  11.626  0.6117 -0.6745  0.3462
  273MPD2    C1 4123   3.935   0.517  11.613 -0.5010  0.2824 -0.1580
  273MPD2    C2 4124   3.970   0.586  11.494 -0.3252  0.1913  0.4941
  273MPD2    C3 4125   3.883   0.587  11.384  1.3104 -0.4710 -0.1232
  273MPD2    C4 4126   3.761   0.529  11.397  0.8874 -0.0619  0.1530
  273MPD2    C5 4127   3.726   0.461  11.516 -0.7803 -0.3856  0.1299
  273MPD2     H 4128   4.073   0.620  11.483 -0.6272  0.3516 -1.8419
  273MPD2    H1 4129   3.684   0.536  11.321  0.0752 -2.6143  0.7425
  273MPD2    H2 4130   3.786   0.403  11.717  2.4336 -1.4501  0.4361
  273MPD2    H3 4131   3.631   0.411  11.512  0.2733 -2.4380  0.6876
  273MPD2     N 4132   3.911   0.673  11.276 -0.4719  0.0642  0.7585
  273MPD2    H5 4133   3.848   0.656  11.198 -0.0208 -0.2069  0.4516
  273MPD2    N1 4134   4.021   0.499  11.725  0.0219 -0.3889 -0.3808
  273MPD2    H7 4135   3.987   0.431  11.792  1.7548 -1.7883 -0.9069
  274TMC3    C1 4136   4.013   0.831  11.130  0.3088 -0.2516  0.2501
  274TMC3    C2 4137   3.977   0.775  11.015  0.0669 -0.6204 -0.0558
  274TMC3    C3 4138   3.990   0.854  10.905 -0.1243 -0.1876 -0.8246
  274TMC3    C4 4139   4.055   0.968  11.135 -0.1759  0.8654  0.2856
  274TMC3    C5 4140   4.063   1.046  11.023 -0.6472  0.1837  0.5139
  274TMC3    C6 4141   4.025   0.991  10.907 -0.7855  0.1617 -0.3255
  274TMC3     C 4142   4.011   0.767  11.263  0.4070 -0.3935  0.3071
  274TMC3     O 4143   4.088   0.811  11.347 -0.1880 -0.1317  0.2076
  274TMC3     H 4144   3.927   0.679  11.007  0.8960 -1.1039  0.4823
  274TMC3    H1 4145   4.089   1.005  11.231 -1.2229  3.0720 -0.2109
  274TMC3    H2 4146   3.995   1.062  10.832  1.7134  2.1217  0.5327
  274TMC3    C7 4147   4.058   1.186  11.028 -0.6284  0.5997 -0.7494
  274TMC3    C8 4148   3.914   0.801  10.786  0.2588  0.6479 -0.0996
  274TMC3    O1 4149   4.103   1.240  10.933 -0.4146 -0.0458  0.0284
  274TMC3    O2 4150   3.832   0.714  10.809 -0.3878 -0.1125 -0.3253
  275MPD2     C 4151   3.243   2.896  14.528  0.2694 -0.8102  0.8495
  275MPD2    C1 4152   3.207   2.764  14.506 -0.2361 -0.3160 -0.0889
  275MPD2    C2 4153   3.074   2.728  14.515 -0.6906 -0.4353 -0.5797
  275MPD2    C3 4154   2.982   2.813  14.560  0.1172 -0.3183 -0.4738
  275MPD2    C4 4155   3.015   2.946  14.570 -0.5516  0.1726 -0.9694
  275MPD2    C5 4156   3.146   2.992  14.554  0.5515  0.1241 -0.4594
  275MPD2     H 4157   3.052   2.623  14.498 -2.6984 -0.3629  1.6203
  275MPD2    H1 4158   2.940   3.024  14.586  1.1088  0.8029  3.7944
  275MPD2    H2 4159   3.344   2.923  14.556  0.5266 -0.1619 -0.6821
  275MPD2    H3 4160   3.165   3.098  14.562 -4.0541  0.8872  0.9750
  275MPD2     N 4161   2.851   2.785  14.570 -0.7724 -0.5334 -0.3318
  275MPD2    H5 4162   2.790   2.859  14.603  1.3482 -0.2121  2.8267
  275MPD2    N1 4163   3.303   2.662  14.504 -0.1417 -0.3362  0.0212
  275MPD2    H7 4164   3.264   2.568  14.502 -0.6242 -0.1264 -0.8357
  276TMC3    C1 4165   3.512   2.585  14.597  0.5628 -0.2325  0.6044
  276TMC3    C2 4166   3.443   2.513  14.689 -0.3391 -0.4138  0.2213
  276TMC3    C3 4167   3.510   2.458  14.793 -0.3283  0.0867 -0.1790
  276TMC3    C4 4168   3.647   2.589  14.602  0.1637  0.3337 -0.1314
  276TMC3    C5 4169   3.711   2.527  14.705  0.0001 -0.5673  0.0753
  276TMC3    C6 4170   3.646   2.452  14.801 -0.0785  0.6658  0.1773
  276TMC3     C 4171   3.444   2.680  14.523  0.5956 -0.1269 -0.6630
  276TMC3     O 4172   3.515   2.765  14.476  0.1196  0.1241 -0.1865
  276TMC3     H 4173   3.335   2.515  14.686 -0.2920  3.1448  0.8865
  276TMC3    H1 4174   3.699   2.650  14.529  0.1346  0.5492  0.0311
  276TMC3    H2 4175   3.693   2.404  14.887 -0.3890  1.0295  0.5531
  276TMC3    C7 4176   3.848   2.571  14.720  0.3310  0.2655 -0.2189
  276TMC3    C8 4177   3.427   2.386  14.883  0.5095  0.2591 -0.3847
  276TMC3    O1 4178   3.911   2.589  14.616  0.4351 -0.7635 -0.8896
  276TMC3    O2 4179   3.445   2.403  15.003 -0.2393 -0.4242  0.0726
  277MPD2     C 4180   0.357   1.915  13.213 -0.0284  1.5068 -0.0693
  277MPD2    C1 4181   0.224   1.955  13.218  0.5721 -0.4144  0.2466
  277MPD2    C2 4182   0.148   1.918  13.328  0.4030  0.1326  0.1290
  277MPD2    C3 4183   0.210   1.869  13.441  0.4293  0.4354 -0.5905
  277MPD2    C4 4184   0.344   1.846  13.444 -0.4288  0.4771  0.4292
  277MPD2    C5 4185   0.411   1.866  13.328 -0.1400 -0.0012  0.1082
  277MPD2     H 4186   0.045   1.948  13.346  0.4869 -0.1943  1.1126
  277MPD2    H1 4187   0.396   1.817  13.535 -0.3189 -0.3268  0.1106
  277MPD2    H2 4188   0.412   1.918  13.119 -0.9779  1.3918 -0.6367
  277MPD2    H3 4189   0.512   1.828  13.319  0.1938  0.9822 -0.2783
  277MPD2     N 4190   0.120   1.842  13.554  0.1467 -0.3608  0.1016
  277MPD2    H5 4191   0.023   1.850  13.528 -0.2502  0.6011  1.8565
  277MPD2    N1 4192   0.163   2.028  13.111  0.1363  0.1312  0.0763
  277MPD2    H7 4193   0.231   2.064  13.044 -0.1671  0.4799 -0.0387
  278TMC3    C1 4194   0.041   1.766  13.756  0.2285 -0.0913  0.3017
  278TMC3    C2 4195   0.055   1.706  13.881 -0.9141 -0.1747 -0.3101
  278TMC3    C3 4196   4.662   1.679  13.955  0.1353  1.4591  0.1886
  278TMC3    C4 4197   4.637   1.811  13.722 -0.0224 -0.4764  0.5906
  278TMC3    C5 4198   4.532   1.809  13.817  0.3694 -0.2517  0.6386
  278TMC3    C6 4199   4.538   1.732  13.927  0.2326 -0.7069 -0.2620
  278TMC3     C 4200   0.157   1.793  13.675  0.1120  0.6131  0.0938
  278TMC3     O 4201   0.267   1.768  13.728  0.0699 -0.1102 -0.3469
  278TMC3     H 4202   0.151   1.674  13.921 -0.0051  2.3480 -0.4149
  278TMC3    H1 4203   4.617   1.853  13.624 -1.3274 -0.8451  0.6928
  278TMC3    H2 4204   4.458   1.729  14.000 -0.4433 -2.0949 -1.0701
  278TMC3    C7 4205   4.413   1.896  13.782  0.2564 -0.6279 -0.0389
  278TMC3    C8 4206   4.668   1.558  14.038  0.1389 -0.4767 -0.2382
  278TMC3    O1 4207   4.440   2.003  13.730 -0.6797 -0.0620  0.2152
  278TMC3    O2 4208   0.054   1.541  14.095  0.6227 -0.2104 -0.0635
  279MPD2     C 4209   3.947   1.317   0.454  0.3791  0.1728  0.7028
  279MPD2    C1 4210   3.836   1.384   0.411  0.5022 -0.5910 -0.6424
  279MPD2    C2 4211   3.820   1.419   0.279 -0.5058  0.2010  0.5041
  279MPD2    C3 4212   3.933   1.402   0.196  1.0376 -0.5442  0.1398
  279MPD2    C4 4213   4.046   1.339   0.242  0.1652 -0.1705 -0.8550
  279MPD2    C5 4214   4.058   1.298   0.373 -0.4049 -0.0916 -0.5073
  279MPD2     H 4215   3.730   1.461   0.236 -1.3326 -1.0612  1.0303
  279MPD2    H1 4216   4.125   1.326   0.169  2.2638 -1.3189  1.5903
  279MPD2    H2 4217   3.961   1.276   0.554 -1.0858 -0.0285  0.8285
  279MPD2    H3 4218   4.152   1.262   0.412  0.6311  0.9576 -2.0526
  279MPD2     N 4219   3.934   1.434   0.057 -0.0636 -0.3594 -0.4970
  279MPD2    H5 4220   4.026   1.420   0.017  0.0697 -0.4776 -0.1450
  279MPD2    N1 4221   3.730   1.404   0.510  0.1976 -0.6019  0.2157
  279MPD2    H7 4222   3.732   1.352   0.597  0.1484 -1.6426 -0.4057
  280TMC3    C1 4223   3.550   1.511   0.605 -0.1124 -0.2013 -0.2670
  280TMC3    C2 4224   3.459   1.409   0.611  0.5764 -0.1921  0.3036
  280TMC3    C3 4225   3.382   1.403   0.724 -0.0975 -0.0000  1.1563
  280TMC3    C4 4226   3.552   1.611   0.701  0.7164  0.1412 -0.4450
  280TMC3    C5 4227   3.480   1.598   0.816 -1.0784 -0.1138 -0.0205
  280TMC3    C6 4228   3.384   1.499   0.827  0.1513  0.5094  0.4360
  280TMC3     C 4229   3.648   1.511   0.505  0.2493  0.0472  0.3013
  280TMC3     O 4230   3.640   1.599   0.418 -0.3713 -0.9543 -0.0000
  280TMC3     H 4231   3.453   1.336   0.532 -1.0209  1.7867 -1.4083
  280TMC3    H1 4232   3.614   1.698   0.684  1.2487  0.2464  2.0216
  280TMC3    H2 4233   3.328   1.490   0.919  1.7923 -1.8097  1.2279
  280TMC3    C7 4234   3.474   1.707   0.904  0.8964  0.8278  0.4040
  280TMC3    C8 4235   3.266   1.319   0.718  0.3744 -0.8728 -0.5590
  280TMC3    O1 4236   3.434   1.682   1.016  0.4445  0.5822 -0.6059
  280TMC3    O2 4237   3.157   1.372   0.745  0.2109  0.1676 -0.1469
  281TMC3    C1 4238   3.254   2.301  13.428  0.5158  0.3503 -0.0211
  281TMC3    C2 4239   3.318   2.379  13.334 -0.4262  0.0501 -0.6699
  281TMC3    C3 4240   3.306   2.333  13.202 -0.2397  0.0999  0.0120
  281TMC3    C4 4241   3.215   2.175  13.410  0.5365  0.0658  0.3264
  281TMC3    C5 4242   3.221   2.125  13.281  0.3289  0.7173 -0.7915
  281TMC3    C6 4243   3.274   2.202  13.179 -0.3372 -0.2343 -0.3053
  281TMC3     C 4244   3.169   2.379  13.518 -0.5436 -0.0825 -0.1762
  281TMC3     O 4245   3.118   2.309  13.604  0.0333  0.8038  0.0359
  281TMC3     H 4246   3.354   2.478  13.357 -0.4430 -0.4151  1.3375
  281TMC3    H1 4247   3.163   2.123  13.489  0.4764 -1.5531 -0.7747
  281TMC3    H2 4248   3.282   2.168  13.077 -0.7889 -1.9623  0.2362
  281TMC3    C7 4249   3.133   2.009  13.267 -0.0721  0.5864 -0.1119
  281TMC3    C8 4250   3.404   2.370  13.101  0.2020 -0.6286 -0.2096
  281TMC3    O1 4251   3.093   1.957  13.372  0.1095  0.0779 -0.2354
  281TMC3    O2 4252   3.492   2.288  13.072  0.6038 -0.7598 -0.0933
  282MPD2     C 4253   4.527   3.531  15.207 -0.8712 -0.0115  0.3840
  282MPD2    C1 4254   4.435   3.447  15.249  0.2876 -0.0812  0.3995
  282MPD2    C2 4255   4.383   3.358  15.161  0.3728  0.3401  0.4536
  282MPD2    C3 4256   4.423   3.363  15.030 -0.7516  0.2404  0.0030
  282MPD2    C4 4257   4.515   3.448  14.985  0.0886 -0.9601  0.4298
  282MPD2    C5 4258   4.570   3.533  15.080  0.3933  0.3280 -0.9523
  282MPD2     H 4259   4.312   3.286  15.199 -0.6821  0.2546 -1.6604
  282MPD2    H1 4260   4.539   3.449  14.879  1.3504  2.1855  0.7368
  282MPD2    H2 4261   4.569   3.600  15.280 -1.5667 -0.8164  1.5394
  282MPD2    H3 4262   4.653   3.598  15.054  0.9402  0.8154  2.0207
  282MPD2     N 4263   4.353   3.279  14.940 -0.1306  0.0595 -0.4345
  282MPD2    H5 4264   4.275   3.232  14.985 -0.9135  1.9779  0.1866
  282MPD2    N1 4265   4.407   3.439  15.388  0.0992  0.1057 -0.4725
  282MPD2    H7 4266   4.443   3.514  15.447 -0.1288 -0.4587  0.3723
  283TMC3    C1 4267   4.333   3.365  15.591  0.0693  0.7531  0.1741
  283TMC3    C2 4268   4.325   3.499  15.629 -1.1480 -0.3838  0.0658
  283TMC3    C3 4269   4.314   3.523  15.765 -0.6754 -0.1880 -0.2890
  283TMC3    C4 4270   4.317   3.258  15.671 -0.3904 -0.4264  0.2203
  283TMC3    C5 4271   4.282   3.293  15.803  0.4224  0.2226  0.2549
  283TMC3    C6 4272   4.281   3.422  15.850 -0.4591 -0.0863 -0.4709
  283TMC3     C 4273   4.359   3.334  15.454  0.1444  0.1114 -0.0248
  283TMC3     O 4274   4.347   3.216  15.424  0.5269  0.2998  0.5550
  283TMC3     H 4275   4.311   3.576  15.555  1.6167  1.7372  1.7640
  283TMC3    H1 4276   4.325   3.152  15.648 -1.8350 -0.7026  0.9802
  283TMC3    H2 4277   4.258   3.446  15.953 -0.7431  0.3085 -0.6241
  283TMC3    C7 4278   4.248   3.190  15.890 -0.0540 -0.5015 -0.6525
  283TMC3    C8 4279   4.332   3.657  15.813 -0.0504  0.4855  0.2325
  283TMC3    O1 4280   4.186   3.224  15.987 -0.4521  0.2454 -0.0272
  283TMC3    O2 4281   4.329   3.673  15.936  0.4987 -0.4127  0.1825
  284MPD2     C 4282   3.451   3.219  12.260  1.0360  0.6870  0.4907
  284MPD2    C1 4283   3.552   3.159  12.191  0.5940 -0.4495  0.5894
  284MPD2    C2 4284   3.596   3.031  12.225  0.2580 -0.4137 -0.1362
  284MPD2    C3 4285   3.527   2.956  12.314  0.7039  0.1618  0.2011
  284MPD2    C4 4286   3.409   3.010  12.360  0.3431  0.7906  0.6662
  284MPD2    C5 4287   3.370   3.137  12.341  0.8919 -0.8006 -0.5161
  284MPD2     H 4288   3.671   2.984  12.164  1.7196 -0.3530  1.6205
  284MPD2    H1 4289   3.335   2.955  12.416  0.6229  1.1088  1.3571
  284MPD2    H2 4290   3.419   3.320  12.237 -0.2554  0.3841  0.9729
  284MPD2    H3 4291   3.273   3.177  12.367  0.8560 -0.7895 -0.6684
  284MPD2     N 4292   3.564   2.816  12.323 -0.0043  0.2511  0.6842
  284MPD2    H5 4293   3.640   2.791  12.261  0.3108  0.0580  1.1541
  284MPD2    N1 4294   3.623   3.220  12.086 -0.5216  0.3620 -0.7803
  284MPD2    H7 4295   3.697   3.168  12.041 -0.3117  0.7397 -0.8694
  285TMC3    C1 4296   3.698   3.365  11.924  0.4775 -0.2503 -0.2097
  285TMC3    C2 4297   3.700   3.262  11.832  0.3818 -0.7328 -0.3858
  285TMC3    C3 4298   3.756   3.289  11.704 -0.0613  0.1789 -0.3845
  285TMC3    C4 4299   3.743   3.488  11.896  0.8565 -0.4210  0.8672
  285TMC3    C5 4300   3.791   3.509  11.773  1.2382  0.5822  0.2271
  285TMC3    C6 4301   3.814   3.413  11.675 -0.0158 -0.0924 -0.5022
  285TMC3     C 4302   3.611   3.347  12.040 -0.4440  0.7784  0.2535
  285TMC3     O 4303   3.549   3.437  12.086 -0.1075 -0.4790  0.0708
  285TMC3     H 4304   3.651   3.166  11.845  0.2399 -0.3558  1.8357
  285TMC3    H1 4305   3.746   3.559  11.978 -0.3642  0.3280  0.2718
  285TMC3    H2 4306   3.843   3.441  11.575 -2.6639  0.0524 -1.2136
  285TMC3    C7 4307   3.874   3.628  11.768 -0.3753  0.4179 -0.8300
  285TMC3    C8 4308   3.739   3.190  11.596 -0.1084  0.0384 -0.3563
  285TMC3    O1 4309   3.840   3.717  11.847 -0.5264 -0.0821 -0.3590
  285TMC3    O2 4310   3.630   3.140  11.570 -0.7210  0.0662  0.1895
  286MPD2     C 4311   2.794   0.771   2.020 -0.4024  0.0136 -0.3105
  286MPD2    C1 4312   2.820   0.802   1.887  0.0922 -0.0945 -0.1568
  286MPD2    C2 4313   2.921   0.745   1.824  0.4478 -0.3316  0.4335
  286MPD2    C3 4314   3.005   0.661   1.891 -0.5032  0.1086  0.0789
  286MPD2    C4 4315   2.972   0.622   2.015  0.0963  0.3809 -0.2504
  286MPD2    C5 4316   2.868   0.676   2.083 -0.0368  0.0834  0.3153
  286MPD2     H 4317   2.944   0.771   1.721 -4.1787 -0.1705 -0.5564
  286MPD2    H1 4318   3.032   0.554   2.076 -1.4604 -2.0681 -1.4566
  286MPD2    H2 4319   2.704   0.807   2.068  0.6615  0.1706  1.5623
  286MPD2    H3 4320   2.840   0.653   2.185  1.3304 -3.1738 -0.0354
  286MPD2     N 4321   3.125   0.618   1.837  0.2922  0.2753  0.6912
  286MPD2    H5 4322   3.194   0.573   1.895 -0.5845  0.4559  1.8811
  286MPD2    N1 4323   2.748   0.903   1.817  0.3663 -0.4843  0.3486
  286MPD2    H7 4324   2.783   0.924   1.724 -1.3267  2.6467  0.3929
  287TMC3    C1 4325   3.305   0.595   1.690 -0.6568 -0.5226  0.3682
  287TMC3    C2 4326   3.329   0.538   1.566  0.0741 -1.1860  0.6707
  287TMC3    C3 4327   3.455   0.489   1.544 -1.0381  0.4485 -1.4676
  287TMC3    C4 4328   3.400   0.619   1.788  0.9509  0.5614  0.0697
  287TMC3    C5 4329   3.529   0.583   1.752  0.0762  0.1635 -0.4679
  287TMC3    C6 4330   3.559   0.505   1.638  0.0678  0.1458 -0.1056
  287TMC3     C 4331   3.165   0.619   1.704  1.2225  0.6007 -0.8273
  287TMC3     O 4332   3.093   0.626   1.606  0.4865 -0.2201 -0.1393
  287TMC3     H 4333   3.250   0.523   1.493  0.5682  1.3845 -0.3849
  287TMC3    H1 4334   3.378   0.688   1.869  3.7743  0.3289  1.0492
  287TMC3    H2 4335   3.663   0.495   1.609  0.0090 -0.3947 -0.1360
  287TMC3    C7 4336   3.638   0.662   1.801  0.3036 -0.5071  0.1915
  287TMC3    C8 4337   3.471   0.412   1.421  0.5298  0.0049 -0.2168
  287TMC3    O1 4338   3.750   0.617   1.783 -0.1978  0.0347 -0.0505
  287TMC3    O2 4339   3.424   0.448   1.314  0.0409 -0.5065  0.0597
  288TMC3    C1 4340   4.568   1.018  14.587 -0.7266  0.7047 -0.1046
  288TMC3    C2 4341   4.514   0.964  14.698  0.6720 -0.9276  0.2144
  288TMC3    C3 4342   4.536   1.033  14.813  0.5420 -0.3058 -0.6546
  288TMC3    C4 4343   4.647   1.128  14.586 -0.0383 -0.4498 -0.0941
  288TMC3    C5 4344   4.688   1.177  14.705  0.7789  0.5293 -0.4353
  288TMC3    C6 4345   4.628   1.129  14.822  0.2252  1.0158  0.6269
  288TMC3     C 4346   4.547   0.952  14.454 -0.4178  0.6113 -0.0777
  288TMC3     O 4347   4.559   1.027  14.358  0.3898 -0.4118  0.6236
  288TMC3     H 4348   4.447   0.879  14.695 -1.6346  0.8626  0.7218
  288TMC3    H1 4349   4.693   1.174  14.500 -1.1374 -1.4156 -1.1995
  288TMC3    H2 4350   4.649   1.183  14.914 -0.0620  0.7467  0.8475
  288TMC3    C7 4351   0.071   1.282  14.717  1.3052 -0.3213 -0.3182
  288TMC3    C8 4352   4.478   0.977  14.934  0.2796 -0.7604 -0.6827
  288TMC3    O1 4353   0.102   1.308  14.834  0.4478  0.6106  0.4198
  288TMC3    O2 4354   4.527   1.004  15.044  0.2555 -0.1924 -0.3953
  289MPD2     C 4355   0.161   0.211  14.351  0.3798  0.0401  0.0876
  289MPD2    C1 4356   0.139   0.302  14.456 -0.0474 -0.1660  0.7207
  289MPD2    C2 4357   0.029   0.286  14.535  0.2918  0.1362 -0.0927
  289MPD2    C3 4358   4.660   0.186  14.501  0.0548 -0.1410 -0.1647
  289MPD2    C4 4359   4.683   0.088  14.403 -0.0149 -0.3028  0.2549
  289MPD2    C5 4360   0.075   0.106  14.327 -0.2110 -0.0911  0.3048
  289MPD2     H 4361   0.007   0.368  14.602 -1.6031 -0.7672  0.3698
  289MPD2    H1 4362   4.612   0.008  14.383  2.2242 -1.8222 -1.5900
  289MPD2    H2 4363   0.254   0.215  14.294 -1.2685 -2.3108 -2.7495
  289MPD2    H3 4364   0.088   0.039  14.243 -1.7629  0.0367 -0.0551
  289MPD2     N 4365   4.524   0.191  14.552  0.6574 -0.5866 -0.2832
  289MPD2    H5 4366   4.456   0.124  14.517  0.4884 -0.0077 -1.0848
  289MPD2    N1 4367   0.235   0.404  14.469  0.2678  0.4719 -0.4909
  289MPD2    H7 4368   0.309   0.410  14.400  0.6162  1.4670 -0.0438
  290TMC3    C1 4369   4.331   0.271  14.656  0.4462  0.5705  1.0424
  290TMC3    C2 4370   4.267   0.388  14.618 -0.4276 -0.7259 -0.0158
  290TMC3    C3 4371   4.159   0.369  14.537 -0.6822  0.2718 -0.0878
  290TMC3    C4 4372   4.283   0.148  14.638  0.2220 -0.5907  0.2639
  290TMC3    C5 4373   4.160   0.135  14.580 -0.1722 -0.1669 -0.7379
  290TMC3    C6 4374   4.105   0.242  14.511  0.2465  0.4111 -0.2037
  290TMC3     C 4375   4.475   0.284  14.639  0.2752  0.0866 -1.1604
  290TMC3     O 4376   4.526   0.386  14.673 -0.2154 -0.0439 -0.0887
  290TMC3     H 4377   4.320   0.483  14.624 -1.4523 -0.1341 -0.3040
  290TMC3    H1 4378   4.344   0.071  14.685 -2.2619 -1.0805  2.6433
  290TMC3    H2 4379   4.021   0.230  14.444 -1.6635  0.6421  2.1352
  290TMC3    C7 4380   4.084   0.010  14.587  0.0239  0.7411  0.2406
  290TMC3    C8 4381   4.135   0.474  14.443  0.5457 -0.7210 -0.2577
  290TMC3    O1 4382   3.979   0.021  14.529 -0.1345  0.1164 -0.4802
  290TMC3    O2 4383   4.080   0.435  14.339  0.6567  0.3392 -0.5636
  291MPD2     C 4384   4.376   4.418   0.398 -0.3147 -0.4724  0.3507
  291MPD2    C1 4385   4.337   4.298   0.337  1.1682 -1.0871  0.5310
  291MPD2    C2 4386   4.428   4.229   0.252 -0.1710 -0.3296  0.3246
  291MPD2    C3 4387   4.557   4.280   0.235 -0.7735 -0.7095 -0.1445
  291MPD2    C4 4388   4.592   4.392   0.310 -0.6768 -0.7595  0.1650
  291MPD2    C5 4389   4.504   4.463   0.394  0.0632  0.6473  0.5117
  291MPD2     H 4390   4.384   4.146   0.198 -1.0670  1.4292 -1.6756
  291MPD2    H1 4391   4.690   4.437   0.305 -1.2211  0.5280  1.1196
  291MPD2    H2 4392   4.300   4.462   0.462 -3.1577 -3.1773 -1.1508
  291MPD2    H3 4393   4.541   4.549   0.448  0.1807  0.8224  0.1512
  291MPD2     N 4394   4.652   4.220   0.148  0.3499 -0.4157 -0.0515
  291MPD2    H5 4395   0.022   4.263   0.147  0.5337 -0.7589  1.8274
  291MPD2    N1 4396   4.208   4.252   0.336 -0.1108  0.0976  0.3171
  291MPD2    H7 4397   4.188   4.175   0.272 -1.8351  0.5143  0.3459
  292TMC3    C1 4398   3.976   4.215   0.389 -1.0885  1.1506  0.0193
  292TMC3    C2 4399   3.896   4.219   0.498 -0.2387 -0.6425 -0.1289
  292TMC3    C3 4400   3.788   4.125   0.513 -0.1003 -0.2578 -0.2874
  292TMC3    C4 4401   3.963   4.122   0.290  0.1266  0.0038 -0.2481
  292TMC3    C5 4402   3.855   4.038   0.304 -0.0451  0.2751  0.3549
  292TMC3    C6 4403   3.771   4.026   0.416  0.5904 -0.2792 -0.1051
  292TMC3     C 4404   4.101   4.294   0.411 -0.4354 -0.0050 -0.8060
  292TMC3     O 4405   4.106   4.375   0.502 -0.7978 -0.2981  0.1973
  292TMC3     H 4406   3.905   4.299   0.570 -0.9831 -1.4170  0.8339
  292TMC3    H1 4407   4.020   4.124   0.198  0.6552  0.6482  0.0985
  292TMC3    H2 4408   3.707   3.939   0.427 -0.6073  0.4490 -1.2678
  292TMC3    C7 4409   3.851   3.924   0.208  0.6646 -0.1235  0.2606
  292TMC3    C8 4410   3.737   4.099   0.642 -0.2632  1.2124  0.1544
  292TMC3    O1 4411   3.961   3.907   0.153  0.0053 -0.0724  0.4629
  292TMC3    O2 4412   3.804   4.145   0.735 -0.3784 -0.1119 -1.0038
  293MPD2     C 4413   1.307   2.423  12.447 -0.4720 -0.5699  0.3481
  293MPD2    C1 4414   1.246   2.317  12.509 -0.4134 -0.5299 -0.3982
  293MPD2    C2 4415   1.290   2.275  12.631 -0.3309 -0.2896  0.1960
  293MPD2    C3 4416   1.418   2.319  12.674 -1.2339 -0.1315  1.1104
  293MPD2    C4 4417   1.477   2.426  12.609  0.8735  0.0952 -0.3243
  293MPD2    C5 4418   1.420   2.480  12.496 -0.8026 -0.0492  0.1657
  293MPD2     H 4419   1.255   2.197  12.698 -0.0393 -0.6381 -0.0553
  293MPD2    H1 4420   1.568   2.472  12.646  0.5674  1.1917 -0.9511
  293MPD2    H2 4421   1.257   2.464  12.360  1.0124  1.6120  0.5277
  293MPD2    H3 4422   1.473   2.561  12.447 -0.3085  0.0769  0.9035
  293MPD2     N 4423   1.473   2.269  12.788 -0.0386 -0.3685  0.2296
  293MPD2    H5 4424   1.415   2.210  12.846  0.0565 -0.4132  0.2803
  293MPD2    N1 4425   1.119   2.278  12.462 -0.3347 -0.2155  0.1545
  293MPD2    H7 4426   1.093   2.323  12.375 -0.0229 -0.8472 -0.2667
  294TMC3    C1 4427   0.930   2.144  12.419  0.9385  0.0206 -0.0513
  294TMC3    C2 4428   0.818   2.093  12.483 -0.8939  0.0633  0.4281
  294TMC3    C3 4429   0.709   2.053  12.409 -0.6128  0.1339  0.3288
  294TMC3    C4 4430   0.946   2.146  12.283 -0.6607 -0.1013  0.2429
  294TMC3    C5 4431   0.834   2.120  12.212  1.6270  0.0613  0.5869
  294TMC3    C6 4432   0.721   2.064  12.275 -0.1408  0.3861  0.4463
  294TMC3     C 4433   1.041   2.178  12.508 -0.1597 -0.1921 -0.1262
  294TMC3     O 4434   1.045   2.105  12.608  0.3096 -0.3573  0.5869
  294TMC3     H 4435   0.810   2.086  12.591  0.0835  2.6052  0.6439
  294TMC3    H1 4436   1.045   2.162  12.242 -0.9223 -1.7410 -1.0172
  294TMC3    H2 4437   0.626   2.062  12.224 -0.1898  0.6912  0.5249
  294TMC3    C7 4438   0.826   2.127  12.074  0.7382  0.4805  0.4465
  294TMC3    C8 4439   0.621   1.960  12.474  0.2841 -0.1017  0.2449
  294TMC3    O1 4440   0.720   2.084  12.029  0.0430  0.5897  0.6458
  294TMC3    O2 4441   0.600   1.965  12.591 -0.0641 -0.1175  0.3200
  295MPD2     C 4442   1.123   3.710   0.058  0.5999 -0.2675 -0.0054
  295MPD2    C1 4443   1.168   3.843   0.068 -0.0896 -0.5429 -0.1645
  295MPD2    C2 4444   1.152   3.907   0.183  0.1867 -0.2775 -0.0705
  295MPD2    C3 4445   1.102   3.842   0.293  0.4678 -0.1327  0.1973
  295MPD2    C4 4446   1.074   3.707   0.286 -0.2390 -0.2506 -0.3951
  295MPD2    C5 4447   1.086   3.641   0.169 -0.1034 -0.1290  0.1866
  295MPD2     H 4448   1.189   4.009   0.184 -0.3521 -0.0753 -1.4280
  295MPD2    H1 4449   1.044   3.656   0.376 -0.2638  0.7457  0.1614
  295MPD2    H2 4450   1.133   3.650  17.657  0.8669 -3.2397  2.0046
  295MPD2    H3 4451   1.064   3.535   0.163  1.7231 -0.4593 -0.8156
  295MPD2     N 4452   1.078   3.903   0.413 -0.6023  0.7300 -0.0529
  295MPD2    H5 4453   1.043   3.851   0.493  0.6046 -0.8283 -0.5246
  295MPD2    N1 4454   1.223   3.918  17.655 -0.0747  0.3765  0.0268
  295MPD2    H7 4455   1.236   4.012   0.003  1.2695  0.1980  0.0397
  296TMC3    C1 4456   1.087   4.076   0.577 -0.5954 -0.8476 -0.2740
  296TMC3    C2 4457   1.138   3.993   0.672  0.1360  0.1765  0.4410
  296TMC3    C3 4458   1.157   4.051   0.796 -0.5306  0.4461 -0.6959
  296TMC3    C4 4459   1.049   4.208   0.594  0.3986 -0.2713 -0.4891
  296TMC3    C5 4460   1.065   4.257   0.717 -0.6048 -0.3324  0.6616
  296TMC3    C6 4461   1.119   4.181   0.820 -0.5768  0.4239  0.9067
  296TMC3     C 4462   1.084   4.035   0.436 -0.6995 -0.3110  0.2882
  296TMC3     O 4463   1.076   4.132   0.359  0.0614 -0.2614 -0.2720
  296TMC3     H 4464   1.183   3.898   0.644 -0.4123  0.3428 -1.0088
  296TMC3    H1 4465   1.010   4.276   0.520 -0.2534  0.8195  0.8488
  296TMC3    H2 4466   1.146   4.217   0.919  3.6092 -0.8062  0.2300
  296TMC3    C7 4467   1.037   4.397   0.735  0.5772  0.1852 -0.4068
  296TMC3    C8 4468   1.249   3.981   0.888  0.4799 -0.2916 -0.1082
  296TMC3    O1 4469   0.986   4.456   0.642  0.0721 -0.4415  0.4634
  296TMC3    O2 4470   1.230   3.860   0.906 -0.2177 -0.2210  0.0742
  297MPD2     C 4471   4.122   2.066  16.643  1.2906  0.0817 -0.2974
  297MPD2    C1 4472   4.033   2.131  16.567  0.0800 -0.0336  0.0285
  297MPD2    C2 4473   4.073   2.241  16.496  0.2166  0.0182  0.3740
  297MPD2    C3 4474   4.210   2.287  16.503  0.4481  0.5556 -0.4997
  297MPD2    C4 4475   4.296   2.212  16.564  0.0906  0.3708  0.4430
  297MPD2    C5 4476   4.254   2.104  16.637 -0.1060 -0.2215  0.1652
  297MPD2     H 4477   3.992   2.292  16.445 -1.9050 -4.6943 -0.9913
  297MPD2    H1 4478   4.394   2.251  16.586  1.0732 -0.5296 -2.3336
  297MPD2    H2 4479   4.092   1.978  16.698  0.7683  1.7007  1.9649
  297MPD2    H3 4480   4.337   2.054  16.687  0.4826  0.4217 -0.1747
  297MPD2     N 4481   4.235   2.415  16.449  0.6439 -0.3600 -0.3102
  297MPD2    H5 4482   4.157   2.464  16.406 -0.5957 -1.6829  0.4227
  297MPD2    N1 4483   3.891   2.113  16.572  0.2923  0.1079 -0.1582
  297MPD2    H7 4484   3.833   2.158  16.502 -0.9652 -0.7537  0.3296
  298TMC3    C1 4485   3.697   2.074  16.676  0.3759  0.9693 -0.5731
  298TMC3    C2 4486   3.631   2.038  16.564 -0.1326  0.2791 -0.5881
  298TMC3    C3 4487   3.505   2.090  16.549 -0.0903  0.4150 -1.2577
  298TMC3    C4 4488   3.651   2.158  16.773  0.3788  0.2086 -0.5581
  298TMC3    C5 4489   3.528   2.208  16.758 -0.3693 -0.2305  0.1383
  298TMC3    C6 4490   3.453   2.171  16.648 -0.7894 -0.6724  0.2627
  298TMC3     C 4491   3.832   2.055  16.681 -0.0154  0.3066 -0.5211
  298TMC3     O 4492   3.877   2.011  16.786  0.7964  0.0087  0.5375
  298TMC3     H 4493   3.677   1.972  16.492 -0.5547 -1.1673  0.4574
  298TMC3    H1 4494   3.716   2.191  16.853  2.4089  0.2793 -2.2453
  298TMC3    H2 4495   3.355   2.218  16.642 -0.4267 -0.0542 -0.7092
  298TMC3    C7 4496   3.505   2.341  16.810 -0.7364  0.2737  0.5712
  298TMC3    C8 4497   3.438   2.093  16.422  0.5107  0.7841  0.2544
  298TMC3    O1 4498   3.528   2.372  16.925 -0.1330  0.4023 -0.6648
  298TMC3    O2 4499   3.347   2.176  16.408  0.4923 -0.4301 -0.0364
  299MPD2     C 4500   4.638   1.878  10.342  0.2353  0.0763  0.2716
  299MPD2    C1 4501   4.647   2.010  10.306  0.6016 -1.2138 -0.1406
  299MPD2    C2 4502   4.539   2.062  10.245 -0.2084 -0.0678  0.9312
  299MPD2    C3 4503   4.420   1.997  10.218  0.5884  0.1271  0.2752
  299MPD2    C4 4504   4.412   1.864  10.261  0.1419 -0.3204  1.0867
  299MPD2    C5 4505   4.524   1.811  10.323  0.8162 -0.1609 -0.2845
  299MPD2     H 4506   4.546   2.168  10.219  0.8294  0.3537  2.9959
  299MPD2    H1 4507   4.318   1.811  10.264 -0.0956  0.1659  2.0951
  299MPD2    H2 4508   4.715   1.831  10.401 -1.6415 -2.2064  0.8980
  299MPD2    H3 4509   4.526   1.711  10.362  2.0626  0.0936  0.3075
  299MPD2     N 4510   4.297   2.060  10.169  0.2777 -0.0656  0.3612
  299MPD2    H5 4511   4.214   2.003  10.162  1.0243 -1.1820  0.6831
  299MPD2    N1 4512   0.041   2.084  10.344 -0.1500 -1.0735  0.0390
  299MPD2    H7 4513   0.113   2.032  10.392  2.3392  2.0984 -0.2671
  300TMC3    C1 4514   4.152   2.240  10.114  0.2002 -0.0849  0.6136
  300TMC3    C2 4515   4.142   2.362  10.066 -0.6935  0.5082  0.4280
  300TMC3    C3 4516   4.022   2.432  10.085 -0.3034 -0.4125  0.4552
  300TMC3    C4 4517   4.051   2.175  10.176  0.6471  0.9255  0.3758
  300TMC3    C5 4518   3.941   2.249  10.211 -0.2206  0.6774  0.6017
  300TMC3    C6 4519   3.926   2.381  10.163 -0.0551  0.4940 -0.1570
  300TMC3     C 4520   4.285   2.197  10.143  0.5534 -1.2508  0.0626
  300TMC3     O 4521   4.370   2.288  10.144  0.2089 -1.0091 -0.2755
  300TMC3     H 4522   4.225   2.411  10.017 -0.1373  1.3660  2.2172
  300TMC3    H1 4523   4.059   2.079  10.226 -0.7332 -0.0586 -1.2753
  300TMC3    H2 4524   3.843   2.443  10.194 -0.0276  0.0199  0.8463
  300TMC3    C7 4525   3.887   2.211  10.345 -0.1959  0.5994 -0.8879
  300TMC3    C8 4526   4.040   2.574  10.100  0.4932 -0.2347 -0.1985
  300TMC3    O1 4527   3.887   2.090  10.373  0.1985  0.6254  0.6529
  300TMC3    O2 4528   4.038   2.636   9.993  0.3760  0.3908  0.2851
  301MPD2     C 4529   1.131   2.772   1.854  0.8437 -0.3074 -0.1443
  301MPD2    C1 4530   1.163   2.774   1.718  0.4404  0.0491  0.4865
  301MPD2    C2 4531   1.261   2.693   1.672  0.7906  0.1459  0.3068
  301MPD2    C3 4532   1.326   2.597   1.755  0.0340  0.5210  0.0509
  301MPD2    C4 4533   1.293   2.589   1.890 -0.1413 -0.0673 -0.1842
  301MPD2    C5 4534   1.193   2.677   1.938  0.2887 -0.5893 -0.9022
  301MPD2     H 4535   1.280   2.703   1.566  1.8593  1.0350  0.5841
  301MPD2    H1 4536   1.352   2.528   1.958 -1.4925 -0.7630  0.3602
  301MPD2    H2 4537   1.039   2.810   1.899  0.7282  1.0957 -1.5926
  301MPD2    H3 4538   1.162   2.667   2.041 -0.5208 -1.5663 -1.2435
  301MPD2     N 4539   1.429   2.505   1.708  0.1170 -0.8124 -0.7138
  301MPD2    H5 4540   1.469   2.442   1.778  0.3363 -0.4393 -0.5048
  301MPD2    N1 4541   1.089   2.854   1.624 -0.4178  0.1782 -0.2489
  301MPD2    H7 4542   1.091   2.840   1.523 -2.0780 -1.4258 -0.0681
  302TMC3    C1 4543   1.551   2.403   1.536 -0.0679  0.0889 -0.5330
  302TMC3    C2 4544   1.569   2.292   1.615  0.7647  0.3266  0.5423
  302TMC3    C3 4545   1.655   2.195   1.573  0.3819 -0.6312  0.3953
  302TMC3    C4 4546   1.615   2.416   1.414  0.4924 -0.5506  0.0572
  302TMC3    C5 4547   1.707   2.317   1.387 -0.3897 -1.0379  0.5104
  302TMC3    C6 4548   1.735   2.212   1.464  0.0533  0.1203  0.1923
  302TMC3     C 4549   1.466   2.509   1.573 -0.1604 -0.3121  0.2973
  302TMC3     O 4550   1.407   2.564   1.480  0.1230  0.1122  0.4920
  302TMC3     H 4551   1.522   2.270   1.711 -0.4688 -2.2644 -0.6717
  302TMC3    H1 4552   1.583   2.491   1.342  1.0462 -0.8782 -0.5254
  302TMC3    H2 4553   1.812   2.139   1.443  0.0619  1.0889 -3.1619
  302TMC3    C7 4554   1.767   2.323   1.258  0.1244  0.2564  0.3480
  302TMC3    C8 4555   1.625   2.060   1.612 -0.2616  0.0120 -0.3989
  302TMC3    O1 4556   1.883   2.292   1.264  0.3257 -0.0760 -0.0018
  302TMC3    O2 4557   1.717   1.979   1.609  0.2460 -0.2948 -0.4275
  303MPD2     C 4558   2.334   2.406  10.381  0.5253 -0.2737 -0.8529
  303MPD2    C1 4559   2.217   2.348  10.424  0.2931  0.5311  0.5745
  303MPD2    C2 4560   2.105   2.358  10.349  0.1621 -0.7904  0.2292
  303MPD2    C3 4561   2.095   2.436  10.234 -0.1659  0.1454  0.0236
  303MPD2    C4 4562   2.218   2.473  10.191  0.3661 -0.3688  0.5814
  303MPD2    C5 4563   2.335   2.471  10.262 -0.5939 -0.3488 -0.4064
  303MPD2     H 4564   2.013   2.305  10.374 -0.7099  1.2044  1.1982
  303MPD2    H1 4565   2.233   2.509  10.090 -0.3995  1.2621  1.0460
  303MPD2    H2 4566   2.428   2.385  10.432  0.2150  1.9151  0.5844
  303MPD2    H3 4567   2.422   2.495  10.202 -0.7392 -0.8255 -0.8043
  303MPD2     N 4568   1.984   2.448  10.152 -0.0861  0.4669 -0.7393
  303MPD2    H5 4569   1.993   2.505  10.068 -1.8326 -0.7502 -1.7735
  303MPD2    N1 4570   2.228   2.270  10.544  0.8824  0.1142  0.2445
  303MPD2    H7 4571   2.316   2.267  10.594  0.5875 -1.1571  0.7003
  304TMC3    C1 4572   2.162   2.140  10.732  0.8507  0.0975  0.1588
  304TMC3    C2 4573   2.072   2.119  10.829  0.4513  0.1724  0.6275
  304TMC3    C3 4574   2.082   2.003  10.901  0.0171  0.0465 -0.2549
  304TMC3    C4 4575   2.263   2.049  10.702 -0.4421  0.7380 -0.2553
  304TMC3    C5 4576   2.270   1.935  10.775  0.5184  0.3829 -0.9190
  304TMC3    C6 4577   2.195   1.925  10.887  0.2819  0.4448 -0.0920
  304TMC3     C 4578   2.120   2.221  10.612  0.2108 -0.7732 -0.1965
  304TMC3     O 4579   1.998   2.238  10.606 -0.0080 -0.3641  0.0932
  304TMC3     H 4580   1.992   2.190  10.846 -1.4215 -1.8693  0.4311
  304TMC3    H1 4581   2.313   2.068  10.608 -2.0398  1.3039 -0.9696
  304TMC3    H2 4582   2.218   1.832  10.938  0.5553 -0.1010 -1.2017
  304TMC3    C7 4583   2.270   1.820  10.686 -0.4210 -0.2438 -1.0774
  304TMC3    C8 4584   1.960   1.922  10.880 -0.1734  0.9049 -0.6340
  304TMC3    O1 4585   2.203   1.839  10.583 -1.1660  0.5614  0.1304
  304TMC3    O2 4586   1.883   1.954  10.787 -0.2890 -0.7430  0.1760
  305MPD2     C 4587   4.308   3.398  13.846 -0.0990  0.6224  0.1702
  305MPD2    C1 4588   4.435   3.438  13.831 -0.5085  0.0874 -0.0160
  305MPD2    C2 4589   4.483   3.459  13.704  0.0752 -0.0643 -0.6231
  305MPD2    C3 4590   4.411   3.438  13.593  0.3091 -0.2593 -0.3549
  305MPD2    C4 4591   4.280   3.395  13.613 -0.5772 -0.3312 -0.0691
  305MPD2    C5 4592   4.236   3.371  13.739  0.1459  0.0716 -0.5801
  305MPD2     H 4593   4.584   3.485  13.674 -0.2688  0.8095 -1.0298
  305MPD2    H1 4594   4.210   3.380  13.532  0.2808 -1.4528 -0.6065
  305MPD2    H2 4595   4.252   3.381  13.937  0.4221 -1.3113  0.1166
  305MPD2    H3 4596   4.134   3.338  13.756 -0.0583  0.1163 -1.7610
  305MPD2     N 4597   4.470   3.472  13.468  0.1975 -0.6575  0.3058
  305MPD2    H5 4598   4.562   3.512  13.459 -0.8819  1.9106  0.7559
  305MPD2    N1 4599   4.514   3.445  13.957  0.2631  1.0405 -0.0184
  305MPD2    H7 4600   4.462   3.433  14.043  0.1026 -3.2161 -0.7207
  306TMC3    C1 4601   4.688   3.455  14.102  0.5111  0.2464  0.4471
  306TMC3    C2 4602   0.091   3.405  14.139 -0.4114  0.3997 -0.2536
  306TMC3    C3 4603   0.130   3.415  14.267  0.5402 -0.3857 -0.2149
  306TMC3    C4 4604   4.612   3.525  14.195  0.1836 -0.2868  0.0618
  306TMC3    C5 4605   4.655   3.533  14.322 -0.0102  0.2037  0.4887
  306TMC3    C6 4606   0.056   3.485  14.360 -0.3168  0.7345 -0.6155
  306TMC3     C 4607   4.645   3.457  13.965  0.2240  0.6657  0.3986
  306TMC3     O 4608   0.017   3.455  13.887  0.2712  0.0890 -0.2713
  306TMC3     H 4609   0.155   3.356  14.066 -1.1151  0.5369 -0.9568
  306TMC3    H1 4610   4.511   3.552  14.167  0.4444  0.6593  0.0295
  306TMC3    H2 4611   0.089   3.477  14.463  0.2010  1.2637 -0.7435
  306TMC3    C7 4612   4.575   3.615  14.415 -0.3845  0.6110 -0.0839
  306TMC3    C8 4613   0.231   3.323  14.318 -0.1007 -0.1496 -0.2413
  306TMC3    O1 4614   4.458   3.636  14.380 -0.3358 -0.4867 -0.5241
  306TMC3    O2 4615   0.276   3.247  14.235  0.1721 -0.0733 -0.0071
  307MPD2     C 4616   2.239   0.597   1.168  0.3913  0.3102 -0.1120
  307MPD2    C1 4617   2.229   0.732   1.174 -0.8264  0.0321  0.6091
  307MPD2    C2 4618   2.099   0.784   1.159  0.7355 -0.2551 -0.0885
  307MPD2    C3 4619   1.992   0.705   1.124 -0.0882  0.2669 -0.0148
  307MPD2    C4 4620   2.008   0.568   1.125  0.2853  0.0456 -0.6311
  307MPD2    C5 4621   2.134   0.510   1.148 -0.6639 -0.2316  0.3930
  307MPD2     H 4622   2.088   0.891   1.169 -0.2500 -0.3410 -0.3104
  307MPD2    H1 4623   1.928   0.496   1.107  0.1318  0.1679 -0.4333
  307MPD2    H2 4624   2.334   0.546   1.176 -0.8743 -1.9197  0.8671
  307MPD2    H3 4625   2.156   0.404   1.145 -0.8336 -0.2333 -0.5830
  307MPD2     N 4626   1.879   0.770   1.080 -0.5360 -0.3488  0.6611
  307MPD2    H5 4627   1.886   0.869   1.099 -0.8028 -0.1052 -0.4990
  307MPD2    N1 4628   2.335   0.821   1.188  0.1473  0.1799  0.2037
  307MPD2    H7 4629   2.314   0.920   1.182 -0.9940 -0.1070 -0.5834
  308TMC3    C1 4630   1.596   0.964   0.808  0.0321 -0.2755 -0.3522
  308TMC3    C2 4631   1.571   1.061   0.906  0.2407  0.8538  0.4376
  308TMC3    C3 4632   1.593   1.026   1.040 -0.2265 -0.6027 -0.4071
  308TMC3    C4 4633   1.646   0.842   0.846 -0.6211 -0.4750 -0.4033
  308TMC3    C5 4634   1.688   0.828   0.977  0.4281  0.8363 -0.0547
  308TMC3    C6 4635   1.665   0.913   1.075 -0.4155  0.2783  0.3084
  308TMC3     C 4636   1.579   0.989   0.667 -0.5195  0.0471 -0.4337
  308TMC3     O 4637   1.547   0.895   0.601 -0.4654 -0.0416  0.3739
  308TMC3     H 4638   1.540   1.158   0.868 -1.2857 -0.1179 -0.8004
  308TMC3    H1 4639   1.666   0.764   0.774  0.9685 -2.0732  1.7877
  308TMC3    H2 4640   1.691   0.901   1.180  0.9219 -2.2136 -0.3115
  308TMC3    C7 4641   1.770   0.714   1.010 -0.2973 -0.0307  0.3589
  308TMC3    C8 4642   1.602   1.142   1.129 -0.1585  0.4140  0.4071
  308TMC3    O1 4643   1.752   0.602   0.963 -0.1870 -0.3453 -0.5461
  308TMC3    O2 4644   1.566   1.130   1.243  0.3402  0.6035 -0.2242
  309MPD2     C 4645   1.873   1.743  16.766  0.0887  0.4740 -0.7771
  309MPD2    C1 4646   1.869   1.852  16.686  0.3854  0.0357  0.6066
  309MPD2    C2 4647   1.791   1.957  16.720  0.5357 -0.4949  0.4299
  309MPD2    C3 4648   1.716   1.956  16.838 -0.0099 -0.4207 -0.2681
  309MPD2    C4 4649   1.730   1.846  16.920 -0.1211  0.2998  0.1645
  309MPD2    C5 4650   1.809   1.741  16.886 -0.3655  0.1952  0.0946
  309MPD2     H 4651   1.808   2.039  16.652 -4.9438 -0.4781 -0.8930
  309MPD2    H1 4652   1.674   1.842  17.012  0.0699 -4.0584  0.0862
  309MPD2    H2 4653   1.916   1.644  16.755 -1.1524 -0.0508 -0.9532
  309MPD2    H3 4654   1.822   1.659  16.956 -0.8072 -1.7784 -2.1066
  309MPD2     N 4655   1.643   2.071  16.885 -0.7454 -0.9121 -0.2231
  309MPD2    H5 4656   1.626   2.070  16.985  1.4709 -1.9402  0.1555
  309MPD2    N1 4657   1.928   1.864  16.557 -0.0894 -0.5365  0.4466
  309MPD2    H7 4658   1.915   1.952  16.507 -1.9000 -0.6337  0.7304
  310TMC3    C1 4659   2.067   1.820  16.372 -0.6469  0.2478 -0.2970
  310TMC3    C2 4660   2.019   1.927  16.313 -0.8322 -0.3519  0.6332
  310TMC3    C3 4661   2.078   1.974  16.196  0.9174 -0.0443  1.0478
  310TMC3    C4 4662   2.167   1.751  16.314 -0.0290 -0.2142 -0.2874
  310TMC3    C5 4663   2.221   1.796  16.193  0.4258 -0.0240  0.0648
  310TMC3    C6 4664   2.181   1.915  16.130 -0.6803 -0.4397 -0.2242
  310TMC3     C 4665   2.016   1.778  16.502  0.3432  0.5530  0.2514
  310TMC3     O 4666   2.048   1.668  16.538  0.1005 -0.4281 -0.3728
  310TMC3     H 4667   1.937   1.989  16.349 -0.7445  0.0711  0.0936
  310TMC3    H1 4668   2.210   1.669  16.371  0.1959  0.1481  0.0627
  310TMC3    H2 4669   2.219   1.940  16.032  1.2736  0.2441  0.7103
  310TMC3    C7 4670   2.322   1.714  16.139  0.6785  0.4192  0.7016
  310TMC3    C8 4671   2.050   2.115  16.175 -1.1258 -0.0246 -0.3035
  310TMC3    O1 4672   2.337   1.601  16.185 -0.3324  0.1700  0.6453
  310TMC3    O2 4673   1.951   2.166  16.235  0.2651  0.2966  0.4133
  311MPD2     C 4674   3.932   3.718  12.269 -0.1772  0.0838 -0.8357
  311MPD2    C1 4675   3.982   3.739  12.398 -0.3727  0.0551 -0.3133
  311MPD2    C2 4676   3.890   3.735  12.502  0.5545  0.0522 -0.1708
  311MPD2    C3 4677   3.758   3.706  12.490 -0.0657  0.2988  0.5534
  311MPD2    C4 4678   3.717   3.676  12.364 -0.1434 -0.3897 -0.3519
  311MPD2    C5 4679   3.797   3.688  12.256  0.0104 -0.3168 -0.4149
  311MPD2     H 4680   3.928   3.757  12.601 -1.8382 -2.1860  1.2292
  311MPD2    H1 4681   3.613   3.650  12.344 -0.2736  0.6600 -1.0409
  311MPD2    H2 4682   3.994   3.736  12.182 -1.5434 -1.3631 -2.0850
  311MPD2    H3 4683   3.756   3.661  12.159  1.9106 -1.0737 -1.0163
  311MPD2     N 4684   3.680   3.702  12.607 -0.1339  0.4542  0.1462
  311MPD2    H5 4685   3.725   3.708  12.698  1.8132 -1.8511 -0.6734
  311MPD2    N1 4686   4.108   3.773  12.434  0.1553 -0.6995  0.9970
  311MPD2    H7 4687   4.129   3.775  12.534 -1.9608 -0.2547  1.4236
  312TMC3    C1 4688   3.489   3.671  12.731  0.0780 -0.1337 -0.0508
  312TMC3    C2 4689   3.348   3.663  12.741 -0.0738 -0.2570  0.1975
  312TMC3    C3 4690   3.291   3.605  12.852 -0.1530  0.1145 -0.5484
  312TMC3    C4 4691   3.570   3.635  12.838 -0.2357  0.0748  0.4547
  312TMC3    C5 4692   3.508   3.598  12.952  0.0716  0.2223 -0.1980
  312TMC3    C6 4693   3.371   3.568  12.962  0.5291  0.5312  0.4082
  312TMC3     C 4694   3.545   3.693  12.599  0.9644 -0.2278  0.0793
  312TMC3     O 4695   3.467   3.703  12.505  0.0925  0.5436  0.0684
  312TMC3     H 4696   3.290   3.678  12.650 -0.5126 -1.6612  0.2438
  312TMC3    H1 4697   3.678   3.632  12.839 -0.3096 -1.7593  3.2280
  312TMC3    H2 4698   3.328   3.524  13.050 -1.1345  1.5764  0.1094
  312TMC3    C7 4699   3.573   3.638  13.073 -0.3101  0.1852  0.3500
  312TMC3    C8 4700   3.148   3.597  12.859 -0.1781  0.6002 -0.1229
  312TMC3    O1 4701   3.653   3.730  13.061 -0.1106  0.1033 -0.5126
  312TMC3    O2 4702   3.098   3.555  12.965 -0.2055 -0.9673 -0.0368
  313MPD2     C 4703   3.924   2.818  10.716  0.1750 -0.1767  0.9939
  313MPD2    C1 4704   3.816   2.907  10.697 -0.0071  0.6810 -0.5073
  313MPD2    C2 4705   3.747   2.903  10.583 -0.1071  0.7983  0.0656
  313MPD2    C3 4706   3.783   2.827  10.481 -0.5470 -0.1227  0.4590
  313MPD2    C4 4707   3.886   2.740  10.502  0.0513  0.0310 -0.0267
  313MPD2    C5 4708   3.956   2.731  10.618  0.1429 -0.1680  0.5188
  313MPD2     H 4709   3.661   2.967  10.564  1.0190  2.2123 -0.3108
  313MPD2    H1 4710   3.923   2.681  10.419  0.8796  3.0510 -1.8052
  313MPD2    H2 4711   3.977   2.799  10.809 -0.4577  1.7499  1.7517
  313MPD2    H3 4712   4.032   2.656  10.637  0.7516  0.7621  1.7721
  313MPD2     N 4713   3.718   2.856  10.357  0.6108  0.4567  0.2878
  313MPD2    H5 4714   3.659   2.938  10.358 -0.5934 -0.3995 -0.8140
  313MPD2    N1 4715   3.773   2.995  10.802 -0.2694 -0.4878  0.2702
  313MPD2    H7 4716   3.685   3.045  10.791  1.7230  2.5308 -1.9811
  314TMC3    C1 4717   3.782   3.126  10.993  0.0444 -0.6347 -0.4818
  314TMC3    C2 4718   3.856   3.192  11.085 -0.2860  0.1427 -0.8840
  314TMC3    C3 4719   3.803   3.307  11.149  0.1317  0.1397 -0.1513
  314TMC3    C4 4720   3.646   3.150  10.981 -0.3061  0.0455 -0.8420
  314TMC3    C5 4721   3.594   3.252  11.060  0.5317  0.0879 -0.3460
  314TMC3    C6 4722   3.674   3.342  11.139 -0.2301  0.5032  0.1224
  314TMC3     C 4723   3.845   3.023  10.910  0.4355 -0.2616  0.2769
  314TMC3     O 4724   3.960   2.994  10.936  0.1131  0.0469 -0.0181
  314TMC3     H 4725   3.957   3.158  11.103 -0.5466  0.5120  1.2753
  314TMC3    H1 4726   3.582   3.094  10.913  1.3542 -1.4312 -1.2002
  314TMC3    H2 4727   3.628   3.416  11.204  0.1571  0.3900  0.5205
  314TMC3    C7 4728   3.463   3.303  11.017  0.4201  0.3217 -0.5998
  314TMC3    C8 4729   3.891   3.402  11.211 -0.2918 -0.2811  0.6680
  314TMC3    O1 4730   3.378   3.224  10.971  0.4779 -0.6111  0.6292
  314TMC3    O2 4731   3.850   3.500  11.267  0.3970 -0.0674  0.1477
  315MPD2     C 4732   2.598   2.092   0.607 -0.3724  0.4526  0.6743
  315MPD2    C1 4733   2.720   2.046   0.564 -0.3689  0.2996  0.0919
  315MPD2    C2 4734   2.824   2.134   0.542 -0.3637 -0.5418 -0.2450
  315MPD2    C3 4735   2.805   2.266   0.567  0.1873  0.3721  0.2004
  315MPD2    C4 4736   2.683   2.316   0.612  0.8172  0.4077  0.5860
  315MPD2    C5 4737   2.580   2.225   0.633 -0.3605  0.2596  0.1431
  315MPD2     H 4738   2.922   2.092   0.519  0.6645  1.3913  0.6609
  315MPD2    H1 4739   2.671   2.422   0.631  1.1390  0.8194 -1.4939
  315MPD2    H2 4740   2.521   2.021   0.631 -1.0373  0.6983 -0.7660
  315MPD2    H3 4741   2.486   2.253   0.679  0.1669 -0.0380  1.3825
  315MPD2     N 4742   2.918   2.338   0.542 -0.2814  0.0936  0.4607
  315MPD2    H5 4743   2.997   2.287   0.503 -1.3645 -1.1558 -0.0903
  315MPD2    N1 4744   2.750   1.906   0.555  0.2248 -0.6372  0.0547
  315MPD2    H7 4745   2.833   1.878   0.504 -0.4582 -0.8422 -0.9566
  316TMC3    C1 4746   3.080   2.490   0.585  0.3131  0.2835  0.5091
  316TMC3    C2 4747   3.143   2.508   0.702  0.2242 -0.0218 -0.3543
  316TMC3    C3 4748   3.277   2.483   0.703 -0.1101 -0.1290  0.6795
  316TMC3    C4 4749   3.141   2.474   0.465  0.1566 -0.0006  0.0593
  316TMC3    C5 4750   3.281   2.454   0.477 -0.5064 -0.6595  0.1479
  316TMC3    C6 4751   3.343   2.438   0.596  0.3700 -0.1561  0.2856
  316TMC3     C 4752   2.937   2.468   0.585 -0.2965 -0.0061  0.2507
  316TMC3     O 4753   2.873   2.539   0.664 -0.5164 -0.0051  0.1211
  316TMC3     H 4754   3.085   2.523   0.793  0.8528 -1.5623  0.3152
  316TMC3    H1 4755   3.079   2.460   0.377  2.7479  1.2567 -1.9513
  316TMC3    H2 4756   3.450   2.424   0.598  0.1138 -2.3174 -2.3314
  316TMC3    C7 4757   3.372   2.460   0.358 -0.4583  0.0712 -0.2499
  316TMC3    C8 4758   3.322   2.417   0.829 -0.7198 -0.5890 -0.2649
  316TMC3    O1 4759   3.483   2.407   0.371 -0.1228 -0.1131  0.4346
  316TMC3    O2 4760   3.258   2.439   0.927 -0.4512  0.4500 -0.2125
  317MPD2     C 4761   0.560   0.808  13.103 -0.0393 -0.0690  0.3040
  317MPD2    C1 4762   0.590   0.681  13.061 -0.4631  0.4973  0.2240
  317MPD2    C2 4763   0.611   0.582  13.159 -0.1964  0.3506  0.3589
  317MPD2    C3 4764   0.602   0.610  13.294  0.2816  0.0980  0.0497
  317MPD2    C4 4765   0.583   0.738  13.329 -0.7363 -0.8284  0.3852
  317MPD2    C5 4766   0.562   0.837  13.238 -0.5403 -0.2193 -0.1868
  317MPD2     H 4767   0.643   0.484  13.126  1.6308  0.6680  1.2470
  317MPD2    H1 4768   0.589   0.768  13.433  0.3527 -0.6082  0.2541
  317MPD2    H2 4769   0.567   0.890  13.032  0.1563  0.7014  1.2193
  317MPD2    H3 4770   0.565   0.939  13.274  0.7086 -0.4482  0.3480
  317MPD2     N 4771   0.638   0.507  13.379 -0.2679 -0.3774 -0.6582
  317MPD2    H5 4772   0.661   0.423  13.327 -0.3578 -0.7827 -0.0353
  317MPD2    N1 4773   0.618   0.659  12.925 -0.6106  0.2952  0.4388
  317MPD2    H7 4774   0.655   0.568  12.898  1.7099  0.9360  1.5499
  318TMC3    C1 4775   0.635   0.377  13.571  0.4604 -0.1644  0.0336
  318TMC3    C2 4776   0.599   0.258  13.506 -0.6033 -0.0315 -0.2689
  318TMC3    C3 4777   0.604   0.140  13.581 -0.0520  0.2591  0.1552
  318TMC3    C4 4778   0.686   0.376  13.699  0.2992  0.2941 -0.9157
  318TMC3    C5 4779   0.709   0.259  13.760  0.4175 -0.3457  0.3848
  318TMC3    C6 4780   0.669   0.142  13.709 -0.2272  0.0867 -0.3519
  318TMC3     C 4781   0.627   0.508  13.513  0.6081  0.0971 -0.0266
  318TMC3     O 4782   0.626   0.603  13.589 -0.4604  0.6902 -0.7401
  318TMC3     H 4783   0.555   0.248  13.407 -1.9526  0.8248  0.2453
  318TMC3    H1 4784   0.725   0.470  13.736 -0.2395  0.3222 -0.4368
  318TMC3    H2 4785   0.687   0.045  13.756 -1.0276  0.1835  0.1376
  318TMC3    C7 4786   0.811   0.256  13.860 -0.6738  0.0741  0.3759
  318TMC3    C8 4787   0.520   0.025  13.552  1.0129 -0.7787  0.0746
  318TMC3    O1 4788   0.829   0.358  13.927 -0.3923  0.1755 -0.9063
  318TMC3    O2 4789   0.546   4.640  13.601  0.1208  0.0515 -0.1793
  319MPD2     C 4790   1.707   1.498  16.586 -0.6530 -1.2150 -0.2744
  319MPD2    C1 4791   1.613   1.470  16.676 -0.7133 -0.6507 -1.3029
  319MPD2    C2 4792   1.483   1.508  16.647  0.4151 -0.1525 -0.7227
  319MPD2    C3 4793   1.448   1.575  16.535 -0.5266  0.2893 -0.4963
  319MPD2    C4 4794   1.545   1.611  16.448  0.6336 -0.1666  0.4248
  319MPD2    C5 4795   1.673   1.563  16.464  0.2639 -0.0494 -0.0909
  319MPD2     H 4796   1.408   1.482  16.720  0.6592 -0.7315 -0.6786
  319MPD2    H1 4797   1.526   1.649  16.348  1.5151 -0.8862 -0.0180
  319MPD2    H2 4798   1.811   1.470  16.599 -0.5346 -1.0201 -0.8155
  319MPD2    H3 4799   1.747   1.583  16.388 -0.3943  1.7249 -0.2677
  319MPD2     N 4800   1.313   1.599  16.492 -0.3746 -0.6915  0.2575
  319MPD2    H5 4801   1.304   1.634  16.397 -1.4712  0.5502  0.8103
  319MPD2    N1 4802   1.629   1.410  16.801 -0.0623  0.2905 -0.1515
  319MPD2    H7 4803   1.546   1.410  16.859 -1.1405  1.6040 -1.6973
  320TMC3    C1 4804   1.073   1.628  16.509 -0.4000 -0.5322  0.0907
  320TMC3    C2 4805   1.075   1.722  16.409  0.1671 -0.2131 -0.0626
  320TMC3    C3 4806   0.960   1.766  16.351  0.8428  0.9240 -0.1861
  320TMC3    C4 4807   0.954   1.608  16.578  0.3210 -0.2039  0.3689
  320TMC3    C5 4808   0.839   1.664  16.524 -0.3364 -0.0266 -0.5835
  320TMC3    C6 4809   0.838   1.746  16.421 -1.1094  0.5092  0.0526
  320TMC3     C 4810   1.193   1.564  16.556  0.6932 -0.3578  0.4926
  320TMC3     O 4811   1.181   1.494  16.655 -0.4095 -0.2026 -0.7416
  320TMC3     H 4812   1.167   1.747  16.357 -0.5818  2.3722 -0.1309
  320TMC3    H1 4813   0.938   1.539  16.660 -1.4809  1.1183  1.1336
  320TMC3    H2 4814   0.741   1.788  16.396 -1.0645 -0.2525 -1.3727
  320TMC3    C7 4815   0.713   1.599  16.536 -1.2653  0.3058  0.5505
  320TMC3    C8 4816   0.953   1.886  16.273  0.1906  0.0546  0.0769
  320TMC3    O1 4817   0.615   1.670  16.557  0.2737 -0.3155 -0.1843
  320TMC3    O2 4818   1.036   1.977  16.286  0.1320 -0.3120  0.1570
  321TMC3    C1 4819   1.723   1.306  16.980  0.1356  0.6171 -0.2285
  321TMC3    C2 4820   1.607   1.232  16.993  0.8081  0.0737 -0.7884
  321TMC3    C3 4821   1.557   1.203  17.119 -0.4049  0.1661 -0.5068
  321TMC3    C4 4822   1.796   1.344  17.090  0.0494 -0.4129 -0.4950
  321TMC3    C5 4823   1.745   1.307  17.211  0.0296 -0.0499  0.2313
  321TMC3    C6 4824   1.621   1.250  17.230 -0.7107  0.1463 -0.2513
  321TMC3     C 4825   1.747   1.368  16.848 -0.4014  0.3680 -0.5870
  321TMC3     O 4826   1.865   1.387  16.821  0.3236 -0.3724  0.0499
  321TMC3     H 4827   1.556   1.204  16.901 -1.1474  1.0397  0.0002
  321TMC3    H1 4828   1.901   1.369  17.080  0.0669 -0.3381 -0.1062
  321TMC3    H2 4829   1.583   1.230  17.330 -3.3118 -0.5466 -1.3782
  321TMC3    C7 4830   1.845   1.256  17.296  0.7022 -0.2063  0.6019
  321TMC3    C8 4831   1.542   1.061  17.140 -0.6026  0.6376 -0.7066
  321TMC3    O1 4832   1.949   1.318  17.305  0.2539 -0.3283  0.3635
  321TMC3    O2 4833   1.567   1.028  17.256  0.1422 -0.3196  0.0865
  322MPD2     C 4834   4.423   3.084  13.428 -0.5892  0.2389  0.0806
  322MPD2    C1 4835   4.442   2.996  13.531  0.4434 -0.4652 -0.7789
  322MPD2    C2 4836   4.466   2.866  13.504  0.1568 -0.2557 -0.1562
  322MPD2    C3 4837   4.485   2.823  13.368 -0.5297  0.0240 -0.2610
  322MPD2    C4 4838   4.463   2.914  13.267 -0.1694  0.6433 -0.3145
  322MPD2    C5 4839   4.431   3.043  13.299 -0.1485  0.6743 -0.1436
  322MPD2     H 4840   4.497   2.797  13.581  3.2975  3.6897  2.0598
  322MPD2    H1 4841   4.470   2.891  13.161 -0.8613  0.3274 -0.2954
  322MPD2    H2 4842   4.413   3.191  13.445 -1.0286  0.0275  1.1744
  322MPD2    H3 4843   4.423   3.121  13.224  0.3335  0.1078 -0.7859
  322MPD2     N 4844   4.536   2.691  13.348 -0.3828 -0.0194  0.3309
  322MPD2    H5 4845   4.564   2.639  13.431  0.1748  2.2089  1.5370
  322MPD2    N1 4846   4.447   3.057  13.658 -0.4236 -0.4793 -0.4804
  322MPD2    H7 4847   4.428   3.156  13.671  1.4973 -0.5417  2.9170
  323TMC3    C1 4848   4.504   3.065  13.881 -0.6462  0.5212 -0.2854
  323TMC3    C2 4849   4.601   3.157  13.851 -0.2836 -0.4792 -0.6187
  323TMC3    C3 4850   4.715   3.154  13.931 -0.0566  0.6072  0.1672
  323TMC3    C4 4851   4.508   3.004  14.008 -0.4431  0.3210 -0.3513
  323TMC3    C5 4852   4.614   3.018  14.089 -0.3424  0.4547 -0.4192
  323TMC3    C6 4853   0.004   3.092  14.049 -0.1223  0.4851  0.5197
  323TMC3     C 4854   4.465   2.982  13.770 -0.7750  0.1606  1.0034
  323TMC3     O 4855   4.476   2.861  13.789  0.7662  0.1266 -0.2213
  323TMC3     H 4856   4.594   3.221  13.764  3.4483 -0.3506 -0.8354
  323TMC3    H1 4857   4.431   2.930  14.027 -0.1471  0.7597  2.6136
  323TMC3    H2 4858   0.099   3.092  14.101 -0.2547  0.2930  0.7617
  323TMC3    C7 4859   4.654   2.894  14.172 -0.2497  0.2330 -0.2500
  323TMC3    C8 4860   0.124   3.157  13.862 -0.2862 -0.2193  0.4074
  323TMC3    O1 4861   4.600   2.794  14.135  0.1624 -0.3049 -0.0817
  323TMC3    O2 4862   0.230   3.160  13.927 -0.7119 -0.1979 -0.4830
  324MPD2     C 4863   1.718   4.226  14.262  0.0818  0.3913  0.2425
  324MPD2    C1 4864   1.634   4.288  14.360 -0.6050  0.7923 -0.4412
  324MPD2    C2 4865   1.496   4.274  14.350  0.4629 -1.2360 -0.2475
  324MPD2    C3 4866   1.436   4.192  14.254  0.3275 -0.4068 -0.4745
  324MPD2    C4 4867   1.529   4.119  14.169 -0.3853  0.3364 -0.8543
  324MPD2    C5 4868   1.663   4.139  14.168  0.2937  0.2166 -0.3729
  324MPD2     H 4869   1.434   4.324  14.424 -0.4050  1.6739 -2.9752
  324MPD2    H1 4870   1.492   4.051  14.093  1.4820 -0.7678 -0.7880
  324MPD2    H2 4871   1.825   4.244  14.271  0.0031  0.2110  1.5560
  324MPD2    H3 4872   1.722   4.089  14.092  1.3151 -0.7251  1.0243
  324MPD2     N 4873   1.300   4.171  14.233  0.0743 -0.0355  0.4235
  324MPD2    H5 4874   1.273   4.098  14.167  3.0116 -1.6493  1.0197
  324MPD2    N1 4875   1.683   4.352  14.476 -0.2734 -0.7828  0.0789
  324MPD2    H7 4876   1.611   4.380  14.542  2.0405 -0.7252  2.6255
  325TMC3    C1 4877   1.074   4.204  14.229 -0.0833  0.1499 -0.3630
  325TMC3    C2 4878   1.073   4.101  14.139  0.2143  0.2199 -0.4940
  325TMC3    C3 4879   0.959   4.071  14.069 -0.1553  0.2128 -0.1904
  325TMC3    C4 4880   0.971   4.288  14.235 -0.1682 -0.7979  0.5650
  325TMC3    C5 4881   0.856   4.255  14.161  0.6442  0.1969 -0.3410
  325TMC3    C6 4882   0.843   4.147  14.081  0.5973 -0.8924 -0.3327
  325TMC3     C 4883   1.201   4.238  14.299 -0.6497  0.1725 -0.2324
  325TMC3     O 4884   1.212   4.334  14.376 -0.7890 -0.4817  0.4359
  325TMC3     H 4885   1.152   4.028  14.128 -0.4883 -0.6621  0.2763
  325TMC3    H1 4886   0.978   4.372  14.303 -0.4695 -1.0141  0.8630
  325TMC3    H2 4887   0.761   4.138  14.011  1.5595 -0.5300 -1.5213
  325TMC3    C7 4888   0.786   4.360  14.098  0.2061  0.1271  0.0815
  325TMC3    C8 4889   0.958   3.959  13.974  0.6417  0.0558  0.7080
  325TMC3    O1 4890   0.760   4.362  13.975 -0.4790  0.3397  0.1061
  325TMC3    O2 4891   1.063   3.917  13.924 -0.5725 -0.0484 -0.4702
  326MPD2     C 4892   2.982   0.936  10.923  0.2277  0.1177 -0.0348
  326MPD2    C1 4893   3.063   0.886  10.832  0.2530 -0.0105 -0.6017
  326MPD2    C2 4894   3.161   0.968  10.772 -0.2400 -0.5559 -0.0315
  326MPD2    C3 4895   3.153   1.105  10.795 -0.2191  0.4448 -0.5662
  326MPD2    C4 4896   3.082   1.146  10.900 -0.5615  0.4604 -0.4981
  326MPD2    C5 4897   2.988   1.066  10.963  0.4048  0.5297 -0.8717
  326MPD2     H 4898   3.229   0.927  10.698  1.5028 -2.1241  2.4227
  326MPD2    H1 4899   3.067   1.251  10.921  1.1643  0.9289 -1.6033
  326MPD2    H2 4900   2.896   0.880  10.958  0.5784 -1.0903 -1.1342
  326MPD2    H3 4901   2.919   1.100  11.039  1.3793 -1.1375  0.7888
  326MPD2     N 4902   3.223   1.202  10.716 -0.2500  0.2981  0.2945
  326MPD2    H5 4903   3.197   1.299  10.733 -0.1123 -0.2408  3.5665
  326MPD2    N1 4904   3.046   0.751  10.804 -0.3041  0.6014  0.3603
  326MPD2    H7 4905   3.005   0.710  10.887 -2.1394  0.5213 -0.5764
  327TMC3    C1 4906   3.136   0.728  10.574 -0.5246 -0.5050  1.1506
  327TMC3    C2 4907   3.041   0.818  10.523  0.2811 -0.3687 -0.9925
  327TMC3    C3 4908   3.074   0.909  10.423 -0.2762 -0.0263  0.5036
  327TMC3    C4 4909   3.262   0.725  10.527 -0.0608 -0.5614 -0.1671
  327TMC3    C5 4910   3.289   0.816  10.425  0.0597  0.7616 -0.4399
  327TMC3    C6 4911   3.201   0.899  10.371  0.1697 -0.1383  0.8746
  327TMC3     C 4912   3.103   0.674  10.709  0.3133 -0.5627 -0.3608
  327TMC3     O 4913   3.123   0.552  10.722  0.2618 -0.3653 -0.5396
  327TMC3     H 4914   2.938   0.826  10.557  1.3227 -0.9414  2.3969
  327TMC3    H1 4915   3.329   0.647  10.561 -0.4959  0.1505  2.2872
  327TMC3    H2 4916   3.232   0.967  10.293 -0.9001 -0.0639  0.5090
  327TMC3    C7 4917   3.415   0.813  10.364 -0.3407 -0.2709 -0.4910
  327TMC3    C8 4918   3.010   1.042  10.410  0.4690  0.2617 -0.5733
  327TMC3    O1 4919   3.424   0.818  10.241 -0.2463  0.2171  0.0487
  327TMC3    O2 4920   3.073   1.130  10.351 -0.7938  0.2715  0.3968
  328MPD2     C 4921   0.579   4.293  16.402 -0.0927 -0.3592  0.5671
  328MPD2    C1 4922   0.483   4.239  16.484  0.5813 -0.2961 -0.5327
  328MPD2    C2 4923   0.415   4.325  16.567  0.5092  0.7099  0.1209
  328MPD2    C3 4924   0.452   4.457  16.587  0.7083 -0.1090  0.8015
  328MPD2    C4 4925   0.560   4.504  16.514 -0.5495  0.0395 -0.2756
  328MPD2    C5 4926   0.615   4.426  16.421  0.4947 -0.5747  0.3336
  328MPD2     H 4927   0.327   4.282  16.614  1.6125 -1.0985  0.5488
  328MPD2    H1 4928   0.592   4.605  16.538 -2.5877  0.7454 -0.4668
  328MPD2    H2 4929   0.631   4.228  16.332  1.4286  1.5204 -0.0800
  328MPD2    H3 4930   0.694   4.474  16.366 -0.6695 -0.0479 -0.8905
  328MPD2     N 4931   0.384   4.550  16.665 -0.8666 -0.4809  0.6899
  328MPD2    H5 4932   0.406   4.647  16.642  3.7758 -1.6586  0.1598
  328MPD2    N1 4933   0.448   4.099  16.466 -0.6961  0.1467  0.0594
  328MPD2    H7 4934   0.519   4.040  16.424 -0.3329 -1.2218  2.6040
  329TMC3    C1 4935   0.346   3.889  16.516  1.2035 -0.3394 -0.2230
  329TMC3    C2 4936   0.295   3.826  16.627 -0.3448  0.1663  0.6830
  329TMC3    C3 4937   0.304   3.688  16.628  0.4404  0.1977  0.5507
  329TMC3    C4 4938   0.411   3.829  16.411  0.9808  0.4644 -0.2803
  329TMC3    C5 4939   0.407   3.692  16.414 -0.2910 -0.3498 -0.4125
  329TMC3    C6 4940   0.358   3.620  16.522  0.2319  0.0334 -0.3320
  329TMC3     C 4941   0.333   4.034  16.515 -0.9716 -0.3214 -0.4168
  329TMC3     O 4942   0.240   4.085  16.578  0.0301 -0.1502  0.0364
  329TMC3     H 4943   0.232   3.883  16.694 -1.3802  0.1877 -0.3146
  329TMC3    H1 4944   0.454   3.890  16.332 -0.4913 -1.0400 -2.2509
  329TMC3    H2 4945   0.356   3.512  16.513 -1.0154 -0.0629  1.0627
  329TMC3    C7 4946   0.471   3.628  16.307  0.3258 -0.2601  0.0149
  329TMC3    C8 4947   0.235   3.607  16.720 -0.0975  0.0922 -0.1415
  329TMC3    O1 4948   0.507   3.700  16.215 -0.2515  0.1506 -0.0953
  329TMC3    O2 4949   0.247   3.483  16.729  0.8499  0.7403  0.5336
  330TMC3    C1 4950   3.758   0.436   9.446 -0.4223 -0.8385 -0.3701
  330TMC3    C2 4951   3.655   0.340   9.464 -0.3547 -0.0930 -0.9946
  330TMC3    C3 4952   3.626   0.295   9.586 -0.1455 -0.0008 -0.0939
  330TMC3    C4 4953   3.830   0.484   9.553 -0.1382  0.4471  0.2931
  330TMC3    C5 4954   3.814   0.425   9.677  0.0034 -0.3274  0.2739
  330TMC3    C6 4955   3.707   0.338   9.692 -0.2016 -0.0679 -1.1837
  330TMC3     C 4956   3.748   0.532   9.336 -0.2208  0.0532 -0.3295
  330TMC3     O 4957   3.835   0.614   9.309 -0.7109  0.6016  0.1734
  330TMC3     H 4958   3.608   0.296   9.376 -1.7119 -0.1397 -0.2542
  330TMC3    H1 4959   3.900   0.563   9.529  0.8554 -0.5446 -0.0598
  330TMC3    H2 4960   3.682   0.301   9.791  1.9084  1.6200 -0.0403
  330TMC3    C7 4961   3.926   0.443   9.767 -0.1476 -0.2440 -0.5110
  330TMC3    C8 4962   3.485   0.252   9.597  0.0639  0.2072  0.2824
  330TMC3    O1 4963   3.985   0.547   9.749 -0.2161 -0.5270  0.3180
  330TMC3    O2 4964   3.419   0.257   9.493 -0.0757  0.1241  0.2667
  331MPD2     C 4965   0.815   3.712  12.428  0.4564  0.3291 -0.1530
  331MPD2    C1 4966   0.947   3.759  12.419  0.1492 -0.4483 -0.6206
  331MPD2    C2 4967   1.041   3.681  12.351  0.4361 -0.3234  0.6675
  331MPD2    C3 4968   1.011   3.559  12.313  0.0374 -0.3540  1.2670
  331MPD2    C4 4969   0.880   3.505  12.327  0.6436  0.1421 -0.3392
  331MPD2    C5 4970   0.784   3.591  12.374 -0.1406 -0.1447  0.3828
  331MPD2     H 4971   1.141   3.720  12.341  0.7253 -0.6162  2.2757
  331MPD2    H1 4972   0.844   3.414  12.279  0.8116  0.1377 -0.4585
  331MPD2    H2 4973   0.732   3.763  12.475  0.7915  0.8358 -0.1181
  331MPD2    H3 4974   0.682   3.555  12.380 -1.3555  3.6392  2.0419
  331MPD2     N 4975   1.115   3.487  12.248 -0.2627 -0.3183 -0.3702
  331MPD2    H5 4976   1.207   3.529  12.242 -0.5340  0.2061 -0.8569
  331MPD2    N1 4977   0.987   3.886  12.462  0.2520  0.4111 -0.4760
  331MPD2    H7 4978   0.924   3.966  12.469 -0.0227  0.1394  0.1504
  332TMC3    C1 4979   1.253   3.315  12.221 -0.0271 -0.1006 -0.7607
  332TMC3    C2 4980   1.333   3.411  12.160 -0.2258  0.3756 -0.7511
  332TMC3    C3 4981   1.454   3.437  12.220 -0.3667  0.0719 -0.0740
  332TMC3    C4 4982   1.307   3.250  12.329 -0.2222  0.6451 -0.8301
  332TMC3    C5 4983   1.430   3.270  12.382 -0.1418  0.4044  0.8246
  332TMC3    C6 4984   1.498   3.377  12.331  0.0541  0.2282 -0.2317
  332TMC3     C 4985   1.117   3.352  12.225  0.1652  0.1377 -0.3686
  332TMC3     O 4986   1.031   3.267  12.252  0.3719  0.2275 -0.2835
  332TMC3     H 4987   1.302   3.436  12.059  0.6161  2.2787 -0.5248
  332TMC3    H1 4988   1.247   3.190  12.396  0.6769  1.9347  1.1426
  332TMC3    H2 4989   1.592   3.411  12.372 -0.5504  0.3948  0.9821
  332TMC3    C7 4990   1.482   3.198  12.500  0.6570 -0.2625 -0.4400
  332TMC3    C8 4991   1.546   3.537  12.165  0.3060  0.3502 -0.1933
  332TMC3    O1 4992   1.402   3.130  12.561  0.0635  0.3486 -0.2036
  332TMC3    O2 4993   1.657   3.530  12.205  0.2763  0.3317 -0.1443
  333MPD2     C 4994   1.522   4.164  11.275  0.9022 -0.2946 -0.5419
  333MPD2    C1 4995   1.634   4.105  11.332  0.7027 -0.2150 -0.9881
  333MPD2    C2 4996   1.630   3.966  11.368  0.8497 -0.3712 -0.5528
  333MPD2    C3 4997   1.506   3.906  11.372  0.2282 -0.1412 -0.1596
  333MPD2    C4 4998   1.400   3.961  11.307 -0.3777 -0.1954 -1.1938
  333MPD2    C5 4999   1.411   4.091  11.255  0.2575 -0.0126  0.1427
  333MPD2     H 5000   1.711   3.907  11.409  1.8375  0.0905 -1.8366
  333MPD2    H1 5001   1.307   3.907  11.311  0.9234 -2.2896  1.0943
  333MPD2    H2 5002   1.511   4.255  11.218 -0.5094 -0.3509 -0.3702
  333MPD2    H3 5003   1.324   4.138  11.210 -0.1616 -0.3043  0.6430
  333MPD2     N 5004   1.511   3.765  11.408 -0.0422 -0.2616  0.1697
  333MPD2    H5 5005   1.597   3.725  11.442  0.6345  2.0507  1.1422
  333MPD2    N1 5006   1.749   4.185  11.350  0.1830  0.1247 -0.6178
  333MPD2    H7 5007   1.750   4.269  11.293  3.7954  0.8410  0.5181
  334TMC3    C1 5008   1.967   4.230  11.442 -0.3588 -1.1562 -0.2817
  334TMC3    C2 5009   2.067   4.179  11.525 -0.3069  0.1299 -0.7779
  334TMC3    C3 5010   2.182   4.251  11.525 -0.0383 -0.3138 -0.8494
  334TMC3    C4 5011   1.980   4.326  11.349 -0.4019 -0.5365 -0.0473
  334TMC3    C5 5012   2.097   4.400  11.358  0.3478 -0.0116  0.2145
  334TMC3    C6 5013   2.203   4.358  11.440  0.2210 -0.4838  0.7840
  334TMC3     C 5014   1.844   4.152  11.448 -0.1282  0.1589 -0.0975
  334TMC3     O 5015   1.836   4.076  11.542  0.1947 -0.4231  0.0776
  334TMC3     H 5016   2.063   4.090  11.586  0.6567  0.0240 -0.8689
  334TMC3    H1 5017   1.894   4.369  11.297  0.8676 -0.4262 -2.0517
  334TMC3    H2 5018   2.286   4.428  11.433 -0.1347 -0.0761  0.6098
  334TMC3    C7 5019   2.126   4.506  11.255  0.3168 -0.1026  0.6974
  334TMC3    C8 5020   2.304   4.184  11.568 -0.4703  0.4041 -0.3281
  334TMC3    O1 5021   2.245   4.551  11.256  0.1082 -0.4904 -0.0184
  334TMC3    O2 5022   2.301   4.100  11.656  0.0179 -0.1357 -0.3003
  335TMC3    C1 5023   1.083   4.568  17.507  0.6182 -0.3926 -0.8524
  335TMC3    C2 5024   0.989   4.477  17.467  0.2162  0.0984 -1.0297
  335TMC3    C3 5025   0.995   4.441  17.338  0.2836  0.5769  0.7767
  335TMC3    C4 5026   1.191   4.611  17.429  0.4612 -0.2578 -0.6814
  335TMC3    C5 5027   1.193   4.561  17.304  0.7409  0.1153 -0.3524
  335TMC3    C6 5028   1.099   4.482  17.260  0.7238 -0.3894  0.1088
  335TMC3     C 5029   1.071   4.622  17.638 -0.0587  0.3829 -0.4165
  335TMC3     O 5030   1.005   4.573   0.041  0.4037  0.3750  0.0647
  335TMC3     H 5031   0.911   4.451  17.537  2.7574  1.2494  2.2347
  335TMC3    H1 5032   1.264   4.687  17.458 -2.7589  2.4402  0.3557
  335TMC3    H2 5033   1.107   4.443  17.159 -1.3714  1.6963 -0.8726
  335TMC3    C7 5034   1.257   4.655  17.209 -0.5651  0.4881  0.3762
  335TMC3    C8 5035   0.897   4.349  17.284 -0.0645 -0.0128 -0.2304
  335TMC3    O1 5036   1.353   4.721  17.258 -0.1646 -0.5065  0.0307
  335TMC3    O2 5037   0.842   4.273  17.363  0.0583  0.0892 -0.1557
  336MPD2     C 5038   1.268   2.851  16.099  0.0722  0.1328  0.0722
  336MPD2    C1 5039   1.179   2.784  16.011 -0.1147  0.7836 -0.0794
  336MPD2    C2 5040   1.193   2.641  16.014  0.2651 -0.1178  0.3975
  336MPD2    C3 5041   1.277   2.570  16.105 -0.3511  0.3240 -0.4418
  336MPD2    C4 5042   1.359   2.645  16.188 -0.6068 -0.2063  0.3547
  336MPD2    C5 5043   1.351   2.781  16.182 -0.0510  0.6223 -0.2649
  336MPD2     H 5044   1.130   2.587  15.944  2.2178 -0.4792 -1.0562
  336MPD2    H1 5045   1.437   2.601  16.249 -0.1526  0.9900  0.6400
  336MPD2    H2 5046   1.273   2.959  16.103  1.6320  0.0230  0.9846
  336MPD2    H3 5047   1.427   2.831  16.240  0.1471 -0.5009  0.4498
  336MPD2     N 5048   1.287   2.430  16.115 -0.7288  0.2874 -1.0864
  336MPD2    H5 5049   1.367   2.396  16.168 -0.6750  0.6941 -0.9079
  336MPD2    N1 5050   1.071   2.846  15.934  0.0966  0.2657 -0.1555
  336MPD2    H7 5051   1.022   2.778  15.878  2.1929 -2.1195  0.8860
  337TMC3    C1 5052   0.917   2.996  15.862  0.0969  0.3709  0.3362
  337TMC3    C2 5053   0.806   2.919  15.874 -0.0648  0.2612 -0.1968
  337TMC3    C3 5054   0.701   2.939  15.786 -0.5321 -0.2590  0.4176
  337TMC3    C4 5055   0.905   3.114  15.796 -0.0000 -0.3157  0.4394
  337TMC3    C5 5056   0.786   3.149  15.726 -0.1561  0.4771 -0.1145
  337TMC3    C6 5057   0.681   3.059  15.716  0.4389  0.3058 -0.0513
  337TMC3     C 5058   1.041   2.980  15.930 -0.4223 -0.3471 -0.2988
  337TMC3     O 5059   1.100   3.082  15.978 -0.0622 -0.6317 -0.4898
  337TMC3     H 5060   0.793   2.834  15.940  0.1233  1.1621  0.9908
  337TMC3    H1 5061   0.991   3.180  15.790  0.5950 -1.1663 -0.3278
  337TMC3    H2 5062   0.594   3.078  15.653 -0.1500 -0.4918  0.5205
  337TMC3    C7 5063   0.774   3.270  15.649  0.3420  0.4553  0.1271
  337TMC3    C8 5064   0.579   2.885  15.835  0.3531 -0.2556 -0.2538
  337TMC3    O1 5065   0.690   3.272  15.559 -0.6329  0.0351 -0.0725
  337TMC3    O2 5066   0.563   2.897  15.955  0.9571  0.0487  0.1846
  338MPD2     C 5067   1.850   2.060   0.668  0.6340 -1.0379  0.1754
  338MPD2    C1 5068   1.758   1.962   0.633 -0.0437 -0.2018  0.9203
  338MPD2    C2 5069   1.689   1.904   0.735 -0.4371  0.5156  0.3919
  338MPD2    C3 5070   1.696   1.933   0.866  0.5756  0.7690 -0.5593
  338MPD2    C4 5071   1.784   2.033   0.901  0.0448  0.7935  0.9830
  338MPD2    C5 5072   1.855   2.091   0.801 -0.0115 -0.4501  0.4483
  338MPD2     H 5073   1.626   1.822   0.704 -0.2193 -1.3036  4.7969
  338MPD2    H1 5074   1.800   2.069   1.002  0.7790  0.2952  1.0455
  338MPD2    H2 5075   1.924   2.094   0.597  2.3098 -1.1826  1.8633
  338MPD2    H3 5076   1.932   2.161   0.830  0.7582 -1.3794  0.6832
  338MPD2     N 5077   1.607   1.874   0.959 -0.0663  0.2491 -0.4556
  338MPD2    H5 5078   1.533   1.819   0.916 -2.1926  1.4581  1.6547
  338MPD2    N1 5079   1.764   1.893   0.511 -0.8557  0.0568  0.0858
  338MPD2    H7 5080   1.711   1.807   0.499 -2.6345  0.9426  1.6818
  339TMC3    C1 5081   1.484   1.826   1.147 -0.3900  0.3172 -0.5925
  339TMC3    C2 5082   1.416   1.913   1.229  0.7582 -0.1814 -0.5614
  339TMC3    C3 5083   1.281   1.893   1.233  0.1757  0.4376 -0.2929
  339TMC3    C4 5084   1.422   1.738   1.059 -0.5707 -0.0763 -0.4422
  339TMC3    C5 5085   1.293   1.737   1.054 -1.0852 -0.2225  0.1519
  339TMC3    C6 5086   1.222   1.819   1.138  0.4712  0.8589 -0.2104
  339TMC3     C 5087   1.598   1.893   1.093 -0.5161  0.2149  0.6631
  339TMC3     O 5088   1.665   1.966   1.162  0.1326  0.7659  0.4344
  339TMC3     H 5089   1.469   1.979   1.295 -0.2209 -1.0243  1.0705
  339TMC3    H1 5090   1.485   1.665   1.008  0.0239  0.2650 -0.1981
  339TMC3    H2 5091   1.114   1.814   1.126  0.4627 -0.6450  0.4882
  339TMC3    C7 5092   1.242   1.755   0.917  0.4144  1.0806  0.1647
  339TMC3    C8 5093   1.206   2.007   1.282 -1.0229  0.5468 -0.7150
  339TMC3    O1 5094   1.148   1.831   0.889 -0.2153 -0.3164  0.0720
  339TMC3    O2 5095   1.259   2.112   1.315 -0.2722  0.2555 -0.6587
  340MPD2     C 5096   2.156   1.289  10.047  0.0679 -0.1489 -0.1020
  340MPD2    C1 5097   2.124   1.158  10.005  0.0165  0.4206 -0.3722
  340MPD2    C2 5098   2.157   1.051  10.089  0.2071  0.0134  0.3060
  340MPD2    C3 5099   2.235   1.075  10.204 -0.5297 -0.0494  0.2204
  340MPD2    C4 5100   2.262   1.207  10.236 -0.2915  0.0162  0.0859
  340MPD2    C5 5101   2.217   1.314  10.161  0.2875  0.3071 -0.0078
  340MPD2     H 5102   2.135   0.948  10.064  0.8179  0.1949 -0.9819
  340MPD2    H1 5103   2.328   1.232  10.318 -0.2941  1.3452 -0.3285
  340MPD2    H2 5104   2.121   1.378   9.995  0.2613  1.2914  2.2412
  340MPD2    H3 5105   2.247   1.416  10.185  2.0146 -0.5562  1.4677
  340MPD2     N 5106   2.291   0.973  10.286 -0.0027 -0.0339 -0.3170
  340MPD2    H5 5107   2.350   0.997  10.365 -1.6921 -0.2487  0.9960
  340MPD2    N1 5108   2.043   1.149   9.887 -0.9445  0.2346  0.6484
  340MPD2    H7 5109   2.033   1.233   9.831  0.5988 -1.4540 -2.1425
  341TMC3    C1 5110   1.866   1.070   9.753 -0.0223 -0.1404 -0.1109
  341TMC3    C2 5111   1.742   1.019   9.772 -0.0819  0.5435  0.7729
  341TMC3    C3 5112   1.668   1.010   9.659  0.0954  0.4191 -0.2878
  341TMC3    C4 5113   1.923   1.122   9.638 -0.0220  0.0971 -0.5025
  341TMC3    C5 5114   1.844   1.107   9.530  0.1442  0.4372 -0.1193
  341TMC3    C6 5115   1.717   1.053   9.538 -0.0761 -0.3041  0.0273
  341TMC3     C 5116   1.954   1.044   9.867 -0.2290  0.1025 -0.5240
  341TMC3     O 5117   1.924   0.943   9.934  0.1522 -0.1297  0.4178
  341TMC3     H 5118   1.708   0.987   9.870 -2.6084 -0.1859 -0.3318
  341TMC3    H1 5119   2.026   1.156   9.631 -0.3146  1.1879  0.6149
  341TMC3    H2 5120   1.652   1.037   9.453  0.2036 -1.7626  0.0880
  341TMC3    C7 5121   1.905   1.126   9.402  0.8596  0.0881 -0.8963
  341TMC3    C8 5122   1.544   0.931   9.650  0.4049  0.1165  1.1838
  341TMC3    O1 5123   2.028   1.135   9.394 -0.3325 -0.0340  0.7431
  341TMC3    O2 5124   1.522   0.883   9.541  0.0895  0.4458  0.3454
  342MPD2     C 5125   4.258   2.558  17.114  0.1363 -0.0510 -1.3157
  342MPD2    C1 5126   4.271   2.583  17.251 -1.2852  0.3207 -0.4062
  342MPD2    C2 5127   4.214   2.693  17.308  0.2659 -0.0479 -0.1208
  342MPD2    C3 5128   4.147   2.781  17.234 -0.1235  0.2213 -0.0677
  342MPD2    C4 5129   4.136   2.761  17.098  0.1780  0.5920 -0.2216
  342MPD2    C5 5130   4.194   2.650  17.034 -0.2855 -0.1131 -0.4552
  342MPD2     H 5131   4.252   2.718  17.407  1.3971 -1.5190 -0.1714
  342MPD2    H1 5132   4.094   2.841  17.039  1.5716  1.9616  0.6690
  342MPD2    H2 5133   4.294   2.471  17.060  3.3271 -0.8134  2.0232
  342MPD2    H3 5134   4.176   2.637  16.928 -0.3129 -1.8905 -0.2318
  342MPD2     N 5135   4.093   2.906  17.294  0.0521  0.2118  0.5695
  342MPD2    H5 5136   4.063   2.985  17.237  0.1025 -0.1879 -0.0149
  342MPD2    N1 5137   4.344   2.501  17.342 -0.1530  0.0264  0.0452
  342MPD2    H7 5138   4.319   2.510  17.440  1.7011 -0.9894  0.6049
  343TMC3    C1 5139   4.462   2.314  17.417  0.2660  0.2546 -0.1032
  343TMC3    C2 5140   4.588   2.262  17.432 -1.0472 -0.2707 -1.1034
  343TMC3    C3 5141   4.601   2.158  17.517 -0.2723  0.3956  0.1592
  343TMC3    C4 5142   4.356   2.271  17.494 -0.3145 -0.1142  0.0197
  343TMC3    C5 5143   4.378   2.167  17.581  0.1307  0.3929 -0.2222
  343TMC3    C6 5144   4.499   2.115  17.603 -0.4732 -0.5437 -0.0284
  343TMC3     C 5145   4.420   2.394  17.304 -0.2238 -0.7672  0.2300
  343TMC3     O 5146   4.469   2.367  17.195  0.2491  0.5821  0.4085
  343TMC3     H 5147   4.660   2.293  17.357  1.7762 -0.0541  1.7052
  343TMC3    H1 5148   4.255   2.306  17.476  0.1826 -0.0765 -2.6676
  343TMC3    H2 5149   4.512   2.035  17.675  3.1568 -1.4866 -1.7540
  343TMC3    C7 5150   4.250   2.100  17.614  0.1953 -0.4321 -0.0939
  343TMC3    C8 5151   0.015   2.108  17.545  0.6669  0.5912 -0.0589
  343TMC3    O1 5152   4.142   2.141  17.566  0.2560 -0.2201 -0.7445
  343TMC3    O2 5153   0.037   2.059  17.655  0.5054  0.2156  0.6274
  344MPD2     C 5154   0.520   2.669   9.945 -0.1394  0.9006  0.2387
  344MPD2    C1 5155   0.536   2.682  10.082 -0.3026  0.7004  0.2683
  344MPD2    C2 5156   0.580   2.810  10.120 -0.3143 -1.1222  0.8043
  344MPD2    C3 5157   0.591   2.913  10.032 -0.8076 -0.0073  0.0397
  344MPD2    C4 5158   0.581   2.896   9.903 -0.3865 -0.1540  0.5701
  344MPD2    C5 5159   0.548   2.773   9.864 -0.1607 -0.0102 -0.7653
  344MPD2     H 5160   0.594   2.819  10.227  0.9851 -1.0869  0.6315
  344MPD2    H1 5161   0.590   2.974   9.829  2.5211  0.0737  1.1536
  344MPD2    H2 5162   0.496   2.573   9.902 -1.2825  2.5950 -2.9193
  344MPD2    H3 5163   0.528   2.761   9.758 -2.4770 -1.2841 -0.1912
  344MPD2     N 5164   0.620   3.047  10.078 -0.5025  0.0945 -0.5997
  344MPD2    H5 5165   0.602   3.125  10.015  0.7983 -0.0449 -1.1471
  344MPD2    N1 5166   0.495   2.590  10.178 -0.1379 -0.5698 -0.4334
  344MPD2    H7 5167   0.500   2.615  10.276  0.3553  1.7115 -1.0407
  345TMC3    C1 5168   0.692   3.214  10.230 -0.5798  0.5517 -0.1175
  345TMC3    C2 5169   0.803   3.244  10.296  0.1689  0.1544  0.4125
  345TMC3    C3 5170   0.862   3.366  10.260 -0.0909  0.1810 -0.7229
  345TMC3    C4 5171   0.624   3.308  10.163 -0.4693  0.0126 -0.1273
  345TMC3    C5 5172   0.681   3.427  10.129  1.2367  0.2171  0.3099
  345TMC3    C6 5173   0.804   3.455  10.178 -0.0412  0.5600  0.0512
  345TMC3     C 5174   0.671   3.072  10.203  0.4356 -0.3148 -0.0765
  345TMC3     O 5175   0.734   3.001  10.282  0.7885  0.2326 -0.4053
  345TMC3     H 5176   0.865   3.171  10.347 -2.9941 -1.2493  2.2745
  345TMC3    H1 5177   0.526   3.281  10.126 -0.7402  1.2881 -0.3363
  345TMC3    H2 5178   0.852   3.544  10.141  0.6458 -1.1852 -3.2558
  345TMC3    C7 5179   0.601   3.537  10.082  0.3786  0.0461 -0.0290
  345TMC3    C8 5180   0.990   3.403  10.325  0.3877 -0.6101 -0.3281
  345TMC3    O1 5181   0.659   3.642  10.074 -0.0471  0.3094 -0.0978
  345TMC3    O2 5182   1.053   3.310  10.373 -0.4903  0.0252  0.5204
  346MPD2     C 5183   4.493   4.318  14.243 -0.6304 -0.3574  0.0253
  346MPD2    C1 5184   4.627   4.297  14.206  0.2941 -0.1694 -0.0337
  346MPD2    C2 5185   4.715   4.336  14.303 -0.0029 -0.2187  0.0427
  346MPD2    C3 5186   4.677   4.394  14.427 -0.0944 -0.4284  0.3206
  346MPD2    C4 5187   4.542   4.413  14.460  0.2395 -0.0623  0.3988
  346MPD2    C5 5188   4.453   4.383  14.361 -0.6090 -0.2808 -0.4377
  346MPD2     H 5189   0.100   4.334  14.284 -0.2385  1.7129 -1.5070
  346MPD2    H1 5190   4.506   4.460  14.551  0.5467  0.2472  0.3550
  346MPD2    H2 5191   4.415   4.283  14.177  0.0145  1.2850 -1.6172
  346MPD2    H3 5192   4.346   4.388  14.376 -0.4491 -0.5020  0.8318
  346MPD2     N 5193   0.052   4.467  14.498  0.3059  0.5958 -0.4879
  346MPD2    H5 5194   0.140   4.483  14.448  1.4301  0.3458  1.4168
  346MPD2    N1 5195   4.680   4.240  14.083 -0.0820  0.0800  0.0791
  346MPD2    H7 5196   0.058   4.234  14.066 -0.1614 -0.3413 -0.2162
  347TMC3    C1 5197   0.151   4.596  14.677  0.4742 -0.2600 -0.1739
  347TMC3    C2 5198   0.234   4.645  14.579 -1.0146 -0.7281 -0.0776
  347TMC3    C3 5199   0.355   4.701  14.618  0.2092  0.2379 -0.2085
  347TMC3    C4 5200   0.190   4.586  14.805  0.0640 -0.0940  0.0919
  347TMC3    C5 5201   0.315   4.646  14.848 -0.2967  0.1214 -0.0012
  347TMC3    C6 5202   0.401   4.694  14.751 -0.8194 -1.1290  0.7106
  347TMC3     C 5203   0.036   4.513  14.627 -0.1894  0.0651 -0.3906
  347TMC3     O 5204   4.676   4.470  14.702 -0.2755  0.4625  0.4936
  347TMC3     H 5205   0.209   4.652  14.474 -0.2785 -1.4094 -0.2917
  347TMC3    H1 5206   0.128   4.540  14.882 -0.5386  0.2783 -0.1738
  347TMC3    H2 5207   0.489   0.030  14.775 -0.4972 -1.3397  0.0108
  347TMC3    C7 5208   0.360   4.626  14.988  0.0547  0.0905  0.0862
  347TMC3    C8 5209   0.465   4.693  14.524  0.1927 -0.4179 -0.4509
  347TMC3    O1 5210   0.287   4.576  15.074 -0.2999 -0.2567  0.6384
  347TMC3    O2 5211   0.574   4.656  14.563 -0.1583 -0.6253  0.3176
  348MPD2     C 5212   3.799   4.608  11.899 -0.0864  0.4788  0.8550
  348MPD2    C1 5213   3.929   4.658  11.903 -0.0752  0.6135  0.3579
  348MPD2    C2 5214   3.968   0.025  11.802  0.4645 -0.5685  0.1529
  348MPD2    C3 5215   3.885   0.051  11.696  0.0372  0.3257 -0.4806
  348MPD2    C4 5216   3.757   4.718  11.688  0.0534 -0.2503  0.0552
  348MPD2    C5 5217   3.716   4.644  11.793 -0.3393  0.3100 -0.5135
  348MPD2     H 5218   4.066   0.071  11.810  0.0341  0.6191 -1.4361
  348MPD2    H1 5219   3.685   0.027  11.613 -0.9586  0.2906  1.2368
  348MPD2    H2 5220   3.758   4.541  11.975  1.0692 -0.9425  0.2197
  348MPD2    H3 5221   3.611   4.616  11.798 -0.0002 -0.3826  2.9634
  348MPD2     N 5222   3.946   0.122  11.586 -0.1140  0.2463 -0.0599
  348MPD2    H5 5223   4.048   0.125  11.589 -0.2126  3.7420  0.3126
  348MPD2    N1 5224   4.026   4.616  11.996  0.4860  0.3112  0.4389
  348MPD2    H7 5225   4.120   4.653  11.982  0.1778  1.4651  1.4140
  349TMC3    C1 5226   4.120   4.512  12.181  0.3306  0.0691  0.2215
  349TMC3    C2 5227   4.138   4.384  12.220  0.1427 -0.4166 -0.9000
  349TMC3    C3 5228   4.260   4.343  12.253 -0.5329  0.2420  0.0553
  349TMC3    C4 5229   4.234   4.596  12.160 -0.2993  0.2793 -0.4717
  349TMC3    C5 5230   4.359   4.557  12.207  0.0081 -0.0259 -0.1173
  349TMC3    C6 5231   4.371   4.430  12.251  0.1429 -0.6831 -0.5473
  349TMC3     C 5232   3.999   4.540  12.107 -0.3367  0.3284 -0.2373
  349TMC3     O 5233   3.889   4.507  12.154 -0.2764  0.8049  0.2497
  349TMC3     H 5234   4.053   4.318  12.210  0.8274 -1.4735  0.1556
  349TMC3    H1 5235   4.223   4.696  12.119 -0.5134  0.1465 -0.7347
  349TMC3    H2 5236   4.464   4.386  12.285  1.3783 -0.5626 -3.8216
  349TMC3    C7 5237   4.452   4.581  12.092  0.9095 -0.1227 -0.5650
  349TMC3    C8 5238   4.292   4.212  12.203  0.1836 -0.0085 -0.3844
  349TMC3    O1 5239   4.482   4.473  12.044 -0.4705 -0.2021 -0.5734
  349TMC3    O2 5240   4.212   4.125  12.231  0.0740  0.0359 -0.2297
  350MPD2     C 5241   2.837   2.939  10.136 -0.6067 -0.1248 -0.6095
  350MPD2    C1 5242   2.879   2.840  10.046 -0.3314  0.3173 -0.1899
  350MPD2    C2 5243   3.014   2.836  10.015 -0.1487 -0.5288  0.3044
  350MPD2    C3 5244   3.103   2.923  10.070  0.7167  0.8644  0.1317
  350MPD2    C4 5245   3.055   3.022  10.152  0.0059 -0.2566 -1.3960
  350MPD2    C5 5246   2.923   3.030  10.190  0.3645 -0.3771 -0.0880
  350MPD2     H 5247   3.056   2.761   9.949 -0.9552 -1.9091  1.3576
  350MPD2    H1 5248   3.119   3.087  10.211  0.4248  0.4720 -2.6695
  350MPD2    H2 5249   2.734   2.939  10.171 -0.4928  1.0951 -0.2859
  350MPD2    H3 5250   2.886   3.104  10.261  0.0331  0.2175 -0.8853
  350MPD2     N 5251   3.239   2.896  10.042 -0.4505  0.3883 -0.5393
  350MPD2    H5 5252   3.262   2.808   9.997  0.9700 -0.0527  1.0656
  350MPD2    N1 5253   2.805   2.732  10.003  0.4723 -0.4562 -0.5838
  350MPD2    H7 5254   2.853   2.661   9.949  0.9391 -1.0804  0.6741
  351TMC3    C1 5255   2.621   2.587   9.964 -0.7650  0.1944  0.2389
  351TMC3    C2 5256   2.706   2.481   9.940  0.2047  0.3522  0.6453
  351TMC3    C3 5257   2.648   2.369   9.876 -0.3209 -0.5888  0.5907
  351TMC3    C4 5258   2.484   2.589   9.932 -0.0362 -0.4932  1.0275
  351TMC3    C5 5259   2.440   2.490   9.859  0.0897  0.0849 -0.1293
  351TMC3    C6 5260   2.520   2.385   9.822 -0.0556 -0.8149 -0.6308
  351TMC3     C 5261   2.671   2.709  10.024 -0.0682  0.3373  0.1357
  351TMC3     O 5262   2.587   2.773  10.090 -0.5363 -0.3354  0.2021
  351TMC3     H 5263   2.801   2.472   9.991  0.4300  0.3291  0.2224
  351TMC3    H1 5264   2.415   2.663   9.972 -1.4027 -0.8156 -0.7184
  351TMC3    H2 5265   2.485   2.310   9.752  1.4932 -2.1863  0.0680
  351TMC3    C7 5266   2.311   2.507   9.811  0.2380 -0.3669 -0.1559
  351TMC3    C8 5267   2.726   2.255   9.837  0.5921  0.2147  0.3569
  351TMC3    O1 5268   2.268   2.620   9.808  0.4183  0.0182  0.7705
  351TMC3    O2 5269   2.685   2.192   9.738 -1.0742 -0.0324 -0.4950
  352MPD2     C 5270   0.821   3.804   1.492  0.5268 -1.2299  0.1065
  352MPD2    C1 5271   0.738   3.739   1.401 -0.6858  0.1772  0.2444
  352MPD2    C2 5272   0.756   3.598   1.393 -0.2353  0.4942 -0.7096
  352MPD2    C3 5273   0.828   3.526   1.487  0.1950 -0.0012  0.3345
  352MPD2    C4 5274   0.889   3.601   1.586  0.7335  0.4195  0.3567
  352MPD2    C5 5275   0.891   3.734   1.584  0.0556 -1.1665  0.3133
  352MPD2     H 5276   0.703   3.544   1.316 -0.3663  0.2482 -0.4500
  352MPD2    H1 5277   0.940   3.552   1.668 -0.8057 -0.9840  0.4856
  352MPD2    H2 5278   0.823   3.912   1.501 -2.5977 -1.1994  0.2250
  352MPD2    H3 5279   0.943   3.787   1.664  0.6831 -0.5644 -0.4869
  352MPD2     N 5280   0.844   3.388   1.488  0.2131 -0.1334  0.4055
  352MPD2    H5 5281   0.903   3.357   1.565 -1.4507 -2.7219  0.6540
  352MPD2    N1 5282   0.656   3.804   1.303 -0.6156  0.3859 -0.9038
  352MPD2    H7 5283   0.649   3.905   1.303  0.7646  0.4864 -1.1051
  353TMC3    C1 5284   0.819   3.163   1.414  0.3022 -0.5638  0.1525
  353TMC3    C2 5285   0.889   3.120   1.529 -0.1347 -0.2821  0.1016
  353TMC3    C3 5286   0.921   2.989   1.539  0.6306 -0.4523 -0.1704
  353TMC3    C4 5287   0.804   3.079   1.305  0.1024 -0.0569 -0.0295
  353TMC3    C5 5288   0.859   2.957   1.313 -0.0197  0.1636 -0.0585
  353TMC3    C6 5289   0.914   2.905   1.431  0.2107  0.4082  0.0539
  353TMC3     C 5290   0.779   3.299   1.402  0.2779 -0.5887 -0.8692
  353TMC3     O 5291   0.697   3.323   1.315 -0.1113  0.2618  0.0554
  353TMC3     H 5292   0.905   3.188   1.612  0.5061 -0.7183  0.3288
  353TMC3    H1 5293   0.749   3.112   1.218 -0.2875 -0.1443  0.1816
  353TMC3    H2 5294   0.949   2.803   1.439  1.1655  0.6925 -0.4055
  353TMC3    C7 5295   0.847   2.877   1.195  0.5311 -0.2708  0.0922
  353TMC3    C8 5296   0.998   2.955   1.657  0.3538  0.1197 -0.0044
  353TMC3    O1 5297   0.835   2.934   1.092 -0.3175 -0.5575 -0.2409
  353TMC3    O2 5298   0.980   3.019   1.759  0.3135  0.4435 -0.8665
  354TMC3    C1 5299   2.962   0.529  13.235  0.6402  0.8488  0.7159
  354TMC3    C2 5300   2.904   0.608  13.150 -0.4093  0.0477 -0.7533
  354TMC3    C3 5301   2.962   0.640  13.027 -0.0019  0.4690 -0.6040
  354TMC3    C4 5302   3.091   0.489  13.210 -0.9423  0.2438 -0.1310
  354TMC3    C5 5303   3.144   0.514  13.092  0.4049  0.2735 -0.5279
  354TMC3    C6 5304   3.086   0.595  12.998  0.0551 -0.1671  0.4607
  354TMC3     C 5305   2.892   0.483  13.354 -0.0998  0.0299  0.2336
  354TMC3     O 5306   2.777   0.522  13.360 -0.1013 -0.2128  0.0748
  354TMC3     H 5307   2.808   0.649  13.180  0.6291  0.8309  1.5744
  354TMC3    H1 5308   3.150   0.426  13.275  0.7302  0.8265 -1.0513
  354TMC3    H2 5309   3.133   0.608  12.901  0.0588  2.3147  0.7827
  354TMC3    C7 5310   3.276   0.461  13.068  0.1952  0.4720 -0.3545
  354TMC3    C8 5311   2.920   0.759  12.961 -0.0288  0.3139 -0.2592
  354TMC3    O1 5312   3.301   0.362  13.133 -0.4690  0.4336 -0.0733
  354TMC3    O2 5313   2.988   0.784  12.863 -0.0109 -1.0197  0.2814
  355MPD2     C 5314   3.186   1.893  11.620  0.8478  0.2054  0.1807
  355MPD2    C1 5315   3.257   1.955  11.523  0.4447 -0.4739 -1.1572
  355MPD2    C2 5316   3.393   1.944  11.522  0.4333  0.0175 -0.4015
  355MPD2    C3 5317   3.458   1.876  11.621  0.1401 -0.2124  0.5543
  355MPD2    C4 5318   3.390   1.811  11.721 -1.1171  0.0250 -0.0742
  355MPD2    C5 5319   3.254   1.819  11.719 -0.3772 -0.0254  0.6420
  355MPD2     H 5320   3.447   2.003  11.449  1.6799  1.3755  1.6574
  355MPD2    H1 5321   3.438   1.749  11.796 -0.8088  2.5777  1.8419
  355MPD2    H2 5322   3.078   1.896  11.629  0.9728 -0.0624  1.6630
  355MPD2    H3 5323   3.195   1.766  11.793 -3.0983  2.5578  0.3483
  355MPD2     N 5324   3.600   1.869  11.623 -0.1782 -0.3999  1.1264
  355MPD2    H5 5325   3.636   1.824  11.706 -2.1519 -1.7434  1.2624
  355MPD2    N1 5326   3.186   2.028  11.428 -0.5950 -0.1474 -0.0515
  355MPD2    H7 5327   3.100   2.074  11.456 -1.0435 -0.7920 -0.3575
  356TMC3    C1 5328   3.831   1.915  11.570 -0.6149  0.0334  0.0060
  356TMC3    C2 5329   3.924   1.963  11.483  0.5154  0.5094 -0.4708
  356TMC3    C3 5330   4.048   2.013  11.520 -0.3918 -0.8751 -0.1827
  356TMC3    C4 5331   3.853   1.935  11.705 -1.3076  0.3533 -0.1087
  356TMC3    C5 5332   3.976   1.981  11.740  0.1222 -0.2017  0.3229
  356TMC3    C6 5333   4.080   2.019  11.652 -0.1682 -0.4432  0.4243
  356TMC3     C 5334   3.689   1.923  11.525 -0.2971  0.4523 -0.3351
  356TMC3     O 5335   3.663   1.945  11.405 -0.5800 -0.6471 -0.0627
  356TMC3     H 5336   3.898   1.954  11.378  1.4801 -0.8715 -0.5981
  356TMC3    H1 5337   3.780   1.914  11.781 -1.4718  2.6478  0.3792
  356TMC3    H2 5338   4.181   2.034  11.689 -0.4354  2.6380 -0.0974
  356TMC3    C7 5339   4.007   1.970  11.881  0.2361  0.5206  0.5068
  356TMC3    C8 5340   4.136   2.065  11.413 -0.8690 -0.2669  0.1024
  356TMC3    O1 5341   4.063   2.066  11.928 -0.3633 -0.2011  0.3852
  356TMC3    O2 5342   4.109   2.044  11.295 -0.4221  0.5562  0.2115
  357MPD2     C 5343   2.391   0.913   1.548 -0.4183 -0.3901  0.8257
  357MPD2    C1 5344   2.402   0.783   1.594  0.2726 -0.4983 -0.0926
  357MPD2    C2 5345   2.285   0.708   1.590  0.3642  0.4042 -0.1860
  357MPD2    C3 5346   2.165   0.768   1.557  0.6309 -0.1344  0.1237
  357MPD2    C4 5347   2.165   0.900   1.517 -0.6258 -0.1659 -0.2443
  357MPD2    C5 5348   2.279   0.967   1.503 -0.4332  0.2551 -0.0409
  357MPD2     H 5349   2.277   0.606   1.626  1.8243 -0.5937 -2.7101
  357MPD2    H1 5350   2.076   0.960   1.497 -1.3601 -0.8719  0.9334
  357MPD2    H2 5351   2.479   0.975   1.532  0.4468 -1.2765  2.1052
  357MPD2    H3 5352   2.277   1.065   1.457  0.7197 -0.3758 -1.4345
  357MPD2     N 5353   2.038   0.701   1.539  0.0938 -0.0871  0.0369
  357MPD2    H5 5354   1.958   0.753   1.505  0.7244  0.5546 -0.4646
  357MPD2    N1 5355   2.528   0.727   1.629 -0.3295  0.5350  0.2957
  357MPD2    H7 5356   2.616   0.754   1.586 -0.2215 -0.8188 -0.3108
  358TMC3    C1 5357   2.672   0.558   1.712 -0.3570  0.1903  0.0659
  358TMC3    C2 5358   2.744   0.544   1.597  0.8012  0.0061  0.0583
  358TMC3    C3 5359   2.841   0.449   1.589  0.3163  0.3018 -0.4906
  358TMC3    C4 5360   2.696   0.481   1.824  0.0330 -0.1192 -0.2483
  358TMC3    C5 5361   2.798   0.387   1.804 -0.1397 -0.4379  0.6770
  358TMC3    C6 5362   2.866   0.370   1.693 -0.5423 -0.2420  0.3970
  358TMC3     C 5363   2.539   0.621   1.712  0.5790 -0.1532 -0.5567
  358TMC3     O 5364   2.459   0.577   1.795 -0.3089  0.0389 -0.2586
  358TMC3     H 5365   2.726   0.599   1.505 -0.2295  1.9643  1.4452
  358TMC3    H1 5366   2.630   0.496   1.908  1.8801 -0.3756  1.2309
  358TMC3    H2 5367   2.918   0.276   1.676  0.2125  0.0162  1.2382
  358TMC3    C7 5368   2.866   0.330   1.920  0.1483 -0.6522  0.6959
  358TMC3    C8 5369   2.885   0.419   1.455  0.3791 -0.0062  0.0380
  358TMC3    O1 5370   2.987   0.311   1.919 -0.0538  0.3147  0.2977
  358TMC3    O2 5371   2.823   0.460   1.355 -0.3588 -0.3547  0.7831
  359MPD2     C 5372   4.123   0.120  12.354 -0.3312 -0.2704 -0.2651
  359MPD2    C1 5373   4.043   0.210  12.279  0.0234 -0.0827 -0.2555
  359MPD2    C2 5374   3.916   0.233  12.327  0.4849  0.5352 -0.4171
  359MPD2    C3 5375   3.865   0.165  12.434 -0.2993  0.0773  0.2150
  359MPD2    C4 5376   3.943   0.076  12.504 -0.2827 -0.0389 -0.5509
  359MPD2    C5 5377   4.071   0.060  12.464  0.4337 -0.2015 -0.7211
  359MPD2     H 5378   3.863   0.314  12.278  0.1120  0.5902  0.0833
  359MPD2    H1 5379   3.896   0.029  12.590  0.8500 -0.0707  0.0527
  359MPD2    H2 5380   4.223   0.086  12.328 -0.3437 -2.1906  2.1427
  359MPD2    H3 5381   4.130   4.702  12.509  0.0458 -1.2391 -2.0389
  359MPD2     N 5382   3.736   0.189  12.487 -0.1462  0.3461 -0.8068
  359MPD2    H5 5383   3.698   0.125  12.556  3.1314 -0.4465  0.2691
  359MPD2    N1 5384   4.093   0.290  12.176  0.7607  0.1071 -0.7004
  359MPD2    H7 5385   4.034   0.368  12.149  1.4691  0.6835 -0.5833
  360TMC3    C1 5386   4.259   0.391  12.041  0.0653  0.2485  0.8799
  360TMC3    C2 5387   4.389   0.420  12.051 -0.4159  0.3192 -0.1263
  360TMC3    C3 5388   4.426   0.533  11.981  0.1205  0.3547  0.2912
  360TMC3    C4 5389   4.174   0.441  11.948 -0.5057  0.2934 -0.7831
  360TMC3    C5 5390   4.219   0.538  11.866  0.2591  0.1914 -0.5150
  360TMC3    C6 5391   4.346   0.597  11.887 -0.3802  0.4729 -0.5347
  360TMC3     C 5392   4.219   0.274  12.120  0.5028 -0.0824  0.1786
  360TMC3     O 5393   4.309   0.194  12.148  0.1361 -0.1098  0.3209
  360TMC3     H 5394   4.438   0.382  12.140  1.0559  1.6483 -0.3647
  360TMC3    H1 5395   4.078   0.392  11.937  0.5536 -2.7264  3.3092
  360TMC3    H2 5396   4.374   0.680  11.823 -1.9834  2.0744  0.8505
  360TMC3    C7 5397   4.140   0.566  11.743  0.0948 -0.4247  0.0789
  360TMC3    C8 5398   4.556   0.583  12.002 -0.4120  0.2986  0.3186
  360TMC3    O1 5399   4.199   0.646  11.671  0.4041  0.7714 -0.2961
  360TMC3    O2 5400   4.603   0.544  12.107  0.3155 -0.0903 -0.3423
  361MPD2     C 5401   4.575   2.762  16.625  0.0764 -0.6103 -0.0758
  361MPD2    C1 5402   4.592   2.891  16.655 -0.2458  0.2108  0.3389
  361MPD2    C2 5403   0.002   2.948  16.651  0.2317 -0.1615  0.8440
  361MPD2    C3 5404   0.112   2.867  16.640 -0.1837 -0.0794  0.1118
  361MPD2    C4 5405   0.096   2.740  16.600 -0.1827  0.3187 -0.3450
  361MPD2    C5 5406   4.689   2.693  16.597 -0.7962 -0.9664 -0.1205
  361MPD2     H 5407   0.019   3.055  16.665 -2.0842  0.0401  2.1533
  361MPD2    H1 5408   0.180   2.677  16.572  0.2543  0.6963  0.1106
  361MPD2    H2 5409   4.479   2.716  16.605 -0.4537 -0.0759  1.2166
  361MPD2    H3 5410   4.674   2.592  16.559  3.0889 -1.6159  0.0655
  361MPD2     N 5411   0.241   2.907  16.666 -0.0370 -0.7688 -0.0148
  361MPD2    H5 5412   0.310   2.837  16.643 -0.3812 -0.7319 -1.1672
  361MPD2    N1 5413   4.481   2.982  16.676 -0.5403  0.0283  0.9004
  361MPD2    H7 5414   4.501   3.081  16.677 -0.0500 -0.0761  1.5149
  362TMC3    C1 5415   4.282   3.073  16.762 -0.7237  0.0227 -0.6531
  362TMC3    C2 5416   4.195   3.071  16.872 -0.6930 -0.0966 -0.4708
  362TMC3    C3 5417   4.123   3.184  16.894 -0.1100 -0.5110  0.0762
  362TMC3    C4 5418   4.281   3.181  16.677 -0.8283  0.2508 -0.3849
  362TMC3    C5 5419   4.184   3.279  16.698 -0.0860  0.4090 -1.0678
  362TMC3    C6 5420   4.105   3.281  16.803  0.3243 -0.0321 -0.6891
  362TMC3     C 5421   4.364   2.947  16.739  0.9408  0.2179  0.5807
  362TMC3     O 5422   4.337   2.842  16.798  0.0073  0.1443  0.3275
  362TMC3     H 5423   4.200   2.987  16.940 -0.2179  1.8950  1.9705
  362TMC3    H1 5424   4.329   3.165  16.581 -0.5809  1.4998 -0.4637
  362TMC3    H2 5425   4.024   3.354  16.804 -1.1487 -1.6657 -0.9141
  362TMC3    C7 5426   4.183   3.402  16.622  0.5194  0.1372 -0.6061
  362TMC3    C8 5427   4.027   3.188  17.006  0.8346  0.1211  0.1948
  362TMC3    O1 5428   4.091   3.482  16.620 -0.0765 -0.3006 -0.0022
  362TMC3    O2 5429   4.025   3.094  17.085 -0.3710  0.2398  0.0325
  363TMC3    C1 5430   3.538   1.507   9.187 -0.6039 -0.4290  0.3837
  363TMC3    C2 5431   3.630   1.515   9.289  0.1015 -0.4936 -0.4962
  363TMC3    C3 5432   3.620   1.603   9.390  0.0687  0.1463 -0.7748
  363TMC3    C4 5433   3.451   1.611   9.179  0.0747 -0.3655 -0.3639
  363TMC3    C5 5434   3.453   1.711   9.272  0.7566  0.3394 -0.7832
  363TMC3    C6 5435   3.534   1.704   9.381 -0.0923 -0.0030 -0.2806
  363TMC3     C 5436   3.580   1.426   9.071  0.0461 -0.0084  0.1712
  363TMC3     O 5437   3.694   1.384   9.074  0.1453  0.0880 -0.1730
  363TMC3     H 5438   3.694   1.427   9.297 -0.5304 -1.0247 -1.2281
  363TMC3    H1 5439   3.407   1.627   9.081  1.7653  0.9856 -0.9123
  363TMC3    H2 5440   3.550   1.783   9.455 -1.8591 -1.3233  1.5044
  363TMC3    C7 5441   3.371   1.825   9.260 -0.0215  0.0994 -0.7806
  363TMC3    C8 5442   3.739   1.617   9.476  0.3390 -0.2191 -0.3771
  363TMC3    O1 5443   3.371   1.893   9.361 -0.3621  0.5229 -0.1133
  363TMC3    O2 5444   3.742   1.714   9.550 -0.5144 -0.4386 -0.1980
  364MPD2     C 5445   2.731   1.431  10.623  0.3747  0.4565  0.0028
  364MPD2    C1 5446   2.785   1.428  10.498  0.3411  0.2154  0.1788
  364MPD2    C2 5447   2.851   1.310  10.457 -0.2046 -0.7421  0.1651
  364MPD2    C3 5448   2.855   1.198  10.537  0.0447 -0.3758 -0.2217
  364MPD2    C4 5449   2.797   1.205  10.664 -0.3925  0.1366 -0.0311
  364MPD2    C5 5450   2.727   1.319  10.701  0.0970  0.4319 -0.1300
  364MPD2     H 5451   2.903   1.305  10.362 -1.7283 -2.4640 -0.5875
  364MPD2    H1 5452   2.798   1.119  10.731  3.2105  0.0239 -0.2292
  364MPD2    H2 5453   2.663   1.510  10.653  1.5195  2.0589 -1.5818
  364MPD2    H3 5454   2.676   1.326  10.797 -0.0662 -2.9324  0.0089
  364MPD2     N 5455   2.914   1.067  10.510 -0.0717  0.1694  0.5250
  364MPD2    H5 5456   2.893   0.990  10.573 -1.2211  0.7359  0.8305
  364MPD2    N1 5457   2.779   1.547  10.426  0.5199  0.3566 -0.1723
  364MPD2    H7 5458   2.715   1.619  10.458 -0.3454 -0.9265  0.9958
  365TMC3    C1 5459   2.795   1.711  10.263 -0.0469  0.1982 -0.2308
  365TMC3    C2 5460   2.779   1.738  10.124  0.3794 -0.3031 -0.3004
  365TMC3    C3 5461   2.720   1.856  10.090 -0.7247 -0.4139 -0.9748
  365TMC3    C4 5462   2.735   1.797  10.355 -0.6614  0.3868 -0.7022
  365TMC3    C5 5463   2.674   1.916  10.312 -1.2241 -0.6082  0.4536
  365TMC3    C6 5464   2.671   1.947  10.185 -0.0724 -0.2688 -0.3129
  365TMC3     C 5465   2.831   1.576  10.306  0.1855  0.0323  0.0388
  365TMC3     O 5466   2.900   1.502  10.239  0.2933  0.1470 -0.2407
  365TMC3     H 5467   2.807   1.661  10.052  2.1533 -1.1130  1.2793
  365TMC3    H1 5468   2.761   1.787  10.460  1.0835  1.3407 -1.0415
  365TMC3    H2 5469   2.620   2.036  10.150  0.7259  0.9015  1.5324
  365TMC3    C7 5470   2.645   2.021  10.409  0.8502  0.6938 -0.2077
  365TMC3    C8 5471   2.686   1.899   9.952  0.1990  0.7556  0.2346
  365TMC3    O1 5472   2.656   2.138  10.378 -0.1686 -0.2865  0.5904
  365TMC3    O2 5473   2.582   1.963   9.935 -0.0723 -0.4358 -0.3317
  366MPD2     C 5474   0.465   2.683  15.095  0.3722  0.9865  0.5217
  366MPD2    C1 5475   0.602   2.668  15.114 -0.0945 -0.4412  0.3188
  366MPD2    C2 5476   0.660   2.544  15.130 -0.1545 -0.3785 -0.4176
  366MPD2    C3 5477   0.580   2.438  15.144 -0.6476  0.2776  0.4863
  366MPD2    C4 5478   0.442   2.450  15.135 -0.2308  0.0204 -0.3670
  366MPD2    C5 5479   0.386   2.574  15.112 -0.6389 -0.5619 -0.4479
  366MPD2     H 5480   0.766   2.530  15.148 -0.0837  0.4967 -0.1809
  366MPD2    H1 5481   0.375   2.366  15.143 -0.7209  0.3619 -0.8666
  366MPD2    H2 5482   0.417   2.774  15.063 -1.7861 -0.9681 -1.7464
  366MPD2    H3 5483   0.279   2.584  15.105 -0.7154  0.6728  2.3380
  366MPD2     N 5484   0.642   2.313  15.159 -0.2221  0.3824  0.0967
  366MPD2    H5 5485   0.743   2.316  15.160 -0.1605 -0.8730 -2.3650
  366MPD2    N1 5486   0.687   2.778  15.112  0.5445 -0.0208 -0.1842
  366MPD2    H7 5487   0.783   2.760  15.139  0.2978  0.4553  0.9863
  367TMC3    C1 5488   0.740   3.003  15.116 -0.5978  0.1721 -0.4713
  367TMC3    C2 5489   0.831   2.983  15.223 -0.2639 -0.0508 -0.8169
  367TMC3    C3 5490   0.865   3.095  15.292  0.0904 -0.5425 -1.0433
  367TMC3    C4 5491   0.698   3.131  15.087 -0.1456  0.4044 -0.4514
  367TMC3    C5 5492   0.729   3.236  15.167 -0.3662 -0.7167 -0.1919
  367TMC3    C6 5493   0.821   3.222  15.262  0.0315  0.1488  0.4927
  367TMC3     C 5494   0.652   2.901  15.061 -0.1108 -0.2439  0.2420
  367TMC3     O 5495   0.552   2.936  15.000  0.0285  0.3946 -0.3489
  367TMC3     H 5496   0.866   2.887  15.259  1.6763  0.7181 -0.6786
  367TMC3    H1 5497   0.645   3.155  14.996  0.8407 -0.9433 -1.3898
  367TMC3    H2 5498   0.832   3.308  15.328 -1.4437 -2.0342  3.6156
  367TMC3    C7 5499   0.652   3.354  15.152  0.1840  1.2897  0.1110
  367TMC3    C8 5500   0.947   3.074  15.408 -0.0486 -0.9098 -0.2619
  367TMC3    O1 5501   0.697   3.457  15.193  0.5032 -0.2731 -0.0008
  367TMC3    O2 5502   0.950   2.957  15.440 -0.2736 -0.3858  0.5361
  368MPD2     C 5503   2.026   4.145  13.005 -0.4723 -0.3588 -0.1109
  368MPD2    C1 5504   2.042   4.279  12.991 -0.0635 -0.1113  0.3643
  368MPD2    C2 5505   2.153   4.334  12.936 -0.2071 -0.3270  0.4297
  368MPD2    C3 5506   2.252   4.252  12.888  0.1249 -0.4083 -0.2669
  368MPD2    C4 5507   2.228   4.116  12.889  0.3404 -0.1073  0.3384
  368MPD2    C5 5508   2.119   4.062  12.948 -0.6541  0.1856  0.0454
  368MPD2     H 5509   2.175   4.440  12.930  1.8913 -0.8572 -1.2103
  368MPD2    H1 5510   2.291   4.044  12.837  1.9185  0.0323  2.0816
  368MPD2    H2 5511   1.938   4.105  13.055  0.4834 -0.5250  1.4539
  368MPD2    H3 5512   2.102   3.956  12.936 -1.8868  0.0872  2.6455
  368MPD2     N 5513   2.363   4.300  12.812  0.9076  0.3696 -0.2475
  368MPD2    H5 5514   2.428   4.233  12.773  2.0451  1.5254 -0.3181
  368MPD2    N1 5515   1.932   4.357  13.042  0.2688  0.0702 -0.2775
  368MPD2    H7 5516   1.847   4.305  13.064 -0.3397  0.2900 -2.1204
  369TMC3    C1 5517   1.779   4.532  13.022 -0.3264 -0.8434 -0.3273
  369TMC3    C2 5518   1.762   4.652  12.969  0.0180 -0.4418 -0.1751
  369TMC3    C3 5519   1.641   4.697  12.919  0.0670  0.3044  0.0150
  369TMC3    C4 5520   1.685   4.439  13.005  0.0822  0.0146 -0.4601
  369TMC3    C5 5521   1.560   4.485  12.965 -0.6552 -0.6624  0.2038
  369TMC3    C6 5522   1.533   4.615  12.929  0.2467 -0.1735 -0.0984
  369TMC3     C 5523   1.919   4.492  13.044  0.0294  0.3556 -0.2653
  369TMC3     O 5524   2.010   4.571  13.040 -0.4302 -0.4629 -0.0034
  369TMC3     H 5525   1.842   0.003  12.977  0.3181 -0.6735 -1.1291
  369TMC3    H1 5526   1.699   4.335  13.034  0.2089  0.6160  1.6377
  369TMC3    H2 5527   1.432   4.650  12.912  1.3095  1.5978 -2.8055
  369TMC3    C7 5528   1.461   4.385  12.949  0.3907 -0.2806  0.4474
  369TMC3    C8 5529   1.635   0.072  12.810  0.0902  0.3592 -0.3920
  369TMC3    O1 5530   1.483   4.278  13.009  0.0518  0.2450  0.2879
  369TMC3    O2 5531   1.530   0.138  12.794 -0.0394 -0.9060  0.0275
  370TMC3    C1 5532   1.202   4.295  16.420 -1.0202  0.1157 -1.0989
  370TMC3    C2 5533   1.140   4.203  16.503 -0.3792 -0.0062  0.4692
  370TMC3    C3 5534   1.058   4.103  16.445  0.5097  0.0704 -0.0708
  370TMC3    C4 5535   1.207   4.278  16.282  0.7433 -0.5121 -0.8159
  370TMC3    C5 5536   1.117   4.184  16.229 -0.1063  0.1153 -0.3584
  370TMC3    C6 5537   1.049   4.095  16.309  0.4182 -0.0062  0.0863
  370TMC3     C 5538   1.307   4.367  16.482 -0.3375 -0.0284 -0.1252
  370TMC3     O 5539   1.366   4.304  16.573  0.6545  0.3401  0.0744
  370TMC3     H 5540   1.169   4.199  16.607 -0.1418  0.3009  0.4142
  370TMC3    H1 5541   1.247   4.353  16.215 -1.8251 -1.2986 -3.2480
  370TMC3    H2 5542   0.999   4.012  16.260  1.5504  0.0064 -1.0978
  370TMC3    C7 5543   1.104   4.163  16.081 -0.5479 -0.4115 -0.5323
  370TMC3    C8 5544   1.071   3.975  16.515 -0.5773 -0.5542 -1.1857
  370TMC3    O1 5545   0.997   4.112  16.045 -0.2024 -0.0812  0.6379
  370TMC3    O2 5546   1.119   3.878  16.452 -0.2706  0.1169 -0.6484
  371TMC3    C1 5547   2.348   2.646  15.660 -0.1195  0.4392 -0.1686
  371TMC3    C2 5548   2.208   2.638  15.669 -0.6192  1.4459 -0.4487
  371TMC3    C3 5549   2.140   2.748  15.691 -0.3212 -0.6394  0.3330
  371TMC3    C4 5550   2.412   2.770  15.668  0.4514 -0.5229  0.7971
  371TMC3    C5 5551   2.330   2.879  15.693 -0.2362  0.1713 -0.4378
  371TMC3    C6 5552   2.198   2.870  15.710  1.0747 -0.1429  0.4315
  371TMC3     C 5553   2.434   2.529  15.627  0.5494 -0.0309  0.5805
  371TMC3     O 5554   2.550   2.566  15.602 -0.2426  0.2969 -0.8180
  371TMC3     H 5555   2.162   2.544  15.639  0.2786  1.5965 -2.2817
  371TMC3    H1 5556   2.517   2.782  15.644  0.4509  0.1852  1.1685
  371TMC3    H2 5557   2.139   2.959  15.730  0.7765 -0.3849  0.6312
  371TMC3    C7 5558   2.366   3.006  15.630  0.6123  0.2072 -0.1934
  371TMC3    C8 5559   2.009   2.743  15.622 -0.2112 -0.1647  0.1839
  371TMC3    O1 5560   2.339   3.113  15.676 -0.5711 -0.3535 -0.1128
  371TMC3    O2 5561   1.985   2.659  15.539 -0.1908 -0.2181  0.2138
  372MPD2     C 5562   2.386   4.371  13.223 -0.0400 -0.1176 -0.0822
  372MPD2    C1 5563   2.451   4.266  13.276  0.2458 -0.4079  0.8444
  372MPD2    C2 5564   2.384   4.173  13.348 -0.7434 -0.1951 -0.0988
  372MPD2    C3 5565   2.247   4.173  13.356 -0.0233  0.5015 -0.2296
  372MPD2    C4 5566   2.179   4.277  13.295 -0.3001  0.2859  0.4833
  372MPD2    C5 5567   2.254   4.384  13.244  0.0087  0.2985 -0.3187
  372MPD2     H 5568   2.436   4.094  13.401  1.1425  2.7870  2.4987
  372MPD2    H1 5569   2.072   4.291  13.297 -0.2695  0.4836  0.7466
  372MPD2    H2 5570   2.435   4.450  13.166  0.3380 -0.2286  0.0859
  372MPD2    H3 5571   2.207   4.474  13.206 -1.5474 -0.8025 -0.9838
  372MPD2     N 5572   2.188   4.067  13.427 -0.0590  0.0572 -0.0717
  372MPD2    H5 5573   2.249   3.995  13.465 -0.7809 -0.5649 -0.0736
  372MPD2    N1 5574   2.588   4.245  13.273  0.1907  0.7988  0.0833
  372MPD2    H7 5575   2.635   4.167  13.318 -1.6392 -0.9809 -1.1706
  373TMC3    C1 5576   2.045   3.949  13.543 -0.5480 -0.0297 -0.2275
  373TMC3    C2 5577   2.001   3.992  13.659 -0.3569 -0.2367  0.3575
  373TMC3    C3 5578   2.014   3.906  13.768  0.2154 -0.4396  0.3582
  373TMC3    C4 5579   2.102   3.825  13.531 -0.1087 -0.4393  0.5710
  373TMC3    C5 5580   2.108   3.741  13.634  0.1481  0.1289  0.0714
  373TMC3    C6 5581   2.074   3.781  13.760  0.7054 -0.2255  0.0068
  373TMC3     C 5582   2.057   4.054  13.449 -0.6673  0.1744  0.3354
  373TMC3     O 5583   1.966   4.133  13.425 -0.1412  0.0139 -0.3653
  373TMC3     H 5584   1.961   4.092  13.673  0.5589 -0.0708  1.8593
  373TMC3    H1 5585   2.137   3.799  13.432 -0.4914 -1.2157  0.6398
  373TMC3    H2 5586   2.076   3.715  13.847 -0.9805 -0.5056 -0.1638
  373TMC3    C7 5587   2.204   3.634  13.618  0.1691  1.0899 -0.4428
  373TMC3    C8 5588   1.996   3.954  13.901 -0.2804 -0.0544  0.4147
  373TMC3    O1 5589   2.258   3.627  13.509  0.1170 -0.0963 -0.3850
  373TMC3    O2 5590   1.901   4.027  13.923  0.1875 -0.7441 -0.9076
  374TMC3    C1 5591   2.827   0.466   9.591  1.0227  0.5455  0.3968
  374TMC3    C2 5592   2.937   0.545   9.604  0.1423 -0.0468 -0.3823
  374TMC3    C3 5593   3.059   0.501   9.547  0.0193 -0.3153 -0.0873
  374TMC3    C4 5594   2.820   0.356   9.514  1.1542 -0.2509  0.2460
  374TMC3    C5 5595   2.938   0.313   9.459  0.3702  0.2221 -0.0958
  374TMC3    C6 5596   3.057   0.379   9.483 -0.3204  0.0956 -0.5841
  374TMC3     C 5597   2.692   0.519   9.633  0.0820  0.3112  0.7223
  374TMC3     O 5598   2.593   0.450   9.612  0.1617 -0.2720 -0.2853
  374TMC3     H 5599   2.938   0.635   9.665  1.4618  0.2041 -0.7891
  374TMC3    H1 5600   2.726   0.308   9.492  0.4741  1.9530 -1.6664
  374TMC3    H2 5601   3.155   0.356   9.440 -0.5486 -1.0994 -0.4631
  374TMC3    C7 5602   2.935   0.178   9.407 -0.0528 -0.4122  0.0502
  374TMC3    C8 5603   3.174   0.578   9.552  0.0930 -0.2886  0.1881
  374TMC3    O1 5604   2.830   0.114   9.420  0.3079  0.1133  0.6112
  374TMC3    O2 5605   3.215   0.591   9.440 -0.7831 -0.0742 -0.2217
  375MPD2     C 5606   2.117   4.686  17.021 -0.5099 -0.7083 -0.0223
  375MPD2    C1 5607   2.170   0.084  16.968  0.6714  0.9516 -0.2127
  375MPD2    C2 5608   2.269   0.078  16.866 -0.7624  0.0166  0.2918
  375MPD2    C3 5609   2.296   4.676  16.811  0.4563  0.5040  0.0622
  375MPD2    C4 5610   2.238   4.562  16.853  0.1292  0.2819  0.3928
  375MPD2    C5 5611   2.155   4.562  16.965 -0.3651  0.1558 -0.1163
  375MPD2     H 5612   2.314   0.162  16.815  0.7540 -1.0663 -0.1630
  375MPD2    H1 5613   2.259   4.464  16.813 -2.5556 -0.1559  0.0817
  375MPD2    H2 5614   2.038   4.683  17.095 -1.3752 -2.0083 -1.0097
  375MPD2    H3 5615   2.117   4.471  17.008 -2.1536  1.0257  0.1811
  375MPD2     N 5616   2.383   4.652  16.699  0.1518  0.1916  0.1071
  375MPD2    H5 5617   2.386   4.557  16.663  2.1900  0.9277 -1.6581
  375MPD2    N1 5618   2.127   0.211  17.008  0.2259  0.8057 -0.0577
  375MPD2    H7 5619   2.168   0.288  16.957  0.2996  0.1713 -0.9629
  376TMC3    C1 5620   2.512   4.701  16.501 -0.2609 -0.4707  0.2149
  376TMC3    C2 5621   2.650   4.706  16.481 -0.4271 -1.0032  0.4091
  376TMC3    C3 5622   2.690   4.696  16.343 -0.1305  0.0722  0.6931
  376TMC3    C4 5623   2.418   4.668  16.408  0.0425 -0.2847  0.1645
  376TMC3    C5 5624   2.471   4.655  16.278  0.7480  0.5381  0.0336
  376TMC3    C6 5625   2.604   4.660  16.244  0.0638 -0.1005 -0.3286
  376TMC3     C 5626   2.464   0.024  16.634  0.1942 -0.1911 -0.6043
  376TMC3     O 5627   2.512   0.128  16.679 -0.7191  0.2197 -0.5026
  376TMC3     H 5628   2.709   0.033  16.558  0.1374 -0.4458 -0.3647
  376TMC3    H1 5629   2.313   4.672  16.434 -0.0602 -1.2825 -0.1116
  376TMC3    H2 5630   2.647   4.632  16.149  0.2353 -0.2724 -0.2003
  376TMC3    C7 5631   2.376   4.642  16.173 -0.0889 -0.1507 -0.3842
  376TMC3    C8 5632   2.831   4.680  16.327  0.3264 -0.5428  0.4050
  376TMC3    O1 5633   2.272   4.584  16.203  0.0594  0.1900 -0.2442
  376TMC3    O2 5634   2.864   4.688  16.206 -0.6234  0.2725 -0.4600
  377MPD2     C 5635   0.809   0.096  12.304  0.2200  0.3423 -0.1358
  377MPD2    C1 5636   0.879   0.012  12.381 -0.2770 -0.7658 -0.0222
  377MPD2    C2 5637   0.803   4.660  12.480  0.4122 -0.2677  0.4419
  377MPD2    C3 5638   0.672   4.687  12.507 -0.0762  0.1632  1.0397
  377MPD2    C4 5639   0.607   0.050  12.424 -0.0236  0.2137  0.4880
  377MPD2    C5 5640   0.672   0.110  12.319 -0.1151  0.3787  0.0922
  377MPD2     H 5641   0.855   4.594  12.548 -1.3683 -1.0155  1.0714
  377MPD2    H1 5642   0.500   0.066  12.438 -0.2242  0.2711 -1.0478
  377MPD2    H2 5643   0.856   0.159  12.229 -0.1276  1.3234  0.4607
  377MPD2    H3 5644   0.618   0.176  12.253 -0.7031 -0.8201 -0.6237
  377MPD2     N 5645   0.593   4.621  12.609  0.0404  0.1367  0.5833
  377MPD2    H5 5646   0.499   4.653  12.628 -0.4362  0.0159 -1.5559
  377MPD2    N1 5647   1.021   0.015  12.365  0.9570 -0.4533 -0.3002
  377MPD2    H7 5648   1.061   0.088  12.307 -0.7117  0.6729 -0.0342
  378TMC3    C1 5649   1.414   0.041  12.262  0.2347  0.2406 -0.0825
  378TMC3    C2 5650   1.278   0.018  12.279  0.0800  0.4141 -1.1579
  378TMC3    C3 5651   1.246   4.682  12.399  0.4943  0.5881  0.2395
  378TMC3    C4 5652   1.511   4.720  12.356  0.0116  0.3154 -0.3154
  378TMC3    C5 5653   1.469   4.655  12.462  0.6201  0.3753  0.4326
  378TMC3    C6 5654   1.336   4.646  12.496 -0.0819  0.1369  0.4483
  378TMC3     C 5655   1.459   0.122  12.147 -0.0474 -0.3406 -0.0914
  378TMC3     O 5656   1.374   0.179  12.082  0.4641  0.3598 -0.2674
  378TMC3     H 5657   1.211   0.041  12.197 -2.5153 -1.4034  0.4205
  378TMC3    H1 5658   1.618   0.014  12.344  0.0635  0.4090  0.2727
  378TMC3    H2 5659   1.315   4.615  12.598 -1.1524 -0.2958  0.1022
  378TMC3    C7 5660   1.568   4.576  12.535  1.4056 -0.0465 -0.0285
  378TMC3    C8 5661   1.109   4.656  12.437 -0.1639  0.4400  0.0366
  378TMC3    O1 5662   1.548   4.545  12.651 -0.2922  0.0566 -0.3724
  378TMC3    O2 5663   1.089   4.563  12.511 -0.4868  0.6148  0.2806
  379MPD2     C 5664   2.104   2.585  16.026 -0.0791 -0.8241  0.1746
  379MPD2    C1 5665   1.988   2.518  16.055 -0.9394  0.4694 -0.1471
  379MPD2    C2 5666   2.003   2.386  16.088  0.4173 -0.0479 -0.5383
  379MPD2    C3 5667   2.127   2.327  16.093  0.9921 -0.0155 -0.2275
  379MPD2    C4 5668   2.242   2.398  16.061 -0.9237  0.6631  0.0890
  379MPD2    C5 5669   2.226   2.532  16.031  0.1903 -0.5113 -0.3851
  379MPD2     H 5670   1.908   2.335  16.088  0.7229 -0.6175  1.1546
  379MPD2    H1 5671   2.340   2.351  16.064 -1.4288 -0.4477 -1.1108
  379MPD2    H2 5672   2.104   2.687  15.990 -1.0446 -0.8381  0.1168
  379MPD2    H3 5673   2.313   2.588  15.999 -1.4415  0.1493 -3.6663
  379MPD2     N 5674   2.142   2.189  16.114 -0.6724 -0.1438  0.2162
  379MPD2    H5 5675   2.233   2.150  16.092 -0.0488  1.8371 -0.7202
  379MPD2    N1 5676   1.856   2.575  16.045  0.3720 -0.2913 -0.4418
  379MPD2    H7 5677   1.779   2.517  16.078  0.2426 -0.2216 -0.6204
  380TMC3    C1 5678   1.681   2.701  15.956 -0.6517 -0.0042 -0.2532
  380TMC3    C2 5679   1.603   2.590  15.926 -0.1748  0.1422 -0.3002
  380TMC3    C3 5680   1.491   2.611  15.853 -0.2309 -0.1941 -0.3063
  380TMC3    C4 5681   1.633   2.827  15.925 -0.2667 -0.3667 -0.1341
  380TMC3    C5 5682   1.518   2.842  15.851  0.9126 -0.7463 -0.2872
  380TMC3    C6 5683   1.452   2.731  15.817 -0.2456 -0.0594  0.0619
  380TMC3     C 5684   1.825   2.693  15.983  0.5272 -1.1754  0.4731
  380TMC3     O 5685   1.891   2.795  15.959  0.7634 -0.2030 -0.1753
  380TMC3     H 5686   1.630   2.488  15.948  1.7830  0.2035 -2.3384
  380TMC3    H1 5687   1.688   2.919  15.941 -1.7463  0.6082 -0.6186
  380TMC3    H2 5688   1.354   2.733  15.772  0.1474 -1.1525 -0.8339
  380TMC3    C7 5689   1.460   2.977  15.833  0.6655 -0.3621 -0.3114
  380TMC3    C8 5690   1.444   2.499  15.771  0.6269  0.7792  0.1195
  380TMC3    O1 5691   1.516   3.057  15.905 -0.5556 -0.8136 -0.2321
  380TMC3    O2 5692   1.418   2.395  15.823  0.3057 -0.0164 -0.2924
  381TMC3    C1 5693   0.917   3.762  16.030 -0.4650 -0.2891  0.7186
  381TMC3    C2 5694   1.049   3.800  16.024  0.7743  0.2570  0.0256
  381TMC3    C3 5695   1.132   3.749  16.122  0.1552 -0.0437  0.6369
  381TMC3    C4 5696   0.881   3.651  16.115 -0.0365 -0.1152  0.2540
  381TMC3    C5 5697   0.970   3.606  16.210 -0.5929  0.0092  0.6517
  381TMC3    C6 5698   1.099   3.651  16.214  0.0798 -0.3775 -0.6173
  381TMC3     C 5699   0.809   3.796  15.942  0.2811 -0.0476  0.1684
  381TMC3     O 5700   0.720   3.711  15.924  0.3654 -0.4607  0.2221
  381TMC3     H 5701   1.104   3.864  15.956 -0.9615  0.5327 -1.1077
  381TMC3    H1 5702   0.776   3.625  16.125  0.5780 -3.2362 -1.3728
  381TMC3    H2 5703   1.170   3.619  16.289 -1.3946  0.0636  0.9544
  381TMC3    C7 5704   0.925   3.488  16.288 -0.1850  0.0157  0.3209
  381TMC3    C8 5705   1.267   3.793  16.125  0.2955 -0.6546 -0.0175
  381TMC3    O1 5706   0.972   3.380  16.256  0.0207 -0.6713  0.3881
  381TMC3    O2 5707   1.329   3.803  16.018  0.3191  0.2829  0.7156
  382MPD2     C 5708   0.906   0.992   0.398  0.5677  0.5013  0.8196
  382MPD2    C1 5709   0.888   0.936   0.271  0.1015 -0.2697 -0.8320
  382MPD2    C2 5710   0.800   0.832   0.261 -0.0246  0.1700  0.1745
  382MPD2    C3 5711   0.722   0.777   0.362 -0.2187  0.3707  0.4067
  382MPD2    C4 5712   0.750   0.827   0.487  0.4559  0.1965  0.0991
  382MPD2    C5 5713   0.839   0.930   0.500 -0.3600  0.4458 -0.8267
  382MPD2     H 5714   0.791   0.778   0.167 -2.3687 -0.7211  0.8916
  382MPD2    H1 5715   0.700   0.796   0.578  0.6530  0.4688  0.3014
  382MPD2    H2 5716   0.976   1.073   0.415 -1.8072  2.2937  2.1294
  382MPD2    H3 5717   0.863   0.976   0.595 -1.9907 -0.6427  0.1297
  382MPD2     N 5718   0.625   0.679   0.346 -0.1344 -0.2740  0.1695
  382MPD2    H5 5719   0.577   0.649   0.430  0.0322  0.6013  0.5785
  382MPD2    N1 5720   0.941   0.991   0.151  0.3552 -0.0844 -0.1315
  382MPD2    H7 5721   0.901   0.957   0.064  1.3183  0.3912 -0.7629
  383TMC3    C1 5722   0.473   0.529   0.236  0.0240 -0.0607  0.0106
  383TMC3    C2 5723   0.395   0.513   0.127  0.5999  0.2841 -0.9620
  383TMC3    C3 5724   0.309   0.409   0.127 -0.1569 -0.0813  0.2924
  383TMC3    C4 5725   0.464   0.445   0.346  0.0907  0.4711 -0.3734
  383TMC3    C5 5726   0.360   0.351   0.341  0.0003 -0.1135 -0.5133
  383TMC3    C6 5727   0.280   0.335   0.233 -0.2655 -0.4230 -0.2353
  383TMC3     C 5728   0.579   0.630   0.221  0.8104 -0.0712 -0.1575
  383TMC3     O 5729   0.599   0.678   0.109 -0.1405  0.7868  0.5381
  383TMC3     H 5730   0.422   0.570   0.039  0.5034  1.7489 -0.0449
  383TMC3    H1 5731   0.519   0.472   0.435 -0.5448 -0.6186  0.3487
  383TMC3    H2 5732   0.200   0.262   0.239 -1.6020  1.1704  1.5076
  383TMC3    C7 5733   0.319   0.280   0.456 -0.8361 -0.8469 -0.3414
  383TMC3    C8 5734   0.243   0.386  17.687 -0.0558 -0.0658  0.2882
  383TMC3    O1 5735   0.319   0.337   0.562 -0.3458 -0.2148 -0.1962
  383TMC3    O2 5736   0.221   0.477  17.612  1.4428 -0.0558 -0.1407
  384MPD2     C 5737   2.355   2.791  12.009  0.5289 -0.1949  0.4146
  384MPD2    C1 5738   2.382   2.754  12.140 -0.3797  0.4931  0.3767
  384MPD2    C2 5739   2.483   2.663  12.169 -0.0858  0.3778  0.0330
  384MPD2    C3 5740   2.554   2.604  12.061 -0.8044  0.1207  0.0402
  384MPD2    C4 5741   2.530   2.647  11.932 -0.3860 -0.5020  0.1994
  384MPD2    C5 5742   2.429   2.734  11.909  0.1753  0.6169 -0.1036
  384MPD2     H 5743   2.498   2.630  12.272 -1.1492  1.2263  0.4590
  384MPD2    H1 5744   2.593   2.621  11.848  1.3166  1.1836  0.9617
  384MPD2    H2 5745   2.292   2.871  11.973  0.8791 -2.0400 -4.3268
  384MPD2    H3 5746   2.416   2.761  11.805  0.1644 -3.2559 -1.0882
  384MPD2     N 5747   2.647   2.511  12.100 -0.2715  0.2927 -0.3076
  384MPD2    H5 5748   2.662   2.489  12.198  0.4974  3.7894  0.3585
  384MPD2    N1 5749   2.304   2.802  12.245 -0.5866  0.7894 -0.1750
  384MPD2    H7 5750   2.326   2.759  12.333 -0.2173 -1.5487 -1.4223
  385TMC3    C1 5751   2.790   2.332  12.077  0.2703 -0.1044 -0.4983
  385TMC3    C2 5752   2.767   2.207  12.030 -0.4621 -0.2555 -0.6888
  385TMC3    C3 5753   2.756   2.103  12.121 -0.5951  0.0722 -0.0050
  385TMC3    C4 5754   2.818   2.364  12.210 -0.1858  0.1715  0.5079
  385TMC3    C5 5755   2.775   2.265  12.292  0.2761  0.0430 -0.3816
  385TMC3    C6 5756   2.760   2.135  12.252 -0.1144 -0.2832 -0.0459
  385TMC3     C 5757   2.710   2.432  12.008  0.1259  0.0768 -0.1543
  385TMC3     O 5758   2.700   2.423  11.887 -0.6548 -0.6869  0.0115
  385TMC3     H 5759   2.731   2.192  11.929  1.7818 -2.6744 -1.1175
  385TMC3    H1 5760   2.847   2.466  12.235  0.6018  0.1543 -0.3371
  385TMC3    H2 5761   2.745   2.057  12.326  2.0710 -2.4333 -1.8446
  385TMC3    C7 5762   2.677   2.327  12.388  0.1502  0.2767 -0.0246
  385TMC3    C8 5763   2.770   1.958  12.090  0.0442  0.8912  0.4543
  385TMC3    O1 5764   2.669   2.447  12.396 -0.0336  0.0024 -0.5746
  385TMC3    O2 5765   2.759   1.881  12.183  0.5992 -0.0293  0.2649
  386TMC3    C1 5766   2.341   0.165  11.815  0.9577 -0.1115  0.0199
  386TMC3    C2 5767   2.431   0.191  11.711  0.1920  0.5963  0.0967
  386TMC3    C3 5768   2.412   0.310  11.640 -0.3705  0.1414 -0.1500
  386TMC3    C4 5769   2.248   0.257  11.851  0.1694  0.3354 -0.3928
  386TMC3    C5 5770   2.233   0.375  11.777  0.2033  0.2664  0.3202
  386TMC3    C6 5771   2.315   0.405  11.676  0.1131  0.0614  0.0294
  386TMC3     C 5772   2.389   0.089  11.928 -0.3534 -0.8649  0.7809
  386TMC3     O 5773   2.326   0.101  12.032 -0.4648 -0.2731 -0.0317
  386TMC3     H 5774   2.521   0.133  11.703  1.6483  2.9771 -0.7328
  386TMC3    H1 5775   2.167   0.230  11.917 -0.1860  1.6428 -0.2930
  386TMC3    H2 5776   2.298   0.498  11.623  1.1999  0.1297 -0.1825
  386TMC3    C7 5777   2.127   0.462  11.827  0.6107 -0.3347 -0.0514
  386TMC3    C8 5778   2.467   0.329  11.511 -0.2741 -0.5128  0.2868
  386TMC3    O1 5779   2.081   0.435  11.937  0.0058 -0.0703  0.2289
  386TMC3    O2 5780   2.403   0.388  11.425  0.6208  0.0327 -0.5374
  387MPD2     C 5781   4.652   0.144   9.459  0.6224 -0.8412 -0.5265
  387MPD2    C1 5782   0.046   0.155   9.530 -0.6267 -0.2183  0.1720
  387MPD2    C2 5783   0.118   0.038   9.555 -0.2168 -0.8943  0.6728
  387MPD2    C3 5784   0.069   4.640   9.515  0.0034 -0.2567 -0.2262
  387MPD2    C4 5785   4.675   4.629   9.445  0.4267  0.5094 -0.7107
  387MPD2    C5 5786   4.600   0.020   9.415  0.0042 -0.0880  0.0103
  387MPD2     H 5787   0.207   0.045   9.616 -0.9740  0.6271  1.5864
  387MPD2    H1 5788   4.634   4.531   9.424  1.2953  0.0407 -0.2198
  387MPD2    H2 5789   4.594   0.234   9.441  1.4622 -0.3403 -0.7696
  387MPD2    H3 5790   4.502   0.017   9.369  1.0502  0.8425 -2.3298
  387MPD2     N 5791   0.133   4.530   9.579 -0.2299 -0.0729 -0.5627
  387MPD2    H5 5792   0.219   4.545   9.630 -0.4232 -0.5437 -0.1008
  387MPD2    N1 5793   0.088   0.275   9.588  0.0746  0.3462  0.2458
  387MPD2    H7 5794   0.169   0.266   9.647  0.8062 -1.5902 -1.0612
  388TMC3    C1 5795   0.072   0.477   9.692 -0.0831 -0.0837 -0.4270
  388TMC3    C2 5796   0.081   0.611   9.678  0.6662  0.1997 -0.0372
  388TMC3    C3 5797   0.135   0.685   9.779  0.2451 -0.6876  0.0292
  388TMC3    C4 5798   0.124   0.412   9.795 -0.0306 -0.6402  0.0936
  388TMC3    C5 5799   0.187   0.486   9.893  0.2276 -0.7886  0.2197
  388TMC3    C6 5800   0.177   0.624   9.895 -0.1976 -0.0085 -0.0659
  388TMC3     C 5801   0.017   0.395   9.582 -0.2367 -0.4089  0.7030
  388TMC3     O 5802   4.692   0.452   9.485  0.5387  0.0184  0.8251
  388TMC3     H 5803   0.026   0.652   9.595  0.1712  1.3227  0.8488
  388TMC3    H1 5804   0.080   0.316   9.822  2.7758 -1.8800  0.2864
  388TMC3    H2 5805   0.224   0.686   9.970  0.3624  0.4173 -0.7680
  388TMC3    C7 5806   0.245   0.418  10.009  0.0846  0.6318  0.1204
  388TMC3    C8 5807   0.123   0.827   9.777 -0.4269  0.5672 -0.0430
  388TMC3    O1 5808   0.248   0.466  10.122  0.0441 -0.4324  0.5143
  388TMC3    O2 5809   0.131   0.894   9.878 -0.1597 -0.5140  0.3982
  389MPD2     C 5810   4.719   3.072  11.195  0.0066 -0.3599  0.1695
  389MPD2    C1 5811   4.648   2.979  11.122 -0.1394 -0.0980  0.4024
  389MPD2    C2 5812   4.529   2.924  11.167 -0.4981  0.9883 -0.2405
  389MPD2    C3 5813   4.490   2.950  11.293  0.6695 -0.0200  0.1893
  389MPD2    C4 5814   4.554   3.051  11.369 -0.1612 -0.7735  0.0059
  389MPD2    C5 5815   4.668   3.112  11.317  0.1949  0.9478  0.3787
  389MPD2     H 5816   4.470   2.854  11.109  1.3948 -0.6921 -0.1630
  389MPD2    H1 5817   4.532   3.076  11.472 -0.3018 -1.4350  0.1334
  389MPD2    H2 5818   0.090   3.116  11.158  0.8918 -0.9399  1.6565
  389MPD2    H3 5819   4.721   3.180  11.383 -0.5760  1.1059  0.8238
  389MPD2     N 5820   4.378   2.888  11.352 -0.0160 -0.8275  0.2817
  389MPD2    H5 5821   4.346   2.917  11.445  1.8078  0.6104  0.4506
  389MPD2    N1 5822   4.699   2.951  10.993 -0.2891 -0.1508 -0.1433
  389MPD2    H7 5823   0.053   3.011  10.961  0.3002 -0.8499 -0.0378
  390TMC3    C1 5824   4.249   2.696  11.413 -0.8979  0.0044 -0.7638
  390TMC3    C2 5825   4.137   2.630  11.368  0.6548 -0.7287  0.4753
  390TMC3    C3 5826   4.036   2.606  11.462  0.3383  0.6904 -0.0597
  390TMC3    C4 5827   4.270   2.733  11.540 -0.6329  0.6676  0.9732
  390TMC3    C5 5828   4.179   2.676  11.632 -0.7016 -0.3353  0.0913
  390TMC3    C6 5829   4.063   2.619  11.589  0.0980  0.1448  0.5990
  390TMC3     C 5830   4.336   2.760  11.313 -0.1589  0.2349 -0.5569
  390TMC3     O 5831   4.337   2.704  11.206 -0.0379 -0.5071 -0.3572
  390TMC3     H 5832   4.125   2.613  11.261 -1.6551  1.4843  0.3811
  390TMC3    H1 5833   4.367   2.774  11.563  1.1661 -2.0135 -1.8079
  390TMC3    H2 5834   3.982   2.597  11.658  0.6865  2.6549  2.0857
  390TMC3    C7 5835   4.204   2.682  11.774 -0.3347 -0.5971  0.1763
  390TMC3    C8 5836   3.905   2.601  11.413  0.4531  1.1325 -0.0809
  390TMC3    O1 5837   4.264   2.785  11.798  0.0834  0.1528 -0.1875
  390TMC3    O2 5838   3.886   2.540  11.311  0.3558 -0.0814 -0.1534
  391MPD2     C 5839   3.966   4.668  10.788  0.0089 -0.2570 -0.2203
  391MPD2    C1 5840   3.957   0.079  10.826 -0.6592 -0.2482 -0.3088
  391MPD2    C2 5841   3.929   0.177  10.726 -0.2807  1.0618  0.3134
  391MPD2    C3 5842   3.906   0.137  10.595 -0.0959 -0.4006  0.0386
  391MPD2    C4 5843   3.923   0.008  10.563  0.2851  0.1540  0.5326
  391MPD2    C5 5844   3.947   4.632  10.656  0.2719  0.1729  0.3110
  391MPD2     H 5845   3.926   0.280  10.760  1.8913  1.4642 -0.6822
  391MPD2    H1 5846   3.918   4.684  10.464  3.0928  0.2748  0.3430
  391MPD2    H2 5847   3.990   4.591  10.861  0.0376  0.9963  1.0972
  391MPD2    H3 5848   3.966   4.528  10.633 -2.7989 -0.3969  0.3429
  391MPD2     N 5849   3.870   0.244  10.509  0.3461 -1.3562 -0.1711
  391MPD2    H5 5850   3.878   0.338  10.545  0.6102 -0.1743 -3.3298
  391MPD2    N1 5851   3.989   0.111  10.962 -0.4517  0.0239 -0.3996
  391MPD2    H7 5852   4.005   0.037  11.029  0.7224  0.3407 -0.3272
  392TMC3    C1 5853   3.834   0.352  10.306  0.1188 -0.2352  0.1802
  392TMC3    C2 5854   3.745   0.362  10.203  0.6283 -0.4440  0.5511
  392TMC3    C3 5855   3.732   0.483  10.140  0.1415 -0.6370 -0.2048
  392TMC3    C4 5856   3.915   0.447  10.343  0.9269 -0.0125 -0.6923
  392TMC3    C5 5857   3.912   0.562  10.266 -0.3294  0.0959 -0.1863
  392TMC3    C6 5858   3.816   0.586  10.168 -0.2690 -0.4073 -0.3000
  392TMC3     C 5859   3.840   0.229  10.376 -0.7841 -0.2422  0.0733
  392TMC3     O 5860   3.831   0.127  10.306 -0.7052  0.3368 -0.2158
  392TMC3     H 5861   3.675   0.281  10.189  0.2983 -0.0470 -0.0760
  392TMC3    H1 5862   3.988   0.440  10.423  2.6382 -0.5975 -2.3145
  392TMC3    H2 5863   3.803   0.684  10.122 -0.6811 -0.2961  0.0548
  392TMC3    C7 5864   4.026   0.655  10.276 -0.3661 -0.2510  0.8224
  392TMC3    C8 5865   3.623   0.492  10.041  0.3241 -0.6066 -0.0651
  392TMC3    O1 5866   4.103   0.624  10.370 -0.4853 -0.1071  0.2476
  392TMC3    O2 5867   3.545   0.397  10.029  0.0476  0.4088 -0.1248
  393TMC3    C1 5868   3.033   2.771  10.502 -0.4687  0.0934  0.2936
  393TMC3    C2 5869   2.947   2.706  10.582 -0.7460  0.0706 -0.6123
  393TMC3    C3 5870   2.908   2.575  10.555 -0.1079  0.3854  0.1611
  393TMC3    C4 5871   3.069   2.720  10.377  0.9641  0.2654  0.6293
  393TMC3    C5 5872   3.025   2.595  10.347  0.0366 -0.1637  0.3519
  393TMC3    C6 5873   2.947   2.524  10.433  0.4129 -0.9951 -0.2069
  393TMC3     C 5874   3.029   2.923  10.523 -0.0431  0.1740 -0.1871
  393TMC3     O 5875   2.960   2.963  10.612  0.0308  0.5483 -0.1591
  393TMC3     H 5876   2.917   2.754  10.674 -0.5191  2.6329 -1.8452
  393TMC3    H1 5877   3.123   2.781  10.306  0.7532 -2.1858 -1.6545
  393TMC3    H2 5878   2.924   2.423  10.401 -2.7922 -0.4291  0.3738
  393TMC3    C7 5879   3.046   2.536  10.214 -0.2033  0.1120 -0.4090
  393TMC3    C8 5880   2.776   2.552  10.584 -0.7570  0.1578  0.4493
  393TMC3    O1 5881   2.963   2.449  10.183  0.4029 -0.5548  0.1772
  393TMC3    O2 5882   2.700   2.523  10.495  0.4583  0.3040  0.0177
  394TMC3    C1 5883   4.717   2.848  10.784 -0.3696  0.6457  1.0356
  394TMC3    C2 5884   4.626   2.823  10.687  0.3109  0.6456  0.6948
  394TMC3    C3 5885   4.655   2.875  10.566 -0.5233  1.5140  0.6452
  394TMC3    C4 5886   0.125   2.892  10.757  0.4408 -0.1720  0.1092
  394TMC3    C5 5887   0.153   2.929  10.629  0.5722  0.7280  0.0570
  394TMC3    C6 5888   0.058   2.930  10.536 -0.8005  0.0267 -0.3481
  394TMC3     C 5889   4.660   2.840  10.919 -0.2160  0.1591 -0.9617
  394TMC3     O 5890   4.576   2.754  10.948 -0.3961 -0.0996  0.1077
  394TMC3     H 5891   4.524   2.795  10.707  0.9949 -3.0024 -0.7932
  394TMC3    H1 5892   0.204   2.891  10.832  0.3770 -1.2180  0.1585
  394TMC3    H2 5893   0.074   2.976  10.439  2.0705  1.2875  0.7365
  394TMC3    C7 5894   0.240   3.044  10.607  0.1161 -1.4287  0.1338
  394TMC3    C8 5895   4.544   2.914  10.483 -0.3372 -0.7713  0.8512
  394TMC3    O1 5896   0.191   3.141  10.545 -0.3452 -0.0897  0.0697
  394TMC3    O2 5897   4.566   3.016  10.418 -1.0022  0.4906 -0.3130
  395TMC3    C1 5898   3.032   0.220  14.124  0.2983  0.4453  0.1753
  395TMC3    C2 5899   2.949   0.150  14.206 -0.2709  0.3815  0.3433
  395TMC3    C3 5900   2.879   0.203  14.309 -0.3761  0.1358 -0.9199
  395TMC3    C4 5901   3.059   0.356  14.157  0.1238 -0.2101  0.5179
  395TMC3    C5 5902   2.991   0.400  14.273 -0.2415 -0.0567 -0.5877
  395TMC3    C6 5903   2.900   0.332  14.343 -0.1361  0.1485  0.0065
  395TMC3     C 5904   3.163   0.158  14.111 -0.1978 -0.5506 -0.1942
  395TMC3     O 5905   3.239   0.175  14.016  0.1407  0.2605 -0.0238
  395TMC3     H 5906   2.926   0.048  14.177 -1.4342  0.5876  0.5115
  395TMC3    H1 5907   3.147   0.410  14.124  0.2176 -0.5191  0.2593
  395TMC3    H2 5908   2.856   0.367  14.435 -2.8817  1.3107 -1.7290
  395TMC3    C7 5909   3.095   0.462  14.363  0.1431  0.2670  0.0288
  395TMC3    C8 5910   2.782   0.129  14.391  0.1071 -0.2136  0.1402
  395TMC3    O1 5911   3.122   0.408  14.470 -0.2592  0.3361 -0.7491
  395TMC3    O2 5912   2.694   0.193  14.452 -0.3027  0.4199 -0.4663
  396MPD2     C 5913   2.912   0.590  17.211 -0.9452  0.1926  0.4330
  396MPD2    C1 5914   3.052   0.588  17.191  0.1410 -0.5019 -0.1107
  396MPD2    C2 5915   3.105   0.685  17.105  0.5319  0.3941  0.3791
  396MPD2    C3 5916   3.028   0.783  17.051 -0.0194 -0.5292  0.3324
  396MPD2    C4 5917   2.893   0.790  17.083  0.6260 -1.1307  0.5690
  396MPD2    C5 5918   2.839   0.692  17.155 -0.1614  0.3637  0.3978
  396MPD2     H 5919   3.207   0.664  17.077 -0.2721 -0.4026 -1.9579
  396MPD2    H1 5920   2.831   0.869  17.045  1.0950 -0.6813  0.7346
  396MPD2    H2 5921   2.859   0.517  17.271 -0.6598  0.6438  1.2250
  396MPD2    H3 5922   2.734   0.702  17.178 -0.5004 -0.2882 -0.8785
  396MPD2     N 5923   3.087   0.882  16.964  0.0874 -0.5689 -0.7752
  396MPD2    H5 5924   3.188   0.889  16.961 -0.1102  3.2124  0.5747
  396MPD2    N1 5925   3.117   0.475  17.246 -0.2639  0.0725 -0.5068
  396MPD2    H7 5926   3.061   0.402  17.289 -0.2873 -0.7625 -1.9722
  397TMC3    C1 5927   3.295   0.327  17.261 -0.5220  0.0620 -0.3577
  397TMC3    C2 5928   3.329   0.266  17.140  1.2221 -0.3146 -0.6373
  397TMC3    C3 5929   3.454   0.213  17.118 -0.6500 -0.2285  0.1268
  397TMC3    C4 5930   3.392   0.338  17.358  0.0188  0.3420 -0.7393
  397TMC3    C5 5931   3.510   0.275  17.332 -0.5398 -0.3534 -0.0339
  397TMC3    C6 5932   3.546   0.213  17.215  0.1959  0.4309 -0.1329
  397TMC3     C 5933   3.250   0.455  17.222 -0.5348  0.2902 -0.1211
  397TMC3     O 5934   3.340   0.525  17.176  0.4555  0.3187 -0.2551
  397TMC3     H 5935   3.269   0.287  17.053  2.4121  2.4204 -0.7859
  397TMC3    H1 5936   3.377   0.388  17.453  1.7325 -0.6929  0.0848
  397TMC3    H2 5937   3.642   0.167  17.195 -0.0009  0.0480 -0.2031
  397TMC3    C7 5938   3.619   0.288  17.427 -0.1960 -0.4442  0.3556
  397TMC3    C8 5939   3.502   0.248  16.987  0.4117  1.0437 -0.1163
  397TMC3    O1 5940   3.727   0.301  17.371  0.5903 -0.4450 -0.2284
  397TMC3    O2 5941   3.435   0.331  16.921 -0.0077 -0.1446 -0.0383
  398MPD2     C 5942   2.059   1.550   0.132 -0.8666 -0.8703  0.2370
  398MPD2    C1 5943   2.035   1.479   0.249 -0.3209  0.1503 -0.0564
  398MPD2    C2 5944   2.060   1.541   0.367  0.2865 -0.4150 -0.6600
  398MPD2    C3 5945   2.102   1.671   0.369  0.2511  0.0424  0.4072
  398MPD2    C4 5946   2.120   1.744   0.254  0.5322  0.3325 -0.9300
  398MPD2    C5 5947   2.105   1.681   0.136 -0.2807 -0.0563 -0.0437
  398MPD2     H 5948   2.046   1.490   0.462 -0.1080 -0.8157 -0.9338
  398MPD2    H1 5949   2.141   1.850   0.251  3.7752 -0.2992 -1.0324
  398MPD2    H2 5950   2.058   1.502   0.035  0.9875  1.0696 -0.7606
  398MPD2    H3 5951   2.112   1.743   0.047 -0.2726  0.9348  0.6408
  398MPD2     N 5952   2.127   1.722   0.496 -0.5776 -0.4036 -0.2205
  398MPD2    H5 5953   2.092   1.660   0.569  0.4713  0.7021  1.2255
  398MPD2    N1 5954   1.977   1.354   0.252 -0.1383 -0.4674  0.5739
  398MPD2    H7 5955   1.967   1.309   0.342 -1.5287 -0.3837  0.4589
  399TMC3    C1 5956   1.887   1.146   0.176  0.2897  0.5947 -0.1806
  399TMC3    C2 5957   1.922   1.105   0.298  0.0849 -0.3801 -0.5863
  399TMC3    C3 5958   1.855   1.000   0.352 -0.6674 -0.6874  0.1319
  399TMC3    C4 5959   1.781   1.091   0.103 -0.2324  1.0648  0.3191
  399TMC3    C5 5960   1.706   0.993   0.166 -1.2671  0.3356  0.5840
  399TMC3    C6 5961   1.744   0.946   0.292  0.8414 -0.7067  0.5360
  399TMC3     C 5962   1.925   1.285   0.144 -0.6008 -0.1573  0.2652
  399TMC3     O 5963   1.905   1.321   0.025 -0.5162 -0.4341  0.3600
  399TMC3     H 5964   2.011   1.140   0.350  0.6918 -1.0845 -1.1388
  399TMC3    H1 5965   1.761   1.125   0.002 -2.4148 -0.9716  0.0965
  399TMC3    H2 5966   1.675   0.889   0.353 -0.9941  0.7777 -0.1544
  399TMC3    C7 5967   1.580   0.937   0.123 -0.6080 -0.1626 -0.1217
  399TMC3    C8 5968   1.900   0.946   0.476  0.1847 -0.0128  0.2188
  399TMC3    O1 5969   1.550   0.829   0.178 -0.2276  0.2898  0.0430
  399TMC3    O2 5970   1.973   1.024   0.539  0.2396  0.3816 -0.5744
  400TMC3    C1 5971   0.211   4.657  16.780  0.4389  0.3619 -0.7522
  400TMC3    C2 5972   0.081   4.652  16.820 -0.2055  0.4278  0.1692
  400TMC3    C3 5973   0.041   0.019  16.918 -0.4971 -0.3180 -0.4246
  400TMC3    C4 5974   0.297   0.027  16.828 -0.5914 -0.4487 -0.2398
  400TMC3    C5 5975   0.249   0.113  16.926 -0.3713  0.5778 -0.2497
  400TMC3    C6 5976   0.124   0.105  16.975 -0.7896 -0.2609 -0.6238
  400TMC3     C 5977   0.269   4.530  16.733 -0.1420  0.7248  0.4039
  400TMC3     O 5978   0.205   4.431  16.744 -0.0692  0.1891  0.6161
  400TMC3     H 5979   0.021   4.574  16.775 -1.4632  0.3748  1.9217
  400TMC3    H1 5980   0.401   0.036  16.798 -0.5495  2.0111  0.6604
  400TMC3    H2 5981   0.091   0.167  17.058  2.0797 -0.6236  0.7888
  400TMC3    C7 5982   0.356   0.179  17.004  0.3534 -0.2456  0.2948
  400TMC3    C8 5983   4.636   4.718  16.979 -0.5781 -0.3258  0.0519
  400TMC3    O1 5984   0.473   0.139  17.000  0.3479 -0.5546 -0.2488
  400TMC3    O2 5985   4.628   4.721  17.103  0.4213 -0.2429 -0.3459
  401MPD2     C 5986   3.390   3.878   1.759 -0.1669 -0.1635  0.7841
  401MPD2    C1 5987   3.441   3.814   1.645 -0.1444 -0.0403 -0.0528
  401MPD2    C2 5988   3.405   3.685   1.627 -0.7142  0.0846 -0.0720
  401MPD2    C3 5989   3.333   3.614   1.717 -0.4112  0.3139 -0.5589
  401MPD2    C4 5990   3.275   3.685   1.818 -0.3424 -0.2460 -0.1886
  401MPD2    C5 5991   3.308   3.817   1.844 -0.2256 -0.4087 -0.0419
  401MPD2     H 5992   3.454   3.640   1.541 -1.7476  1.2066 -1.2522
  401MPD2    H1 5993   3.210   3.640   1.892  0.0899 -0.9238 -0.2204
  401MPD2    H2 5994   3.415   3.980   1.788  2.1870 -0.4715 -0.1799
  401MPD2    H3 5995   3.259   3.873   1.922 -2.1603 -1.4983 -0.4449
  401MPD2     N 5996   3.322   3.473   1.687 -0.0395 -0.3542 -0.0515
  401MPD2    H5 5997   3.392   3.442   1.621  2.0511  0.5019  1.7463
  401MPD2    N1 5998   3.538   3.864   1.559 -0.7093  0.5565  0.0903
  401MPD2    H7 5999   3.541   3.819   1.468 -1.6523 -0.4346  0.5477
  402TMC3    C1 6000   3.277   3.251   1.726  0.4693  0.1569 -0.3004
  402TMC3    C2 6001   3.321   3.158   1.811 -0.4756  0.1489  0.3864
  402TMC3    C3 6002   3.358   3.040   1.756 -0.0262 -1.0686 -0.4190
  402TMC3    C4 6003   3.267   3.236   1.586  0.6738  0.3643 -0.2430
  402TMC3    C5 6004   3.308   3.119   1.535  0.5244 -0.0315 -0.4290
  402TMC3    C6 6005   3.360   3.018   1.619 -0.1395 -0.1854 -0.1114
  402TMC3     C 6006   3.267   3.389   1.774  0.5655  0.5198 -0.0973
  402TMC3     O 6007   3.209   3.416   1.875  1.0203 -0.0359  0.1224
  402TMC3     H 6008   3.314   3.175   1.917 -0.4692  1.7687  0.1217
  402TMC3    H1 6009   3.223   3.308   1.518  0.5691  1.0577  0.5653
  402TMC3    H2 6010   3.391   2.928   1.568  0.3149 -0.4582  0.6571
  402TMC3    C7 6011   3.274   3.094   1.398  0.0154  0.5540  0.8089
  402TMC3    C8 6012   3.437   2.949   1.834 -0.3007 -0.1965  0.3193
  402TMC3    O1 6013   3.202   3.181   1.346 -0.0363  0.2192 -0.0075
  402TMC3    O2 6014   3.525   2.883   1.776 -0.4521  0.1672  0.7820
  403MPD2     C 6015   1.800   2.763  13.273 -0.5752  0.4966  0.3357
  403MPD2    C1 6016   1.852   2.642  13.291 -0.6679  0.1643 -0.4803
  403MPD2    C2 6017   1.965   2.626  13.374  0.5477  0.0658  0.6472
  403MPD2    C3 6018   2.036   2.742  13.415  0.2801  0.4720 -0.2483
  403MPD2    C4 6019   1.993   2.866  13.379  0.2516  0.6373  0.2179
  403MPD2    C5 6020   1.872   2.875  13.309  0.3290 -0.7336  0.1651
  403MPD2     H 6021   2.007   2.529  13.400 -0.1670  0.0022  1.5726
  403MPD2    H1 6022   2.052   2.956  13.397  0.9755  0.5196 -1.5947
  403MPD2    H2 6023   1.712   2.775  13.211 -1.2982  1.0066  1.4657
  403MPD2    H3 6024   1.845   2.971  13.266 -1.7328 -1.1197  0.6206
  403MPD2     N 6025   2.156   2.724  13.484 -0.2761 -0.3887  0.5501
  403MPD2    H5 6026   2.177   2.633  13.525 -2.4803 -1.2381 -0.2280
  403MPD2    N1 6027   1.788   2.532  13.230 -0.1600  0.3101 -0.0726
  403MPD2    H7 6028   1.720   2.563  13.162  1.4392  2.9860 -0.4532
  404TMC3    C1 6029   1.748   2.305  13.157  0.3409 -0.4729  0.1865
  404TMC3    C2 6030   1.726   2.175  13.204 -0.1749 -0.5716  0.3242
  404TMC3    C3 6031   1.649   2.088  13.134  0.1624  1.0125 -0.4471
  404TMC3    C4 6032   1.692   2.351  13.037  0.6448 -0.2497 -0.3277
  404TMC3    C5 6033   1.621   2.256  12.967 -0.2835  0.4186  0.3987
  404TMC3    C6 6034   1.595   2.125  13.014 -0.0839  0.4329 -0.0278
  404TMC3     C 6035   1.812   2.396  13.249 -0.2597 -0.8354  0.7654
  404TMC3     O 6036   1.877   2.348  13.338 -0.6130 -0.3529  0.4540
  404TMC3     H 6037   1.783   2.139  13.289  1.1159 -1.1826 -0.7993
  404TMC3    H1 6038   1.724   2.447  12.999 -0.6905  1.0831  1.9259
  404TMC3    H2 6039   1.542   2.055  12.950 -0.3873 -1.5854  2.4601
  404TMC3    C7 6040   1.602   2.281  12.826  0.4336  0.4732 -0.3436
  404TMC3    C8 6041   1.629   1.959  13.187 -0.2920  0.8640  0.7089
  404TMC3    O1 6042   1.700   2.329  12.765  0.0016  0.7857 -0.4671
  404TMC3    O2 6043   1.623   1.866  13.112  0.0344 -0.6934 -0.0232
  405MPD2     C 6044   1.999   2.997  14.735  0.0351  0.3263  0.2086
  405MPD2    C1 6045   1.991   2.877  14.665 -0.4038 -0.1616 -0.1135
  405MPD2    C2 6046   1.936   2.887  14.538  0.2855  0.2494  0.6109
  405MPD2    C3 6047   1.922   3.007  14.470 -0.6488 -0.1688  0.3712
  405MPD2    C4 6048   1.931   3.122  14.546  0.2659 -0.4036 -0.1293
  405MPD2    C5 6049   1.970   3.115  14.677 -0.2230 -0.6495  0.0413
  405MPD2     H 6050   1.906   2.799  14.482  1.7518 -0.0217  0.2442
  405MPD2    H1 6051   1.905   3.220  14.508 -0.3812  0.0949  1.5918
  405MPD2    H2 6052   2.026   3.003  14.840  0.6415  1.0493  0.0102
  405MPD2    H3 6053   1.971   3.205  14.738  2.7600  0.9488 -2.3734
  405MPD2     N 6054   1.877   3.002  14.339  0.3677  0.1945 -0.4508
  405MPD2    H5 6055   1.869   2.907  14.304  2.7771  0.4776 -1.7953
  405MPD2    N1 6056   2.031   2.758  14.734  0.2714 -0.3277  0.1926
  405MPD2    H7 6057   2.063   2.765  14.830  0.0121  2.9064  0.0458
  406TMC3    C1 6058   1.634   3.082  13.947 -0.2156 -0.0685 -0.9016
  406TMC3    C2 6059   1.606   2.949  13.937 -0.1443 -0.6247  0.2045
  406TMC3    C3 6060   1.687   2.865  14.012 -0.6627  0.2617 -0.3771
  406TMC3    C4 6061   1.709   3.134  14.047 -0.3399  0.6075 -0.1628
  406TMC3    C5 6062   1.781   3.054  14.130 -0.0471 -0.3580  0.8924
  406TMC3    C6 6063   1.780   2.917  14.106  0.1827  0.2219  1.1169
  406TMC3     C 6064   1.530   3.170  13.907  0.4801 -0.0783 -0.3939
  406TMC3     O 6065   1.548   3.288  13.927 -0.5154  0.8120 -0.0419
  406TMC3     H 6066   1.536   2.908  13.865  1.6920  0.3445 -2.1026
  406TMC3    H1 6067   1.710   3.241  14.068  1.5435  0.6930 -0.7021
  406TMC3    H2 6068   1.864   2.860  14.144  1.3482  1.8292  0.9148
  406TMC3    C7 6069   1.843   3.105  14.252 -0.0339  0.1921  0.5846
  406TMC3    C8 6070   1.621   2.745  14.060 -0.0614  0.1891 -0.5005
  406TMC3    O1 6071   1.834   3.226  14.268 -1.0227 -0.3508 -0.3614
  406TMC3    O2 6072   1.504   2.733  14.026 -0.2175 -0.3193  0.1231
  407MPD2     C 6073   4.301   4.377   9.384  0.4552 -0.0585  0.4194
  407MPD2    C1 6074   4.391   4.310   9.463 -0.5116  0.2807  0.3265
  407MPD2    C2 6075   4.450   4.367   9.575 -0.2074 -0.5247  0.3414
  407MPD2    C3 6076   4.403   4.495   9.615  0.3763 -0.4472 -0.6450
  407MPD2    C4 6077   4.311   4.557   9.541 -0.5841  0.5351  0.2678
  407MPD2    C5 6078   4.262   4.501   9.424 -0.2566 -0.5602 -0.3594
  407MPD2     H 6079   4.536   4.326   9.627 -0.0063  0.2712  0.6491
  407MPD2    H1 6080   4.267   4.649   9.581  0.6539  1.2089  0.0802
  407MPD2    H2 6081   4.260   4.342   9.290 -0.1765  1.3390  0.1822
  407MPD2    H3 6082   4.177   4.554   9.382  0.6010  0.3914 -0.8572
  407MPD2     N 6083   4.459   4.560   9.729 -0.3065 -0.4925  0.9089
  407MPD2    H5 6084   4.432   4.656   9.748 -0.8118 -0.4021 -0.1998
  407MPD2    N1 6085   4.441   4.177   9.432 -0.3560  0.2188 -0.2864
  407MPD2    H7 6086   4.505   4.138   9.501 -2.8362 -1.7853  0.8706
  408TMC3    C1 6087   4.453   3.956   9.338  0.0621  0.9030  0.3214
  408TMC3    C2 6088   4.585   3.945   9.372 -0.2444  0.2563 -0.0453
  408TMC3    C3 6089   4.641   3.818   9.391  0.2826  0.4145  0.2133
  408TMC3    C4 6090   4.372   3.842   9.330 -0.2113  0.2804 -0.2707
  408TMC3    C5 6091   4.428   3.721   9.351 -0.1722 -0.0870  0.0155
  408TMC3    C6 6092   4.563   3.707   9.382 -0.1817  0.0263  0.3363
  408TMC3     C 6093   4.388   4.087   9.341 -0.1710  0.1321 -0.7940
  408TMC3     O 6094   4.299   4.112   9.257  0.0638  0.4028 -0.0386
  408TMC3     H 6095   4.641   4.036   9.385  0.9200  0.0917 -3.7494
  408TMC3    H1 6096   4.267   3.843   9.303 -0.0930  1.4627 -0.7208
  408TMC3    H2 6097   4.608   3.611   9.403 -1.7707 -1.0859 -1.3559
  408TMC3    C7 6098   4.338   3.607   9.364 -0.2949 -0.5643 -0.2320
  408TMC3    C8 6099   0.056   3.797   9.433 -0.2992  1.1298 -0.3635
  408TMC3    O1 6100   4.237   3.612   9.296  0.9836 -0.1446  0.0502
  408TMC3    O2 6101   0.067   3.701   9.506  0.3845  0.5975  0.1631
  409MPD2     C 6102   3.900   4.420  16.838  0.4144 -0.6774  0.1452
  409MPD2    C1 6103   3.930   4.426  16.973  0.3458 -0.4207 -0.1678
  409MPD2    C2 6104   4.009   4.533  17.022 -0.7926  0.8767  0.1520
  409MPD2    C3 6105   4.049   4.635  16.934 -0.9323  0.3445  0.3684
  409MPD2    C4 6106   4.020   4.629  16.797 -0.0974 -0.3283  0.3023
  409MPD2    C5 6107   3.943   4.525  16.758 -0.3619  0.7941 -0.1818
  409MPD2     H 6108   4.036   4.523  17.127  1.1542 -0.9371 -0.5258
  409MPD2    H1 6109   4.040   4.707  16.725  0.9768 -1.0628 -0.1899
  409MPD2    H2 6110   3.847   4.344  16.783  0.5752 -2.1577  2.0366
  409MPD2    H3 6111   3.912   4.508  16.656 -2.8189  1.1054  0.5157
  409MPD2     N 6112   4.138   0.014  16.977  0.5862  0.0973  0.1430
  409MPD2    H5 6113   4.175   0.077  16.906  2.7182 -0.4127  0.8074
  409MPD2    N1 6114   3.888   4.326  17.068 -0.6396 -0.0107 -0.1756
  409MPD2    H7 6115   3.910   4.343  17.166 -0.2750  1.3634 -0.4971
  410TMC3    C1 6116   4.299   0.130  17.107  0.6533 -0.4555  1.0326
  410TMC3    C2 6117   4.378   0.139  17.217 -0.1605 -0.2939 -0.2389
  410TMC3    C3 6118   4.431   0.263  17.246 -0.0206  0.5339 -0.3923
  410TMC3    C4 6119   4.266   0.248  17.043  0.1950 -0.1249  0.1499
  410TMC3    C5 6120   4.320   0.367  17.080 -0.5977  0.1524 -0.6966
  410TMC3    C6 6121   4.416   0.374  17.174 -0.1852 -0.3137 -0.6635
  410TMC3     C 6122   4.207   0.019  17.097 -0.3452 -0.3621  0.3782
  410TMC3     O 6123   4.191   4.673  17.199 -0.0131 -0.1227  0.0572
  410TMC3     H 6124   4.410   0.051  17.272  1.3796  0.1206 -0.4734
  410TMC3    H1 6125   4.178   0.248  16.979 -0.1052 -4.0577  0.5161
  410TMC3    H2 6126   4.478   0.460  17.197 -2.8016  0.6783  2.6577
  410TMC3    C7 6127   4.317   0.457  16.969  0.4868 -0.0038 -0.1128
  410TMC3    C8 6128   4.542   0.280  17.342  0.6502 -0.2803 -0.3160
  410TMC3    O1 6129   4.323   0.414  16.856 -0.6162 -0.2776 -0.4152
  410TMC3    O2 6130   4.545   0.374  17.418  0.3873  0.6740 -0.8408
  411MPD2     C 6131   3.824   1.011  14.467 -0.1679 -0.0079  0.6382
  411MPD2    C1 6132   3.851   1.119  14.386 -0.9414  0.2209  0.7527
  411MPD2    C2 6133   3.858   1.096  14.251  0.5566  0.0781  0.1577
  411MPD2    C3 6134   3.851   0.975  14.188  0.3193  0.1986 -0.3140
  411MPD2    C4 6135   3.815   0.872  14.271 -0.7241  0.5052 -0.0020
  411MPD2    C5 6136   3.803   0.893  14.407 -0.4155 -0.3723 -0.4875
  411MPD2     H 6137   3.864   1.184  14.188  3.2134  0.4035  0.8691
  411MPD2    H1 6138   3.811   0.768  14.238 -1.9276  0.3463  0.6624
  411MPD2    H2 6139   3.832   1.011  14.575 -0.2659  0.2874  0.6452
  411MPD2    H3 6140   3.765   0.808  14.462  2.1363  0.0079  1.8367
  411MPD2     N 6141   3.863   0.948  14.051 -0.3438  0.0647  0.1861
  411MPD2    H5 6142   3.820   0.863  14.017  0.2907 -0.5870  1.0070
  411MPD2    N1 6143   3.848   1.242  14.447 -0.6332 -0.1075 -0.0099
  411MPD2    H7 6144   3.825   1.239  14.546 -1.8482 -1.0388 -0.3258
  412TMC3    C1 6145   3.857   1.036  13.826 -0.6116 -0.5434  0.1790
  412TMC3    C2 6146   3.799   1.152  13.773  0.6790  0.3539  0.1617
  412TMC3    C3 6147   3.745   1.135  13.646 -0.6727 -0.3037 -0.4195
  412TMC3    C4 6148   3.858   0.911  13.761 -0.1390  0.0685 -0.0919
  412TMC3    C5 6149   3.806   0.906  13.634 -0.8302  0.7096 -0.6141
  412TMC3    C6 6150   3.738   1.017  13.585 -0.7057 -0.3205 -0.3092
  412TMC3     C 6151   3.890   1.052  13.965 -0.0262  0.0217 -0.3642
  412TMC3     O 6152   3.960   1.154  13.981  0.2617  0.0286  0.1818
  412TMC3     H 6153   3.815   1.246  13.824 -1.7389  0.7445  0.1879
  412TMC3    H1 6154   3.921   0.830  13.794  0.0391  0.3470  0.2522
  412TMC3    H2 6155   3.679   1.013  13.494  0.2726  0.9673 -1.0025
  412TMC3    C7 6156   3.890   0.848  13.540 -0.0369 -0.2113 -0.2791
  412TMC3    C8 6157   3.765   1.248  13.547  0.3452  0.0545  0.4908
  412TMC3    O1 6158   3.952   0.746  13.575  0.1708 -0.1688  0.2629
  412TMC3    O2 6159   3.785   1.214  13.432  0.2941  0.2566 -0.1302
  413MPD2     C 6160   0.898   4.033  15.282 -0.1602 -0.0029 -0.0972
  413MPD2    C1 6161   0.837   3.985  15.168 -0.0047  0.2860  0.4514
  413MPD2    C2 6162   0.911   3.920  15.067  0.5955 -0.3722 -0.2913
  413MPD2    C3 6163   1.043   3.895  15.090  0.1847 -0.1940  0.3483
  413MPD2    C4 6164   1.105   3.939  15.206  0.4367  0.0442 -0.1786
  413MPD2    C5 6165   1.029   4.012  15.301 -0.0479  0.1886  0.6740
  413MPD2     H 6166   0.866   3.882  14.976 -1.1807 -3.5146  1.9203
  413MPD2    H1 6167   1.207   3.915  15.234  1.1419  3.4219  0.1976
  413MPD2    H2 6168   0.840   4.074  15.364  0.7849 -1.7479  1.4666
  413MPD2    H3 6169   1.077   4.048  15.391  0.6858 -0.3836  0.5116
  413MPD2     N 6170   1.117   3.807  14.998  0.3608  0.3148  0.0550
  413MPD2    H5 6171   1.065   3.781  14.914  1.3682 -0.3235 -0.3625
  413MPD2    N1 6172   0.695   3.996  15.159 -0.1809 -0.5194  0.0149
  413MPD2    H7 6173   0.650   4.055  15.228  1.1635  0.3484  0.1621
  414TMC3    C1 6174   1.254   3.651  14.909 -0.1896  0.1577  0.1922
  414TMC3    C2 6175   1.310   3.528  14.938  0.3799 -0.0407 -0.2821
  414TMC3    C3 6176   1.280   3.420  14.856 -0.2958  0.1406  0.7092
  414TMC3    C4 6177   1.189   3.677  14.789  0.1401  0.3529  0.5067
  414TMC3    C5 6178   1.188   3.571  14.703 -0.3616 -0.1580  1.0555
  414TMC3    C6 6179   1.214   3.440  14.738 -0.3466 -0.2591 -0.0458
  414TMC3     C 6180   1.237   3.750  15.012  0.8339 -0.2108 -0.3979
  414TMC3     O 6181   1.322   3.766  15.097 -0.1282  0.4122  0.0377
  414TMC3     H 6182   1.343   3.518  15.041  0.4213  1.3077 -0.1696
  414TMC3    H1 6183   1.164   3.775  14.750  2.5069  1.3913  1.5863
  414TMC3    H2 6184   1.181   3.361  14.671  0.1594  1.1456 -1.9621
  414TMC3    C7 6185   1.132   3.601  14.572  0.6390  0.3334  0.5077
  414TMC3    C8 6186   1.370   3.305  14.855 -0.1164 -0.2362 -0.4215
  414TMC3    O1 6187   1.055   3.695  14.568  0.0554 -0.4015  0.0880
  414TMC3    O2 6188   1.345   3.218  14.769  0.0570  0.2841 -0.2969
  415TMC3    C1 6189   1.775   2.399  10.058 -0.6321 -0.4667 -0.4589
  415TMC3    C2 6190   1.772   2.507   9.977 -0.0957  0.3873 -0.8059
  415TMC3    C3 6191   1.679   2.513   9.874  0.6615  0.6196  0.8429
  415TMC3    C4 6192   1.691   2.291  10.051 -0.3226 -0.1515  0.5569
  415TMC3    C5 6193   1.592   2.312   9.948  0.1778  0.4039 -0.1020
  415TMC3    C6 6194   1.584   2.419   9.864  0.7425 -0.1741 -0.1427
  415TMC3     C 6195   1.854   2.415  10.186 -0.3138  0.8494  0.0279
  415TMC3     O 6196   1.807   2.353  10.280  0.0199  0.3124  0.1029
  415TMC3     H 6197   1.829   2.597   9.999  0.2527  0.6049 -2.5728
  415TMC3    H1 6198   1.701   2.207  10.118 -0.8000 -1.2152 -0.7138
  415TMC3    H2 6199   1.505   2.424   9.789  1.9765  0.1342 -1.4072
  415TMC3    C7 6200   1.548   2.194   9.880 -0.4965 -0.2808  0.4282
  415TMC3    C8 6201   1.666   2.634   9.794 -0.0461 -0.3258 -0.1296
  415TMC3    O1 6202   1.547   2.198   9.755  0.1661  0.7935 -0.3205
  415TMC3    O2 6203   1.555   2.661   9.750 -0.1017  0.4774 -0.0472
  416MPD2     C 6204   3.793   1.603  11.168  0.4721 -0.3703 -0.4831
  416MPD2    C1 6205   3.764   1.510  11.266 -0.3948  1.0232 -0.1721
  416MPD2    C2 6206   3.837   1.388  11.253 -0.1566  1.2550  0.3195
  416MPD2    C3 6207   3.925   1.362  11.146  0.4495  0.4473  0.5054
  416MPD2    C4 6208   3.965   1.465  11.072 -0.7298 -0.1623 -0.0261
  416MPD2    C5 6209   3.896   1.584  11.077  0.0466 -0.0274  0.8744
  416MPD2     H 6210   3.805   1.301  11.309  0.5691  2.0182  1.9102
  416MPD2    H1 6211   4.038   1.456  10.992  0.6711 -0.7877  1.3389
  416MPD2    H2 6212   3.738   1.696  11.160 -2.9473 -2.1375  2.1299
  416MPD2    H3 6213   3.914   1.661  11.003  0.1307  1.2811  2.2459
  416MPD2     N 6214   3.980   1.230  11.135 -0.4797 -0.0214  0.2587
  416MPD2    H5 6215   3.950   1.158  11.200  3.2147 -2.0793 -0.3448
  416MPD2    N1 6216   3.646   1.535  11.342  0.1955 -0.3609 -0.2287
  416MPD2    H7 6217   3.593   1.621  11.336 -1.8215 -1.4777  1.5380
  417TMC3    C1 6218   3.470   1.477  11.481  0.0078  0.5713  0.2165
  417TMC3    C2 6219   3.426   1.428  11.606  0.5558 -0.0419  0.8600
  417TMC3    C3 6220   3.291   1.449  11.637 -0.4571  0.1883  0.4086
  417TMC3    C4 6221   3.383   1.549  11.401  1.1463  0.2608  0.1763
  417TMC3    C5 6222   3.256   1.571  11.444  0.2142 -0.3985  0.2813
  417TMC3    C6 6223   3.204   1.522  11.561  0.1282  0.1444  0.0399
  417TMC3     C 6224   3.610   1.454  11.447 -0.8178  0.6133  0.1355
  417TMC3     O 6225   3.669   1.358  11.495  0.5431  0.5341 -0.6194
  417TMC3     H 6226   3.497   1.373  11.666  1.7308 -0.4063 -0.8557
  417TMC3    H1 6227   3.411   1.588  11.303  0.2069 -1.3219 -0.7350
  417TMC3    H2 6228   3.114   1.568  11.600  0.6169  0.8893  0.2989
  417TMC3    C7 6229   3.173   1.628  11.343  0.3555 -0.2545  0.1377
  417TMC3    C8 6230   3.230   1.368  11.740  0.9467 -0.3375  0.0502
  417TMC3    O1 6231   3.221   1.707  11.265 -0.5441  0.3913  0.0144
  417TMC3    O2 6232   3.112   1.402  11.759  0.2932  0.2478 -1.0746
  418TMC3    C1 6233   2.223   1.879   0.893  0.0589 -0.6195 -0.2560
  418TMC3    C2 6234   2.228   1.908   0.759  0.1568 -0.6965  0.4339
  418TMC3    C3 6235   2.132   1.873   0.666 -0.4907  0.6776  0.3251
  418TMC3    C4 6236   2.130   1.790   0.949 -0.2285 -0.6648 -0.3764
  418TMC3    C5 6237   2.040   1.747   0.852  0.2597 -0.6935  0.3735
  418TMC3    C6 6238   2.031   1.795   0.718 -0.8105  0.5514 -0.3472
  418TMC3     C 6239   2.351   1.868   0.949 -0.3110  0.1830  0.2811
  418TMC3     O 6240   2.430   1.957   0.920  0.1118 -0.8772  0.0353
  418TMC3     H 6241   2.313   1.957   0.713  0.0874 -1.5435 -0.5888
  418TMC3    H1 6242   2.130   1.766   1.054 -2.5617  0.6918 -0.0629
  418TMC3    H2 6243   1.941   1.770   0.663 -0.8265 -0.3172  0.0637
  418TMC3    C7 6244   1.919   1.662   0.887 -0.6074 -0.5340  0.3210
  418TMC3    C8 6245   2.160   1.851   0.526 -0.3444  0.2311  0.2231
  418TMC3    O1 6246   1.862   1.606   0.793  0.4056 -0.4990 -0.5467
  418TMC3    O2 6247   2.229   1.930   0.464  0.5132  0.5904 -0.7682
  419MPD2     C 6248   0.943   0.811  12.672  0.6174  0.1574  0.0922
  419MPD2    C1 6249   0.857   0.915  12.659 -0.5685  0.1925  0.1533
  419MPD2    C2 6250   0.835   0.994  12.768 -0.5866  0.4084  0.0484
  419MPD2    C3 6251   0.895   0.962  12.891 -0.2746  0.3787 -0.3422
  419MPD2    C4 6252   0.972   0.846  12.901 -0.2701 -0.2623 -0.1528
  419MPD2    C5 6253   1.005   0.776  12.791 -0.0136 -0.0751 -0.5460
  419MPD2     H 6254   0.781   1.088  12.753  0.5015  0.6772 -2.2488
  419MPD2    H1 6255   1.027   0.818  12.990  0.6482  3.0298  0.3149
  419MPD2    H2 6256   0.967   0.749  12.587 -2.1761  0.2497 -0.7315
  419MPD2    H3 6257   1.083   0.700  12.793 -0.1507 -0.1798  0.5922
  419MPD2     N 6258   0.865   1.043  13.000  0.3164  1.1506  1.0604
  419MPD2    H5 6259   0.799   1.119  12.989 -1.3419 -0.5673 -0.9340
  419MPD2    N1 6260   0.803   0.962  12.535 -0.0438  0.7420  0.1434
  419MPD2    H7 6261   0.752   1.049  12.546 -1.4223 -0.1597  0.8846
  420TMC3    C1 6262   0.876   1.140  13.217 -0.5180  0.5765  0.0401
  420TMC3    C2 6263   0.799   1.244  13.168  0.4467  0.6863  0.0421
  420TMC3    C3 6264   0.725   1.319  13.258 -0.3542 -0.4521  0.4761
  420TMC3    C4 6265   0.860   1.107  13.350  0.2396 -0.2483 -0.5427
  420TMC3    C5 6266   0.782   1.182  13.430 -0.4247 -0.2858  0.2714
  420TMC3    C6 6267   0.714   1.288  13.388 -0.2001 -0.1715 -0.1711
  420TMC3     C 6268   0.931   1.037  13.124 -0.0077 -0.1330 -0.2039
  420TMC3     O 6269   1.001   0.949  13.177 -0.5823 -0.1769  0.8302
  420TMC3     H 6270   0.797   1.262  13.061  0.5059  2.6796  0.3834
  420TMC3    H1 6271   0.894   1.011  13.386 -0.1736  0.3094  1.3371
  420TMC3    H2 6272   0.658   1.350  13.457 -2.0398 -0.0640 -1.7648
  420TMC3    C7 6273   0.704   1.100  13.523  1.3220  0.2791  0.3075
  420TMC3    C8 6274   0.601   1.335  13.195 -0.4426 -0.3715 -0.2186
  420TMC3    O1 6275   0.755   1.003  13.571  0.3979 -0.1754 -0.3756
  420TMC3    O2 6276   0.564   1.250  13.110 -0.1365  0.4416 -0.4748
  421TMC3    C1 6277   2.349   2.762  13.605  0.0715  0.0300 -0.7562
  421TMC3    C2 6278   2.393   2.844  13.702 -0.2124 -0.6252 -0.2738
  421TMC3    C3 6279   2.506   2.804  13.764 -0.1950  0.2843 -0.0563
  421TMC3    C4 6280   2.412   2.645  13.569  0.7271 -0.4770 -0.1699
  421TMC3    C5 6281   2.530   2.614  13.627  0.8830 -0.6589  0.4940
  421TMC3    C6 6282   2.574   2.689  13.739 -1.1765 -0.1206  0.6777
  421TMC3     C 6283   2.247   2.821  13.527 -0.8129  0.0302 -0.0729
  421TMC3     O 6284   2.230   2.942  13.537  0.6094  0.2016  0.1651
  421TMC3     H 6285   2.344   2.938  13.724  2.4517  0.8371 -0.5825
  421TMC3    H1 6286   2.364   2.593  13.486 -0.6983  0.0504  0.3316
  421TMC3    H2 6287   2.668   2.665  13.787 -0.1940  1.5557 -0.4030
  421TMC3    C7 6288   2.594   2.478  13.616  0.7229  0.6793 -0.2039
  421TMC3    C8 6289   2.541   2.872  13.890 -0.1418  0.5128 -0.4559
  421TMC3    O1 6290   2.699   2.456  13.679 -0.7727 -0.6310  0.2946
  421TMC3    O2 6291   2.654   2.841  13.936  0.4714  0.2665 -0.3306
  422TMC3    C1 6292   4.571   3.897  12.438  0.0571  0.0559  0.1769
  422TMC3    C2 6293   4.551   4.008  12.513  0.6820 -0.1540 -0.0491
  422TMC3    C3 6294   4.421   4.032  12.550 -0.6612 -0.2278  0.0177
  422TMC3    C4 6295   4.466   3.817  12.393  1.2660  0.1298 -0.6929
  422TMC3    C5 6296   4.334   3.842  12.440 -0.5931  0.4336  0.4703
  422TMC3    C6 6297   4.317   3.948  12.525  0.8510  0.2752  0.2490
  422TMC3     C 6298   4.685   3.897  12.349 -0.0424 -0.1348 -0.2859
  422TMC3     O 6299   0.014   4.001  12.334 -0.2420 -0.1829  0.1135
  422TMC3     H 6300   4.633   4.076  12.532  1.9643 -1.9582  0.9064
  422TMC3    H1 6301   4.475   3.736  12.321 -1.5698 -1.0922  0.3173
  422TMC3    H2 6302   4.221   3.966  12.571  0.6484 -2.5681  0.9097
  422TMC3    C7 6303   4.220   3.795  12.355 -0.2962 -0.0108  0.1984
  422TMC3    C8 6304   4.395   4.163  12.603 -0.3890 -0.6339 -0.2728
  422TMC3    O1 6305   4.238   3.777  12.237  0.0076  0.2201 -0.1765
  422TMC3    O2 6306   4.482   4.213  12.677  0.5706 -0.5133 -0.1366
  423MPD2     C 6307   0.711   4.188   0.602 -0.6656 -0.6984  0.7029
  423MPD2    C1 6308   0.685   4.054   0.600  0.5294 -0.3201 -0.2111
  423MPD2    C2 6309   0.690   3.976   0.484  0.3508 -0.1927 -0.2404
  423MPD2    C3 6310   0.721   4.031   0.362 -0.0606  0.1715 -0.1348
  423MPD2    C4 6311   0.722   4.166   0.354 -0.2034  0.8517  0.8658
  423MPD2    C5 6312   0.732   4.240   0.474  0.1751 -0.0859 -0.0630
  423MPD2     H 6313   0.683   3.870   0.503 -0.2919 -0.7358 -3.5251
  423MPD2    H1 6314   0.739   4.218   0.261  0.0271 -1.5890 -0.4508
  423MPD2    H2 6315   0.729   4.241   0.695  1.9498  0.8383 -0.6936
  423MPD2    H3 6316   0.751   4.346   0.470  0.0909  0.0634  3.1413
  423MPD2     N 6317   0.739   3.955   0.241 -0.5796 -0.1171  0.4209
  423MPD2    H5 6318   0.753   4.008   0.156  2.0326  0.0578  0.9644
  423MPD2    N1 6319   0.645   3.986   0.722  0.3100  0.8066 -0.1654
  423MPD2    H7 6320   0.627   3.887   0.710  0.8278  0.4172  2.2571
  424TMC3    C1 6321   0.568   3.949   0.932 -0.9883 -0.1101  0.2747
  424TMC3    C2 6322   0.598   3.918   1.059 -0.4665  0.1403 -0.1229
  424TMC3    C3 6323   0.504   3.838   1.124 -0.1653  0.4719 -0.0998
  424TMC3    C4 6324   0.455   3.912   0.869  0.3709  0.2461  0.6295
  424TMC3    C5 6325   0.362   3.849   0.948 -0.5635  0.0032  0.6930
  424TMC3    C6 6326   0.380   3.803   1.068 -0.4412  0.2862  0.1857
  424TMC3     C 6327   0.652   4.036   0.848  0.3488  0.4121  0.0055
  424TMC3     O 6328   0.697   4.138   0.900 -0.1741 -0.3702  0.1114
  424TMC3     H 6329   0.698   3.940   1.095 -0.2959 -0.9441  0.0667
  424TMC3    H1 6330   0.425   3.945   0.770 -0.1924 -1.7025  0.1536
  424TMC3    H2 6331   0.311   3.741   1.125  1.8199 -1.1303  1.3674
  424TMC3    C7 6332   0.227   3.845   0.893  0.5453  0.7258 -0.6864
  424TMC3    C8 6333   0.554   3.750   1.229  0.5085  0.1673  0.0194
  424TMC3    O1 6334   0.235   3.827   0.771  0.6331 -0.0023 -0.0860
  424TMC3    O2 6335   0.499   3.639   1.235  0.2428  0.4179  0.2190
  425MPD2     C 6336   4.603   3.267  16.939  0.2587 -0.3766  0.3802
  425MPD2    C1 6337   4.627   3.187  17.046 -0.4724  0.7895 -0.1706
  425MPD2    C2 6338   4.538   3.197  17.155  0.1001  0.1002 -0.3814
  425MPD2    C3 6339   4.434   3.286  17.153  0.0524 -0.1107 -0.3828
  425MPD2    C4 6340   4.418   3.370  17.047  0.3080 -0.5444 -0.3734
  425MPD2    C5 6341   4.499   3.361  16.936 -0.0289  0.3420 -0.4297
  425MPD2     H 6342   4.541   3.121  17.232  1.0618 -0.5039 -1.0098
  425MPD2    H1 6343   4.335   3.440  17.039 -0.6700 -1.6328  0.1712
  425MPD2    H2 6344   4.678   3.268  16.860  0.4415 -0.6758  0.5515
  425MPD2    H3 6345   4.489   3.429  16.851  0.3071  1.4806  0.4413
  425MPD2     N 6346   4.344   3.284  17.258  0.2544  0.1699 -0.3723
  425MPD2    H5 6347   4.352   3.206  17.323 -1.0287 -0.8257 -1.4252
  425MPD2    N1 6348   0.013   3.099  17.040  0.1834  0.2723  0.2047
  425MPD2    H7 6349   0.066   3.076  16.957 -0.5573  0.6446 -0.3811
  426TMC3    C1 6350   0.146   2.931  17.134 -0.0858 -0.1130 -0.5205
  426TMC3    C2 6351   0.149   2.850  17.024 -0.0493 -0.4443 -0.2181
  426TMC3    C3 6352   0.232   2.744  17.019 -0.0354  0.1144 -0.0016
  426TMC3    C4 6353   0.221   2.889  17.243 -0.2484 -0.8011 -0.9783
  426TMC3    C5 6354   0.303   2.775  17.238  0.5368  0.6974  0.1455
  426TMC3    C6 6355   0.316   2.712  17.119 -0.5813 -0.4701 -0.6164
  426TMC3     C 6356   0.048   3.031  17.155 -0.5496  0.1047 -0.0381
  426TMC3     O 6357   0.033   3.064  17.272  0.0660 -0.2562  0.4346
  426TMC3     H 6358   0.067   2.857  16.953 -0.5331  0.8117  0.4587
  426TMC3    H1 6359   0.217   2.941  17.339 -0.7669  0.4150 -1.6559
  426TMC3    H2 6360   0.370   2.619  17.108  1.1724  0.3132  1.4195
  426TMC3    C7 6361   0.331   2.689  17.356 -0.9145 -0.0501 -0.8733
  426TMC3    C8 6362   0.214   2.640  16.922  0.3655 -0.0641 -0.1821
  426TMC3    O1 6363   0.361   2.576  17.323 -0.5644  0.1163  0.2918
  426TMC3    O2 6364   0.321   2.590  16.893 -0.5540  0.2441 -0.2033
  427MPD2     C 6365   3.103   1.209  14.603  0.4617 -0.1577 -0.2301
  427MPD2    C1 6366   3.047   1.111  14.681  0.2761  0.0508 -0.4316
  427MPD2    C2 6367   2.915   1.114  14.711 -0.2412  0.5479  0.6920
  427MPD2    C3 6368   2.835   1.220  14.660 -0.1609 -0.4692  0.8499
  427MPD2    C4 6369   2.892   1.317  14.583 -0.4636  0.2319  0.3986
  427MPD2    C5 6370   3.026   1.312  14.553 -0.1944 -0.1447  0.0953
  427MPD2     H 6371   2.868   1.036  14.771  0.3051  0.2204  0.6932
  427MPD2    H1 6372   2.833   1.397  14.542 -2.0768  0.2601  2.7760
  427MPD2    H2 6373   3.210   1.208  14.581  0.6015 -0.7462  0.4807
  427MPD2    H3 6374   3.076   1.394  14.502  0.1327  0.2560  1.0518
  427MPD2     N 6375   2.695   1.241  14.692 -0.3092  0.5365  0.1384
  427MPD2    H5 6376   2.642   1.313  14.644 -0.8977  0.5165  0.7503
  427MPD2    N1 6377   3.126   1.015  14.757  0.4801  0.4427 -0.0695
  427MPD2    H7 6378   3.078   0.956  14.824  1.7073 -0.9283 -0.4131
  428TMC3    C1 6379   3.320   0.922  14.865 -0.8302 -0.3323  0.7500
  428TMC3    C2 6380   3.244   0.816  14.910 -0.3225  0.3771 -0.7643
  428TMC3    C3 6381   3.299   0.743  15.014  0.4998 -0.0124 -0.0433
  428TMC3    C4 6382   3.442   0.957  14.915  0.4465 -0.3584 -0.3075
  428TMC3    C5 6383   3.479   0.891  15.029  0.3443  0.0581  0.3695
  428TMC3    C6 6384   3.412   0.784  15.081  0.1132  0.4056 -0.9587
  428TMC3     C 6385   3.262   1.023  14.776  0.5696 -0.1070 -0.7597
  428TMC3     O 6386   3.349   1.075  14.713  0.3417  0.0685 -0.3363
  428TMC3     H 6387   3.151   0.788  14.862  0.2354  0.1997 -1.7402
  428TMC3    H1 6388   3.477   1.057  14.892 -1.4709 -0.3273 -3.0587
  428TMC3    H2 6389   3.453   0.730  15.165  0.6127  1.1442 -0.7271
  428TMC3    C7 6390   3.610   0.928  15.081 -0.2469 -0.2848  0.7655
  428TMC3    C8 6391   3.254   0.605  15.044  0.0189 -0.1119  0.5446
  428TMC3    O1 6392   3.644   0.900  15.193 -0.0343 -0.4741  0.1376
  428TMC3    O2 6393   3.332   0.529  15.101 -0.0675 -0.0432 -0.4371
  429MPD2     C 6394   4.435   0.501   0.206  0.8203 -0.6712 -0.4464
  429MPD2    C1 6395   4.524   0.431   0.117 -0.0162  0.7542 -0.3840
  429MPD2    C2 6396   4.637   0.492   0.078 -0.4887 -0.0369  0.1190
  429MPD2    C3 6397   4.666   0.619   0.108 -0.8224  0.1348 -0.0729
  429MPD2    C4 6398   4.575   0.689   0.185  0.4819 -0.4604 -0.1043
  429MPD2    C5 6399   4.455   0.634   0.234 -0.3147 -0.0931  0.3335
  429MPD2     H 6400   4.697   0.431   0.011  0.4781  1.4107 -0.3325
  429MPD2    H1 6401   4.588   0.793   0.211 -0.8708 -0.3216 -0.0006
  429MPD2    H2 6402   4.347   0.450   0.242  0.0467  0.4246 -0.7706
  429MPD2    H3 6403   4.392   0.683   0.308 -2.2003 -1.3234 -0.4603
  429MPD2     N 6404   0.057   0.678   0.045 -0.1646 -0.0430 -0.3341
  429MPD2    H5 6405   0.106   0.629  17.659 -0.2881  0.1171 -0.5214
  429MPD2    N1 6406   4.509   0.292   0.083  0.5337  0.3943  0.1517
  429MPD2    H7 6407   4.579   0.251   0.023  0.7694  1.4714 -0.3085
  430TMC3    C1 6408   0.156   0.884  17.654  0.0566  0.1374 -0.1528
  430TMC3    C2 6409   0.146   1.019  17.654 -0.1687 -0.5443 -0.6612
  430TMC3    C3 6410   0.181   1.090  17.543 -0.8143 -0.6635  0.5784
  430TMC3    C4 6411   0.207   0.814  17.543  0.8453 -0.2963  0.4156
  430TMC3    C5 6412   0.257   0.897  17.439 -0.3339  0.4350  0.0822
  430TMC3    C6 6413   0.245   1.033  17.431 -0.4969 -0.0109  0.0831
  430TMC3     C 6414   0.097   0.809   0.076  0.1853 -0.6250  0.0159
  430TMC3     O 6415   0.078   0.873   0.177  0.1226  0.1162 -0.6656
  430TMC3     H 6416   0.079   1.068   0.036  0.8740  1.0120 -0.7540
  430TMC3    H1 6417   0.214   0.706  17.542  3.0477 -0.1450  0.2960
  430TMC3    H2 6418   0.278   1.077  17.337  4.3718  2.0681  2.7639
  430TMC3    C7 6419   0.346   0.831  17.340 -0.6019  0.5675  0.2112
  430TMC3    C8 6420   0.095   1.206  17.505 -0.8806  1.2325  0.4551
  430TMC3    O1 6421   0.449   0.884  17.307 -0.0473  0.0292 -0.4425
  430TMC3    O2 6422   4.705   1.206  17.554 -0.2181 -0.4540 -0.0469
  431MPD2     C 6423   0.488   1.711  12.552 -0.9189  0.2241 -0.7679
  431MPD2    C1 6424   0.560   1.727  12.434  1.0508 -0.3673  0.5362
  431MPD2    C2 6425   0.588   1.614  12.358  0.9914 -0.0556  0.1816
  431MPD2    C3 6426   0.568   1.490  12.411 -0.0257 -0.2774  0.6614
  431MPD2    C4 6427   0.509   1.479  12.537 -0.2014 -0.5568  0.2276
  431MPD2    C5 6428   0.465   1.591  12.600 -0.0993  0.0077  0.3825
  431MPD2     H 6429   0.649   1.628  12.270  3.0130  0.6260  1.6945
  431MPD2    H1 6430   0.496   1.385  12.590 -1.7245  0.7585  2.2055
  431MPD2    H2 6431   0.457   1.791  12.618  1.8604 -0.5312  1.4603
  431MPD2    H3 6432   0.418   1.589  12.697  1.1560 -0.5952  0.9757
  431MPD2     N 6433   0.609   1.370  12.350 -0.9543 -0.5716 -0.5710
  431MPD2    H5 6434   0.619   1.290  12.413  1.1733  0.9695  1.0662
  431MPD2    N1 6435   0.612   1.853  12.392 -0.4008 -0.3765 -0.3046
  431MPD2    H7 6436   0.672   1.850  12.311  1.5372 -0.8926  1.1515
  432TMC3    C1 6437   0.736   1.215  12.209  0.2675  0.3052  0.0743
  432TMC3    C2 6438   0.777   1.169  12.088  0.5708  0.2367  0.0057
  432TMC3    C3 6439   0.805   1.031  12.074  0.1592  0.3206 -0.3503
  432TMC3    C4 6440   0.744   1.120  12.310  1.6866 -0.7143 -0.1323
  432TMC3    C5 6441   0.765   0.988  12.295  0.1724 -0.3251 -0.0980
  432TMC3    C6 6442   0.790   0.939  12.169  0.0339 -0.2846  0.0305
  432TMC3     C 6443   0.674   1.352  12.228 -0.4698  0.0751  0.0782
  432TMC3     O 6444   0.697   1.435  12.142 -0.3698  0.4231 -0.7310
  432TMC3     H 6445   0.767   1.234  12.002  1.0494 -0.2331 -0.4029
  432TMC3    H1 6446   0.719   1.161  12.407  2.6196 -0.5788  0.0551
  432TMC3    H2 6447   0.817   0.836  12.146  1.5577  0.1509 -0.1007
  432TMC3    C7 6448   0.819   0.910  12.412 -0.2645 -0.2084 -0.4761
  432TMC3    C8 6449   0.871   0.986  11.957 -0.4217 -0.1085  0.2220
  432TMC3    O1 6450   0.889   0.817  12.376  0.0158 -0.2524  0.5629
  432TMC3    O2 6451   0.849   0.870  11.928  0.0091 -0.3079 -0.9767
  433MPD2     C 6452   4.551   0.640  10.691 -0.8381  0.4257 -0.3593
  433MPD2    C1 6453   4.535   0.564  10.798 -0.2916 -0.0807  0.6533
  433MPD2    C2 6454   4.596   0.593  10.915  0.8487 -0.9543 -0.6908
  433MPD2    C3 6455   4.667   0.711  10.928 -0.1781 -0.5272 -0.0158
  433MPD2    C4 6456   4.689   0.788  10.818 -0.4558 -0.3060  1.0364
  433MPD2    C5 6457   4.627   0.753  10.701  0.3007 -0.1190  0.5469
  433MPD2     H 6458   4.586   0.531  11.003  1.3889  1.3902  1.0428
  433MPD2    H1 6459   0.023   0.882  10.823 -0.3490 -0.2109 -1.8645
  433MPD2    H2 6460   4.505   0.608  10.599  1.4557  0.8387 -1.6632
  433MPD2    H3 6461   4.634   0.816  10.613 -3.0028  0.0205  0.3955
  433MPD2     N 6462   0.004   0.728  11.063 -0.0443  0.5360  0.0846
  433MPD2    H5 6463   4.708   0.648  11.124 -0.1774  1.1193  0.8196
  433MPD2    N1 6464   4.457   0.454  10.777 -0.6247 -0.1228  0.1807
  433MPD2    H7 6465   4.426   0.425  10.685 -0.3366 -1.5712  0.5385
  434TMC3    C1 6466   4.363   0.241  10.824  0.3008 -0.8713 -0.8489
  434TMC3    C2 6467   4.345   0.139  10.921 -0.5179  0.5047  0.3848
  434TMC3    C3 6468   4.321   0.008  10.883  0.4759 -0.2470 -0.0344
  434TMC3    C4 6469   4.357   0.209  10.686 -0.1103 -0.8019 -0.3060
  434TMC3    C5 6470   4.315   0.077  10.658 -0.1296  0.0993 -0.0443
  434TMC3    C6 6471   4.280   4.707  10.754  0.1534  1.1129  0.2449
  434TMC3     C 6472   4.418   0.365  10.874 -0.7194  1.1873 -0.5028
  434TMC3     O 6473   4.420   0.378  10.994  0.1524  0.0034 -0.3664
  434TMC3     H 6474   4.367   0.154  11.026  0.9579 -0.5180  0.2184
  434TMC3    H1 6475   4.383   0.271  10.601  0.8707  2.0739  2.0949
  434TMC3    H2 6476   4.243   4.611  10.719  0.3446 -0.2305  3.7581
  434TMC3    C7 6477   4.333   0.026  10.522 -0.2543 -0.4054 -0.0043
  434TMC3    C8 6478   4.440   4.651  10.918 -0.7667  0.1235 -0.1686
  434TMC3    O1 6479   4.308   0.107  10.431  0.1877  0.1220  0.1193
  434TMC3    O2 6480   4.525   4.713  10.983 -0.3436 -0.9133 -0.4251
  435MPD2     C 6481   1.306   4.418  15.571 -0.7749 -0.2206 -0.7415
  435MPD2    C1 6482   1.339   4.433  15.704 -0.0060 -0.3328 -0.3593
  435MPD2    C2 6483   1.453   4.369  15.750  0.0223 -0.0721  0.3808
  435MPD2    C3 6484   1.531   4.290  15.671 -0.1083 -0.3148 -0.5143
  435MPD2    C4 6485   1.495   4.272  15.542 -0.0746  0.3320  0.0978
  435MPD2    C5 6486   1.381   4.336  15.492  0.4498 -0.0460  0.2633
  435MPD2     H 6487   1.489   4.388  15.850  0.2162 -1.2494  0.5404
  435MPD2    H1 6488   1.554   4.214  15.473 -0.9418 -0.7065  0.2407
  435MPD2    H2 6489   1.222   4.461  15.518 -1.2311 -0.2241 -0.0160
  435MPD2    H3 6490   1.349   4.319  15.390  4.1696 -0.3291 -0.8544
  435MPD2     N 6491   1.639   4.225  15.731 -0.7145  0.3813 -0.3373
  435MPD2    H5 6492   1.648   4.243  15.830  0.9647  0.7612 -0.5628
  435MPD2    N1 6493   1.273   4.516  15.796  0.0878 -0.1000  0.2771
  435MPD2    H7 6494   1.318   4.534  15.885  0.7909 -1.7971  0.2578
  436TMC3    C1 6495   1.067   4.712  16.107 -0.4452  0.1648  0.3359
  436TMC3    C2 6496   1.142   4.648  16.014  0.1099 -0.7893 -0.0922
  436TMC3    C3 6497   1.137   4.686  15.879  0.0731  0.0472  0.1125
  436TMC3    C4 6498   0.963   0.067  16.069 -0.0908 -0.1811 -0.2995
  436TMC3    C5 6499   0.958   0.100  15.939 -0.5880  0.2061  0.4132
  436TMC3    C6 6500   1.038   0.052  15.843  0.2975 -0.2481  0.5290
  436TMC3     C 6501   1.055   4.655  16.242 -0.2919  0.2087  0.6651
  436TMC3     O 6502   1.100   4.541  16.261 -0.0389  0.0622  1.0195
  436TMC3     H 6503   1.198   4.562  16.047 -0.8590 -1.0016  0.9824
  436TMC3    H1 6504   0.875   0.088  16.131 -0.3344  0.3102 -0.8103
  436TMC3    H2 6505   1.042   0.090  15.742  0.6617 -2.0162 -0.1289
  436TMC3    C7 6506   0.844   0.186  15.893  0.9227  0.4547 -0.4505
  436TMC3    C8 6507   1.159   4.591  15.772 -0.0921  0.3656 -0.0682
  436TMC3    O1 6508   0.781   0.253  15.972 -0.2678 -0.6170 -0.2103
  436TMC3    O2 6509   1.085   4.595  15.674 -0.1268  0.4496  0.0929
  437TMC3    C1 6510   0.159   2.021  12.714  0.2726 -0.8034  0.2395
  437TMC3    C2 6511   0.028   2.044  12.708  0.0544  1.1261  0.0082
  437TMC3    C3 6512   4.703   2.157  12.647  0.9714  0.4166 -0.2187
  437TMC3    C4 6513   0.254   2.111  12.673 -1.0107 -0.7565 -0.2951
  437TMC3    C5 6514   0.209   2.216  12.606  0.0318 -0.5125  0.8747
  437TMC3    C6 6515   0.078   2.243  12.600 -0.3396 -0.0417 -0.0772
  437TMC3     C 6516   0.218   1.897  12.760  0.2465  0.0846 -0.5193
  437TMC3     O 6517   0.325   1.909  12.804  0.4666 -0.1217  0.4488
  437TMC3     H 6518   4.679   1.975  12.753  1.3354  0.6797  1.3203
  437TMC3    H1 6519   0.359   2.083  12.674 -0.8957 -0.2109  2.1657
  437TMC3    H2 6520   0.055   2.335  12.547  2.9285 -0.1057 -1.6450
  437TMC3    C7 6521   0.298   2.300  12.527  0.0231 -0.0943  0.2064
  437TMC3    C8 6522   4.583   2.140  12.564 -0.1684  0.5027 -0.4511
  437TMC3    O1 6523   0.252   2.362  12.432  0.7346 -0.3416  0.3333
  437TMC3    O2 6524   4.533   2.027  12.560 -0.0109 -0.2012  0.2769
  438MPD2     C 6525   2.892   2.712  17.082  0.1386 -0.1352 -0.5134
  438MPD2    C1 6526   2.963   2.597  17.097 -0.1006 -0.4512  0.7605
  438MPD2    C2 6527   2.959   2.533  17.223  0.1969 -0.3328  0.0367
  438MPD2    C3 6528   2.887   2.585  17.329 -0.1101  0.5378  0.5022
  438MPD2    C4 6529   2.812   2.698  17.303 -0.3052 -0.0825 -0.9052
  438MPD2    C5 6530   2.810   2.760  17.181 -0.0829  0.5988  0.6878
  438MPD2     H 6531   3.023   2.447  17.234  0.4941 -0.1588 -0.3380
  438MPD2    H1 6532   2.740   2.733  17.376  0.6983  1.2620 -0.5462
  438MPD2    H2 6533   2.899   2.762  16.985 -0.3038  0.5387 -0.1995
  438MPD2    H3 6534   2.762   2.856  17.166 -2.5571 -0.6490  0.4766
  438MPD2     N 6535   2.899   2.542  17.462  0.1797 -0.0662 -0.7273
  438MPD2    H5 6536   2.856   2.590  17.540  1.5871 -1.6633  1.0444
  438MPD2    N1 6537   3.025   2.535  16.989  0.3377  0.4200  0.6255
  438MPD2    H7 6538   3.074   2.450  17.016 -0.6196 -0.0187  1.0014
  439TMC3    C1 6539   3.050   2.456  16.777  0.1547 -0.4262 -0.2290
  439TMC3    C2 6540   3.068   2.483  16.644  0.0497  0.0613  0.5373
  439TMC3    C3 6541   3.093   2.382  16.553 -0.4435 -0.6278  1.0087
  439TMC3    C4 6542   3.062   2.326  16.819  0.0526 -0.5190  0.3044
  439TMC3    C5 6543   3.082   2.233  16.726  0.2065  0.5679 -0.2089
  439TMC3    C6 6544   3.096   2.253  16.598 -0.2060  0.0028  0.6460
  439TMC3     C 6545   2.985   2.558  16.855  0.1259 -0.3859 -0.2414
  439TMC3     O 6546   2.909   2.638  16.802  0.2311  0.4330  0.5434
  439TMC3     H 6547   3.042   2.579  16.603  0.7919 -0.7700 -1.8791
  439TMC3    H1 6548   3.038   2.300  16.922 -0.4825  1.1189  0.5971
  439TMC3    H2 6549   3.106   2.168  16.532 -0.2370  0.0744  0.5507
  439TMC3    C7 6550   3.053   2.094  16.771 -0.2219  1.0160  0.3397
  439TMC3    C8 6551   3.062   2.419  16.418  0.4163 -0.0928  0.3384
  439TMC3    O1 6552   2.991   2.017  16.701  0.4328 -0.0236  0.6663
  439TMC3    O2 6553   2.991   2.519  16.393 -0.0604  0.4790 -0.3441
  440MPD2     C 6554   1.204   3.019  14.344  0.6244 -0.6077 -0.4649
  440MPD2    C1 6555   1.148   2.962  14.455 -0.0345 -0.0140 -0.0398
  440MPD2    C2 6556   1.203   2.852  14.515  0.3403  0.3779 -0.1969
  440MPD2    C3 6557   1.312   2.788  14.465 -0.1617  0.9910  0.3040
  440MPD2    C4 6558   1.367   2.837  14.346 -0.0494 -0.1617  0.0932
  440MPD2    C5 6559   1.313   2.955  14.290 -0.1202  0.5861  0.1797
  440MPD2     H 6560   1.158   2.811  14.605  0.6576  0.9042  0.2012
  440MPD2    H1 6561   1.452   2.790  14.298  0.0584  0.9263 -0.7756
  440MPD2    H2 6562   1.180   3.116  14.302 -1.0125 -1.5352 -1.6840
  440MPD2    H3 6563   1.359   2.995  14.201  1.5940 -2.0163 -0.0880
  440MPD2     N 6564   1.383   2.691  14.539  0.2520 -0.2723  0.4182
  440MPD2    H5 6565   1.480   2.681  14.512 -0.4566 -1.4204 -1.8062
  440MPD2    N1 6566   1.039   3.017  14.520  0.1698  0.1079 -0.6349
  440MPD2    H7 6567   1.018   2.976  14.611 -0.1508 -2.3901 -1.8350
  441TMC3    C1 6568   1.453   2.564  14.719 -0.0006 -0.1183  0.9008
  441TMC3    C2 6569   1.560   2.648  14.751  0.4004 -0.0016 -0.2267
  441TMC3    C3 6570   1.622   2.639  14.869 -0.4946 -0.0304  0.0177
  441TMC3    C4 6571   1.409   2.476  14.814 -0.4869  0.8202 -0.1859
  441TMC3    C5 6572   1.471   2.473  14.932  0.7218  0.0673  0.0124
  441TMC3    C6 6573   1.585   2.548  14.966  0.6747 -0.2982  0.3468
  441TMC3     C 6574   1.336   2.624  14.647  0.7811 -0.9741 -0.0240
  441TMC3     O 6575   1.223   2.617  14.697  0.1242 -0.1980 -0.2095
  441TMC3     H 6576   1.611   2.708  14.676  0.4302 -0.1330 -0.3101
  441TMC3    H1 6577   1.310   2.433  14.803  0.4081 -1.1264 -0.6455
  441TMC3    H2 6578   1.621   2.563  15.067 -0.0541  2.3070  0.2156
  441TMC3    C7 6579   1.413   2.389  15.037  0.4311  0.0838 -0.4516
  441TMC3    C8 6580   1.687   2.761  14.921 -0.2319 -0.5106  0.1157
  441TMC3    O1 6581   1.315   2.320  15.016 -0.0337  0.3911  0.1146
  441TMC3    O2 6582   1.772   2.741  15.013  0.3473  0.4160  0.0809
  442MPD2     C 6583   3.916   3.338  16.333  0.2043  0.1134 -0.3892
  442MPD2    C1 6584   3.892   3.237  16.423  0.3188 -0.6771  0.7859
  442MPD2    C2 6585   3.986   3.138  16.440  0.4503 -0.1824 -0.2859
  442MPD2    C3 6586   4.103   3.145  16.365  0.7697 -0.0724  1.1498
  442MPD2    C4 6587   4.133   3.253  16.290  0.4907  0.2221  0.4460
  442MPD2    C5 6588   4.040   3.353  16.286 -0.0426 -0.1124  0.3028
  442MPD2     H 6589   3.957   3.050  16.496 -0.7284  0.5090  0.1744
  442MPD2    H1 6590   4.229   3.264  16.241 -0.2809  0.4482 -1.0129
  442MPD2    H2 6591   3.847   3.417  16.306  1.5326  1.5263  0.3927
  442MPD2    H3 6592   4.061   3.444  16.231  1.2529 -0.3321  0.4466
  442MPD2     N 6593   4.201   3.041  16.367 -0.1270 -0.6332 -0.2246
  442MPD2    H5 6594   4.284   3.065  16.314  0.7780 -2.6733  0.3037
  442MPD2    N1 6595   3.778   3.227  16.501 -0.2073 -0.4649  0.6148
  442MPD2    H7 6596   3.778   3.151  16.568  3.2785 -1.2570 -0.2821
  443TMC3    C1 6597   3.572   3.277  16.593 -0.1116 -0.3132 -0.2510
  443TMC3    C2 6598   3.448   3.320  16.568  0.1681 -0.0959 -0.2142
  443TMC3    C3 6599   3.343   3.282  16.647  0.3505  0.7501  0.1887
  443TMC3    C4 6600   3.595   3.222  16.717  0.4183 -0.2045  0.1438
  443TMC3    C5 6601   3.492   3.209  16.805 -0.0040  0.6425 -0.3797
  443TMC3    C6 6602   3.362   3.232  16.773  0.6546 -0.3688 -0.4521
  443TMC3     C 6603   3.679   3.322  16.507 -0.3560 -0.1490 -0.3348
  443TMC3     O 6604   3.655   3.409  16.423 -0.2080 -0.1070 -0.0562
  443TMC3     H 6605   3.437   3.373  16.474  2.9619  2.2852  0.7680
  443TMC3    H1 6606   3.694   3.189  16.745  0.0501 -1.6450 -0.2477
  443TMC3    H2 6607   3.278   3.198  16.832 -0.5629  0.8551 -1.4744
  443TMC3    C7 6608   3.528   3.156  16.934  0.3363 -0.1194  0.4520
  443TMC3    C8 6609   3.206   3.287  16.616  0.3500  0.3466  0.2281
  443TMC3    O1 6610   3.614   3.069  16.925  0.0050 -0.5150  0.1542
  443TMC3    O2 6611   3.123   3.314  16.706  0.1145  0.3969 -0.5551
  444MPD2     C 6612   0.297   2.054  17.567 -0.5448 -0.5547 -0.2914
  444MPD2    C1 6613   0.229   2.070  17.449 -0.0535  0.2101  0.2080
  444MPD2    C2 6614   0.298   2.062  17.331 -0.8565  0.2553 -0.3052
  444MPD2    C3 6615   0.425   2.018  17.325 -0.1191  0.4136 -0.3760
  444MPD2    C4 6616   0.492   2.001  17.441  0.3664  0.4172  0.0775
  444MPD2    C5 6617   0.432   2.026  17.557 -0.1948 -0.1654  0.2810
  444MPD2     H 6618   0.259   2.090  17.234 -1.4402 -0.5997 -0.3099
  444MPD2    H1 6619   0.594   1.968  17.454 -0.0824 -1.2590 -0.6075
  444MPD2    H2 6620   0.263   2.075  17.668  2.8611 -1.8794  1.1504
  444MPD2    H3 6621   0.494   2.015  17.646  1.4507  2.7606 -0.5112
  444MPD2     N 6622   0.488   2.009  17.199  0.2746 -0.5373  0.5707
  444MPD2    H5 6623   0.438   2.046  17.119  0.5716 -1.3072  0.0320
  444MPD2    N1 6624   0.095   2.112  17.438 -0.3797  0.1007 -0.2981
  444MPD2    H7 6625   0.060   2.141  17.347  2.0835 -1.5211 -1.7807
  445TMC3    C1 6626   0.631   1.916  17.030 -0.4332  0.5951 -1.0852
  445TMC3    C2 6627   0.515   1.879  16.966  0.2010  0.1077 -0.4561
  445TMC3    C3 6628   0.514   1.872  16.832 -0.4498  0.6390 -1.0957
  445TMC3    C4 6629   0.746   1.939  16.959 -1.0067 -0.4400 -0.1428
  445TMC3    C5 6630   0.743   1.920  16.822  0.3778  0.1587 -0.9370
  445TMC3    C6 6631   0.624   1.902  16.756  0.0914 -0.0078  0.5575
  445TMC3     C 6632   0.616   1.958  17.169  0.0269 -0.1378  0.1714
  445TMC3     O 6633   0.709   1.918  17.245 -0.1480 -0.3719  0.4018
  445TMC3     H 6634   0.429   1.845  17.023 -0.1650 -0.4135 -1.3268
  445TMC3    H1 6635   0.837   1.964  17.012 -0.8763  0.9512 -1.0142
  445TMC3    H2 6636   0.633   1.887  16.649 -0.5373  0.4475  0.4410
  445TMC3    C7 6637   0.861   1.949  16.741 -0.3523 -0.7428 -0.2188
  445TMC3    C8 6638   0.383   1.857  16.781  0.0651 -0.6059  0.3449
  445TMC3    O1 6639   0.839   2.003  16.632 -0.5291  0.6111  0.0987
  445TMC3    O2 6640   0.293   1.894  16.856 -0.4058  0.0387  0.0876
  446MPD2     C 6641   4.488   4.504  11.492 -0.0902  0.1211  0.2279
  446MPD2    C1 6642   4.445   4.508  11.362 -0.1785  0.5642 -0.4266
  446MPD2    C2 6643   4.481   4.617  11.289 -0.1665 -0.1758 -1.1630
  446MPD2    C3 6644   4.590   4.695  11.323 -0.1743 -0.3928 -0.1814
  446MPD2    C4 6645   4.636   4.692  11.453 -0.5134 -0.5810  1.0661
  446MPD2    C5 6646   4.591   4.596  11.536 -0.1348 -0.0162 -0.0050
  446MPD2     H 6647   4.436   4.625  11.191 -1.0044 -1.9114 -0.9197
  446MPD2    H1 6648   0.006   0.021  11.482 -0.2742 -0.3797 -0.0223
  446MPD2    H2 6649   4.457   4.426  11.561 -0.9270 -0.6885 -1.0643
  446MPD2    H3 6650   4.629   4.584  11.637 -0.5280  1.0423  0.2675
  446MPD2     N 6651   4.636   0.065  11.223 -0.0858  0.3431 -0.0778
  446MPD2    H5 6652   4.596   0.047  11.131 -0.3668  1.3798 -0.1559
  446MPD2    N1 6653   4.361   4.415  11.305  0.7257  0.7417  1.0653
  446MPD2    H7 6654   4.319   4.440  11.216 -1.2473 -1.3634  1.4040
  447TMC3    C1 6655   0.068   0.222  11.122 -0.7166 -0.0251 -0.1024
  447TMC3    C2 6656   4.717   0.231  11.013  0.2550 -1.1139 -0.0436
  447TMC3    C3 6657   0.045   0.316  10.918  0.5451  0.6535  0.2505
  447TMC3    C4 6658   0.190   0.274  11.133 -0.7048 -0.0923  0.3795
  447TMC3    C5 6659   0.240   0.355  11.041 -0.2872 -0.0816  0.3644
  447TMC3    C6 6660   0.161   0.382  10.933 -0.0211  0.0753  0.4456
  447TMC3     C 6661   0.021   0.151  11.240  0.1801  0.8119 -0.2036
  447TMC3     O 6662   0.084   0.166  11.343 -0.6157 -0.5352 -0.3057
  447TMC3     H 6663   4.614   0.202  11.028 -0.1036 -0.2175 -0.7735
  447TMC3    H1 6664   0.243   0.256  11.226  0.2574  0.8579  0.0099
  447TMC3    H2 6665   0.200   0.427  10.842  1.2226  2.2347  2.0595
  447TMC3    C7 6666   0.376   0.328  11.005  0.0350  0.1090  1.3970
  447TMC3    C8 6667   0.032   0.259  10.779 -0.6075 -0.5213 -0.3087
  447TMC3    O1 6668   0.387   0.312  10.885  0.1818  0.4775 -0.0403
  447TMC3    O2 6669   0.075   0.325  10.687  0.2238  0.2011 -0.5968
  448TMC3    C1 6670   2.098   3.369   0.119 -0.0237 -0.2525 -0.4466
  448TMC3    C2 6671   2.161   3.403   0.004 -0.3127 -0.3585 -0.4128
  448TMC3    C3 6672   2.293   3.375  17.677  0.3912  0.4036  0.8699
  448TMC3    C4 6673   2.159   3.307   0.224  0.3986 -0.2894 -0.1119
  448TMC3    C5 6674   2.298   3.281   0.203  0.3714 -0.1031 -0.0986
  448TMC3    C6 6675   2.366   3.316   0.087 -0.3881 -0.4617  0.6314
  448TMC3     C 6676   1.972   3.432   0.159 -0.0400  0.1674  0.4327
  448TMC3     O 6677   1.930   3.412   0.272 -0.3840 -0.1003 -0.2512
  448TMC3     H 6678   2.117   3.445  17.602 -0.3008 -0.4595 -0.4656
  448TMC3    H1 6679   2.120   3.296   0.325  0.9258 -1.6563 -0.0415
  448TMC3    H2 6680   2.474   3.325   0.079 -0.5113 -1.0169 -1.4738
  448TMC3    C7 6681   2.379   3.248   0.317 -0.6235  0.4121  1.0006
  448TMC3    C8 6682   2.342   3.376  17.534 -0.3965 -0.6925 -0.3092
  448TMC3    O1 6683   2.496   3.273   0.324  0.0433 -0.1269  0.4404
  448TMC3    O2 6684   2.255   3.396  17.446  0.2358  0.1158 -0.1163
  449MPD2     C 6685   4.211   2.383  13.964 -0.0986 -0.6339 -0.3150
  449MPD2    C1 6686   4.107   2.444  13.910  0.4548  0.6173  0.3415
  449MPD2    C2 6687   3.978   2.398  13.934  0.2363 -0.2531  0.6595
  449MPD2    C3 6688   3.969   2.279  14.004 -0.5337  0.3218  0.0760
  449MPD2    C4 6689   4.076   2.226  14.072  0.7136  0.0167  0.1838
  449MPD2    C5 6690   4.197   2.283  14.052 -0.0322 -0.2022  0.2731
  449MPD2     H 6691   3.889   2.455  13.908  0.2067  0.4443  2.3138
  449MPD2    H1 6692   4.069   2.145  14.143 -0.5656 -0.7668 -0.8301
  449MPD2    H2 6693   4.310   2.423  13.944 -0.5537  0.1892 -0.9074
  449MPD2    H3 6694   4.280   2.243  14.109  0.1327  0.3785  0.4428
  449MPD2     N 6695   3.840   2.235  14.024 -0.5048 -0.6645  0.1313
  449MPD2    H5 6696   3.774   2.282  13.962 -0.0095 -2.0900 -1.4729
  449MPD2    N1 6697   4.111   2.566  13.839  0.9247 -0.8179  0.5069
  449MPD2    H7 6698   4.018   2.607  13.826 -0.0235 -2.6906  1.5001
  450TMC3    C1 6699   4.176   2.731  13.696  0.1804 -0.0265 -0.0727
  450TMC3    C2 6700   4.181   2.706  13.561  0.1272  0.3037 -0.1810
  450TMC3    C3 6701   4.070   2.749  13.494  0.4731 -0.2232  0.8365
  450TMC3    C4 6702   4.066   2.791  13.761 -0.7680  0.8234  0.3055
  450TMC3    C5 6703   3.958   2.815  13.686  0.7216 -0.8637 -0.0395
  450TMC3    C6 6704   3.964   2.810  13.553 -0.0613  0.2629 -0.4161
  450TMC3     C 6705   4.212   2.618  13.770  0.6404  0.3007  0.1015
  450TMC3     O 6706   4.324   2.567  13.753 -0.2388  1.3075  0.3759
  450TMC3     H 6707   4.261   2.656  13.507 -0.7191 -0.5697 -0.6347
  450TMC3    H1 6708   4.075   2.804  13.868  1.6169 -3.4703  0.6464
  450TMC3    H2 6709   3.872   2.817  13.495  0.5578  0.7563 -1.3318
  450TMC3    C7 6710   3.835   2.765  13.741  0.1046  0.4998  0.1558
  450TMC3    C8 6711   4.079   2.764  13.348 -0.4304  0.1338  0.0309
  450TMC3    O1 6712   3.851   2.679  13.826 -0.6358 -0.6383 -0.8111
  450TMC3    O2 6713   4.024   2.863  13.306  0.2138  0.2340  0.2092
  451MPD2     C 6714   0.415   1.178   1.407 -0.0683 -0.4004 -0.2870
  451MPD2    C1 6715   0.361   1.143   1.287  0.7341  0.2925 -0.3039
  451MPD2    C2 6716   0.404   1.026   1.229  0.4674  0.0947 -0.0421
  451MPD2    C3 6717   0.498   0.949   1.297  0.6434  0.6523  0.8754
  451MPD2    C4 6718   0.548   0.979   1.423  0.5148  0.2364  0.3656
  451MPD2    C5 6719   0.504   1.097   1.477 -0.8348  0.6719  0.0256
  451MPD2     H 6720   0.359   0.999   1.134 -0.1328 -0.7279  0.4712
  451MPD2    H1 6721   0.620   0.917   1.475  0.3264 -0.9009 -0.7207
  451MPD2    H2 6722   0.387   1.270   1.457 -2.0331 -1.9963  1.5379
  451MPD2    H3 6723   0.550   1.132   1.568 -1.3830  1.5270 -0.0173
  451MPD2     N 6724   0.543   0.827   1.239  0.8435 -0.0211  0.1378
  451MPD2    H5 6725   0.597   0.769   1.302  3.2524  1.9438 -0.1390
  451MPD2    N1 6726   0.260   1.231   1.241 -0.4822  0.1153  0.4095
  451MPD2    H7 6727   0.255   1.321   1.288  0.6610 -0.4372  1.5993
  452TMC3    C1 6728   0.540   0.629   1.111 -0.2986 -0.1885  0.1951
  452TMC3    C2 6729   0.554   0.540   1.213 -0.4098 -0.0081  0.4685
  452TMC3    C3 6730   0.581   0.412   1.177 -0.0369  0.0641 -0.2772
  452TMC3    C4 6731   0.554   0.590   0.978 -0.0880 -0.3434 -0.5063
  452TMC3    C5 6732   0.583   0.453   0.954  0.0681  0.2931  0.4534
  452TMC3    C6 6733   0.604   0.360   1.051 -0.4269  0.3187  0.6702
  452TMC3     C 6734   0.490   0.765   1.124 -0.2922  0.3531 -0.2571
  452TMC3     O 6735   0.429   0.809   1.030 -0.2678  0.5838 -0.5185
  452TMC3     H 6736   0.527   0.556   1.317 -0.2255  1.0107  0.3512
  452TMC3    H1 6737   0.540   0.659   0.897  0.7599  0.1865 -0.1890
  452TMC3    H2 6738   0.631   0.255   1.041 -1.0368  0.3214 -1.0498
  452TMC3    C7 6739   0.608   0.417   0.817 -0.2148 -0.0687 -0.5292
  452TMC3    C8 6740   0.601   0.321   1.295  0.2588 -0.1660 -0.4542
  452TMC3    O1 6741   0.625   0.507   0.733 -0.2447 -0.4613  0.2360
  452TMC3    O2 6742   0.603   0.198   1.279  0.3703 -0.3107  0.2165
  453TMC3    C1 6743   1.972   3.513  11.905 -0.7645 -0.0982 -0.7668
  453TMC3    C2 6744   1.861   3.435  11.923 -0.2501 -0.2901 -0.8747
  453TMC3    C3 6745   1.758   3.445  11.832  0.0668  0.0690 -0.1358
  453TMC3    C4 6746   1.995   3.594  11.794  1.1275  0.5893  0.5368
  453TMC3    C5 6747   1.885   3.605  11.707  0.8635 -0.1058 -0.3102
  453TMC3    C6 6748   1.769   3.531  11.727 -0.0070  0.4453 -0.5498
  453TMC3     C 6749   2.097   3.484  11.975  0.3811  0.1071  0.8154
  453TMC3     O 6750   2.195   3.535  11.932  0.2177 -0.5936  0.1818
  453TMC3     H 6751   1.846   3.388  12.020  0.0706  2.2226  0.3795
  453TMC3    H1 6752   2.065   3.677  11.789  2.5606 -0.4659  3.7173
  453TMC3    H2 6753   1.685   3.540  11.660 -1.1498 -0.1981  0.7982
  453TMC3    C7 6754   1.906   3.663  11.580  1.0016  0.5247  0.5301
  453TMC3    C8 6755   1.635   3.364  11.839  0.2198 -0.3371  0.4564
  453TMC3    O1 6756   1.803   3.684  11.524 -0.7593 -0.1540  0.7840
  453TMC3    O2 6757   1.521   3.416  11.826 -0.7602  0.2829  0.1721
  454MPD2     C 6758   1.125   2.485  16.429  0.1745  0.0437  0.1252
  454MPD2    C1 6759   1.000   2.524  16.388  0.1268  0.0740  0.3289
  454MPD2    C2 6760   0.892   2.435  16.410  0.6469 -0.1482  0.1556
  454MPD2    C3 6761   0.907   2.310  16.468  0.0153  0.2759  0.2491
  454MPD2    C4 6762   1.038   2.285  16.520 -0.0457 -0.6159  0.2586
  454MPD2    C5 6763   1.135   2.375  16.508  0.1263  0.5322  0.6210
  454MPD2     H 6764   0.793   2.460  16.373  0.7966  1.6891  1.0144
  454MPD2    H1 6765   1.058   2.199  16.583 -2.3315 -1.8524 -0.7044
  454MPD2    H2 6766   1.207   2.556  16.417  1.9385 -1.7652  1.3341
  454MPD2    H3 6767   1.236   2.343  16.531 -0.4792 -1.5165  0.4135
  454MPD2     N 6768   0.793   2.225  16.468 -0.6121 -0.3642 -0.1710
  454MPD2    H5 6769   0.801   2.138  16.520  0.3165 -0.1136  0.0981
  454MPD2    N1 6770   0.992   2.656  16.325  0.2092 -0.5410 -0.1671
  454MPD2    H7 6771   1.074   2.716  16.319 -0.3790  0.2577 -0.2504
  455TMC3    C1 6772   0.580   2.131  16.413 -0.0304 -0.1840  0.2516
  455TMC3    C2 6773   0.505   2.137  16.532 -0.3319  0.4833 -0.1556
  455TMC3    C3 6774   0.375   2.138  16.532  0.1191 -0.4830  0.4282
  455TMC3    C4 6775   0.522   2.117  16.290  0.6927 -0.2147 -0.8618
  455TMC3    C5 6776   0.386   2.105  16.293 -0.5993 -1.2045 -0.2489
  455TMC3    C6 6777   0.311   2.117  16.410 -0.0214  0.0061 -0.4283
  455TMC3     C 6778   0.671   2.241  16.398  0.4176  0.0453  0.2642
  455TMC3     O 6779   0.643   2.323  16.313  0.5043  0.1853  0.0020
  455TMC3     H 6780   0.555   2.155  16.627  2.0691 -0.8561 -1.1666
  455TMC3    H1 6781   0.577   2.111  16.198 -2.9415 -0.0109 -3.0685
  455TMC3    H2 6782   0.205   2.095  16.409 -0.5134  2.1975  2.8127
  455TMC3    C7 6783   0.323   2.111  16.162  0.4500  0.3718 -0.0301
  455TMC3    C8 6784   0.309   2.204  16.638 -0.2016 -0.2567  0.2276
  455TMC3    O1 6785   0.397   2.147  16.072 -0.8888 -0.5442  0.4228
  455TMC3    O2 6786   0.375   2.226  16.738 -0.2365 -0.6753  0.0551
  456MPD2     C 6787   3.387   2.625  16.622 -0.3326 -0.3783 -0.3286
  456MPD2    C1 6788   3.416   2.557  16.742  0.3231 -0.0090 -0.1655
  456MPD2    C2 6789   3.382   2.607  16.866 -0.1354  0.7048 -0.7310
  456MPD2    C3 6790   3.331   2.733  16.866  0.0911 -0.0535  0.0242
  456MPD2    C4 6791   3.306   2.805  16.753 -0.1715 -0.0833  0.2032
  456MPD2    C5 6792   3.328   2.745  16.632 -1.2191 -0.8330  0.7209
  456MPD2     H 6793   3.387   2.543  16.954 -0.5888  2.3256  0.4754
  456MPD2    H1 6794   3.257   2.901  16.749 -1.2548 -0.6150  0.5526
  456MPD2    H2 6795   3.405   2.588  16.522  1.1088 -2.2049  0.6118
  456MPD2    H3 6796   3.288   2.800  16.547 -2.0949 -1.4374  0.7454
  456MPD2     N 6797   3.292   2.780  16.998  0.1293  0.2233 -0.0156
  456MPD2    H5 6798   3.313   2.720  17.077  2.2183 -2.2077 -2.4481
  456MPD2    N1 6799   3.462   2.430  16.714  0.7746  0.4811  0.0533
  456MPD2    H7 6800   3.482   2.404  16.618 -0.4615 -1.7573  0.4063
  457TMC3    C1 6801   3.160   2.903  17.154  0.5701 -0.3840 -0.4325
  457TMC3    C2 6802   3.083   3.014  17.194  0.1448 -1.0933  0.3336
  457TMC3    C3 6803   3.026   3.025  17.317 -0.0727  0.4732  0.1975
  457TMC3    C4 6804   3.195   2.815  17.252 -0.0866  0.2694  0.8800
  457TMC3    C5 6805   3.157   2.847  17.382  0.2231 -0.0465  0.5784
  457TMC3    C6 6806   3.075   2.948  17.415 -0.0616 -0.3601 -0.5086
  457TMC3     C 6807   3.208   2.889  17.021  0.2922  0.0009  0.1807
  457TMC3     O 6808   3.154   2.962  16.938 -0.5473  0.2242 -0.2733
  457TMC3     H 6809   3.058   3.073  17.107 -0.2346 -2.5871 -0.5857
  457TMC3    H1 6810   3.250   2.725  17.228 -0.7822  0.4497 -1.4066
  457TMC3    H2 6811   3.054   2.957  17.521  0.4818  1.2895 -0.5402
  457TMC3    C7 6812   3.187   2.756  17.489 -0.1336 -0.4795 -0.3297
  457TMC3    C8 6813   2.903   3.094  17.357  0.1335  0.3464  0.2215
  457TMC3    O1 6814   3.100   2.753  17.576 -0.5618  0.3278 -1.1739
  457TMC3    O2 6815   2.855   3.067  17.467  0.1954 -0.7619 -0.2352
  458MPD2     C 6816   0.738   2.535  12.410 -0.3760 -0.0711  0.1681
  458MPD2    C1 6817   0.759   2.470  12.529 -0.5458  0.1661 -0.1687
  458MPD2    C2 6818   0.657   2.397  12.575  0.3933 -0.6984  0.7196
  458MPD2    C3 6819   0.537   2.374  12.505  0.0969 -0.1491  0.3507
  458MPD2    C4 6820   0.529   2.424  12.375 -0.4273 -0.3234  0.3517
  458MPD2    C5 6821   0.630   2.510  12.334  0.8851  0.8693  0.4512
  458MPD2     H 6822   0.664   2.352  12.673 -0.7749  2.6413  2.3242
  458MPD2    H1 6823   0.442   2.409  12.312  0.6327 -2.3297 -0.6362
  458MPD2    H2 6824   0.816   2.600  12.371  0.3653 -0.7267  0.5764
  458MPD2    H3 6825   0.623   2.561  12.238 -0.1941  1.4493  0.8331
  458MPD2     N 6826   0.432   2.301  12.562  0.2701  0.4691  0.6232
  458MPD2    H5 6827   0.466   2.259  12.649  0.0907 -1.2517 -0.1297
  458MPD2    N1 6828   0.882   2.494  12.606 -0.0040 -0.3963 -0.5742
  458MPD2    H7 6829   0.954   2.546  12.557 -1.5553  1.0674 -1.3069
  459TMC3    C1 6830   1.041   2.498  12.781 -0.2280 -1.1163 -0.9459
  459TMC3    C2 6831   1.113   2.606  12.726 -0.3295  0.4757 -0.2898
  459TMC3    C3 6832   1.226   2.639  12.795 -1.0140  0.6146 -0.4318
  459TMC3    C4 6833   1.083   2.427  12.887  0.1235 -0.4217 -0.0449
  459TMC3    C5 6834   1.202   2.461  12.952  0.2804  1.1491 -0.5063
  459TMC3    C6 6835   1.276   2.567  12.904 -0.2975  0.1800 -0.3203
  459TMC3     C 6836   0.910   2.450  12.729  0.5302 -0.5932  0.7148
  459TMC3     O 6837   0.844   2.389  12.814 -0.1747  0.0671 -0.0280
  459TMC3     H 6838   1.073   2.664  12.644  0.2598  2.0829  0.5642
  459TMC3    H1 6839   1.028   2.338  12.915 -3.0921  0.5339 -3.3534
  459TMC3    H2 6840   1.367   2.590  12.959 -1.9442 -0.1090  2.5541
  459TMC3    C7 6841   1.255   2.360  13.031 -0.1405  0.8053 -0.1804
  459TMC3    C8 6842   1.330   2.705  12.722  0.2819 -0.5063 -0.3277
  459TMC3    O1 6843   1.246   2.250  12.988  0.1633 -0.0212  0.0810
  459TMC3    O2 6844   1.436   2.723  12.780  0.0373  0.2488 -0.0200
  460MPD2     C 6845   0.012   4.630  10.748  0.0722 -0.3872  0.4893
  460MPD2    C1 6846   4.721   0.034  10.699  0.0221 -0.3219  0.8961
  460MPD2    C2 6847   0.006   0.063  10.563  0.1357 -0.2287 -0.1159
  460MPD2    C3 6848   0.015   4.676  10.473  0.6450  0.1837  0.1507
  460MPD2    C4 6849   0.013   4.545  10.526  0.0578 -0.6964  0.2401
  460MPD2    C5 6850   0.031   4.524  10.662 -0.3521 -0.0723 -0.0299
  460MPD2     H 6851   0.003   0.164  10.523  1.1851 -0.6427 -1.2769
  460MPD2    H1 6852   0.018   4.457  10.462 -2.4347 -1.6088  1.2698
  460MPD2    H2 6853   0.011   4.609  10.854  1.5117 -2.6273  0.0537
  460MPD2    H3 6854   0.049   4.425  10.703  1.7499  0.3129 -0.0090
  460MPD2     N 6855   4.720   4.698  10.335 -0.1099  0.1597  0.0250
  460MPD2    H5 6856   4.681   0.068  10.314 -0.2043  0.1864  0.3181
  460MPD2    N1 6857   4.716   0.133  10.795 -0.5285  0.2640 -0.2803
  460MPD2    H7 6858   4.693   0.104  10.889 -0.1576  1.2136  0.0900
  461TMC3    C1 6859   4.687   4.659  10.105 -0.7833  0.2230 -0.6837
  461TMC3    C2 6860   4.649   4.563  10.020  0.7354 -0.1632  0.6873
  461TMC3    C3 6861   4.585   4.606   9.911 -0.3681  0.0701 -0.1808
  461TMC3    C4 6862   4.671   0.070  10.085  0.5645  0.4802  0.1823
  461TMC3    C5 6863   4.604   0.112   9.976 -0.2287 -0.2426  0.3057
  461TMC3    C6 6864   4.565   0.019   9.883  0.7535 -0.0797 -0.7824
  461TMC3     C 6865   0.005   4.608  10.236 -0.1240 -0.3136  0.7887
  461TMC3     O 6866   0.039   4.488  10.242  0.1572  0.4142  0.7337
  461TMC3     H 6867   4.657   4.457  10.040  0.0693 -0.5845 -1.2472
  461TMC3    H1 6868   4.700   0.145  10.157  0.9515 -1.0974  1.6665
  461TMC3    H2 6869   4.522   0.054   9.790 -2.2044  0.4158  0.7763
  461TMC3    C7 6870   4.578   0.254   9.945  0.1196 -0.2916  0.6015
  461TMC3    C8 6871   4.546   4.504   9.815  0.6559  0.2146  0.3229
  461TMC3    O1 6872   4.550   0.282   9.831  0.4181  0.3823  0.0076
  461TMC3    O2 6873   4.609   4.401   9.816 -0.0355 -0.6072 -0.2895
  462TMC3    C1 6874   0.160   4.175  17.507 -0.0834 -0.1204  0.1204
  462TMC3    C2 6875   0.155   4.067  17.428  0.5781 -0.4710  1.2525
  462TMC3    C3 6876   0.065   3.971  17.468  0.7729 -0.4772  0.4830
  462TMC3    C4 6877   0.101   4.176  17.630 -0.5050 -0.1537 -0.0522
  462TMC3    C5 6878   4.720   4.090  17.659 -0.1682  0.0589 -0.2498
  462TMC3    C6 6879   4.705   3.980  17.575  0.3432 -0.2235 -0.6569
  462TMC3     C 6880   0.275   4.262  17.507 -0.1537 -0.3643  0.7557
  462TMC3     O 6881   0.308   4.309  17.612 -0.6722  0.1487 -0.0417
  462TMC3     H 6882   0.218   4.060  17.340 -0.0384  0.2389  0.7533
  462TMC3    H1 6883   0.118   4.257   0.012 -0.3545  0.4104 -0.7419
  462TMC3    H2 6884   4.634   3.901  17.598  0.4406 -0.5678 -1.5377
  462TMC3    C7 6885   4.619   4.114   0.065  0.1676  0.6244 -0.6480
  462TMC3    C8 6886   0.048   3.854  17.387 -0.1213 -0.4364  0.0460
  462TMC3    O1 6887   4.523   4.038   0.060  0.1504 -0.1487  0.4059
  462TMC3    O2 6888   4.690   3.768  17.425 -0.0369 -0.0467 -0.6973
  463MPD2     C 6889   0.970   4.145   2.009  0.5585  0.1096 -0.0867
  463MPD2    C1 6890   0.871   4.154   1.913  0.0013  0.3667  0.5297
  463MPD2    C2 6891   0.861   4.273   1.839  0.7491  0.4815 -0.2853
  463MPD2    C3 6892   0.952   4.375   1.856 -0.4669 -0.0731  0.4875
  463MPD2    C4 6893   1.052   4.357   1.942  0.2082 -0.1945 -0.0507
  463MPD2    C5 6894   1.056   4.250   2.030 -0.6203 -0.5491 -0.3028
  463MPD2     H 6895   0.784   4.280   1.762  0.8937  0.2208 -0.4532
  463MPD2    H1 6896   1.123   4.438   1.956  1.9845 -2.0032  1.3909
  463MPD2    H2 6897   0.982   4.055   2.069  2.1045 -1.0561 -2.1376
  463MPD2    H3 6898   1.130   4.245   2.109 -0.5682  1.4701 -0.2220
  463MPD2     N 6899   0.961   4.495   1.778  0.2341 -0.3820  0.0512
  463MPD2    H5 6900   1.037   4.560   1.793 -0.3586  0.3530 -0.1378
  463MPD2    N1 6901   0.801   4.040   1.865 -0.4985 -0.5320  0.2205
  463MPD2    H7 6902   0.736   4.045   1.787 -0.8187 -0.5150  0.4859
  464TMC3    C1 6903   0.723   3.818   1.854  0.3516  0.0416 -1.1161
  464TMC3    C2 6904   0.602   3.846   1.800 -0.3748  0.8944 -0.0213
  464TMC3    C3 6905   0.520   3.747   1.753 -0.5567 -0.3681 -0.3119
  464TMC3    C4 6906   0.752   3.686   1.875  0.0662 -0.1572 -0.3022
  464TMC3    C5 6907   0.663   3.591   1.836 -0.7140 -0.5031 -0.1453
  464TMC3    C6 6908   0.545   3.613   1.767  0.2085  0.1053 -0.4996
  464TMC3     C 6909   0.811   3.917   1.918 -0.7220 -0.5114 -0.6074
  464TMC3     O 6910   0.883   3.873   2.009 -0.5088 -0.0178  0.2163
  464TMC3     H 6911   0.581   3.952   1.788  0.3401  1.2750  2.1351
  464TMC3    H1 6912   0.849   3.668   1.920 -0.3261  0.5447  0.8174
  464TMC3    H2 6913   0.465   3.543   1.749  2.9799 -3.2032  0.1017
  464TMC3    C7 6914   0.687   3.451   1.873  0.4472  0.2846 -0.0788
  464TMC3    C8 6915   0.386   3.767   1.693  0.3797 -0.0073 -0.5088
  464TMC3    O1 6916   0.769   3.427   1.960  0.7588  0.4968 -0.1494
  464TMC3    O2 6917   0.339   3.676   1.623 -0.4202 -0.1409 -0.1113
  465MPD2     C 6918   2.698   2.383  16.762 -0.0216 -0.7059 -0.3166
  465MPD2    C1 6919   2.585   2.393  16.845 -0.7086  0.1335  0.0620
  465MPD2    C2 6920   2.463   2.431  16.796  0.6647 -0.3096  0.5085
  465MPD2    C3 6921   2.448   2.462  16.662  0.4110 -0.5379  0.4644
  465MPD2    C4 6922   2.565   2.457  16.577  0.0092 -0.1379 -0.3005
  465MPD2    C5 6923   2.689   2.421  16.629 -0.8044  0.2758  0.1139
  465MPD2     H 6924   2.379   2.440  16.863 -1.0971  0.1205 -1.7650
  465MPD2    H1 6925   2.561   2.492  16.475 -1.3139  0.8304  0.0742
  465MPD2    H2 6926   2.799   2.352  16.787 -0.1812 -1.2868 -0.4016
  465MPD2    H3 6927   2.777   2.427  16.565 -0.4543  0.9339  0.6627
  465MPD2     N 6928   2.325   2.499  16.615 -0.4929  0.7400 -0.3182
  465MPD2    H5 6929   2.250   2.505  16.684  1.8176  1.8957  2.0822
  465MPD2    N1 6930   2.599   2.370  16.986  0.4006 -0.1332  0.0530
  465MPD2    H7 6931   2.519   2.394  17.042  1.3064  0.7519  0.9753
  466TMC3    C1 6932   1.946   2.483  16.589 -1.0747 -0.2315 -0.6939
  466TMC3    C2 6933   1.880   2.578  16.518  0.0321  0.1494  0.4208
  466TMC3    C3 6934   1.955   2.648  16.425 -0.1448 -0.0693 -1.1679
  466TMC3    C4 6935   2.072   2.436  16.556  0.9786  0.3671 -0.0467
  466TMC3    C5 6936   2.146   2.513  16.474  0.3333  0.3239 -0.0410
  466TMC3    C6 6937   2.087   2.617  16.403 -0.0096 -0.6826  0.0023
  466TMC3     C 6938   1.887   2.468  16.718  0.4958  0.3323 -0.4636
  466TMC3     O 6939   1.805   2.556  16.749 -0.1792 -0.0327 -0.2899
  466TMC3     H 6940   1.772   2.586  16.528 -0.1245 -2.8485  1.1586
  466TMC3    H1 6941   2.125   2.362  16.615 -0.2073 -0.3258  0.1538
  466TMC3    H2 6942   2.150   2.679  16.341 -1.3406 -0.2360 -0.9002
  466TMC3    C7 6943   2.289   2.506  16.487  0.6362 -0.5047 -0.1911
  466TMC3    C8 6944   1.897   2.757  16.349 -0.1200  0.1797 -0.1414
  466TMC3    O1 6945   2.358   2.495  16.388 -0.5843  0.2196  0.1661
  466TMC3    O2 6946   1.956   2.796  16.252  0.0845 -0.2202  0.1696
  467TMC3    C1 6947   2.770   1.437  13.518 -0.3421 -0.0120  0.7493
  467TMC3    C2 6948   2.782   1.430  13.386 -0.4651  0.1191 -0.7960
  467TMC3    C3 6949   2.681   1.460  13.300  0.0655 -0.1766 -0.1503
  467TMC3    C4 6950   2.647   1.475  13.563  0.6602  0.4582 -0.2632
  467TMC3    C5 6951   2.548   1.498  13.477 -0.4503  0.3012  0.4856
  467TMC3    C6 6952   2.559   1.495  13.342 -0.4002  0.7234  0.1350
  467TMC3     C 6953   2.890   1.434  13.603  0.3933 -0.0774 -0.8340
  467TMC3     O 6954   2.891   1.496  13.706  0.1634 -0.2801  0.7787
  467TMC3     H 6955   2.878   1.415  13.339 -0.3984 -2.9981  0.2831
  467TMC3    H1 6956   2.625   1.494  13.668  0.7225 -1.5833  0.1059
  467TMC3    H2 6957   2.493   1.528  13.263 -1.6608 -1.2869  0.3365
  467TMC3    C7 6958   2.436   1.572  13.518  0.5215  0.5854 -0.0407
  467TMC3    C8 6959   2.724   1.508  13.166 -0.1876 -0.3696 -1.0214
  467TMC3    O1 6960   2.391   1.654  13.443  0.1383 -0.5685  0.4421
  467TMC3    O2 6961   2.654   1.488  13.070  0.2147  0.0096  0.2833
  468MPD2     C 6962   2.063   4.673  10.776 -0.3132 -0.1109 -0.0375
  468MPD2    C1 6963   2.147   0.003  10.877  0.7213 -1.3036  0.2602
  468MPD2    C2 6964   2.136   4.671  11.007  0.1263  0.2344 -0.0575
  468MPD2    C3 6965   2.037   4.582  11.030  0.8414 -0.2468  0.4538
  468MPD2    C4 6966   1.944   4.552  10.937  0.5590 -0.1733  0.5014
  468MPD2    C5 6967   1.955   4.599  10.809  0.3229 -0.3647 -0.3432
  468MPD2     H 6968   2.202   4.717  11.080 -0.7794 -0.7654  1.3841
  468MPD2    H1 6969   1.856   4.495  10.965  0.1580 -0.0810 -0.5693
  468MPD2    H2 6970   2.066   4.707  10.673 -0.9839  4.6372  1.5025
  468MPD2    H3 6971   1.899   4.571  10.720  2.3829  0.3853 -1.8764
  468MPD2     N 6972   2.032   4.517  11.155  0.9188 -0.5152  0.2528
  468MPD2    H5 6973   1.963   4.443  11.160  1.5094 -1.1797 -1.6044
  468MPD2    N1 6974   2.241   0.103  10.854 -0.2218 -0.6424 -0.5878
  468MPD2    H7 6975   2.292   0.136  10.936 -0.7434  2.0022 -1.3597
  469TMC3    C1 6976   2.379   0.261  10.747  0.0147 -0.0284 -0.4853
  469TMC3    C2 6977   2.492   0.227  10.824 -0.1525  0.3784  0.8016
  469TMC3    C3 6978   2.608   0.294  10.806 -0.1724  0.3111 -0.0546
  469TMC3    C4 6979   2.386   0.362  10.660  0.1938 -0.4004 -0.1409
  469TMC3    C5 6980   2.503   0.435  10.644 -0.6667  0.0310  0.6274
  469TMC3    C6 6981   2.616   0.400  10.717  0.0734  0.1297  0.8286
  469TMC3     C 6982   2.265   0.170  10.739  0.2154 -0.5998 -0.3532
  469TMC3     O 6983   2.200   0.172  10.636 -0.0193 -0.9292  0.1342
  469TMC3     H 6984   2.487   0.138  10.886 -0.9469 -0.9945 -1.2636
  469TMC3    H1 6985   2.309   0.364  10.583  0.3798  0.6532 -0.3012
  469TMC3    H2 6986   2.706   0.460  10.717  1.2058 -1.5637 -1.4009
  469TMC3    C7 6987   2.476   0.570  10.660  0.4994  0.5087 -0.1223
  469TMC3    C8 6988   2.707   0.294  10.908 -0.8104 -0.1505 -0.1692
  469TMC3    O1 6989   2.570   0.640  10.683 -1.1213  0.0044  0.2917
  469TMC3    O2 6990   2.810   0.358  10.884 -0.1524 -0.6062 -0.2907
  470TMC3    C1 6991   4.049   0.307   1.046 -0.3298  0.4916  0.1989
  470TMC3    C2 6992   3.947   0.392   1.078  0.4398 -0.0843 -0.7659
  470TMC3    C3 6993   3.927   0.424   1.207 -0.7807 -0.4567  0.3545
  470TMC3    C4 6994   4.121   0.239   1.143  0.0075 -0.0809 -0.4367
  470TMC3    C5 6995   4.081   0.264   1.268  0.2961  0.6232  0.6085
  470TMC3    C6 6996   3.978   0.347   1.307 -0.1838  0.1756  0.4397
  470TMC3     C 6997   4.085   0.290   0.906  0.8086  0.3030  1.1238
  470TMC3     O 6998   4.164   0.193   0.885 -0.7859 -0.0213 -0.0993
  470TMC3     H 6999   3.882   0.439   1.005  1.0744  3.2223  0.8134
  470TMC3    H1 7000   4.197   0.168   1.111  0.9607  0.5522  0.4494
  470TMC3    H2 7001   3.976   0.374   1.412 -1.3353 -0.2305  0.5191
  470TMC3    C7 7002   4.130   0.180   1.370 -0.2421 -0.5808  0.0896
  470TMC3    C8 7003   3.805   0.509   1.235  0.0778  0.2167  0.2082
  470TMC3    O1 7004   4.242   0.132   1.361 -0.2463 -0.1579  0.1350
  470TMC3    O2 7005   3.720   0.514   1.145 -0.0187  0.0053 -0.0069
  471MPD2     C 7006   4.629   1.541  17.173 -0.1169 -0.0200  0.6207
  471MPD2    C1 7007   4.567   1.477  17.272 -0.3877  0.5614 -0.0602
  471MPD2    C2 7008   4.642   1.404  17.354 -0.1737  0.1435 -0.0630
  471MPD2    C3 7009   0.063   1.389  17.340  0.5377  0.3998  1.1237
  471MPD2    C4 7010   0.123   1.457  17.236 -0.0363  0.1919 -0.3870
  471MPD2    C5 7011   0.043   1.540  17.162  0.6883 -0.2245 -0.2302
  471MPD2     H 7012   4.589   1.342  17.426 -0.6894 -0.2791 -0.8161
  471MPD2    H1 7013   0.225   1.442  17.201  0.7170 -0.9314  2.3101
  471MPD2    H2 7014   4.576   1.594  17.095 -0.2558  0.7858  1.2634
  471MPD2    H3 7015   0.089   1.599  17.084  0.2687  0.4106  0.0092
  471MPD2     N 7016   0.141   1.288  17.411 -0.1646 -0.7389  0.1764
  471MPD2    H5 7017   0.238   1.279  17.383 -0.0147  1.6844 -0.0559
  471MPD2    N1 7018   4.425   1.458  17.283  0.1153 -0.3202 -0.1707
  471MPD2    H7 7019   4.393   1.415  17.369 -0.4860  0.5007  0.0140
  472TMC3    C1 7020   4.213   1.426  17.193 -0.3872 -0.2822 -0.0302
  472TMC3    C2 7021   4.117   1.480  17.116  0.0935 -0.1007  0.1454
  472TMC3    C3 7022   4.022   1.399  17.062 -0.0306 -0.0390  0.9272
  472TMC3    C4 7023   4.222   1.293  17.217  0.4631 -0.4327 -0.2111
  472TMC3    C5 7024   4.138   1.214  17.144 -0.0134 -0.0255  0.1245
  472TMC3    C6 7025   4.036   1.262  17.069 -0.1242 -0.4290 -0.2318
  472TMC3     C 7026   4.333   1.499  17.187  0.3577  0.5014  1.2077
  472TMC3     O 7027   4.339   1.580  17.097 -0.2721 -0.7043 -0.0455
  472TMC3     H 7028   4.121   1.583  17.083  0.1043 -0.2223 -0.2441
  472TMC3    H1 7029   4.297   1.253  17.285  0.8819 -0.2082 -0.5403
  472TMC3    H2 7030   3.973   1.192  17.016 -2.6768  1.1479  0.6945
  472TMC3    C7 7031   4.194   1.085  17.097 -0.4862 -0.0237  0.1616
  472TMC3    C8 7032   3.929   1.456  16.966 -0.3814 -0.3132 -0.5866
  472TMC3    O1 7033   4.244   1.027  17.190  0.3304 -0.2238  0.0895
  472TMC3    O2 7034   3.950   1.568  16.927  0.1571  0.0563  0.1241
  473MPD2     C 7035   4.039   3.657  13.852 -0.5224  0.2492  0.3214
  473MPD2    C1 7036   4.147   3.723  13.806  0.1331  0.3559 -0.1214
  473MPD2    C2 7037   4.256   3.754  13.890  0.5760  0.1501  0.4365
  473MPD2    C3 7038   4.241   3.714  14.024  0.7934 -0.1550  0.5493
  473MPD2    C4 7039   4.142   3.638  14.068  0.2438 -0.3930  0.0367
  473MPD2    C5 7040   4.039   3.608  13.984 -0.9509  0.4634  0.3818
  473MPD2     H 7041   4.327   3.829  13.861  1.1269 -0.9242 -0.9906
  473MPD2    H1 7042   4.143   3.602  14.170 -1.4232  0.3507  0.3125
  473MPD2    H2 7043   3.946   3.640  13.798  0.2938 -1.8346 -0.4308
  473MPD2    H3 7044   3.957   3.543  14.013  0.7948 -1.3562  1.2633
  473MPD2     N 7045   4.329   3.754  14.130  0.2561 -0.2728  0.0086
  473MPD2    H5 7046   4.308   3.710  14.220 -1.3406 -1.2706 -0.8417
  473MPD2    N1 7047   4.150   3.773  13.673 -0.0735 -0.6268  0.3568
  473MPD2    H7 7048   4.224   3.842  13.663  0.3031 -1.2639 -1.1091
  474TMC3    C1 7049   4.462   3.898  14.255 -0.4172 -0.1185  0.3173
  474TMC3    C2 7050   4.350   3.920  14.328 -0.3241  0.3443 -0.0225
  474TMC3    C3 7051   4.353   3.987  14.445 -0.3689 -0.4738  0.6586
  474TMC3    C4 7052   4.589   3.936  14.296  0.3533  0.1324  0.2595
  474TMC3    C5 7053   4.587   3.987  14.431 -0.1403 -0.6257  0.0670
  474TMC3    C6 7054   4.474   4.018  14.501  0.3721  0.3127 -0.8276
  474TMC3     C 7055   4.443   3.840  14.125  0.3878  0.8443  0.0820
  474TMC3     O 7056   4.527   3.875  14.037 -0.2182 -0.1504 -0.3572
  474TMC3     H 7057   4.248   3.908  14.292 -0.5148  0.2717  0.5418
  474TMC3    H1 7058   4.676   3.901  14.240 -0.9703 -0.0650 -1.6695
  474TMC3    H2 7059   4.472   4.029  14.609 -0.2574 -0.9586 -0.7008
  474TMC3    C7 7060   4.713   4.009  14.490 -0.3243 -0.3536  0.5241
  474TMC3    C8 7061   4.230   4.047  14.494 -0.3027 -0.0670 -0.9355
  474TMC3    O1 7062   0.079   3.972  14.410 -0.3476  0.8996  0.4550
  474TMC3    O2 7063   4.125   3.985  14.460  0.0424  0.2171 -0.3913
  475MPD2     C 7064   3.271   2.486   9.757 -0.2033  0.2430 -0.2153
  475MPD2    C1 7065   3.354   2.555   9.836 -0.1202 -0.3432  1.0476
  475MPD2    C2 7066   3.319   2.580   9.966  0.1278 -0.1008  0.6159
  475MPD2    C3 7067   3.201   2.530  10.019  0.2674 -0.2453 -0.0781
  475MPD2    C4 7068   3.125   2.445   9.941 -0.0448 -0.8787  0.0426
  475MPD2    C5 7069   3.162   2.423   9.809 -0.1030  0.6171 -0.0251
  475MPD2     H 7070   3.384   2.633  10.035 -1.3183 -0.1289  1.9715
  475MPD2    H1 7071   3.024   2.420   9.973 -1.0720  0.9277 -1.8284
  475MPD2    H2 7072   3.298   2.468   9.654  0.7333  0.9312 -0.0908
  475MPD2    H3 7073   3.102   2.365   9.740 -2.8157  0.9933  2.0006
  475MPD2     N 7074   3.160   2.575  10.147 -0.0096  0.4142 -0.0277
  475MPD2    H5 7075   3.221   2.636  10.202 -1.0589 -0.2227  1.8196
  475MPD2    N1 7076   3.481   2.583   9.776 -0.2855 -0.4564 -0.3018
  475MPD2    H7 7077   3.502   2.523   9.697  0.4765 -0.5851 -0.0013
  476TMC3    C1 7078   3.567   2.745   9.937 -0.1111 -0.0482  0.2791
  476TMC3    C2 7079   3.471   2.842   9.937  0.6869  0.0024 -0.3280
  476TMC3    C3 7080   3.471   2.928  10.039 -0.3669 -0.0020 -0.0916
  476TMC3    C4 7081   3.665   2.740  10.029  0.0403 -0.1047  0.0464
  476TMC3    C5 7082   3.664   2.828  10.133  0.0459 -0.5953 -0.2139
  476TMC3    C6 7083   3.563   2.927  10.140 -0.1812  0.6934 -0.1016
  476TMC3     C 7084   3.589   2.657   9.825 -0.2370 -0.1808  0.3680
  476TMC3     O 7085   3.701   2.653   9.773 -0.4031  0.5964 -0.6138
  476TMC3     H 7086   3.405   2.838   9.850  0.9417  1.6522 -0.6005
  476TMC3    H1 7087   3.748   2.673  10.012 -0.7172 -1.0125 -0.1060
  476TMC3    H2 7088   3.541   2.985  10.229  1.9287  1.0017  0.2177
  476TMC3    C7 7089   3.735   2.776  10.245 -0.4677  0.1466 -0.1226
  476TMC3    C8 7090   3.342   2.985  10.079 -0.3278  0.1097  0.0098
  476TMC3    O1 7091   3.794   2.672  10.239 -0.4352  0.0641 -0.1523
  476TMC3    O2 7092   3.344   3.086  10.146  0.4761 -0.3036  1.1967
  477MPD2     C 7093   0.681   4.376  11.836 -0.4950 -0.4014  0.0011
  477MPD2    C1 7094   0.639   4.283  11.747  0.0177  0.2041 -0.0994
  477MPD2    C2 7095   0.629   4.149  11.781 -0.3453  0.7516  0.2829
  477MPD2    C3 7096   0.649   4.117  11.919  0.2821 -0.1263 -0.1020
  477MPD2    C4 7097   0.691   4.217  12.004  0.6540 -0.5566 -0.6173
  477MPD2    C5 7098   0.704   4.344  11.964  0.1216 -0.2920 -0.4722
  477MPD2     H 7099   0.592   4.075  11.711 -0.0416 -0.8356  1.8085
  477MPD2    H1 7100   0.713   4.197  12.109 -0.0595  0.8348 -0.2052
  477MPD2    H2 7101   0.713   4.476  11.806 -1.4755  1.3235  4.7449
  477MPD2    H3 7102   0.728   4.424  12.033 -2.1548 -0.3608  0.4048
  477MPD2     N 7103   0.634   3.982  11.968 -0.3864 -0.3658 -0.0262
  477MPD2    H5 7104   0.664   3.967  12.064  0.9453 -1.1774 -0.5613
  477MPD2    N1 7105   0.598   4.331  11.629 -0.5065  0.0171  0.0676
  477MPD2    H7 7106   0.611   4.429  11.606 -0.3699 -0.3582 -1.4811
  478TMC3    C1 7107   0.411   4.345  11.478  0.6116 -0.1818  0.4520
  478TMC3    C2 7108   0.387   4.467  11.531 -0.1427 -0.4058  0.1484
  478TMC3    C3 7109   0.289   4.545  11.482 -0.5331  0.5806 -0.0596
  478TMC3    C4 7110   0.345   4.303  11.367 -0.5674 -0.0887 -0.4047
  478TMC3    C5 7111   0.243   4.387  11.322  0.2751  0.6786 -0.3339
  478TMC3    C6 7112   0.205   4.498  11.388 -0.4135  0.5266  0.4882
  478TMC3     C 7113   0.511   4.260  11.542  0.3930  0.0951 -0.0617
  478TMC3     O 7114   0.508   4.139  11.526  0.2028 -0.0896  0.3243
  478TMC3     H 7115   0.439   4.488  11.624 -0.1870  1.3131 -0.2180
  478TMC3    H1 7116   0.380   4.224  11.302  2.4210  0.3000  0.7642
  478TMC3    H2 7117   0.115   4.555  11.370 -0.5425  0.7774  1.8835
  478TMC3    C7 7118   0.140   4.314  11.253  0.4593  0.0403  0.4134
  478TMC3    C8 7119   0.248   4.645  11.577  0.5213  0.4389  0.3914
  478TMC3    O1 7120   0.122   4.200  11.293 -0.3380 -0.2642 -0.7283
  478TMC3    O2 7121   0.222   4.601  11.688  0.2095  0.1116  0.1774
  479MPD2     C 7122   3.873   1.105  14.885 -0.0738 -0.1278  0.1084
  479MPD2    C1 7123   3.817   1.032  14.995 -0.0767 -0.4530 -0.4617
  479MPD2    C2 7124   3.893   1.025  15.107  0.0858 -0.7030 -0.1063
  479MPD2    C3 7125   4.012   1.095  15.118  0.1644  0.7101  0.6509
  479MPD2    C4 7126   4.057   1.173  15.015 -0.3761 -0.2190 -0.1234
  479MPD2    C5 7127   3.990   1.172  14.901 -0.7666  0.3472  0.8454
  479MPD2     H 7128   3.864   0.959  15.187 -0.3268  0.3076  0.5869
  479MPD2    H1 7129   4.151   1.228  15.017 -0.7344  0.3109  2.5883
  479MPD2    H2 7130   3.817   1.106  14.792 -0.1250 -0.1853  0.1390
  479MPD2    H3 7131   4.018   1.233  14.816  1.9973 -1.2322  0.6552
  479MPD2     N 7132   4.096   1.094  15.233  0.5128  0.1562  0.5995
  479MPD2    H5 7133   4.191   1.127  15.226  0.8273 -0.8225  0.2749
  479MPD2    N1 7134   3.685   0.982  14.979  0.2638  0.0473  0.4984
  479MPD2    H7 7135   3.653   0.979  14.883  0.0556  4.3760  0.4283
  480TMC3    C1 7136   3.808   0.948  15.586 -0.4089 -0.1092 -0.3299
  480TMC3    C2 7137   3.722   1.054  15.572  0.1042 -0.4023  0.1017
  480TMC3    C3 7138   3.740   1.146  15.477 -0.0483 -0.0333 -0.5187
  480TMC3    C4 7139   3.906   0.925  15.493 -0.4074 -0.0520 -0.4770
  480TMC3    C5 7140   3.932   1.023  15.398  0.5243 -0.4019 -0.5649
  480TMC3    C6 7141   3.852   1.138  15.392 -0.6964 -0.0519  0.5392
  480TMC3     C 7142   3.790   0.849  15.690 -0.1518 -0.3167  0.4409
  480TMC3     O 7143   3.818   0.736  15.657 -0.2870 -0.4439  0.0714
  480TMC3     H 7144   3.637   1.059  15.639  0.6228  2.1674  0.5493
  480TMC3    H1 7145   3.966   0.835  15.495  0.3532  0.4917  0.6817
  480TMC3    H2 7146   3.877   1.210  15.315 -2.2776 -0.0549  0.0262
  480TMC3    C7 7147   4.065   1.041  15.357 -0.3621  0.4257  0.2218
  480TMC3    C8 7148   3.618   1.172  15.402  0.3597 -0.2380  0.2408
  480TMC3    O1 7149   4.141   1.012  15.449  0.0287  0.0976 -0.4092
  480TMC3    O2 7150   3.516   1.169  15.470  0.1697 -0.1587 -0.2557
  481MPD2     C 7151   0.768   0.584  14.140 -0.1955  0.4215 -0.1483
  481MPD2    C1 7152   0.658   0.497  14.163  0.3533  0.4170 -0.4559
  481MPD2    C2 7153   0.645   0.431  14.284  0.6834 -0.0120 -0.2927
  481MPD2    C3 7154   0.746   0.453  14.382 -0.5293 -0.5758 -0.5667
  481MPD2    C4 7155   0.850   0.543  14.361  0.6422 -0.1932  0.2845
  481MPD2    C5 7156   0.863   0.604  14.239  0.0213  0.4013 -0.0053
  481MPD2     H 7157   0.567   0.357  14.297  1.7715 -2.1562 -6.2003
  481MPD2    H1 7158   0.925   0.555  14.439  0.4560  0.0342  0.4288
  481MPD2    H2 7159   0.791   0.632  14.045  1.1875 -0.1621 -0.1129
  481MPD2    H3 7160   0.936   0.680  14.213  0.4893  0.1690  0.6416
  481MPD2     N 7161   0.736   0.405  14.514 -0.6819 -1.0864  0.2441
  481MPD2    H5 7162   0.810   0.442  14.572 -1.1826  1.1592 -0.5846
  481MPD2    N1 7163   0.557   0.494  14.062 -0.4130  0.7956  0.1009
  481MPD2    H7 7164   0.580   0.547  13.979  0.6020  0.7365  0.3499
  482TMC3    C1 7165   0.361   0.420  13.948  0.2672 -0.3484  0.2424
  482TMC3    C2 7166   0.279   0.310  13.924 -0.1176  0.2896 -0.2655
  482TMC3    C3 7167   0.223   0.295  13.800  0.3349 -0.3077 -0.5640
  482TMC3    C4 7168   0.361   0.532  13.864  0.1831  0.0815  0.6309
  482TMC3    C5 7169   0.289   0.520  13.748  0.2123  0.1922  0.5060
  482TMC3    C6 7170   0.228   0.402  13.713  0.5250 -0.3010 -0.0423
  482TMC3     C 7171   0.437   0.426  14.070 -0.6043  0.0281 -0.1637
  482TMC3     O 7172   0.398   0.357  14.158 -0.1416 -0.1576  0.1035
  482TMC3     H 7173   0.272   0.227  13.993  1.1663  1.0141  0.7381
  482TMC3    H1 7174   0.395   0.628  13.901  1.4763  0.3357 -1.1844
  482TMC3    H2 7175   0.193   0.383  13.613 -0.4966  0.0474  0.2450
  482TMC3    C7 7176   0.241   0.633  13.678 -0.0004  0.4506  0.5659
  482TMC3    C8 7177   0.167   0.167  13.763 -0.1359 -0.0742 -0.2071
  482TMC3    O1 7178   0.135   0.626  13.617 -0.5599 -0.0228 -0.3500
  482TMC3    O2 7179   0.199   0.069  13.830 -0.4624  0.1956  0.2303
  483TMC3    C1 7180   3.732   3.978   1.508  0.0212  0.0101 -0.5639
  483TMC3    C2 7181   3.696   3.958   1.380 -1.2920  0.8342 -0.2394
  483TMC3    C3 7182   3.791   3.936   1.282 -0.0052  0.4149 -0.4217
  483TMC3    C4 7183   3.865   3.961   1.549  0.1948  0.2499 -0.4037
  483TMC3    C5 7184   3.945   3.922   1.452 -0.0726  0.3728 -0.1148
  483TMC3    C6 7185   3.921   3.921   1.322  0.4031  0.0652 -0.4971
  483TMC3     C 7186   3.633   3.950   1.609 -0.1573 -0.7750 -0.4811
  483TMC3     O 7187   3.645   3.987   1.726 -0.2993 -0.9844 -0.4566
  483TMC3     H 7188   3.595   3.981   1.346 -1.5761 -0.3324 -0.1883
  483TMC3    H1 7189   3.895   3.955   1.653 -1.5575 -1.7721 -0.0033
  483TMC3    H2 7190   4.006   3.923   1.254  0.2134  1.3146 -0.7014
  483TMC3    C7 7191   4.067   3.865   1.486  0.6849 -0.1882  0.3585
  483TMC3    C8 7192   3.758   3.939   1.147  0.5531  0.2457  1.2282
  483TMC3    O1 7193   4.102   3.771   1.411  0.5389 -0.2064  0.1155
  483TMC3    O2 7194   3.854   3.945   1.073 -0.0787 -0.1205  0.0784
  484MPD2     C 7195   1.327   2.864  12.396  0.2192 -0.0245 -0.1459
  484MPD2    C1 7196   1.381   2.818  12.511 -0.5849 -0.0218 -0.3906
  484MPD2    C2 7197   1.523   2.817  12.519  0.5060  0.2974 -0.1080
  484MPD2    C3 7198   1.596   2.847  12.410 -0.2560 -0.1652  0.2347
  484MPD2    C4 7199   1.532   2.913  12.306  1.3254  1.3492  0.4648
  484MPD2    C5 7200   1.396   2.923  12.300  0.4458 -0.1342  0.4277
  484MPD2     H 7201   1.570   2.782  12.610  0.1507 -0.1963 -0.1127
  484MPD2    H1 7202   1.584   2.937  12.215  2.5002  0.6404  0.9474
  484MPD2    H2 7203   1.223   2.849  12.368 -0.2094 -0.5889  1.7481
  484MPD2    H3 7204   1.351   2.972  12.214  1.0477 -1.3865 -0.5953
  484MPD2     N 7205   1.737   2.828  12.400 -0.0592 -0.3144  0.9914
  484MPD2    H5 7206   1.791   2.881  12.332  0.6732  1.2621  2.8135
  484MPD2    N1 7207   1.291   2.760  12.601  0.3437  0.0225 -0.2292
  484MPD2    H7 7208   1.196   2.752  12.568  1.2077 -2.2426 -2.2353
  485TMC3    C1 7209   1.959   2.784  12.479  0.0265 -0.1593  0.3518
  485TMC3    C2 7210   2.045   2.719  12.565 -0.1225  0.4624 -0.9565
  485TMC3    C3 7211   2.183   2.758  12.562  0.1752  0.3323  0.7592
  485TMC3    C4 7212   2.001   2.845  12.370  0.5843 -0.1148  0.0106
  485TMC3    C5 7213   2.136   2.886  12.371 -0.4174  0.4326 -0.0104
  485TMC3    C6 7214   2.224   2.851  12.471  0.3908  0.2433 -0.8490
  485TMC3     C 7215   1.813   2.745  12.479 -0.2299 -0.1603  0.7219
  485TMC3     O 7216   1.778   2.659  12.559  0.5319 -0.5103 -0.0776
  485TMC3     H 7217   1.998   2.651  12.634  1.4894  0.3880  0.0633
  485TMC3    H1 7218   1.943   2.875  12.283  2.4648  2.1025 -0.4705
  485TMC3    H2 7219   2.326   2.887  12.473  0.9332 -1.2492 -1.6720
  485TMC3    C7 7220   2.194   2.879  12.236  0.2064  0.2251 -0.0897
  485TMC3    C8 7221   2.279   2.650  12.566  0.2168  0.3697  0.1206
  485TMC3    O1 7222   2.124   2.914  12.140 -0.0270 -0.4389  0.0093
  485TMC3    O2 7223   2.380   2.668  12.501  0.5907  0.1302  0.1046
  486MPD2     C 7224   3.266   0.915  12.524 -0.2173  0.7651  0.3144
  486MPD2    C1 7225   3.348   0.981  12.430  0.1082 -0.4961 -0.6403
  486MPD2    C2 7226   3.302   1.099  12.378 -0.0682  0.7990  0.6994
  486MPD2    C3 7227   3.193   1.159  12.425 -0.0228 -0.5207  0.2569
  486MPD2    C4 7228   3.119   1.100  12.520  0.3782 -0.1252  0.7096
  486MPD2    C5 7229   3.150   0.973  12.562 -1.2981 -0.0696 -0.0565
  486MPD2     H 7230   3.383   1.151  12.327  4.0199 -3.0668  3.2349
  486MPD2    H1 7231   3.034   1.149  12.566 -1.9881 -2.5647 -1.0339
  486MPD2    H2 7232   3.300   0.822  12.566  0.1548  0.8286  0.1561
  486MPD2    H3 7233   3.090   0.932  12.642 -1.8433  1.9077  0.5605
  486MPD2     N 7234   3.167   1.291  12.376  0.4758  0.6094 -0.3136
  486MPD2    H5 7235   3.230   1.321  12.302  1.4157 -1.5452 -0.3920
  486MPD2    N1 7236   3.473   0.919  12.405 -0.0389 -0.2978 -0.4223
  486MPD2    H7 7237   3.506   0.846  12.467  0.6428 -0.0514 -0.4837
  487TMC3    C1 7238   3.656   0.846  12.282 -0.1638  0.4149  0.8828
  487TMC3    C2 7239   3.639   0.730  12.356  0.7859  0.8405 -0.2558
  487TMC3    C3 7240   3.728   0.697  12.455  0.3441  0.0399 -0.3374
  487TMC3    C4 7241   3.773   0.914  12.286  0.1134 -0.7795 -0.2797
  487TMC3    C5 7242   3.870   0.879  12.387  0.5673  0.5507 -0.3673
  487TMC3    C6 7243   3.846   0.765  12.464 -0.6126  0.7545 -0.0157
  487TMC3     C 7244   3.552   0.949  12.294  0.8992  0.3586 -0.1462
  487TMC3     O 7245   3.549   1.047  12.222 -0.3290 -0.3710  0.3311
  487TMC3     H 7246   3.542   0.683  12.353 -0.1300  2.5953  2.4527
  487TMC3    H1 7247   3.784   0.985  12.204  0.5519 -0.0674  0.4053
  487TMC3    H2 7248   3.902   0.761  12.556  0.0194  0.5831 -0.4056
  487TMC3    C7 7249   3.919   1.000  12.457 -0.0860  0.8598  0.2782
  487TMC3    C8 7250   3.656   0.660  12.569  0.4047  0.8285  0.1606
  487TMC3    O1 7251   4.023   0.986  12.518  0.0348  0.4766  0.1601
  487TMC3    O2 7252   3.563   0.734  12.588  0.3104  0.4563 -0.0675
  488MPD2     C 7253   3.899   2.394  16.769 -0.0583  0.7140  0.3601
  488MPD2    C1 7254   3.851   2.524  16.786  0.5863  0.3263 -0.1872
  488MPD2    C2 7255   3.841   2.581  16.916  0.1901 -0.2486 -0.0996
  488MPD2    C3 7256   3.878   2.503  17.032 -0.0629  0.2795  0.8353
  488MPD2    C4 7257   3.927   2.379  17.012  0.5346  0.0171  0.6065
  488MPD2    C5 7258   3.935   2.324  16.886 -0.4491  0.3045 -0.0508
  488MPD2     H 7259   3.813   2.685  16.929  2.3458  0.0924  1.8007
  488MPD2    H1 7260   3.966   2.315  17.091  0.1352 -0.6099  0.2959
  488MPD2    H2 7261   3.897   2.341  16.675  1.3232  1.5930 -0.1664
  488MPD2    H3 7262   3.968   2.220  16.890 -0.4156  0.2885 -0.7462
  488MPD2     N 7263   3.868   2.572  17.159  0.5780  0.1026 -0.0491
  488MPD2    H5 7264   3.847   2.672  17.154  0.0158 -0.1272 -2.5151
  488MPD2    N1 7265   3.811   2.615  16.677 -0.3389  0.6048 -0.3550
  488MPD2    H7 7266   3.759   2.693  16.715  1.0047  2.3729 -2.1462
  489TMC3    C1 7267   3.875   2.598  17.392  0.6844 -0.2017 -0.1579
  489TMC3    C2 7268   3.760   2.670  17.393 -0.0053  0.0579  0.1089
  489TMC3    C3 7269   3.738   2.742  17.512 -0.0640  0.2439  0.1951
  489TMC3    C4 7270   3.949   2.568  17.501 -0.7475 -0.4108  0.1807
  489TMC3    C5 7271   3.927   2.642  17.611 -0.3680 -0.4448  0.3099
  489TMC3    C6 7272   3.824   2.728  17.622 -0.4216 -0.1586 -0.0911
  489TMC3     C 7273   3.899   2.513  17.277  0.3559  0.3514 -0.8082
  489TMC3     O 7274   3.934   2.400  17.301  0.1118 -0.1488 -0.4118
  489TMC3     H 7275   3.688   2.667  17.312 -0.6991  2.5496  0.6072
  489TMC3    H1 7276   4.038   2.507  17.490 -0.4401  0.1875 -0.6067
  489TMC3    H2 7277   3.804   2.792   0.020  1.3990  0.2348  0.0389
  489TMC3    C7 7278   4.015   2.609   0.040 -0.4743 -0.1479 -0.0188
  489TMC3    C8 7279   3.653   2.853  17.498  0.3264 -0.0868 -0.3709
  489TMC3    O1 7280   4.072   2.500   0.031 -0.2135  0.6909 -0.3064
  489TMC3    O2 7281   3.629   2.909  17.606 -0.0604  0.0361  0.8272
  490MPD2     C 7282   4.327   1.897  17.322 -0.0921 -0.2676  0.1742
  490MPD2    C1 7283   4.301   1.815  17.424 -0.4576 -0.7571 -0.4876
  490MPD2    C2 7284   4.404   1.776  17.508  0.5707  0.5149  0.8683
  490MPD2    C3 7285   4.539   1.812  17.470  0.5647  0.0074  0.5121
  490MPD2    C4 7286   4.560   1.881  17.347 -0.0349  0.3127  0.0108
  490MPD2    C5 7287   4.451   1.925  17.282  0.2316 -0.2350  0.1012
  490MPD2     H 7288   4.371   1.736  17.603  1.6381  0.4534  1.2134
  490MPD2    H1 7289   4.660   1.910  17.315 -0.0056  0.7125  0.4662
  490MPD2    H2 7290   4.244   1.940  17.265 -1.1954 -1.3960  0.9361
  490MPD2    H3 7291   4.473   1.977  17.190 -1.0709  0.9613  0.4565
  490MPD2     N 7292   4.658   1.780  17.545  0.4804  0.4153 -0.2728
  490MPD2    H5 7293   0.029   1.782  17.504  0.4216  0.2859 -0.4163
  490MPD2    N1 7294   4.173   1.756  17.452  0.1506  0.1578  0.0457
  490MPD2    H7 7295   4.175   1.687  17.526 -2.3358 -0.9727 -0.9509
  491TMC3    C1 7296   3.959   1.670  17.401 -0.0152  1.4712 -0.0024
  491TMC3    C2 7297   3.967   1.590  17.516  0.1081 -0.1676  0.4577
  491TMC3    C3 7298   3.870   1.495  17.532  0.4090  0.5423 -0.2021
  491TMC3    C4 7299   3.874   1.647  17.300 -0.2442 -0.3957 -0.4328
  491TMC3    C5 7300   3.787   1.550  17.316 -0.5744  0.5399 -0.2849
  491TMC3    C6 7301   3.781   1.481  17.430 -0.1590 -0.7266  0.6160
  491TMC3     C 7302   4.065   1.768  17.366  0.8329 -0.5049  0.9034
  491TMC3     O 7303   4.040   1.829  17.263  0.1364  0.3927  0.2986
  491TMC3     H 7304   4.020   1.632  17.600  1.5562  0.5176 -0.8036
  491TMC3    H1 7305   3.880   1.702  17.206  0.7749 -2.6345 -1.6874
  491TMC3    H2 7306   3.701   1.411  17.450 -0.6216 -1.1398 -2.7093
  491TMC3    C7 7307   3.671   1.541  17.224  0.4238  0.5533 -0.8782
  491TMC3    C8 7308   3.825   1.474  17.670 -0.0388 -0.6347  0.4817
  491TMC3    O1 7309   3.593   1.449  17.246 -0.2177  0.5281 -0.1924
  491TMC3    O2 7310   3.708   1.458  17.687 -0.4514 -0.1418 -0.5746
  492MPD2     C 7311   0.699   2.511  10.727  0.3103 -0.0686 -0.0093
  492MPD2    C1 7312   0.604   2.412  10.734 -0.2910 -0.9934  0.1916
  492MPD2    C2 7313   0.583   2.354  10.856 -0.5351 -0.4252 -0.9107
  492MPD2    C3 7314   0.648   2.399  10.975  0.4626 -0.0339 -0.3596
  492MPD2    C4 7315   0.736   2.504  10.959  1.0577 -0.2139 -0.3789
  492MPD2    C5 7316   0.768   2.554  10.839 -0.1388  0.5837  0.5788
  492MPD2     H 7317   0.502   2.281  10.863 -1.0368  0.2360  0.1953
  492MPD2    H1 7318   0.794   2.546  11.040 -0.2761 -0.3233  0.6392
  492MPD2    H2 7319   0.711   2.570  10.637 -0.6866 -0.8942 -0.6888
  492MPD2    H3 7320   0.847   2.628  10.832 -0.0329  0.1598 -3.1814
  492MPD2     N 7321   0.632   2.345  11.111  0.1337  0.5593  0.3655
  492MPD2    H5 7322   0.689   2.376  11.189  1.0673 -1.5991  0.5310
  492MPD2    N1 7323   0.538   2.376  10.618 -0.2912  0.0412 -0.1404
  492MPD2    H7 7324   0.549   2.448  10.547 -0.8746 -0.7270 -1.0026
  493TMC3    C1 7325   0.408   2.271  10.448  0.1862 -0.5208  1.0223
  493TMC3    C2 7326   0.455   2.366  10.364 -0.4289 -0.1768 -0.2089
  493TMC3    C3 7327   0.363   2.413  10.271 -0.3186 -0.3969  0.0015
  493TMC3    C4 7328   0.275   2.216  10.440  0.3492 -0.4900  0.7307
  493TMC3    C5 7329   0.195   2.262  10.336 -0.5422  0.3317  0.5981
  493TMC3    C6 7330   0.241   2.359  10.249 -0.0764 -0.6619  0.0131
  493TMC3     C 7331   0.461   2.266  10.584  0.6894 -0.6750  0.3270
  493TMC3     O 7332   0.413   2.183  10.658  0.0698  0.8517  0.1215
  493TMC3     H 7333   0.552   2.413  10.364 -0.7430  0.4726 -1.4872
  493TMC3    H1 7334   0.239   2.151  10.519 -1.8047 -0.6825 -0.4003
  493TMC3    H2 7335   0.185   2.400  10.166  1.2701  2.1500  0.5126
  493TMC3    C7 7336   0.059   2.220  10.315  0.8480  0.6111 -0.6947
  493TMC3    C8 7337   0.426   2.470  10.153 -1.0192 -0.0664 -0.5985
  493TMC3    O1 7338   4.718   2.297  10.246 -0.1812 -0.2216  0.9103
  493TMC3    O2 7339   0.405   2.408  10.052 -0.2748 -0.0928  0.2923
  494TMC3    C1 7340   0.326   3.326   0.517  0.3733 -0.2297  0.3180
  494TMC3    C2 7341   0.438   3.246   0.516 -0.2147 -0.4097  0.5709
  494TMC3    C3 7342   0.494   3.208   0.392  0.1120 -0.2763  0.7713
  494TMC3    C4 7343   0.286   3.397   0.401  0.8441  0.0771 -0.2037
  494TMC3    C5 7344   0.343   3.363   0.283 -0.5777 -0.9957 -0.3396
  494TMC3    C6 7345   0.448   3.270   0.275 -0.4885  0.0114 -0.2799
  494TMC3     C 7346   0.252   3.353   0.637  0.1294  0.0511  0.0887
  494TMC3     O 7347   0.147   3.418   0.627  0.4740  0.2186 -0.3631
  494TMC3     H 7348   0.471   3.188   0.602 -0.7597 -0.2212  0.9080
  494TMC3    H1 7349   0.211   3.474   0.390  0.6300 -0.1124 -0.0776
  494TMC3    H2 7350   0.483   3.238   0.178 -0.2805  2.0200 -0.8715
  494TMC3    C7 7351   0.319   3.449   0.169 -0.2155  0.1720 -0.1814
  494TMC3    C8 7352   0.624   3.158   0.404  0.4399  0.2076  0.0210
  494TMC3    O1 7353   0.322   3.392   0.061  0.7277  0.2082  0.6600
  494TMC3    O2 7354   0.651   3.094   0.505 -0.3865  0.7151 -0.0204
  495TMC3    C1 7355   3.793   1.460  14.467 -0.8246 -0.2205  0.0050
  495TMC3    C2 7356   3.688   1.520  14.404  0.0214  0.1917 -0.2363
  495TMC3    C3 7357   3.568   1.527  14.466 -0.1241  1.3736 -0.1988
  495TMC3    C4 7358   3.785   1.426  14.601 -0.3602 -0.2687  1.3031
  495TMC3    C5 7359   3.668   1.441  14.661 -0.0595  0.1581 -0.1098
  495TMC3    C6 7360   3.556   1.487  14.596 -0.1178 -0.3797  0.1337
  495TMC3     C 7361   3.849   1.364  14.382 -0.1613 -0.9036 -0.2347
  495TMC3     O 7362   3.852   1.388  14.260  0.2483  0.0757  0.0818
  495TMC3     H 7363   3.701   1.558  14.303  2.0685 -0.6968 -0.3002
  495TMC3    H1 7364   3.864   1.386  14.663 -0.0157  1.8582  2.2303
  495TMC3    H2 7365   3.457   1.478  14.638  1.1448  0.6433  3.2998
  495TMC3    C7 7366   3.657   1.407  14.804 -0.0014  0.1418  0.1887
  495TMC3    C8 7367   3.448   1.486  14.383  0.4095 -0.0888  0.3929
  495TMC3    O1 7368   3.764   1.424  14.863 -0.0655 -0.1585  0.1303
  495TMC3    O2 7369   3.336   1.486  14.442 -0.2134  0.4255 -0.3174
  496MPD2     C 7370   1.012   1.089  15.018 -0.1445  0.0800  0.0703
  496MPD2    C1 7371   1.072   1.135  15.138 -0.0382 -0.2350 -0.3777
  496MPD2    C2 7372   0.997   1.197  15.241 -0.9422  0.1338 -0.2387
  496MPD2    C3 7373   0.865   1.209  15.222  0.2252 -1.0243 -0.8965
  496MPD2    C4 7374   0.806   1.172  15.102  0.3583 -0.3019 -0.1339
  496MPD2    C5 7375   0.878   1.108  15.007 -0.9549  0.2910 -0.4209
  496MPD2     H 7376   1.031   1.202  15.344  2.1951 -1.7116 -1.1686
  496MPD2    H1 7377   0.702   1.185  15.076  0.3418 -1.7082 -0.8028
  496MPD2    H2 7378   1.063   1.024  14.948 -0.4111  2.0431 -1.9400
  496MPD2    H3 7379   0.824   1.071  14.920  0.7938 -1.7499 -0.6388
  496MPD2     N 7380   0.797   1.283  15.319 -0.2217 -0.0817  0.4426
  496MPD2    H5 7381   0.858   1.330  15.385  2.8406 -0.2434 -2.2624
  496MPD2    N1 7382   1.210   1.098  15.155  0.0139 -0.3755 -0.0429
  496MPD2    H7 7383   1.246   1.064  15.067  1.1177  1.7798 -0.4070
  497TMC3    C1 7384   0.630   1.406  15.421 -0.2643 -0.1800 -0.0472
  497TMC3    C2 7385   0.513   1.474  15.417  0.0517  0.4708  0.5324
  497TMC3    C3 7386   0.447   1.509  15.527  0.5951 -0.6578 -0.0171
  497TMC3    C4 7387   0.694   1.385  15.538  0.3458 -0.5626  0.4701
  497TMC3    C5 7388   0.629   1.433  15.651  0.2077  0.3763  0.0752
  497TMC3    C6 7389   0.505   1.483  15.646 -0.1133 -0.0402  0.3133
  497TMC3     C 7390   0.665   1.323  15.307 -0.0595 -0.1159  0.5863
  497TMC3     O 7391   0.569   1.265  15.251  0.4132 -0.1386 -0.4441
  497TMC3     H 7392   0.468   1.464  15.319 -0.3789 -3.1823  1.0957
  497TMC3    H1 7393   0.783   1.324  15.549  1.3667  1.3132  2.7310
  497TMC3    H2 7394   0.469   1.537  15.733 -4.8687 -1.6282 -0.6526
  497TMC3    C7 7395   0.682   1.415  15.785  0.5052 -0.0345 -0.1104
  497TMC3    C8 7396   0.317   1.575  15.533  0.2352  0.4733  0.6596
  497TMC3    O1 7397   0.600   1.411  15.875  0.2330 -0.0693 -0.4607
  497TMC3    O2 7398   0.273   1.599  15.646 -0.0057 -0.1805  0.0019
  498MPD2     C 7399   1.860   3.099   9.653  0.1110 -0.2875  0.5655
  498MPD2    C1 7400   1.961   3.022   9.695  0.2980 -0.6772 -0.3572
  498MPD2    C2 7401   1.933   2.894   9.735  0.5968  1.1057 -0.5057
  498MPD2    C3 7402   1.807   2.838   9.738  0.3220  0.4558  0.1993
  498MPD2    C4 7403   1.703   2.915   9.690  0.0855 -0.7554  0.2438
  498MPD2    C5 7404   1.735   3.045   9.649 -0.2304 -0.5170 -0.2519
  498MPD2     H 7405   2.019   2.839   9.770 -1.7069 -2.7288 -0.9493
  498MPD2    H1 7406   1.599   2.888   9.676 -0.3714  1.7994 -1.3303
  498MPD2    H2 7407   1.878   3.204   9.632  0.5870 -0.1600  1.6245
  498MPD2    H3 7408   1.657   3.116   9.622 -0.1974 -0.0868  0.7745
  498MPD2     N 7409   1.784   2.700   9.790  0.0783 -0.1723 -0.3451
  498MPD2    H5 7410   1.861   2.643   9.822 -0.9426 -0.7819  1.0550
  498MPD2    N1 7411   2.095   3.069   9.702  0.3156  0.3505  0.1105
  498MPD2    H7 7412   2.167   3.009   9.741  1.3936  2.5963  1.5534
  499TMC3    C1 7413   2.266   3.219   9.710  0.0920  0.6181 -0.0507
  499TMC3    C2 7414   2.359   3.131   9.662  0.3979 -0.3056 -0.3362
  499TMC3    C3 7415   2.492   3.155   9.697  0.0057  0.1452 -0.4240
  499TMC3    C4 7416   2.304   3.324   9.791  0.7115  1.0518  0.3928
  499TMC3    C5 7417   2.436   3.342   9.825  0.0405 -0.0802 -0.1466
  499TMC3    C6 7418   2.530   3.261   9.770  0.2058  0.0192 -0.0254
  499TMC3     C 7419   2.126   3.205   9.681  0.1653  0.3487  0.2251
  499TMC3     O 7420   2.059   3.302   9.694  0.6308  0.5551  0.6889
  499TMC3     H 7421   2.333   3.053   9.592 -1.7165 -1.0018  1.2480
  499TMC3    H1 7422   2.230   3.389   9.837  0.5903  1.4432 -0.3410
  499TMC3    H2 7423   2.635   3.290   9.774  0.2177 -0.2666  1.8740
  499TMC3    C7 7424   2.486   3.475   9.866  0.6271  0.4642  0.3798
  499TMC3    C8 7425   2.590   3.055   9.678  0.0921  0.3434  0.5531
  499TMC3    O1 7426   2.424   3.572   9.822 -0.0274  0.5504  1.2064
  499TMC3    O2 7427   2.701   3.077   9.719  0.5718  0.1402  0.2630
  500MPD2     C 7428   4.177   3.830  10.869  0.3990 -0.1630  0.0949
  500MPD2    C1 7429   4.187   3.879  10.741  0.1295 -0.9716  0.2080
  500MPD2    C2 7430   4.081   3.950  10.691  0.4689 -0.3412 -0.7575
  500MPD2    C3 7431   3.958   3.952  10.762  0.3730 -0.7878  0.0372
  500MPD2    C4 7432   3.957   3.905  10.891 -0.0727  0.6873 -0.0734
  500MPD2    C5 7433   4.064   3.849  10.947 -0.1866 -0.0966  0.0224
  500MPD2     H 7434   4.091   3.982  10.588 -0.9694 -0.2418 -0.8686
  500MPD2    H1 7435   3.886   3.912  10.973  0.4662 -3.7477  0.7730
  500MPD2    H2 7436   4.257   3.773  10.914  0.2211 -0.9525 -0.5872
  500MPD2    H3 7437   4.069   3.805  11.046 -1.7341  1.9622  0.9963
  500MPD2     N 7438   3.835   4.008  10.723  0.4537  0.5940  0.1049
  500MPD2    H5 7439   3.760   4.002  10.791  1.7282 -0.5832  1.4410
  500MPD2    N1 7440   4.304   3.878  10.663 -0.2954  0.3067  0.2247
  500MPD2    H7 7441   4.307   3.926  10.573  0.5593  1.1537  0.7060
  501TMC3    C1 7442   4.530   3.843  10.606 -0.0072  0.0174 -0.2849
  501TMC3    C2 7443   4.515   3.949  10.526 -0.4227 -0.2812 -0.2549
  501TMC3    C3 7444   4.625   4.014  10.483 -0.2736 -0.5847 -0.0675
  501TMC3    C4 7445   4.649   3.797  10.646  0.0466  0.5791 -0.3931
  501TMC3    C5 7446   0.040   3.869  10.612  0.0699  0.4995  0.3733
  501TMC3    C6 7447   0.029   3.978  10.534  0.5768  0.4954  0.1251
  501TMC3     C 7448   4.421   3.812  10.696 -0.4521  0.6703  0.1066
  501TMC3     O 7449   4.441   3.730  10.784 -0.3467 -0.0650  0.8146
  501TMC3     H 7450   4.422   3.994  10.494  0.4496  1.2539 -0.6028
  501TMC3    H1 7451   4.652   3.708  10.707 -3.3475  1.2521  0.7636
  501TMC3    H2 7452   0.116   4.038  10.511  0.5720  1.1088  1.7200
  501TMC3    C7 7453   0.161   3.843  10.698  0.3904 -0.1833  0.0071
  501TMC3    C8 7454   4.613   4.151  10.464 -0.0161 -0.3979 -0.8288
  501TMC3    O1 7455   0.151   3.748  10.773  0.0822  0.3466  0.2416
  501TMC3    O2 7456   4.682   4.233  10.527  0.0113 -0.9642 -0.0223
  502TMC3    C1 7457   3.141   1.571  14.853  0.3144 -0.0915 -0.7735
  502TMC3    C2 7458   3.115   1.677  14.767 -0.3347 -0.5697  0.2719
  502TMC3    C3 7459   2.981   1.706  14.738  0.0613  0.3382  0.1130
  502TMC3    C4 7460   3.049   1.475  14.882  0.0382 -0.0475 -0.4477
  502TMC3    C5 7461   2.920   1.504  14.839 -0.1334  0.0653  0.1238
  502TMC3    C6 7462   2.885   1.620  14.770 -0.0540  0.0810  0.3134
  502TMC3     C 7463   3.239   1.591  14.949  0.0813 -0.0810 -0.1803
  502TMC3     O 7464   3.353   1.615  14.905  0.3123  0.2409 -0.1061
  502TMC3     H 7465   3.199   1.746  14.763 -0.5996 -0.3389 -1.1164
  502TMC3    H1 7466   3.066   1.389  14.946 -0.7039  1.4408  1.7570
  502TMC3    H2 7467   2.781   1.642  14.750 -0.0545  0.3674  0.6297
  502TMC3    C7 7468   2.817   1.454  14.933 -0.6256  0.2097  0.4319
  502TMC3    C8 7469   2.956   1.835  14.796  0.1629 -0.5526  0.1071
  502TMC3    O1 7470   2.848   1.355  15.002 -0.5214  0.3938 -0.2495
  502TMC3    O2 7471   2.862   1.837  14.876  0.5781  0.1316  0.6232
  503MPD2     C 7472   1.001   2.860  16.568  0.8196  0.3040  1.1974
  503MPD2    C1 7473   0.945   2.793  16.675 -0.3574 -0.7461  0.4193
  503MPD2    C2 7474   1.022   2.714  16.757  0.3207  0.2338 -0.2831
  503MPD2    C3 7475   1.155   2.700  16.729  0.3740 -0.6046 -0.2027
  503MPD2    C4 7476   1.212   2.759  16.618 -0.0254  0.4383 -0.0609
  503MPD2    C5 7477   1.134   2.840  16.542 -0.4463  0.9654 -0.0965
  503MPD2     H 7478   0.967   2.656  16.831  0.6782 -1.7596 -1.5779
  503MPD2    H1 7479   1.316   2.746  16.591  0.2328 -1.0146  1.5710
  503MPD2    H2 7480   0.945   2.928  16.505  1.4167 -0.2093  0.0943
  503MPD2    H3 7481   1.187   2.882  16.457  0.0951 -2.6122 -1.5545
  503MPD2     N 7482   1.224   2.612  16.819 -0.0534  0.2913 -0.2283
  503MPD2    H5 7483   1.172   2.589  16.903  0.7714 -0.5320  0.0616
  503MPD2    N1 7484   0.808   2.799  16.708  0.3811 -0.2332 -0.5397
  503MPD2    H7 7485   0.772   2.748  16.788 -0.0334  1.3205  0.2676
  504TMC3    C1 7486   1.406   2.468  16.871  0.4128 -0.0583 -0.4521
  504TMC3    C2 7487   1.350   2.440  16.994 -1.0984 -0.0251  0.3284
  504TMC3    C3 7488   1.385   2.323  17.058 -0.4552 -0.2030 -0.1193
  504TMC3    C4 7489   1.486   2.373  16.806  0.0845 -0.5081  0.1185
  504TMC3    C5 7490   1.504   2.255  16.865  1.4030  0.0985 -0.3318
  504TMC3    C6 7491   1.450   2.223  16.991  0.0567  0.7490  0.1151
  504TMC3     C 7492   1.347   2.561  16.780 -0.3249  0.0028 -0.0256
  504TMC3     O 7493   1.404   2.567  16.670  0.3404  0.2412  0.5796
  504TMC3     H 7494   1.294   2.519  17.044 -0.1817 -0.2245  1.6728
  504TMC3    H1 7495   1.544   2.391  16.717 -1.0652 -2.2247 -0.9810
  504TMC3    H2 7496   1.456   2.126  17.040 -2.2299  0.5456  0.0041
  504TMC3    C7 7497   1.602   2.169  16.798 -0.3936 -0.2795 -0.5628
  504TMC3    C8 7498   1.343   2.291  17.191  0.4111 -0.2318 -0.8052
  504TMC3    O1 7499   1.612   2.173  16.675 -0.0943 -0.1045  0.1699
  504TMC3    O2 7500   1.249   2.361  17.224 -0.0393 -0.8177 -0.1243
  505MPD2     C 7501   1.727   1.470  10.946 -0.0042  0.1521 -0.1316
  505MPD2    C1 7502   1.735   1.549  10.825 -0.5352 -0.1086 -0.0331
  505MPD2    C2 7503   1.819   1.664  10.840  0.1035  0.0817  0.3089
  505MPD2    C3 7504   1.870   1.709  10.961 -0.2996  0.4379 -0.2454
  505MPD2    C4 7505   1.853   1.630  11.076 -0.1298  0.2279 -0.0442
  505MPD2    C5 7506   1.782   1.511  11.066  0.3258  0.6606 -0.6589
  505MPD2     H 7507   1.838   1.728  10.755  0.0888 -0.5696 -0.1900
  505MPD2    H1 7508   1.896   1.665  11.169  1.0949 -1.2489 -0.0640
  505MPD2    H2 7509   1.662   1.384  10.951  1.9746 -1.3753 -0.8714
  505MPD2    H3 7510   1.769   1.445  11.151 -0.2509  1.3241 -0.2245
  505MPD2     N 7511   1.956   1.823  10.970  0.3530 -0.7110  0.0010
  505MPD2    H5 7512   2.012   1.840  11.052 -0.4459  0.0860  0.3871
  505MPD2    N1 7513   1.673   1.503  10.706  0.2113  0.6374 -0.2005
  505MPD2    H7 7514   1.624   1.415  10.714  1.1774  0.0370 -0.8058
  506TMC3    C1 7515   1.680   1.470  10.474 -0.2585 -0.6333 -0.2006
  506TMC3    C2 7516   1.668   1.517  10.342  0.0206  0.4285 -0.6863
  506TMC3    C3 7517   1.749   1.465  10.244 -0.3861 -0.1756 -0.1255
  506TMC3    C4 7518   1.772   1.371  10.500  0.0021  0.2741 -0.1416
  506TMC3    C5 7519   1.843   1.321  10.393  0.7489  0.9235 -0.3440
  506TMC3    C6 7520   1.844   1.367  10.269  0.1930 -0.4065  0.9791
  506TMC3     C 7521   1.668   1.571  10.582 -0.2002 -0.3734 -0.2608
  506TMC3     O 7522   1.708   1.683  10.550 -1.1107  0.2151 -0.1662
  506TMC3     H 7523   1.585   1.587  10.333  0.7882  1.4797  0.3840
  506TMC3    H1 7524   1.787   1.326  10.597  0.7122 -0.6512 -0.6806
  506TMC3    H2 7525   1.910   1.316  10.199 -1.8678  1.1079 -2.0556
  506TMC3    C7 7526   1.971   1.287  10.446 -0.6203 -0.5021 -0.1708
  506TMC3    C8 7527   1.739   1.517  10.107 -0.9691 -0.3492  0.3746
  506TMC3    O1 7528   1.981   1.181  10.499 -0.1971  0.5760 -0.0394
  506TMC3    O2 7529   1.795   1.456  10.020 -0.2857  0.0880  0.3793
  507TMC3    C1 7530   1.930   2.467  14.953 -0.2550  0.2429 -0.1358
  507TMC3    C2 7531   1.849   2.377  14.887 -1.1309  0.5045 -0.1788
  507TMC3    C3 7532   1.869   2.355  14.759  0.1856 -0.4145 -0.3522
  507TMC3    C4 7533   2.030   2.537  14.897 -0.3749  0.3834  0.0619
  507TMC3    C5 7534   2.045   2.515  14.763  0.0574 -0.5426 -0.1053
  507TMC3    C6 7535   1.981   2.414  14.699 -0.3863  0.1743  0.2248
  507TMC3     C 7536   1.939   2.459  15.098 -0.2864  0.4380  0.4297
  507TMC3     O 7537   2.036   2.509  15.148  0.6727 -0.3140 -0.3258
  507TMC3     H 7538   1.760   2.333  14.930  0.3609 -2.1479  0.1549
  507TMC3    H1 7539   2.086   2.619  14.940 -0.6010  0.7090 -0.2588
  507TMC3    H2 7540   2.019   2.387  14.601  0.3062 -0.2125  0.5986
  507TMC3    C7 7541   2.026   2.635  14.675  0.1034  0.1249 -0.0628
  507TMC3    C8 7542   1.756   2.348  14.664  0.2530 -0.0574  0.5359
  507TMC3    O1 7543   1.995   2.610  14.559  0.3339  0.1593 -0.4560
  507TMC3    O2 7544   1.647   2.311  14.713  0.2030 -0.7931 -0.4137
  508MPD2     C 7545   2.210   4.625  15.929  0.5607  0.6982 -0.2325
  508MPD2    C1 7546   2.328   4.695  15.941  0.0331  0.6990 -0.3304
  508MPD2    C2 7547   2.383   0.026  15.821  0.1660  0.0182 -0.5208
  508MPD2    C3 7548   2.307   0.031  15.706 -0.1391 -0.3400 -0.4011
  508MPD2    C4 7549   2.188   4.688  15.695  0.8859 -0.2992  0.1955
  508MPD2    C5 7550   2.147   4.615  15.804  0.2913  0.0578 -0.0252
  508MPD2     H 7551   2.480   0.075  15.828  0.1166  0.1317 -0.6407
  508MPD2    H1 7552   2.142   4.677  15.597 -0.4382  2.1909  0.5602
  508MPD2    H2 7553   2.156   4.582  16.012  2.2647 -0.1561  0.4333
  508MPD2    H3 7554   2.057   4.555  15.799  1.7063 -2.3686  3.9182
  508MPD2     N 7555   2.371   0.095  15.594  0.0942  0.2613  0.1180
  508MPD2    H5 7556   2.470   0.114  15.607  0.0608  0.0939  0.6138
  508MPD2    N1 7557   2.415   4.695  16.052  0.0224  0.0730  0.2607
  508MPD2    H7 7558   2.504   0.021  16.047  0.3260 -0.5161  0.0247
  509TMC3    C1 7559   2.408   0.398  15.262 -0.1965  0.1304 -0.3248
  509TMC3    C2 7560   2.540   0.380  15.247  0.5073 -0.3466 -0.1546
  509TMC3    C3 7561   2.597   0.287  15.325 -0.6918  0.5594  0.2196
  509TMC3    C4 7562   2.326   0.322  15.343  0.6941 -0.1901  0.6441
  509TMC3    C5 7563   2.387   0.218  15.405 -0.6155 -0.8269  0.5101
  509TMC3    C6 7564   2.518   0.196  15.394 -0.5087  0.1536  0.0124
  509TMC3     C 7565   2.356   0.518  15.195  0.2847  0.0174  0.2576
  509TMC3     O 7566   2.430   0.570  15.110 -0.2189  0.3219 -0.0971
  509TMC3     H 7567   2.610   0.441  15.191 -1.5068  1.0810 -1.1497
  509TMC3    H1 7568   2.219   0.341  15.344  1.0527  1.7155  1.2657
  509TMC3    H2 7569   2.568   0.120  15.454 -0.1558  2.3391  2.4636
  509TMC3    C7 7570   2.307   0.136  15.481 -0.3654 -0.8884  0.6556
  509TMC3    C8 7571   2.739   0.281  15.340  0.3522 -0.1894  0.4478
  509TMC3    O1 7572   2.187   0.152  15.464  0.3946 -0.3639  0.1528
  509TMC3    O2 7573   2.801   0.187  15.390 -0.1440 -0.0135 -0.0848
  510MPD2     C 7574   0.789   1.535  14.172  0.8115  0.0944 -0.0490
  510MPD2    C1 7575   0.879   1.496  14.269  0.6491  0.0562  0.4406
  510MPD2    C2 7576   1.007   1.553  14.273  0.4839 -0.3616 -0.1498
  510MPD2    C3 7577   1.055   1.634  14.171  0.6158 -0.3922 -0.4396
  510MPD2    C4 7578   0.968   1.656  14.065  0.1780  0.6176  0.0676
  510MPD2    C5 7579   0.845   1.612  14.068  1.0885 -0.0734 -0.7936
  510MPD2     H 7580   1.061   1.531  14.364 -1.7910  0.4562  1.4021
  510MPD2    H1 7581   0.988   1.722  13.981  1.7877 -0.3628 -0.3232
  510MPD2    H2 7582   0.682   1.519  14.171  0.6059  1.5501 -1.3593
  510MPD2    H3 7583   0.778   1.641  13.988 -0.2529 -2.1807 -0.4155
  510MPD2     N 7584   1.190   1.691  14.181 -0.0373 -0.3699 -0.2744
  510MPD2    H5 7585   1.245   1.659  14.259 -2.3347 -0.0456  1.4775
  510MPD2    N1 7586   0.813   1.425  14.375  0.2037  0.0903 -0.0095
  510MPD2    H7 7587   0.717   1.394  14.363  0.5903 -1.0613 -0.1442
  511TMC3    C1 7588   0.760   1.336  14.587  0.0405  0.3234 -0.0604
  511TMC3    C2 7589   0.766   1.372  14.720  0.0344 -0.3044 -0.6008
  511TMC3    C3 7590   0.660   1.337  14.802  0.6784 -0.1580  0.0161
  511TMC3    C4 7591   0.662   1.259  14.539  0.4529 -0.1906 -0.3830
  511TMC3    C5 7592   0.561   1.215  14.624  0.0148 -0.0286  0.6460
  511TMC3    C6 7593   0.555   1.258  14.756  0.0400  0.1552 -0.3309
  511TMC3     C 7594   0.863   1.385  14.498 -0.5529 -0.1983 -0.3197
  511TMC3     O 7595   0.971   1.417  14.542 -0.1745 -0.1365  0.1669
  511TMC3     H 7596   0.845   1.440  14.750 -0.4993 -0.3551  0.9100
  511TMC3    H1 7597   0.667   1.224  14.437 -1.8173  0.0318 -0.5586
  511TMC3    H2 7598   0.469   1.254  14.821  0.5340 -2.0737  0.1844
  511TMC3    C7 7599   0.451   1.137  14.574  0.3541 -0.5272  0.2632
  511TMC3    C8 7600   0.625   1.430  14.904 -0.7553 -0.1790  0.0681
  511TMC3    O1 7601   0.444   1.135  14.451 -0.1322 -0.4895  0.4726
  511TMC3    O2 7602   0.507   1.430  14.933 -0.1108  0.9386  0.1037
  512TMC3    C1 7603   4.218   1.204  13.625  0.2419  0.6065  0.2179
  512TMC3    C2 7604   4.170   1.142  13.731 -0.2225  0.3262  1.2910
  512TMC3    C3 7605   4.203   1.007  13.741 -0.0807 -0.0161  0.5875
  512TMC3    C4 7606   4.284   1.134  13.527  0.5331  0.5061  0.3347
  512TMC3    C5 7607   4.302   1.004  13.530  0.4798  0.4023  0.6471
  512TMC3    C6 7608   4.273   0.937  13.649 -0.2614 -0.4569 -0.3463
  512TMC3     C 7609   4.231   1.350  13.624 -0.3280 -0.0741  0.0979
  512TMC3     O 7610   4.173   1.408  13.717  0.2221  0.0333  0.5317
  512TMC3     H 7611   4.115   1.201  13.803  0.8194  1.0717  1.4867
  512TMC3    H1 7612   4.310   1.191  13.439 -1.3069  1.9445  0.7103
  512TMC3    H2 7613   4.303   0.834  13.666  1.2488  0.0906  0.2363
  512TMC3    C7 7614   4.412   0.958  13.446 -0.6750  0.6316  0.2128
  512TMC3    C8 7615   4.268   0.989  13.872  0.6497 -0.1368 -0.0808
  512TMC3    O1 7616   4.476   1.044  13.388  0.1566 -0.3315  0.9626
  512TMC3    O2 7617   4.347   0.895  13.884 -0.5912 -0.0683 -0.4951
  513MPD2     C 7618   1.174   1.916  12.907 -0.4572  0.4862  0.2772
  513MPD2    C1 7619   1.123   1.798  12.863  0.1242 -0.1183  0.5056
  513MPD2    C2 7620   1.133   1.680  12.935 -0.0437 -0.6674  0.1513
  513MPD2    C3 7621   1.202   1.675  13.052  0.8215  0.2236 -0.0960
  513MPD2    C4 7622   1.266   1.795  13.099  0.6204 -0.2544  0.2642
  513MPD2    C5 7623   1.247   1.912  13.026 -0.5657  1.1532 -0.0494
  513MPD2     H 7624   1.082   1.593  12.896 -3.0395  0.9517  0.4311
  513MPD2    H1 7625   1.343   1.803  13.176  0.3505 -0.5389  0.5606
  513MPD2    H2 7626   1.163   2.008  12.849 -2.2902  1.3024  1.9080
  513MPD2    H3 7627   1.290   2.008  13.052 -1.1694  1.7047 -1.1057
  513MPD2     N 7628   1.207   1.551  13.111  0.4275 -0.3386  0.6665
  513MPD2    H5 7629   1.170   1.475  13.055  0.6988  0.6664 -0.8600
  513MPD2    N1 7630   1.057   1.802  12.737 -0.2370  0.4389 -0.1005
  513MPD2    H7 7631   1.060   1.891  12.687 -0.1046  0.0016 -0.8615
  514TMC3    C1 7632   0.953   1.737  12.542  0.3281  0.4274 -0.5537
  514TMC3    C2 7633   1.031   1.813  12.461 -0.2276 -0.0783  0.1187
  514TMC3    C3 7634   1.051   1.777  12.329  0.0439  0.1263  0.4059
  514TMC3    C4 7635   0.883   1.637  12.488  0.4830  0.8851 -0.3545
  514TMC3    C5 7636   0.917   1.587  12.366 -0.1527 -0.5985 -0.0783
  514TMC3    C6 7637   1.000   1.655  12.285 -0.1554  0.3204  0.4382
  514TMC3     C 7638   0.989   1.703  12.679  0.5236 -0.9489  0.0619
  514TMC3     O 7639   0.949   1.594  12.711  0.6060  0.5613 -0.6122
  514TMC3     H 7640   1.089   1.891  12.509 -1.2228  2.0978 -2.2298
  514TMC3    H1 7641   0.815   1.575  12.545  0.1254  1.4983 -0.1115
  514TMC3    H2 7642   1.015   1.627  12.181 -2.6217 -0.3321  0.2629
  514TMC3    C7 7643   0.966   1.447  12.375 -0.2319 -0.4128  0.0851
  514TMC3    C8 7644   1.142   1.863  12.251  0.9399  0.2039 -0.1646
  514TMC3    O1 7645   1.009   1.401  12.271 -0.1273  0.3597 -0.3074
  514TMC3    O2 7646   1.165   1.971  12.300  0.0607  0.0295 -0.1648
  515MPD2     C 7647   4.483   2.629  14.614 -0.3931  0.1472  0.3538
  515MPD2    C1 7648   4.394   2.600  14.718  0.2722 -0.8384  0.8625
  515MPD2    C2 7649   4.418   2.653  14.843  0.5167  0.4250  0.1133
  515MPD2    C3 7650   4.525   2.741  14.859 -0.5367  0.3253 -0.2564
  515MPD2    C4 7651   4.612   2.766  14.750  0.0484  0.5609 -0.0231
  515MPD2    C5 7652   4.593   2.706  14.631 -0.5049 -0.0518  0.1433
  515MPD2     H 7653   4.344   2.632  14.919  0.8727  0.7027  0.5334
  515MPD2    H1 7654   4.693   2.836  14.766  1.5596 -1.6547  1.9853
  515MPD2    H2 7655   4.479   2.578  14.518 -2.5534  2.1779 -0.6418
  515MPD2    H3 7656   4.654   2.718  14.542 -1.9870  1.3536 -0.6761
  515MPD2     N 7657   4.549   2.818  14.982 -0.9380  0.1761  0.2905
  515MPD2    H5 7658   4.629   2.881  14.983  0.0453 -1.0438 -1.4183
  515MPD2    N1 7659   4.293   2.504  14.713  0.1625  0.3323 -0.4024
  515MPD2    H7 7660   4.230   2.496  14.792  0.1618 -1.7754 -0.6250
  516TMC3    C1 7661   4.134   2.352  14.619 -0.0262  0.9225 -0.5023
  516TMC3    C2 7662   4.068   2.341  14.504  0.3908 -0.1645  0.0426
  516TMC3    C3 7663   3.950   2.276  14.514 -0.1588  0.1692 -0.1830
  516TMC3    C4 7664   4.102   2.298  14.738 -0.5494  0.8037 -0.3305
  516TMC3    C5 7665   3.984   2.226  14.747  0.3877  0.7422  0.1454
  516TMC3    C6 7666   3.906   2.215  14.633  0.0201  0.3110 -0.1861
  516TMC3     C 7667   4.255   2.433  14.601  0.5933  0.0580  0.4322
  516TMC3     O 7668   4.301   2.448  14.491  0.3155 -0.4894  0.4954
  516TMC3     H 7669   4.110   2.380  14.412 -0.3348  1.4767  0.4116
  516TMC3    H1 7670   4.161   2.311  14.828  0.5568 -1.1423 -0.7793
  516TMC3    H2 7671   3.811   2.163  14.640  0.4740 -0.8429 -2.6640
  516TMC3    C7 7672   3.941   2.188  14.880 -0.3160 -0.1579 -0.2232
  516TMC3    C8 7673   3.844   2.324  14.423  0.3922 -0.8425 -0.2601
  516TMC3    O1 7674   3.994   2.238  14.975 -0.4248  0.0054  0.0583
  516TMC3    O2 7675   3.729   2.280  14.444 -0.0401  0.5186  0.0732
  517MPD2     C 7676   3.662   3.492   0.028 -0.1438  0.6301 -1.0764
  517MPD2    C1 7677   3.792   3.539   0.016 -0.8523  0.4074  0.4561
  517MPD2    C2 7678   3.817   3.667   0.063  0.1742 -0.2203 -0.1812
  517MPD2    C3 7679   3.721   3.736   0.136  0.0273 -0.1853 -0.8336
  517MPD2    C4 7680   3.599   3.682   0.142  0.1631  0.3524 -1.1629
  517MPD2    C5 7681   3.567   3.559   0.094  0.6859  0.3965 -0.4648
  517MPD2     H 7682   3.915   3.710   0.044 -0.2999  0.3615 -1.3229
  517MPD2    H1 7683   3.513   3.729   0.189  0.4790  1.3536 -1.5916
  517MPD2    H2 7684   3.640   3.396  17.671  0.4357 -0.8199  1.7500
  517MPD2    H3 7685   3.466   3.520   0.102  1.0615 -0.4513  0.2081
  517MPD2     N 7686   3.733   3.854   0.210  0.2373  0.3045  0.2723
  517MPD2    H5 7687   3.660   3.889   0.271  2.0063 -0.2118  2.6780
  517MPD2    N1 7688   3.888   3.463  17.642 -0.5599  0.2012 -0.3657
  517MPD2    H7 7689   3.978   3.509  17.632  0.7656 -2.2356  0.5992
  518TMC3    C1 7690   4.005   3.274  17.554  0.7551  0.0985  0.7231
  518TMC3    C2 7691   4.019   3.139  17.550 -0.6216  0.0040  0.6990
  518TMC3    C3 7692   4.076   3.078  17.439 -0.7705 -0.2763 -0.2982
  518TMC3    C4 7693   4.060   3.356  17.457  0.0844 -0.2206  0.9201
  518TMC3    C5 7694   4.134   3.293  17.362  0.0550  0.3282 -0.2459
  518TMC3    C6 7695   4.143   3.155  17.348  0.2143 -0.7739  0.2091
  518TMC3     C 7696   3.887   3.326  17.632  0.0266  0.5606 -0.0972
  518TMC3     O 7697   3.813   3.250   0.008  0.3893 -0.1796  0.2581
  518TMC3     H 7698   3.975   3.082  17.630 -1.1867 -0.7986 -0.1906
  518TMC3    H1 7699   4.046   3.463  17.453 -0.2494 -0.2719  0.7578
  518TMC3    H2 7700   4.196   3.104  17.270 -0.0445  1.5761 -1.5103
  518TMC3    C7 7701   4.228   3.361  17.274 -0.2461  0.4082 -0.6108
  518TMC3    C8 7702   4.079   2.933  17.428  0.1175  0.0991 -0.4605
  518TMC3    O1 7703   4.204   3.479  17.247 -0.3824 -0.2543 -0.2175
  518TMC3    O2 7704   4.096   2.868  17.532  0.4480  0.4305 -0.0957
  519MPD2     C 7705   0.500   2.670  14.065  0.1027 -0.0602  0.2209
  519MPD2    C1 7706   0.500   2.610  13.943 -0.9340 -0.5110  0.8316
  519MPD2    C2 7707   0.525   2.468  13.943 -0.0974  0.4511  0.0639
  519MPD2    C3 7708   0.536   2.403  14.063  0.2956 -0.1747  0.5449
  519MPD2    C4 7709   0.530   2.476  14.178  0.6120  0.7249  0.0066
  519MPD2    C5 7710   0.510   2.607  14.188  0.4504 -0.3099 -0.1375
  519MPD2     H 7711   0.527   2.411  13.851 -1.8906 -0.3522  0.5159
  519MPD2    H1 7712   0.525   2.430  14.276 -1.5982  1.7085  0.3634
  519MPD2    H2 7713   0.489   2.778  14.076 -0.5928 -0.0647 -0.4024
  519MPD2    H3 7714   0.503   2.644  14.290 -1.2124 -0.5859 -0.1508
  519MPD2     N 7715   0.566   2.262  14.072  0.0366  0.2009  0.1638
  519MPD2    H5 7716   0.596   2.229  14.163  1.8053  2.1180  0.2935
  519MPD2    N1 7717   0.480   2.693  13.827 -0.5320 -0.6692  0.5312
  519MPD2    H7 7718   0.451   2.788  13.847  0.2265 -0.0761 -1.1968
  520TMC3    C1 7719   0.631   2.055  13.986  0.3704 -0.3334  0.1054
  520TMC3    C2 7720   0.625   1.993  13.864  0.1379 -0.2354  0.5291
  520TMC3    C3 7721   0.740   1.960  13.804  0.6142  0.0801  0.4215
  520TMC3    C4 7722   0.751   2.082  14.049  0.6166 -0.4682  0.9705
  520TMC3    C5 7723   0.865   2.038  13.982  0.3140 -0.6389 -0.3760
  520TMC3    C6 7724   0.866   1.975  13.860 -0.2053 -0.1182 -0.0725
  520TMC3     C 7725   0.544   2.170  13.972  0.2188  0.4171  0.5661
  520TMC3     O 7726   0.490   2.182  13.864 -0.3176 -0.0910  0.0699
  520TMC3     H 7727   0.532   1.960  13.819  0.5916  0.4607 -0.9143
  520TMC3    H1 7728   0.761   2.125  14.148  1.2071 -0.8864  1.0862
  520TMC3    H2 7729   0.953   1.962  13.797  0.4072 -2.4437  1.2387
  520TMC3    C7 7730   0.986   2.092  14.017  0.3822 -1.0347  0.2395
  520TMC3    C8 7731   0.735   1.973  13.658 -0.1512  0.6200  0.0607
  520TMC3    O1 7732   1.003   2.097  14.138  0.6330 -0.1863 -0.4166
  520TMC3    O2 7733   0.838   1.941  13.595  0.2620  0.1106  0.1175
  521MPD2     C 7734   1.168   0.006  16.853 -0.6030  0.5555  0.0785
  521MPD2    C1 7735   1.247   0.005  16.972 -0.2571 -0.0804  0.4764
  521MPD2    C2 7736   1.370   0.062  16.972  0.0710  0.3744 -0.4345
  521MPD2    C3 7737   1.423   0.136  16.865 -0.6231 -0.4459 -0.2581
  521MPD2    C4 7738   1.336   0.150  16.757  0.4134  0.3134  0.4304
  521MPD2    C5 7739   1.214   0.078  16.748  0.6941 -0.3328  0.2697
  521MPD2     H 7740   1.439   0.056  17.055  0.0107 -1.6239 -0.5216
  521MPD2    H1 7741   1.370   0.212  16.675  1.1172 -1.1744 -0.3943
  521MPD2    H2 7742   1.079   4.666  16.845 -0.2605  0.1791 -0.7607
  521MPD2    H3 7743   1.164   0.082  16.652 -0.4142 -1.4637  0.8054
  521MPD2     N 7744   1.540   0.214  16.881 -0.1813 -0.3302 -0.1053
  521MPD2    H5 7745   1.591   0.204  16.969 -1.2299 -0.1564  0.5227
  521MPD2    N1 7746   1.194   4.664  17.082  0.4995 -0.0117  0.0163
  521MPD2    H7 7747   1.102   4.622  17.073  1.4391 -2.1007  0.2299
  522TMC3    C1 7748   1.726   0.345  16.842 -0.3210  0.6188  0.1025
  522TMC3    C2 7749   1.800   0.277  16.933  0.5396  0.6497  0.4075
  522TMC3    C3 7750   1.917   0.325  16.984  0.4340 -0.1084  0.0789
  522TMC3    C4 7751   1.758   0.472  16.804  0.4136 -0.0662 -0.5161
  522TMC3    C5 7752   1.870   0.522  16.863 -0.1206  0.0905  0.2558
  522TMC3    C6 7753   1.951   0.452  16.953 -0.4888 -0.0529 -0.1376
  522TMC3     C 7754   1.597   0.292  16.790 -0.0863 -0.5702 -0.3133
  522TMC3     O 7755   1.556   0.340  16.686  0.1586 -0.4480 -0.8489
  522TMC3     H 7756   1.768   0.175  16.947 -0.5244  1.0252  0.7659
  522TMC3    H1 7757   1.689   0.529  16.743 -0.7402  1.9170  2.6615
  522TMC3    H2 7758   2.046   0.489  16.989  0.5842 -1.7407 -1.2767
  522TMC3    C7 7759   1.908   0.657  16.859  0.3505 -0.6969  0.1728
  522TMC3    C8 7760   2.000   0.238  17.068  0.0324 -0.2641  0.3212
  522TMC3    O1 7761   2.005   0.699  16.920  0.2447  0.7718 -0.0068
  522TMC3    O2 7762   1.935   0.162  17.132  0.7962 -0.5228 -0.3077
  523MPD2     C 7763   4.566   0.536  10.190 -1.0049 -0.3681 -0.0898
  523MPD2    C1 7764   4.558   0.473  10.071  0.0955 -0.3716  0.1345
  523MPD2    C2 7765   4.539   0.550   9.957  0.3546  0.1684  0.5811
  523MPD2    C3 7766   4.532   0.686   9.965 -0.4653  0.9741  0.5517
  523MPD2    C4 7767   4.553   0.753  10.084 -0.5645  0.0070  0.8761
  523MPD2    C5 7768   4.577   0.670  10.192 -0.1978  0.2395 -0.6119
  523MPD2     H 7769   4.524   0.499   9.862  1.7893  1.4089 -0.3002
  523MPD2    H1 7770   4.546   0.856  10.116 -1.1871 -0.4008  2.0328
  523MPD2    H2 7771   4.568   0.483  10.285  2.0932 -0.2834 -0.1146
  523MPD2    H3 7772   4.576   0.720  10.287 -2.6820  0.7681 -0.9114
  523MPD2     N 7773   4.496   0.769   9.854  0.3118  0.2318 -0.6829
  523MPD2    H5 7774   4.500   0.870   9.866  1.2855  0.0414  0.5859
  523MPD2    N1 7775   4.572   0.331  10.064  0.2418  0.0260 -0.2901
  523MPD2    H7 7776   4.581   0.283  10.153 -1.2201 -0.0572 -0.1837
  524TMC3    C1 7777   4.396   0.842   9.648  0.0749 -0.2287 -0.2804
  524TMC3    C2 7778   4.417   0.826   9.513  0.0407  0.5333 -0.1205
  524TMC3    C3 7779   4.401   0.931   9.431  1.2637  0.5852  0.0465
  524TMC3    C4 7780   4.362   0.957   9.707  0.0144 -0.0685 -0.7142
  524TMC3    C5 7781   4.332   1.057   9.615  0.0154 -0.1285  0.0041
  524TMC3    C6 7782   4.359   1.053   9.480 -0.1211 -0.2606 -0.3885
  524TMC3     C 7783   4.444   0.731   9.729 -0.1052  0.6621 -0.1690
  524TMC3     O 7784   4.466   0.624   9.678  0.0492  0.3246 -0.0721
  524TMC3     H 7785   4.481   0.742   9.486  0.5427  1.4637 -1.8246
  524TMC3    H1 7786   4.356   0.982   9.812  1.0225  0.1332 -0.7037
  524TMC3    H2 7787   4.353   1.145   9.424 -1.5625 -0.2293 -0.1735
  524TMC3    C7 7788   4.281   1.184   9.657  0.1443  0.1009 -0.2041
  524TMC3    C8 7789   4.486   0.925   9.312 -0.0673  0.1752 -0.3192
  524TMC3    O1 7790   4.307   1.225   9.769 -0.1010 -0.2181  0.1457
  524TMC3    O2 7791   4.564   0.831   9.292  0.6437 -0.2461 -0.3637
  525MPD2     C 7792   2.059   2.159  14.433  0.3781  0.0883  0.1573
  525MPD2    C1 7793   2.169   2.142  14.516 -0.6783  0.0728 -0.8638
  525MPD2    C2 7794   2.272   2.238  14.514 -0.0949  0.3154  0.2880
  525MPD2    C3 7795   2.258   2.356  14.441  0.2229  0.2903 -0.4356
  525MPD2    C4 7796   2.146   2.369  14.360  0.4053  0.1968 -0.6150
  525MPD2    C5 7797   2.048   2.277  14.366  0.0798 -0.3730 -0.1636
  525MPD2     H 7798   2.355   2.229  14.583  0.1489 -3.7589 -0.5531
  525MPD2    H1 7799   2.127   2.458  14.300 -1.7951 -0.7810 -1.3435
  525MPD2    H2 7800   1.974   2.093  14.425  1.7009 -1.5723 -0.4367
  525MPD2    H3 7801   1.954   2.298  14.317  0.1652 -1.1506 -0.6564
  525MPD2     N 7802   2.359   2.459  14.446  0.3034  0.1611  0.0749
  525MPD2    H5 7803   2.431   2.431  14.512  1.0137  1.2260 -0.2474
  525MPD2    N1 7804   2.190   2.027  14.591 -0.6843  0.5734 -0.4978
  525MPD2    H7 7805   2.285   2.012  14.624 -0.9938 -0.9926 -0.3464
  526TMC3    C1 7806   2.149   1.815  14.674 -0.6788 -0.5381  0.2058
  526TMC3    C2 7807   2.074   1.743  14.769 -0.1398 -0.3259 -0.4846
  526TMC3    C3 7808   2.137   1.655  14.854 -0.0857 -0.0368 -0.1797
  526TMC3    C4 7809   2.282   1.794  14.669  0.3694  0.3889 -0.4340
  526TMC3    C5 7810   2.336   1.698  14.752 -0.1277  0.4285 -0.1784
  526TMC3    C6 7811   2.269   1.626  14.845 -0.5542 -0.0008 -0.0411
  526TMC3     C 7812   2.094   1.936  14.613  0.0254 -0.4228 -0.3134
  526TMC3     O 7813   1.974   1.959  14.628 -0.3379  0.5105 -0.5309
  526TMC3     H 7814   1.969   1.770  14.783  0.1348 -0.0298  1.0966
  526TMC3    H1 7815   2.339   1.831  14.585  2.5876 -4.9004 -1.2840
  526TMC3    H2 7816   2.315   1.546  14.901  0.6241 -0.0138 -1.0156
  526TMC3    C7 7817   2.463   1.645  14.708 -0.1739 -0.2546 -0.4631
  526TMC3    C8 7818   2.063   1.582  14.959  0.6465 -0.6499  0.7310
  526TMC3    O1 7819   2.496   1.531  14.734 -0.2494 -0.4328 -0.1586
  526TMC3    O2 7820   2.134   1.506  15.021 -0.2516  0.4518 -0.0025
  527MPD2     C 7821   4.440   3.935   0.918 -0.1537 -0.2926 -0.2761
  527MPD2    C1 7822   4.505   4.007   1.022  0.6081  0.3785 -0.0599
  527MPD2    C2 7823   4.643   3.983   1.035  0.3317  0.2791  0.2623
  527MPD2    C3 7824   4.715   3.903   0.951  0.4674 -0.2305 -0.0229
  527MPD2    C4 7825   4.658   3.845   0.840 -0.1610  0.2690 -0.0709
  527MPD2    C5 7826   4.521   3.852   0.834  0.0640  0.0010  0.1253
  527MPD2     H 7827   4.696   4.037   1.113 -0.8394  0.6480  0.8044
  527MPD2    H1 7828   4.713   3.775   0.778  0.6700  0.3476  0.5786
  527MPD2    H2 7829   4.337   3.934   0.884 -0.3306 -1.2624  0.2876
  527MPD2    H3 7830   4.472   3.784   0.765 -1.1318 -0.7403  1.7070
  527MPD2     N 7831   0.132   3.892   0.978 -0.2537  0.4370  0.4204
  527MPD2    H5 7832   0.173   3.939   1.058 -0.0014  1.0005 -0.0379
  527MPD2    N1 7833   4.434   4.092   1.108  0.5510 -0.1568  0.3380
  527MPD2    H7 7834   4.485   4.157   1.167  0.0128  1.8198 -1.3431
  528TMC3    C1 7835   4.263   4.200   1.226  0.2529  0.2537  0.4527
  528TMC3    C2 7836   4.350   4.228   1.325 -1.0146  0.3325  0.2463
  528TMC3    C3 7837   4.297   4.294   1.440 -0.5808 -0.2627  0.0461
  528TMC3    C4 7838   4.127   4.228   1.232 -0.9752 -0.2813  0.4662
  528TMC3    C5 7839   4.080   4.292   1.343 -0.0633 -1.0385 -0.2056
  528TMC3    C6 7840   4.158   4.323   1.449 -0.2778  0.5889  0.7420
  528TMC3     C 7841   4.299   4.105   1.124  0.0861  0.0689 -0.3169
  528TMC3     O 7842   4.215   4.040   1.064 -0.1388 -0.0308  0.4154
  528TMC3     H 7843   4.453   4.197   1.314 -1.2539 -0.7332  1.0395
  528TMC3    H1 7844   4.062   4.189   1.156  1.4479 -0.9703 -1.2504
  528TMC3    H2 7845   4.121   4.369   1.539 -0.3306  1.3908  0.3124
  528TMC3    C7 7846   3.942   4.285   1.383 -0.0057  0.0189 -0.0259
  528TMC3    C8 7847   4.397   4.328   1.542 -0.1771  0.1195  0.3816
  528TMC3    O1 7848   3.924   4.290   1.503 -0.5442  0.4218 -0.3638
  528TMC3    O2 7849   4.513   4.356   1.506 -0.3910 -0.0783 -0.2491
  529MPD2     C 7850   1.980   2.387   1.726  0.7103 -0.2526  0.2474
  529MPD2    C1 7851   2.087   2.357   1.653  0.6828 -0.1961  0.4436
  529MPD2    C2 7852   2.090   2.409   1.520 -0.7870 -0.2916  0.3628
  529MPD2    C3 7853   1.992   2.483   1.471  0.3206 -0.6623 -0.2559
  529MPD2    C4 7854   1.898   2.523   1.553  0.4886  0.4854 -0.1933
  529MPD2    C5 7855   1.886   2.475   1.679  0.6053  0.1625  0.5241
  529MPD2     H 7856   2.172   2.375   1.458 -0.8208 -1.3637  0.9073
  529MPD2    H1 7857   1.819   2.590   1.520 -0.1424  0.5506  1.4409
  529MPD2    H2 7858   1.969   2.357   1.830  1.1380 -1.2824 -0.0058
  529MPD2    H3 7859   1.815   2.522   1.746 -1.7142 -0.1386 -1.7524
  529MPD2     N 7860   1.991   2.548   1.343  0.1614  0.0284  0.4171
  529MPD2    H5 7861   1.924   2.619   1.320 -1.2698 -2.1914 -2.2195
  529MPD2    N1 7862   2.187   2.268   1.700  0.3293 -0.2552 -0.5770
  529MPD2    H7 7863   2.246   2.232   1.625  2.1813  0.5865  0.4950
  530TMC3    C1 7864   2.337   2.164   1.842  0.4763 -0.2508  0.1763
  530TMC3    C2 7865   2.434   2.191   1.938  0.0912 -0.0892  0.9361
  530TMC3    C3 7866   2.545   2.113   1.931 -0.3058 -0.5566  0.9069
  530TMC3    C4 7867   2.344   2.055   1.754 -0.0997  0.3583  0.6478
  530TMC3    C5 7868   2.457   1.987   1.759  0.3658  0.3455  0.2084
  530TMC3    C6 7869   2.561   2.009   1.843 -0.2161  0.2290  0.2894
  530TMC3     C 7870   2.233   2.262   1.828  0.5658 -0.1499 -0.2661
  530TMC3     O 7871   2.190   2.324   1.928  0.0636 -0.0812  0.5660
  530TMC3     H 7872   2.433   2.281   1.999 -0.4332 -0.7007  1.8242
  530TMC3    H1 7873   2.267   2.028   1.683  0.7815  2.0898 -0.9981
  530TMC3    H2 7874   2.646   1.943   1.839 -1.5166 -1.4920  0.7828
  530TMC3    C7 7875   2.467   1.869   1.678 -0.1464 -0.2590  0.4313
  530TMC3    C8 7876   2.633   2.127   2.039  0.4838  0.3089  0.3312
  530TMC3    O1 7877   2.582   1.833   1.648  0.3065 -0.1382  0.2147
  530TMC3    O2 7878   2.598   2.187   2.142  0.7103  0.3523 -0.4129
  531MPD2     C 7879   1.195   1.055  12.615  0.2922 -0.3723  0.4433
  531MPD2    C1 7880   1.157   1.150  12.709 -0.3384 -0.6020  0.1461
  531MPD2    C2 7881   1.086   1.262  12.665  0.3974  0.4107 -0.0608
  531MPD2    C3 7882   1.054   1.283  12.540 -0.0543  0.0932 -0.9375
  531MPD2    C4 7883   1.101   1.190  12.440 -0.2540 -0.4088  0.2855
  531MPD2    C5 7884   1.179   1.085  12.479  0.4920 -0.7566  0.2868
  531MPD2     H 7885   1.047   1.332  12.739 -1.5914 -0.1219 -0.6270
  531MPD2    H1 7886   1.076   1.198  12.334 -1.9643  0.9923  0.8075
  531MPD2    H2 7887   1.239   0.962  12.650  3.5053  0.8717 -0.3831
  531MPD2    H3 7888   1.208   1.012  12.406  0.2291  0.6499 -1.2279
  531MPD2     N 7889   0.982   1.400  12.506 -0.0358 -0.3246  0.2403
  531MPD2    H5 7890   0.964   1.467  12.580 -1.8212 -0.3563 -0.1587
  531MPD2    N1 7891   1.203   1.138  12.844  0.0052 -0.4796 -0.1787
  531MPD2    H7 7892   1.250   1.053  12.871 -0.5065 -0.2612  1.3933
  532TMC3    C1 7893   1.242   1.203  13.078 -0.1707  0.0542 -0.1276
  532TMC3    C2 7894   1.193   1.304  13.159  0.4008 -0.4019 -0.1465
  532TMC3    C3 7895   1.288   1.374  13.237  0.0363 -0.4785 -0.4169
  532TMC3    C4 7896   1.373   1.169  13.079 -0.5393  0.1811  0.4689
  532TMC3    C5 7897   1.458   1.231  13.165  0.2722  0.0706  0.3957
  532TMC3    C6 7898   1.413   1.330  13.250 -0.6214  0.3206  0.4084
  532TMC3     C 7899   1.175   1.219  12.951  0.1816  0.0060 -0.0475
  532TMC3     O 7900   1.107   1.321  12.952 -0.1536 -0.1126 -0.3655
  532TMC3     H 7901   1.089   1.326  13.177  0.3864 -0.4995 -0.1134
  532TMC3    H1 7902   1.409   1.107  12.997 -1.0155 -0.0445  0.4266
  532TMC3    H2 7903   1.490   1.386  13.301 -2.4849 -0.1273  3.7023
  532TMC3    C7 7904   1.581   1.164  13.197 -0.5810  0.9686  0.6633
  532TMC3    C8 7905   1.290   1.518  13.222 -0.3434  0.3400  0.3051
  532TMC3    O1 7906   1.657   1.222  13.277 -0.3092  0.4034  0.4613
  532TMC3    O2 7907   1.366   1.589  13.288 -0.4094  0.0746  0.4107
  533TMC3    C1 7908   2.435   2.680  14.467  0.6226 -0.7763  0.5826
  533TMC3    C2 7909   2.568   2.658  14.448 -0.4559 -0.6201  0.0917
  533TMC3    C3 7910   2.650   2.702  14.552 -0.2276 -0.3324  0.4444
  533TMC3    C4 7911   2.388   2.728  14.590  0.4969 -0.7143 -0.7580
  533TMC3    C5 7912   2.469   2.764  14.694  0.7620 -0.8639 -0.0050
  533TMC3    C6 7913   2.603   2.755  14.669 -0.0285 -0.2295 -0.7405
  533TMC3     C 7914   2.342   2.589  14.406 -0.1984  0.1602 -0.1274
  533TMC3     O 7915   2.247   2.644  14.348 -0.1171 -0.9273  0.4284
  533TMC3     H 7916   2.612   2.615  14.359  0.4429  2.4899 -0.9829
  533TMC3    H1 7917   2.282   2.741  14.607  0.6374 -1.6257  0.7869
  533TMC3    H2 7918   2.678   2.772  14.745  0.6216 -0.5012 -1.3198
  533TMC3    C7 7919   2.421   2.710  14.814 -0.5010 -0.4317  0.9515
  533TMC3    C8 7920   2.785   2.671  14.543  0.2260  0.8184  0.1584
  533TMC3    O1 7921   2.326   2.635  14.805 -0.1508 -0.3595 -0.0613
  533TMC3    O2 7922   2.826   2.571  14.480  0.4924 -0.6142  0.0427
  534MPD2     C 7923   0.686   3.152   1.934  0.0837 -0.1709  0.0505
  534MPD2    C1 7924   0.624   3.216   1.821 -1.0177 -0.3876  0.1946
  534MPD2    C2 7925   0.551   3.142   1.727  0.6068 -0.1930 -0.0337
  534MPD2    C3 7926   0.550   3.006   1.734 -0.3761 -0.7499 -0.0323
  534MPD2    C4 7927   0.623   2.943   1.834 -0.1178 -0.5489  0.4297
  534MPD2    C5 7928   0.689   3.015   1.930  0.8936 -0.1294  1.1611
  534MPD2     H 7929   0.507   3.189   1.640  0.9383 -0.8059 -0.5352
  534MPD2    H1 7930   0.634   2.835   1.836 -0.9544 -0.7048 -2.8182
  534MPD2    H2 7931   0.751   3.200   2.007 -0.1917 -1.1355  0.9175
  534MPD2    H3 7932   0.736   2.959   2.010 -1.7061 -0.8046  2.2439
  534MPD2     N 7933   0.480   2.930   1.641 -0.3510  0.2932 -0.2230
  534MPD2    H5 7934   0.485   2.831   1.660 -0.7141  0.3640  0.2403
  534MPD2    N1 7935   0.619   3.357   1.797 -0.4745  0.0337  0.7684
  534MPD2    H7 7936   0.546   3.384   1.732 -0.5228 -0.0385  0.7920
  535TMC3    C1 7937   0.309   2.857   1.488 -0.0044  0.6632  0.0575
  535TMC3    C2 7938   0.261   2.768   1.572  0.0460  0.2884 -0.1873
  535TMC3    C3 7939   0.163   2.687   1.513 -0.4716  0.3477 -0.7620
  535TMC3    C4 7940   0.266   2.875   1.358 -0.0017  0.2265 -0.0016
  535TMC3    C5 7941   0.166   2.799   1.304  0.1434 -0.3393  0.0258
  535TMC3    C6 7942   0.115   2.704   1.385  0.0261 -0.0781 -0.5592
  535TMC3     C 7943   0.389   2.971   1.544 -0.4311  0.7320 -0.1021
  535TMC3     O 7944   0.376   3.082   1.495 -0.3734 -0.0082  0.5539
  535TMC3     H 7945   0.284   2.773   1.678  0.5088  0.0274 -0.2759
  535TMC3    H1 7946   0.303   2.955   1.295  0.6209 -0.9859 -1.1804
  535TMC3    H2 7947   0.039   2.639   1.343 -0.7390  0.1264  0.5220
  535TMC3    C7 7948   0.140   2.800   1.167  0.5455  0.3772  0.2992
  535TMC3    C8 7949   0.065   2.643   1.604  0.5701 -0.3680  0.3785
  535TMC3    O1 7950   0.103   2.693   1.114 -0.4694  0.3537 -0.3606
  535TMC3    O2 7951   4.671   2.642   1.563  0.0690  0.7541 -0.8357
  536MPD2     C 7952   2.990   1.011  16.217  0.2368 -0.1057  0.5362
  536MPD2    C1 7953   3.018   1.124  16.280  0.6579  0.5023 -0.4470
  536MPD2    C2 7954   3.014   1.245  16.206 -0.5804  0.0776 -0.3820
  536MPD2    C3 7955   2.988   1.245  16.070  0.5619  0.3601 -0.8368
  536MPD2    C4 7956   2.959   1.128  16.011 -0.4516  0.4413 -0.0548
  536MPD2    C5 7957   2.964   1.007  16.084  0.0413 -0.3155 -0.2479
  536MPD2     H 7958   3.050   1.336  16.253 -0.1450  1.3030 -3.0880
  536MPD2    H1 7959   2.945   1.129  15.903  2.1947 -0.9732 -0.4193
  536MPD2    H2 7960   3.003   0.918  16.271  1.0939 -0.0300  0.4610
  536MPD2    H3 7961   2.931   0.918  16.031  1.2780 -1.1542  0.3837
  536MPD2     N 7962   2.999   1.361  15.987 -0.0313  0.3324 -0.3511
  536MPD2    H5 7963   2.987   1.354  15.886 -1.3211  0.5807 -0.2121
  536MPD2    N1 7964   3.046   1.121  16.418  0.1400 -0.0940 -0.2364
  536MPD2    H7 7965   3.034   1.028  16.457  0.2441  0.8470  2.0793
  537TMC3    C1 7966   3.113   1.203  16.639 -0.1405 -0.9629 -0.5925
  537TMC3    C2 7967   3.223   1.267  16.690  0.3737  0.6192  0.7573
  537TMC3    C3 7968   3.251   1.243  16.825 -0.8041  0.0004 -0.8397
  537TMC3    C4 7969   3.046   1.097  16.693 -0.0372 -0.2306 -0.4657
  537TMC3    C5 7970   3.085   1.074  16.821  0.1026 -0.5680  0.3790
  537TMC3    C6 7971   3.185   1.141  16.887 -0.5659  0.3102 -0.0664
  537TMC3     C 7972   3.088   1.232  16.498 -0.6055 -0.6885  0.2563
  537TMC3     O 7973   3.103   1.350  16.481  0.1187 -0.1098 -0.7484
  537TMC3     H 7974   3.285   1.338  16.635  1.3458 -0.9836 -0.2068
  537TMC3    H1 7975   2.949   1.073  16.651 -1.1917 -0.7309  2.5123
  537TMC3    H2 7976   3.199   1.125  16.993 -0.8312 -3.1256 -0.5483
  537TMC3    C7 7977   3.011   0.965  16.880 -0.7044 -0.0195 -0.3662
  537TMC3    C8 7978   3.299   1.354  16.912 -0.3135  0.2749 -0.6196
  537TMC3    O1 7979   2.899   0.942  16.836 -0.0080 -0.7103  0.4768
  537TMC3    O2 7980   3.322   1.316  17.022  0.4967 -0.0341  0.3264
  538TMC3    C1 7981   0.580   0.704  11.092  0.5357 -0.6892  0.4516
  538TMC3    C2 7982   0.643   0.612  11.010 -0.1050 -0.7185 -0.2463
  538TMC3    C3 7983   0.600   0.614  10.874 -1.1100  0.8500 -0.4402
  538TMC3    C4 7984   0.479   0.784  11.051  0.5710 -0.2097 -0.5100
  538TMC3    C5 7985   0.440   0.775  10.920  0.4410  0.7435 -0.1073
  538TMC3    C6 7986   0.500   0.693  10.823 -0.4422 -0.1810  0.2468
  538TMC3     C 7987   0.615   0.706  11.233 -0.8799 -0.3729 -0.2696
  538TMC3     O 7988   0.531   0.746  11.314 -0.3008 -0.2815  0.3103
  538TMC3     H 7989   0.722   0.543  11.041  1.1028  0.0776 -1.5630
  538TMC3    H1 7990   0.440   0.855  11.123  0.7579  0.4847 -1.0963
  538TMC3    H2 7991   0.462   0.689  10.722 -1.8206 -0.2266  0.7606
  538TMC3    C7 7992   0.372   0.886  10.856 -0.2258 -0.3853  0.2447
  538TMC3    C8 7993   0.683   0.547  10.783  0.8689  0.1819  0.1584
  538TMC3    O1 7994   0.303   0.879  10.755 -0.1160 -0.2942  0.0111
  538TMC3    O2 7995   0.803   0.531  10.819 -0.4449 -0.2565  0.2656
  539MPD2     C 7996   0.169   0.160  11.730  0.3409 -0.3421 -0.1236
  539MPD2    C1 7997   0.247   0.166  11.605  0.0185  0.0535  0.4762
  539MPD2    C2 7998   0.289   0.287  11.560  0.2873  0.1133  0.0585
  539MPD2    C3 7999   0.245   0.402  11.614  0.2706 -0.6569 -0.5670
  539MPD2    C4 8000   0.177   0.403  11.733  0.3507  0.0533 -0.5567
  539MPD2    C5 8001   0.139   0.280  11.794 -0.5969  0.0141 -0.5649
  539MPD2     H 8002   0.340   0.289  11.464 -1.3313 -1.0377 -0.8418
  539MPD2    H1 8003   0.132   0.480  11.794 -2.6195 -0.5195 -2.0147
  539MPD2    H2 8004   0.117   0.071  11.764  0.6892 -0.4227  0.1911
  539MPD2    H3 8005   0.071   0.284  11.879  3.3679  1.1718  2.5059
  539MPD2     N 8006   0.255   0.528  11.542  0.7157 -0.4690  0.0793
  539MPD2    H5 8007   0.200   0.601  11.588  4.4801  3.5097 -1.6652
  539MPD2    N1 8008   0.285   0.049  11.540 -0.2426 -0.0426 -0.2691
  539MPD2    H7 8009   0.328   0.066  11.449  1.9152  0.5839  0.8689
  540TMC3    C1 8010   0.269   0.679  11.378  0.3834 -0.0695  0.0891
  540TMC3    C2 8011   0.200   0.689  11.256  0.9240  0.1268 -0.0522
  540TMC3    C3 8012   0.122   0.805  11.248 -0.0269  0.4224  0.6474
  540TMC3    C4 8013   0.252   0.773  11.477 -0.0434 -0.2004 -0.2113
  540TMC3    C5 8014   0.187   0.891  11.453 -0.2823 -0.1380  0.0105
  540TMC3    C6 8015   0.119   0.908  11.334  0.0882  0.6690  0.1765
  540TMC3     C 8016   0.315   0.548  11.422 -0.0083  0.7655 -0.1381
  540TMC3     O 8017   0.369   0.480  11.336  0.0278  0.0383 -0.3782
  540TMC3     H 8018   0.217   0.614  11.179  2.2588  0.1001  0.2752
  540TMC3    H1 8019   0.322   0.763  11.560  0.2290 -0.8044 -0.5185
  540TMC3    H2 8020   0.068   1.003  11.324 -0.5437  0.1945 -1.1317
  540TMC3    C7 8021   0.121   0.947  11.569 -0.4659 -0.1717 -0.0375
  540TMC3    C8 8022   0.064   0.834  11.119 -0.3706 -0.3361 -0.6693
  540TMC3    O1 8023   0.002   0.976  11.559 -0.2379  0.1072  0.2203
  540TMC3    O2 8024   0.077   0.944  11.070 -0.4014  0.2906  0.6442
  541MPD2     C 8025   2.700   1.018  13.078  0.0106  0.0715  0.3622
  541MPD2    C1 8026   2.777   0.958  12.983 -0.1424 -0.1586 -0.4224
  541MPD2    C2 8027   2.792   1.012  12.864  0.0866  0.1714 -0.3410
  541MPD2    C3 8028   2.717   1.120  12.822  0.0971  0.6616  0.2865
  541MPD2    C4 8029   2.647   1.184  12.919 -0.2033 -0.0954  0.6459
  541MPD2    C5 8030   2.635   1.130  13.044 -0.6384 -0.2408  0.0352
  541MPD2     H 8031   2.852   0.958  12.791  0.9106  0.0769  0.4038
  541MPD2    H1 8032   2.595   1.277  12.905  1.5625  0.6537 -0.8793
  541MPD2    H2 8033   2.669   0.981  13.175  0.3262  1.5271  1.0262
  541MPD2    H3 8034   2.582   1.181  13.123 -1.5879  2.6998 -2.4946
  541MPD2     N 8035   2.714   1.176  12.691  0.1646 -0.5428  0.6167
  541MPD2    H5 8036   2.683   1.272  12.679 -0.1683 -0.6788  0.3769
  541MPD2    N1 8037   2.827   0.832  13.029  0.3722  0.1092 -0.0301
  541MPD2    H7 8038   2.790   0.792  13.114 -3.0958  0.6069 -1.3322
  542TMC3    C1 8039   2.749   1.195  12.462 -0.0863 -0.7377 -0.1165
  542TMC3    C2 8040   2.821   1.167  12.350 -0.4061 -0.0580  0.2140
  542TMC3    C3 8041   2.788   1.220  12.226  0.4854  0.6144 -0.3940
  542TMC3    C4 8042   2.638   1.279  12.456  0.1929 -0.1744  0.0985
  542TMC3    C5 8043   2.603   1.326  12.328  0.2956 -0.1138  0.2354
  542TMC3    C6 8044   2.674   1.304  12.216 -0.3797  0.7897 -0.0789
  542TMC3     C 8045   2.763   1.110  12.576  0.1009  0.3293 -0.3236
  542TMC3     O 8046   2.794   0.992  12.559  0.1852 -0.7773  0.1165
  542TMC3     H 8047   2.899   1.093  12.362  0.6955  0.8514 -1.2956
  542TMC3    H1 8048   2.584   1.298  12.548  0.1804 -2.1231  0.4982
  542TMC3    H2 8049   2.655   1.348  12.118 -0.7051  1.3761  0.2437
  542TMC3    C7 8050   2.465   1.377  12.322 -0.3395 -0.1033 -0.1300
  542TMC3    C8 8051   2.874   1.205  12.104 -0.1951  0.2448 -0.7299
  542TMC3    O1 8052   2.411   1.401  12.430 -0.0919 -0.4483 -0.0690
  542TMC3    O2 8053   2.849   1.281  12.010 -0.1994  0.2962  0.6330
  543TMC3    C1 8054   2.933   2.383  17.635  1.0137 -0.1471  0.1131
  543TMC3    C2 8055   2.900   2.248  17.646  0.1932  0.3185 -0.2600
  543TMC3    C3 8056   2.822   2.211   0.068  0.1950  0.6850  0.2435
  543TMC3    C4 8057   2.893   2.469   0.044  0.1260  0.3341  0.1544
  543TMC3    C5 8058   2.827   2.424   0.157  0.1673 -0.5417 -0.5559
  543TMC3    C6 8059   2.788   2.290   0.171  0.1005  0.1436  0.4453
  543TMC3     C 8060   2.967   2.425  17.500  0.0830 -0.5149 -0.2547
  543TMC3     O 8061   3.042   2.348  17.440  0.2820  0.5022  0.6364
  543TMC3     H 8062   2.928   2.184  17.563 -1.3425  0.9249 -1.2520
  543TMC3    H1 8063   2.918   2.574   0.032 -0.3847  0.4821  0.3814
  543TMC3    H2 8064   2.740   2.262   0.264  0.0744  0.0912  0.4156
  543TMC3    C7 8065   2.772   2.517   0.245  0.3238  0.4159  0.1820
  543TMC3    C8 8066   2.808   2.074   0.099  0.1497  0.5898 -0.0997
  543TMC3    O1 8067   2.834   2.619   0.262 -0.8527 -0.8839 -0.1635
  543TMC3    O2 8068   2.884   1.998   0.038  0.1775  0.2917 -0.6209
  544MPD2     C 8069   2.551   1.668   0.287  0.2483  0.5830 -0.0050
  544MPD2    C1 8070   2.653   1.675   0.193  0.3013  0.3814  0.2612
  544MPD2    C2 8071   2.717   1.792   0.156 -0.3939  0.7979  0.1557
  544MPD2    C3 8072   2.654   1.905   0.202 -0.2605 -0.1731 -0.1168
  544MPD2    C4 8073   2.536   1.897   0.281 -0.0559  0.1383  0.0219
  544MPD2    C5 8074   2.486   1.780   0.331  0.4897 -0.1225  0.3165
  544MPD2     H 8075   2.796   1.789   0.082 -0.0288 -1.5556  0.6505
  544MPD2    H1 8076   2.497   1.993   0.311  0.2296 -0.0337  0.9388
  544MPD2    H2 8077   2.528   1.575   0.338 -2.3894  0.3239 -1.6582
  544MPD2    H3 8078   2.401   1.787   0.399  0.3674  1.7210 -0.0052
  544MPD2     N 8079   2.700   2.039   0.175  0.4666  0.6039  0.6247
  544MPD2    H5 8080   2.635   2.110   0.207  1.2634  0.7642  1.8889
  544MPD2    N1 8081   2.709   1.551   0.161 -0.0842 -0.1411 -0.2463
  544MPD2    H7 8082   2.665   1.468   0.197 -0.0875  0.2971  0.7699
  545TMC3    C1 8083   2.834   1.392   0.044 -0.3393 -0.4190 -0.3314
  545TMC3    C2 8084   2.960   1.338   0.025  0.3323 -0.5047 -0.7230
  545TMC3    C3 8085   2.968   1.205   0.014 -0.0952  0.1432 -0.3587
  545TMC3    C4 8086   2.724   1.314   0.052  0.3952 -0.6140  0.3864
  545TMC3    C5 8087   2.746   1.178   0.054 -0.2154  0.1405  0.6368
  545TMC3    C6 8088   2.861   1.119   0.017 -0.7205  0.3720  0.4738
  545TMC3     C 8089   2.826   1.528   0.089  0.0546  0.3721 -0.3702
  545TMC3     O 8090   2.916   1.609   0.069  0.2549  0.2807  0.3971
  545TMC3     H 8091   3.047   1.402   0.026 -0.4459  0.5694 -1.2339
  545TMC3    H1 8092   2.626   1.356   0.073  1.2398  1.3708  0.3141
  545TMC3    H2 8093   2.875   1.013   0.002  0.3161  0.3941  1.2962
  545TMC3    C7 8094   2.638   1.090   0.106 -1.0160 -1.2584 -0.9134
  545TMC3    C8 8095   3.098   1.143   0.010  0.8933 -0.4203 -0.4432
  545TMC3    O1 8096   2.523   1.124   0.097 -0.2313 -0.3313 -0.0167
  545TMC3    O2 8097   3.104   1.036   0.070  0.3477  0.2254 -0.3454
  546MPD2     C 8098   3.957   1.775   0.194 -0.5275  0.1573 -0.7215
  546MPD2    C1 8099   3.926   1.849   0.084  0.2544 -0.6985 -0.1516
  546MPD2    C2 8100   4.023   1.927   0.032 -0.0019  0.2778  0.1904
  546MPD2    C3 8101   4.151   1.935   0.085 -0.3624 -0.3138 -0.1619
  546MPD2    C4 8102   4.182   1.857   0.194 -0.1083  0.2457 -0.1950
  546MPD2    C5 8103   4.084   1.780   0.249  0.3250  0.4541  0.3098
  546MPD2     H 8104   3.990   1.995  17.642 -0.7669 -1.4898 -1.0277
  546MPD2    H1 8105   4.277   1.849   0.246  2.2652 -1.6424 -4.8864
  546MPD2    H2 8106   3.876   1.716   0.236  0.1624 -0.0177  0.3698
  546MPD2    H3 8107   4.099   1.731   0.345 -1.1152  0.9849  0.8169
  546MPD2     N 8108   4.259   2.016   0.032  0.0660  0.0060 -0.4041
  546MPD2    H5 8109   4.353   1.997   0.067  0.3605  1.0187 -0.6570
  546MPD2    N1 8110   3.805   1.834   0.028  0.1888 -0.0322 -1.0753
  546MPD2    H7 8111   3.740   1.787   0.090  1.0696  0.3714  0.1507
  547TMC3    C1 8112   3.632   1.820  17.560  1.0585 -0.0951 -0.7755
  547TMC3    C2 8113   3.564   1.859  17.449  0.0329  0.4914  1.2036
  547TMC3    C3 8114   3.447   1.795  17.415  0.2624 -0.2471 -0.1159
  547TMC3    C4 8115   3.578   1.717  17.637 -0.1885  0.3303  0.3617
  547TMC3    C5 8116   3.460   1.658  17.600  0.0629  0.1718  0.2118
  547TMC3    C6 8117   3.386   1.692  17.486 -0.2589 -0.6306 -0.0557
  547TMC3     C 8118   3.759   1.877  17.587 -0.1358 -0.4974  0.7333
  547TMC3     O 8119   3.806   1.958  17.511  0.5172 -0.1477 -0.6783
  547TMC3     H 8120   3.610   1.924  17.375 -0.7216 -0.7860 -0.3965
  547TMC3    H1 8121   3.625   1.671   0.035 -0.7745  1.5244  1.3146
  547TMC3    H2 8122   3.300   1.637  17.450 -1.0451 -0.7523  2.0084
  547TMC3    C7 8123   3.376   1.595   0.014  0.4058 -0.0218 -0.2551
  547TMC3    C8 8124   3.377   1.853  17.295  0.7296 -0.1092  0.1816
  547TMC3    O1 8125   3.262   1.638   0.013 -0.1377 -0.0743  0.2533
  547TMC3    O2 8126   3.416   1.969  17.274  0.2350  0.2359 -0.1169
  548MPD2     C 8127   3.752   2.694  12.875 -0.0434  0.2415  0.9387
  548MPD2    C1 8128   3.690   2.595  12.803 -0.0665 -0.5041 -0.3384
  548MPD2    C2 8129   3.769   2.491  12.747 -0.3786 -0.8740 -0.5654
  548MPD2    C3 8130   3.904   2.476  12.773  0.1304 -0.4071 -0.0805
  548MPD2    C4 8131   3.968   2.586  12.841 -0.2366 -0.3034 -0.1352
  548MPD2    C5 8132   3.892   2.689  12.892  1.0117 -0.1691 -0.4628
  548MPD2     H 8133   3.717   2.412  12.694 -0.2139 -2.6355  1.8913
  548MPD2    H1 8134   4.075   2.589  12.856 -0.2367 -2.2383  0.1922
  548MPD2    H2 8135   3.695   2.778  12.916 -0.6454  0.5885 -0.5912
  548MPD2    H3 8136   3.950   2.761  12.948 -2.0904  2.3644 -0.5354
  548MPD2     N 8137   3.965   2.359  12.725  0.1820 -0.1629  0.3778
  548MPD2    H5 8138   3.916   2.282  12.680  0.0979 -0.8354  1.6339
  548MPD2    N1 8139   3.552   2.613  12.787 -0.5998  0.4157 -0.5707
  548MPD2    H7 8140   3.515   2.702  12.819 -0.1133  0.4003  0.0384
  549TMC3    C1 8141   3.336   2.580  12.712  0.1479 -0.1131 -1.2169
  549TMC3    C2 8142   3.307   2.712  12.729 -0.1814 -0.4235 -1.2673
  549TMC3    C3 8143   3.180   2.762  12.736 -0.3171 -0.2697  0.5467
  549TMC3    C4 8144   3.235   2.494  12.709 -0.7589 -0.4237  0.6021
  549TMC3    C5 8145   3.098   2.546  12.711  0.3661  0.7252  0.1838
  549TMC3    C6 8146   3.071   2.677  12.728 -0.0915 -0.2237 -0.2098
  549TMC3     C 8147   3.470   2.522  12.726  0.8816  0.2958  0.0242
  549TMC3     O 8148   3.489   2.403  12.710 -0.2398  1.0179  0.2250
  549TMC3     H 8149   3.388   2.775  12.693  0.7345 -0.1511  1.2179
  549TMC3    H1 8150   3.249   2.387  12.700  1.5819 -0.0656  0.1919
  549TMC3    H2 8151   2.968   2.711  12.734  0.6620  1.6972  1.9759
  549TMC3    C7 8152   2.983   2.459  12.697 -0.4239  0.2198 -0.2459
  549TMC3    C8 8153   3.157   2.903  12.728  0.0296 -0.0200 -0.1036
  549TMC3    O1 8154   2.875   2.505  12.724  0.0462  0.2940  0.8641
  549TMC3    O2 8155   3.041   2.938  12.714 -0.6166  0.6491 -0.6328
  550TMC3    C1 8156   2.101   0.857  12.218  0.0517  0.6906  0.0830
  550TMC3    C2 8157   2.070   0.923  12.337 -0.3649 -0.2957 -0.1000
  550TMC3    C3 8158   2.000   1.040  12.336 -0.4126 -0.1745  0.1893
  550TMC3    C4 8159   2.056   0.898  12.094  0.4777  0.0713 -0.0612
  550TMC3    C5 8160   1.975   1.010  12.099  0.1159 -0.2356 -0.0717
  550TMC3    C6 8161   1.947   1.085  12.215 -0.7762  0.2702 -0.9622
  550TMC3     C 8162   2.196   0.745  12.226 -0.0513 -1.1351 -0.1495
  550TMC3     O 8163   2.223   0.697  12.334  0.3446 -0.0144 -0.0821
  550TMC3     H 8164   2.123   0.896  12.428 -0.5403  0.1497  0.1323
  550TMC3    H1 8165   2.056   0.834  12.006 -0.6059 -1.5997  1.1607
  550TMC3    H2 8166   1.878   1.169  12.216  0.1027  0.9982 -1.0125
  550TMC3    C7 8167   1.928   1.079  11.982  0.4227  0.0760 -0.8177
  550TMC3    C8 8168   1.953   1.104  12.455 -0.7542 -0.0430  0.5764
  550TMC3    O1 8169   1.825   1.143  11.982  0.0079  0.1570  0.5361
  550TMC3    O2 8170   1.886   1.200  12.444 -0.7377  0.0314 -0.2891
  551TMC3    C1 8171   4.457   3.611  13.015 -0.2434  0.0800 -0.0312
  551TMC3    C2 8172   4.577   3.673  13.025 -0.4819 -0.6328 -0.1236
  551TMC3    C3 8173   4.639   3.665  13.142  0.8069  0.2609  0.1793
  551TMC3    C4 8174   4.388   3.548  13.118  0.1977 -0.2278 -1.0253
  551TMC3    C5 8175   4.465   3.534  13.237 -0.5262 -0.1949  0.5864
  551TMC3    C6 8176   4.586   3.599  13.250  0.6052 -0.7441 -0.8000
  551TMC3     C 8177   4.408   3.584  12.877 -1.1468  0.1596 -0.2696
  551TMC3     O 8178   4.443   3.667  12.792 -0.1355  0.1122 -0.0441
  551TMC3     H 8179   4.621   3.719  12.938 -0.8468 -2.4104 -1.2350
  551TMC3    H1 8180   4.293   3.496  13.110  0.4777 -0.7059 -1.2773
  551TMC3    H2 8181   4.652   3.591  13.336  0.3608 -5.5233 -1.0637
  551TMC3    C7 8182   4.404   3.463  13.346 -0.0050  0.0349 -0.8624
  551TMC3    C8 8183   0.060   3.686  13.154  0.3521  0.0752 -0.2734
  551TMC3    O1 8184   4.296   3.419  13.312  0.3858 -0.0544 -0.3887
  551TMC3    O2 8185   0.120   3.612  13.226 -0.6856 -0.8836  0.0944
  552MPD2     C 8186   1.397   0.710  14.520  0.6439 -0.3415 -0.1946
  552MPD2    C1 8187   1.480   0.618  14.458  0.2222  0.5220  0.1387
  552MPD2    C2 8188   1.614   0.607  14.491  0.4211 -0.1958 -0.0830
  552MPD2    C3 8189   1.662   0.668  14.611 -0.1808  0.1059 -0.4057
  552MPD2    C4 8190   1.578   0.751  14.682  0.2949 -0.3455  0.6395
  552MPD2    C5 8191   1.448   0.774  14.636  0.1297  0.5725 -0.1254
  552MPD2     H 8192   1.675   0.547  14.424 -0.2410 -0.9104 -0.0481
  552MPD2    H1 8193   1.613   0.798  14.774 -1.3336  1.3260  0.4101
  552MPD2    H2 8194   1.303   0.741  14.476  0.9868 -2.7835 -2.6706
  552MPD2    H3 8195   1.391   0.856  14.679 -1.1749 -1.6034  2.2908
  552MPD2     N 8196   1.790   0.636  14.659  0.1161  0.3344 -0.1223
  552MPD2    H5 8197   1.809   0.652  14.758 -1.4136  0.4566  0.1462
  552MPD2    N1 8198   1.442   0.539  14.348  0.4619  0.2188 -0.4601
  552MPD2    H7 8199   1.502   0.476  14.294  0.4054  1.5854 -2.1079
  553TMC3    C1 8200   1.301   0.396  14.228  0.3417  0.2183  0.1523
  553TMC3    C2 8201   1.269   0.393  14.094  0.5180  0.0967  0.5415
  553TMC3    C3 8202   1.314   0.294  14.014  0.2094 -0.0622  0.1830
  553TMC3    C4 8203   1.374   0.293  14.290  0.1708 -0.1872  0.3231
  553TMC3    C5 8204   1.409   0.194  14.203  0.2965  0.1692  0.3458
  553TMC3    C6 8205   1.394   0.191  14.068 -0.4361 -0.0559  0.1065
  553TMC3     C 8206   1.316   0.525  14.293 -0.4472  0.5434  0.6676
  553TMC3     O 8207   1.211   0.590  14.320  0.1126  0.0831  0.1948
  553TMC3     H 8208   1.233   0.479  14.039  2.0764  0.4131  0.0371
  553TMC3    H1 8209   1.393   0.287  14.397  0.0548 -2.5698  0.2252
  553TMC3    H2 8210   1.422   0.102  14.012  0.2784  1.3119 -1.7093
  553TMC3    C7 8211   1.522   0.108  14.243  0.3261 -0.5704 -0.3766
  553TMC3    C8 8212   1.296   0.285  13.871  0.6734  0.1570  0.0223
  553TMC3    O1 8213   1.543   0.083  14.358 -0.0797 -0.4381  0.5909
  553TMC3    O2 8214   1.356   0.201  13.806  0.4299  0.4765 -0.0884
  554TMC3    C1 8215   3.993   0.194  11.372 -0.0597  0.3402 -0.1600
  554TMC3    C2 8216   3.965   0.184  11.235 -0.3387 -0.5142  0.4614
  554TMC3    C3 8217   4.056   0.234  11.146 -0.6844 -1.1314  0.1996
  554TMC3    C4 8218   4.089   0.279  11.415  0.5329  0.4711  0.5925
  554TMC3    C5 8219   4.179   0.327  11.323 -0.2306 -0.5849 -0.4812
  554TMC3    C6 8220   4.158   0.308  11.190  1.0832  0.2816 -0.0502
  554TMC3     C 8221   3.891   0.149  11.466 -0.4716 -0.1132 -0.2067
  554TMC3     O 8222   3.780   0.133  11.420  0.1629 -0.1244 -0.6413
  554TMC3     H 8223   3.874   0.142  11.193 -0.5471  0.5233 -0.1160
  554TMC3    H1 8224   4.114   0.295  11.519  0.0015  2.7001  0.3894
  554TMC3    H2 8225   4.236   0.331  11.118 -0.1887  0.6959 -1.2942
  554TMC3    C7 8226   4.275   0.431  11.362  0.2520 -0.8488 -0.4280
  554TMC3    C8 8227   4.021   0.240  11.008  0.2279 -0.2640  0.3143
  554TMC3    O1 8228   4.321   0.422  11.474 -0.1571 -0.6621  0.0995
  554TMC3    O2 8229   4.031   0.344  10.950  0.3860 -0.2716  0.3823
  555TMC3    C1 8230   2.297   3.858  15.287  0.3556 -0.1710 -0.2436
  555TMC3    C2 8231   2.249   3.928  15.391 -0.1867 -0.1877  0.1447
  555TMC3    C3 8232   2.240   3.868  15.516  0.2649  0.1350  0.0056
  555TMC3    C4 8233   2.338   3.728  15.304 -0.2285  0.6642  0.3793
  555TMC3    C5 8234   2.323   3.670  15.430  0.0300 -0.1903 -0.4920
  555TMC3    C6 8235   2.271   3.739  15.540 -0.5424 -0.6681 -0.2114
  555TMC3     C 8236   2.360   3.929  15.172 -0.5698  0.8581 -0.1092
  555TMC3     O 8237   2.456   3.888  15.111  0.1132 -0.0609  0.0389
  555TMC3     H 8238   2.263   4.035  15.384  1.0799 -0.3689  0.0012
  555TMC3    H1 8239   2.378   3.683  15.214  1.7626  2.9656  0.1152
  555TMC3    H2 8240   2.257   3.700  15.640  3.3227 -1.2433  0.0807
  555TMC3    C7 8241   2.372   3.535  15.450 -1.0340 -0.4133 -0.5583
  555TMC3    C8 8242   2.226   3.967  15.615  0.3236  0.1436  0.6300
  555TMC3    O1 8243   2.362   3.498  15.564 -0.1205 -0.5867  0.9709
  555TMC3    O2 8244   2.154   4.060  15.588  0.2432  0.1512 -0.0772
  556MPD2     C 8245   1.567   1.080  10.592 -0.2339 -0.0036  0.0724
  556MPD2    C1 8246   1.442   1.043  10.623 -0.1611  0.0395 -0.9488
  556MPD2    C2 8247   1.381   0.938  10.558 -0.3510 -0.1973 -0.5629
  556MPD2    C3 8248   1.440   0.881  10.449 -0.6936 -0.6796 -0.0012
  556MPD2    C4 8249   1.564   0.927  10.411 -0.2285  0.6952  1.2689
  556MPD2    C5 8250   1.626   1.023  10.486  0.3038 -0.0727  0.4391
  556MPD2     H 8251   1.289   0.904  10.602 -0.5807  1.8898  0.5761
  556MPD2    H1 8252   1.609   0.900  10.316  2.4758  0.9085  2.4844
  556MPD2    H2 8253   1.628   1.147  10.651  0.6454 -0.9625  0.2654
  556MPD2    H3 8254   1.726   1.055  10.456  0.1385  0.0004 -0.0398
  556MPD2     N 8255   1.374   0.762  10.394 -0.4959  0.4142  0.4440
  556MPD2    H5 8256   1.283   0.739  10.433 -1.9068  0.4232 -2.8914
  556MPD2    N1 8257   1.373   1.100  10.732 -0.6931  0.7311 -0.1646
  556MPD2    H7 8258   1.291   1.056  10.772 -0.9071  0.6122 -0.7316
  557TMC3    C1 8259   1.336   0.583  10.259 -0.0160  0.1682 -0.2130
  557TMC3    C2 8260   1.355   0.526  10.139 -0.4730 -0.0459  0.0696
  557TMC3    C3 8261   1.280   0.412  10.114 -0.2487 -0.2443  0.3169
  557TMC3    C4 8262   1.258   0.531  10.361 -0.4903  0.2668 -0.6591
  557TMC3    C5 8263   1.197   0.411  10.332 -0.0848 -0.4840  0.0734
  557TMC3    C6 8264   1.197   0.356  10.203 -0.2022 -0.2983  0.3138
  557TMC3     C 8265   1.424   0.691  10.286 -0.0812  0.5217  0.4088
  557TMC3     O 8266   1.524   0.702  10.221  0.2240  0.2731  0.0047
  557TMC3     H 8267   1.400   0.578  10.055 -0.0468 -1.6615 -0.7107
  557TMC3    H1 8268   1.243   0.575  10.459  0.7334 -0.4745 -0.1376
  557TMC3    H2 8269   1.132   0.272  10.182  0.5229 -0.7809 -0.0000
  557TMC3    C7 8270   1.088   0.386  10.423  0.6219 -0.3682  0.2477
  557TMC3    C8 8271   1.301   0.369   9.976  0.3560  0.1351 -0.4536
  557TMC3    O1 8272   1.108   0.408  10.542 -0.2615 -0.1265  0.4711
  557TMC3    O2 8273   1.400   0.409   9.912  0.4624  0.5294  0.5183
  558TMC3    C1 8274   3.657   4.065  10.569 -0.5225 -0.2423  0.4527
  558TMC3    C2 8275   3.567   4.000  10.655  0.2998  0.6122 -0.5878
  558TMC3    C3 8276   3.433   4.032  10.630  0.1135 -0.4933  0.5936
  558TMC3    C4 8277   3.620   4.150  10.471  0.2039 -0.5343 -0.3039
  558TMC3    C5 8278   3.492   4.188  10.458  0.5034 -0.5275 -0.1527
  558TMC3    C6 8279   3.400   4.116  10.530 -0.0512  0.2149  0.2237
  558TMC3     C 8280   3.803   4.052  10.595 -0.6704 -0.0433  0.2596
  558TMC3     O 8281   3.878   4.069  10.502 -0.1953  0.1683  0.3076
  558TMC3     H 8282   3.608   3.933  10.730 -0.7764  0.1501 -0.4093
  558TMC3    H1 8283   3.697   4.181  10.401 -0.8809  1.1564 -0.7582
  558TMC3    H2 8284   3.296   4.146  10.522  0.1556  0.3316 -2.0239
  558TMC3    C7 8285   3.457   4.272  10.345 -0.5252  0.2062  0.4272
  558TMC3    C8 8286   3.343   3.921  10.660 -0.4335 -0.0278  0.7558
  558TMC3    O1 8287   3.546   4.335  10.292  1.2381 -0.1197  0.7068
  558TMC3    O2 8288   3.246   3.911  10.589  0.4260 -0.0775 -0.1327
  559MPD2     C 8289   3.573   4.381  10.757  0.7560  0.0520  0.5800
  559MPD2    C1 8290   3.525   4.352  10.885 -0.0064  0.6196  0.4456
  559MPD2    C2 8291   3.621   4.313  10.983  0.1238 -0.4112 -0.5083
  559MPD2    C3 8292   3.758   4.299  10.953 -0.0302  0.2906  0.5965
  559MPD2    C4 8293   3.792   4.317  10.818 -0.3377 -0.1440  0.4789
  559MPD2    C5 8294   3.708   4.372  10.728 -1.0505  0.3669 -0.3302
  559MPD2     H 8295   3.597   4.280  11.083 -3.7878  1.0311 -0.9829
  559MPD2    H1 8296   3.893   4.295  10.787  0.3120  1.0281  1.7783
  559MPD2    H2 8297   3.499   4.390  10.679 -0.9282  0.3641  2.2075
  559MPD2    H3 8298   3.749   4.409  10.635  0.7669 -3.0161 -0.8672
  559MPD2     N 8299   3.845   4.254  11.052 -0.0929  0.2567  0.0581
  559MPD2    H5 8300   3.809   4.211  11.137 -0.3239  1.0517  0.3629
  559MPD2    N1 8301   3.384   4.374  10.894  0.3400 -1.0927 -0.1322
  559MPD2    H7 8302   3.335   4.394  10.807  0.5600  1.0806  0.2391
  560TMC3    C1 8303   4.042   4.222  11.159 -0.8640  0.1224  0.2043
  560TMC3    C2 8304   4.021   4.094  11.208 -0.1459 -0.3907 -0.5849
  560TMC3    C3 8305   4.117   4.035  11.288  0.5117 -0.3725 -0.2754
  560TMC3    C4 8306   4.154   4.294  11.193 -0.6996 -0.1080  0.0361
  560TMC3    C5 8307   4.245   4.223  11.272 -0.1199 -0.5295 -0.7265
  560TMC3    C6 8308   4.232   4.095  11.314 -0.1653 -0.3566  0.3161
  560TMC3     C 8309   3.980   4.267  11.037 -0.8201  0.6706 -0.2411
  560TMC3     O 8310   4.049   4.314  10.949 -0.0069 -0.8909 -0.4202
  560TMC3     H 8311   3.932   4.035  11.187 -0.1718 -1.0899  1.4959
  560TMC3    H1 8312   4.172   4.392  11.149 -0.9956  0.7600  1.8353
  560TMC3    H2 8313   4.302   4.040  11.376  0.4730  1.7810  1.4828
  560TMC3    C7 8314   4.325   4.299  11.368  0.1512 -0.0705 -0.0868
  560TMC3    C8 8315   4.099   3.893  11.314  0.6031  0.1432 -0.6498
  560TMC3    O1 8316   4.341   4.251  11.477 -0.2205  0.0197 -0.0788
  560TMC3    O2 8317   3.986   3.844  11.300  0.1671  0.2269  0.2771
  561TMC3    C1 8318   1.603   3.367  11.451 -0.2346 -0.4894  0.4771
  561TMC3    C2 8319   1.505   3.286  11.504  0.1075 -0.3566 -0.9797
  561TMC3    C3 8320   1.386   3.337  11.529  0.2325  0.2666  0.2764
  561TMC3    C4 8321   1.578   3.496  11.417 -0.3173  0.1643 -0.0543
  561TMC3    C5 8322   1.449   3.539  11.439  0.1064  0.2892  0.2878
  561TMC3    C6 8323   1.352   3.462  11.496 -0.7345 -0.1897 -0.3625
  561TMC3     C 8324   1.740   3.316  11.461 -0.6138 -0.1918 -0.0264
  561TMC3     O 8325   1.779   3.254  11.561 -0.5298  0.1718  0.4219
  561TMC3     H 8326   1.532   3.185  11.535 -0.2823 -1.1264 -3.1551
  561TMC3    H1 8327   1.663   3.549  11.375  1.2771 -2.3708 -0.0119
  561TMC3    H2 8328   1.255   3.498  11.528  0.0420  1.8412 -0.3042
  561TMC3    C7 8329   1.411   3.673  11.401 -0.0894 -0.1631 -0.5012
  561TMC3    C8 8330   1.299   3.246  11.593  0.1922  0.0633  0.1564
  561TMC3    O1 8331   1.293   3.674  11.374 -0.2131 -0.2443 -0.0416
  561TMC3    O2 8332   1.318   3.127  11.576  0.3679 -0.1396  0.6606
  562TMC3    C1 8333   2.371   4.265  16.441 -0.6152 -0.0460  0.4993
  562TMC3    C2 8334   2.262   4.349  16.427  0.3246  0.4787  0.0613
  562TMC3    C3 8335   2.160   4.308  16.343 -0.0880 -0.0800 -0.7055
  562TMC3    C4 8336   2.376   4.143  16.376 -0.5419 -0.2494 -0.8107
  562TMC3    C5 8337   2.278   4.112  16.288  0.6439 -0.2190  0.2106
  562TMC3    C6 8338   2.170   4.192  16.267 -0.3872 -0.4210  0.1441
  562TMC3     C 8339   2.456   4.295  16.554  0.0457 -0.0906  0.4878
  562TMC3     O 8340   2.405   4.369  16.640 -0.4293  0.8332 -0.0722
  562TMC3     H 8341   2.259   4.438  16.488 -1.2060 -1.2730  2.5213
  562TMC3    H1 8342   2.442   4.066  16.417  0.5558  0.5780 -1.0207
  562TMC3    H2 8343   2.093   4.163  16.196 -0.4854 -0.7459  0.3795
  562TMC3    C7 8344   2.284   3.992  16.203 -0.5837  0.1887  0.2045
  562TMC3    C8 8345   2.057   4.403  16.327 -0.0001 -0.5822  0.2978
  562TMC3    O1 8346   2.177   3.945  16.166 -0.6290  0.2375  0.0537
  562TMC3    O2 8347   2.050   4.474  16.425 -0.4041 -0.1405 -0.3206
  563MPD2     C 8348   0.071   0.464  15.698 -0.5590 -0.7546  0.0561
  563MPD2    C1 8349   0.044   0.559  15.796  0.3236  0.5708 -0.2587
  563MPD2    C2 8350   0.109   0.679  15.798 -0.6814  0.5927  0.0355
  563MPD2    C3 8351   0.208   0.702  15.710  0.1953 -0.0555  0.1986
  563MPD2    C4 8352   0.229   0.620  15.603 -0.3687 -0.6611 -0.3181
  563MPD2    C5 8353   0.169   0.499  15.599 -0.0193 -0.4158  0.7453
  563MPD2     H 8354   0.085   0.759  15.866 -1.5146  2.1866 -2.1413
  563MPD2    H1 8355   0.308   0.642  15.532 -0.3818 -0.2231 -0.1955
  563MPD2    H2 8356   0.022   0.368  15.688  0.3552 -1.0232 -1.9034
  563MPD2    H3 8357   0.210   0.434  15.522 -0.1481 -0.1974  0.4939
  563MPD2     N 8358   0.296   0.813  15.733  0.2114 -0.0433 -0.3212
  563MPD2    H5 8359   0.275   0.865  15.817  2.7652  0.6213 -0.0927
  563MPD2    N1 8360   4.673   0.521  15.897  0.3409 -0.3952  0.0400
  563MPD2    H7 8361   4.642   0.425  15.889 -1.7716  0.3065 -0.4387
  564TMC3    C1 8362   4.593   0.508  16.116  0.4957  0.4080  0.5476
  564TMC3    C2 8363   4.561   0.375  16.089 -0.2781  0.5649  0.1945
  564TMC3    C3 8364   4.549   0.290  16.191  0.8800 -0.0417  0.1399
  564TMC3    C4 8365   4.600   0.551  16.247 -0.0457 -0.2958  0.8944
  564TMC3    C5 8366   4.606   0.458  16.348  0.2793  0.6165 -0.2245
  564TMC3    C6 8367   4.582   0.326  16.320 -0.2281 -0.2713 -0.7905
  564TMC3     C 8368   4.658   0.593  16.017 -0.2227  0.1058  0.4415
  564TMC3     O 8369   4.714   0.698  16.055 -0.3003  0.4178  0.0907
  564TMC3     H 8370   4.528   0.340  15.992 -1.4539  0.2303  0.7154
  564TMC3    H1 8371   4.640   0.650  16.265 -0.2162 -0.0227 -0.1894
  564TMC3    H2 8372   4.586   0.246  16.393 -3.1234  0.4899  0.1901
  564TMC3    C7 8373   4.673   0.478  16.464  0.9413  0.3097 -0.1666
  564TMC3    C8 8374   4.492   0.154  16.181 -0.7046  0.0293  0.4706
  564TMC3    O1 8375   0.024   0.387  16.500 -0.0572 -0.4561  0.0088
  564TMC3    O2 8376   4.450   0.108  16.289  0.2169  0.7652 -0.1546
  565TMC3    C1 8377   0.903   1.902  10.232  0.3759 -0.0188 -0.2177
  565TMC3    C2 8378   0.988   1.848  10.322 -0.5544 -0.5003 -0.1639
  565TMC3    C3 8379   0.976   1.713  10.341 -0.6215  0.5395 -0.1066
  565TMC3    C4 8380   0.807   1.832  10.164  0.0619 -0.0353  0.0173
  565TMC3    C5 8381   0.795   1.701  10.190 -0.6104 -0.2680  0.1600
  565TMC3    C6 8382   0.873   1.643  10.289  0.1766 -0.1183 -0.1947
  565TMC3     C 8383   0.916   2.040  10.188 -0.1346  0.1978 -0.6979
  565TMC3     O 8384   0.907   2.074  10.067 -0.3376 -0.5802  0.2734
  565TMC3     H 8385   1.075   1.897  10.365 -2.0421  0.6090  1.5993
  565TMC3    H1 8386   0.742   1.887  10.097  2.0442  1.1049 -0.9816
  565TMC3    H2 8387   0.873   1.535  10.298 -2.2781 -0.0308  0.8835
  565TMC3    C7 8388   0.682   1.628  10.136  0.3402  0.9852  0.5294
  565TMC3    C8 8389   1.020   1.674  10.473  0.0156  0.6652 -0.6265
  565TMC3    O1 8390   0.651   1.527  10.195 -0.7353 -0.0608 -0.3460
  565TMC3    O2 8391   1.031   1.773  10.542 -0.5870 -0.6141  0.4287
  566MPD2     C 8392   2.182   4.016  14.380 -0.0256  0.8387 -0.5889
  566MPD2    C1 8393   2.289   3.991  14.292 -0.2108 -0.2367 -0.6291
  566MPD2    C2 8394   2.255   3.965  14.161 -0.0067 -0.1742  0.3301
  566MPD2    C3 8395   2.123   3.963  14.115 -0.1716  0.0085  0.5511
  566MPD2    C4 8396   2.022   3.988  14.205  0.4482 -0.0587 -0.0391
  566MPD2    C5 8397   2.051   4.018  14.333  0.6290 -0.4477  0.3677
  566MPD2     H 8398   2.335   3.951  14.091  1.0296  1.0288  1.2595
  566MPD2    H1 8399   1.918   3.988  14.175  0.9373 -0.8970 -1.7282
  566MPD2    H2 8400   2.200   4.037  14.484  0.7002 -0.8244 -0.3712
  566MPD2    H3 8401   1.971   4.034  14.404 -0.3366 -0.0631 -0.8199
  566MPD2     N 8402   2.109   3.927  13.979 -0.3956  0.3385 -0.1012
  566MPD2    H5 8403   2.189   3.894  13.926  0.5288  1.2234  0.7343
  566MPD2    N1 8404   2.421   4.014  14.341  0.1231 -0.3264 -0.4640
  566MPD2    H7 8405   2.437   4.015  14.441 -0.9564 -4.3176 -0.2673
  567TMC3    C1 8406   2.659   3.959  14.320 -0.4239 -0.2281  0.2796
  567TMC3    C2 8407   2.767   3.981  14.237  0.1261 -0.3233  0.6321
  567TMC3    C3 8408   2.842   3.881  14.191  0.3113  0.0510 -0.1818
  567TMC3    C4 8409   2.641   3.836  14.379 -0.3488 -0.2735  0.2581
  567TMC3    C5 8410   2.719   3.734  14.320  0.4768 -0.4989 -0.1990
  567TMC3    C6 8411   2.811   3.754  14.227  0.4371  0.2230 -0.7241
  567TMC3     C 8412   2.534   3.997  14.255 -0.5417 -0.1555 -0.3422
  567TMC3     O 8413   2.538   4.021  14.138  0.3901  0.0225  0.3318
  567TMC3     H 8414   2.770   4.076  14.185  3.8899 -0.8428 -0.1233
  567TMC3    H1 8415   2.541   3.828  14.420 -0.2868 -0.1238  0.4358
  567TMC3    H2 8416   2.879   3.676  14.195  0.7226  0.6837 -1.2531
  567TMC3    C7 8417   2.670   3.600  14.320 -0.5439 -0.6902  0.5327
  567TMC3    C8 8418   2.899   3.894  14.057 -0.1607 -0.0475 -0.0098
  567TMC3    O1 8419   2.700   3.534  14.220 -0.5089 -0.4900 -0.4230
  567TMC3    O2 8420   2.851   3.827  13.963  0.1573 -0.1900 -0.5414
  568MPD2     C 8421   4.419   3.511  16.355 -0.3661  0.5336  0.7857
  568MPD2    C1 8422   4.316   3.515  16.449  0.0035  0.3132  0.0024
  568MPD2    C2 8423   4.249   3.634  16.447  0.1384 -0.1111  0.2015
  568MPD2    C3 8424   4.291   3.745  16.381  0.2188  0.0229  0.5530
  568MPD2    C4 8425   4.401   3.734  16.302 -0.8299  0.3324 -0.5980
  568MPD2    C5 8426   4.453   3.612  16.277 -0.1142 -0.7113 -0.3309
  568MPD2     H 8427   4.168   3.648  16.518 -0.7395  1.2985 -1.0984
  568MPD2    H1 8428   4.431   3.818  16.240  2.2283  1.8834  2.9263
  568MPD2    H2 8429   4.476   3.421  16.336 -0.7629  0.4113  0.1566
  568MPD2    H3 8430   4.536   3.604  16.207 -2.2580  1.1526 -3.1105
  568MPD2     N 8431   4.225   3.870  16.402  0.4084  0.2266 -0.2414
  568MPD2    H5 8432   4.143   3.870  16.462 -0.0741  1.1899 -0.9163
  568MPD2    N1 8433   4.289   3.406  16.535  0.1403  0.6942  0.1617
  568MPD2    H7 8434   4.354   3.330  16.544  0.6435  1.0005 -0.9102
  569TMC3    C1 8435   4.155   4.095  16.381 -0.2315 -0.5086 -0.2820
  569TMC3    C2 8436   4.134   4.098  16.518 -0.5359  0.0708  0.1010
  569TMC3    C3 8437   4.128   4.222  16.572  0.5679  0.3792 -0.1401
  569TMC3    C4 8438   4.165   4.201  16.302 -0.2325 -0.3838 -0.3383
  569TMC3    C5 8439   4.146   4.325  16.359  0.0595 -0.5816  0.2917
  569TMC3    C6 8440   4.127   4.339  16.497 -0.2929 -0.7570  0.3657
  569TMC3     C 8441   4.250   3.994  16.347 -0.3487 -0.2640 -0.1114
  569TMC3     O 8442   4.332   4.023  16.259  0.2016 -0.3025  0.4662
  569TMC3     H 8443   4.134   4.009  16.580 -1.2872  0.9491  1.3537
  569TMC3    H1 8444   4.199   4.193  16.199  0.3587 -1.1486 -0.0790
  569TMC3    H2 8445   4.112   4.436  16.542 -1.0456 -0.8166  0.2561
  569TMC3    C7 8446   4.184   4.442  16.289  0.5490 -0.0103  0.4124
  569TMC3    C8 8447   4.165   4.234  16.710  0.0523 -0.0917 -0.0999
  569TMC3    O1 8448   4.231   4.531  16.360 -0.6968 -0.3596  0.4153
  569TMC3    O2 8449   4.137   4.153  16.791 -0.2390  0.1462 -0.3586
  570TMC3    C1 8450   3.807   2.689  16.450  0.0889 -0.0687 -0.4147
  570TMC3    C2 8451   3.874   2.692  16.331  0.5523 -0.3481 -0.1415
  570TMC3    C3 8452   3.837   2.791  16.249  0.2077  0.6545 -0.3356
  570TMC3    C4 8453   3.683   2.745  16.468 -0.0105  0.0080 -0.2952
  570TMC3    C5 8454   3.647   2.835  16.373 -0.0785 -0.0465 -0.5654
  570TMC3    C6 8455   3.726   2.864  16.264  0.4336  0.2059 -0.6637
  570TMC3     C 8456   3.854   2.593  16.544 -0.0538 -0.0982 -0.5685
  570TMC3     O 8457   3.943   2.514  16.513 -0.3935 -0.1292  0.3708
  570TMC3     H 8458   3.962   2.629  16.324 -0.2696 -1.3984 -1.1854
  570TMC3    H1 8459   3.631   2.739  16.562  1.9492  1.4409  0.8826
  570TMC3    H2 8460   3.702   2.948  16.200 -0.8915  2.3069  2.6306
  570TMC3    C7 8461   3.553   2.937  16.406  0.8819 -0.9973 -0.7805
  570TMC3    C8 8462   3.935   2.848  16.168 -0.5580  0.8934 -0.4258
  570TMC3    O1 8463   3.559   2.981  16.517  0.1391 -0.5799  0.2680
  570TMC3    O2 8464   3.912   2.961  16.126 -0.6247 -0.4299  0.0605
  571MPD2     C 8465   2.085   3.911  17.161 -0.3303 -0.0768  0.4125
  571MPD2    C1 8466   1.984   3.861  17.080 -0.3329  0.4411 -0.1510
  571MPD2    C2 8467   1.851   3.904  17.103  0.6160  0.6877 -0.0493
  571MPD2    C3 8468   1.826   3.979  17.219  0.7017  0.0631 -0.0485
  571MPD2    C4 8469   1.928   4.026  17.295 -0.1368  0.5606  0.4237
  571MPD2    C5 8470   2.060   3.998  17.262 -0.7852  1.0591 -0.1292
  571MPD2     H 8471   1.768   3.869  17.043 -0.4658 -1.3144  2.6016
  571MPD2    H1 8472   1.906   4.090  17.379 -0.2659 -1.6003  2.0397
  571MPD2    H2 8473   2.189   3.886  17.144 -0.5482  0.8329 -2.2232
  571MPD2    H3 8474   2.146   4.044  17.309 -0.2121  1.6081 -1.7371
  571MPD2     N 8475   1.695   4.021  17.256 -0.2034  0.4626 -0.0667
  571MPD2    H5 8476   1.681   4.091  17.329  1.8570  1.7753 -0.9261
  571MPD2    N1 8477   2.025   3.777  16.971 -0.1138  0.1859 -0.2281
  571MPD2    H7 8478   2.120   3.761  16.940  0.2007 -0.0144  0.8482
  572TMC3    C1 8479   1.457   4.004  17.275  0.2526 -0.3248  0.3191
  572TMC3    C2 8480   1.381   3.917  17.343 -0.2377  0.3990 -0.2656
  572TMC3    C3 8481   1.315   3.970  17.451 -0.3423  0.5737 -0.2076
  572TMC3    C4 8482   1.465   4.139  17.301 -0.1619  0.5863  0.3492
  572TMC3    C5 8483   1.378   4.186  17.399 -0.3330  0.1839  0.6571
  572TMC3    C6 8484   1.308   4.108  17.485  0.1294  0.4345  0.1324
  572TMC3     C 8485   1.583   3.949  17.224  0.2566  0.1645  0.8087
  572TMC3     O 8486   1.565   3.840  17.174 -0.0098  0.6109 -0.0276
  572TMC3     H 8487   1.403   3.811  17.334  1.1087  0.6281  0.2461
  572TMC3    H1 8488   1.520   4.196  17.227 -1.3782  1.4746  0.1280
  572TMC3    H2 8489   1.237   4.147  17.556 -1.1659  0.3571 -1.1164
  572TMC3    C7 8490   1.415   4.319  17.443  0.1153  0.5921 -0.2047
  572TMC3    C8 8491   1.255   3.874  17.527  0.1724 -0.6512  0.2617
  572TMC3    O1 8492   1.468   4.390  17.359 -0.6618 -0.3794  0.7959
  572TMC3    O2 8493   1.249   3.763  17.479 -0.6703 -0.6530 -0.6534
  573MPD2     C 8494   3.182   0.216   1.368  0.0723  0.0263 -0.5768
  573MPD2    C1 8495   3.070   0.295   1.340  0.2062 -0.8153  0.6659
  573MPD2    C2 8496   3.025   0.306   1.211 -0.2205  0.6128  0.6525
  573MPD2    C3 8497   3.101   0.256   1.106 -0.4652  0.8141  0.6695
  573MPD2    C4 8498   3.220   0.188   1.130  0.4464 -0.0134 -0.9715
  573MPD2    C5 8499   3.255   0.168   1.261 -0.9700  0.0546 -0.3060
  573MPD2     H 8500   2.934   0.355   1.176 -0.1016  0.8637  0.6931
  573MPD2    H1 8501   3.275   0.149   1.045  0.5134 -1.6975 -0.1662
  573MPD2    H2 8502   3.208   0.188   1.469  0.3689  1.7736 -0.1645
  573MPD2    H3 8503   3.338   0.100   1.276 -0.3134  0.8253 -0.4033
  573MPD2     N 8504   3.081   0.280   0.970  0.4429 -0.2874  0.3315
  573MPD2    H5 8505   3.154   0.242   0.911  0.8224 -1.5593  1.6267
  573MPD2    N1 8506   3.007   0.354   1.453  1.1178  0.6307 -0.6436
  573MPD2    H7 8507   3.045   0.332   1.544 -1.7637  0.6789  0.5703
  574TMC3    C1 8508   2.963   0.367   0.783  0.1880 -0.1877  0.8198
  574TMC3    C2 8509   2.847   0.366   0.710  0.5720  0.8236  0.7161
  574TMC3    C3 8510   2.851   0.408   0.576  0.5693  0.3942  0.8773
  574TMC3    C4 8511   3.083   0.403   0.729 -0.1123  0.2215  0.8805
  574TMC3    C5 8512   3.083   0.441   0.598  0.4116 -0.4587  0.4901
  574TMC3    C6 8513   2.972   0.441   0.521 -0.2149 -1.0215  0.1689
  574TMC3     C 8514   2.959   0.321   0.921  0.0859  0.0078 -0.2101
  574TMC3     O 8515   2.846   0.317   0.978  0.2247 -0.2681  0.6760
  574TMC3     H 8516   2.751   0.350   0.757 -0.5113  1.0887 -1.3995
  574TMC3    H1 8517   3.178   0.393   0.781  0.0623  0.5259  0.6228
  574TMC3    H2 8518   2.972   0.478   0.419  0.7067  0.6397  0.7698
  574TMC3    C7 8519   3.204   0.444   0.529  0.1180 -0.1067  0.3583
  574TMC3    C8 8520   2.738   0.493   0.546 -0.1356 -0.5772 -0.1377
  574TMC3    O1 8521   3.196   0.401   0.412 -0.4881  0.7323  0.2512
  574TMC3    O2 8522   2.630   0.473   0.600 -0.0608  0.7831 -0.4491
  575TMC3    C1 8523   1.201   1.951  11.247  0.4102  0.1718 -0.0924
  575TMC3    C2 8524   1.183   1.882  11.360  0.0539 -0.1005  0.4784
  575TMC3    C3 8525   1.117   1.762  11.347 -0.7523 -0.2991 -0.4764
  575TMC3    C4 8526   1.160   1.909  11.123 -0.6061 -0.7500  0.7829
  575TMC3    C5 8527   1.086   1.793  11.114 -0.4447  0.5588  0.2416
  575TMC3    C6 8528   1.079   1.709  11.221 -0.4400  0.1794  0.1832
  575TMC3     C 8529   1.271   2.080  11.262 -0.1300  0.1157  0.3166
  575TMC3     O 8530   1.274   2.125  11.382  0.2865 -0.3017 -0.0551
  575TMC3     H 8531   1.205   1.925  11.457 -0.1549 -0.6661  0.7731
  575TMC3    H1 8532   1.178   1.980  11.043 -1.8541 -0.3889  0.8117
  575TMC3    H2 8533   1.007   1.629  11.213  1.8002 -1.7756 -0.4419
  575TMC3    C7 8534   1.063   1.742  10.985  0.2709  0.6636 -0.5723
  575TMC3    C8 8535   1.094   1.682  11.460  0.6766  0.5902 -0.4132
  575TMC3    O1 8536   1.089   1.819  10.897  0.4753  0.7879  0.1349
  575TMC3    O2 8537   1.110   1.562  11.434 -0.5456  0.1452  0.0050
  576MPD2     C 8538   0.313   3.694  12.559  0.5697  0.5100  0.7476
  576MPD2    C1 8539   0.336   3.796  12.467  0.6040  1.1224  0.2321
  576MPD2    C2 8540   0.302   3.926  12.488 -0.3478  0.6831  0.0615
  576MPD2    C3 8541   0.236   3.958  12.604 -0.2514  0.4056 -0.6305
  576MPD2    C4 8542   0.206   3.857  12.699 -0.6152 -0.2525  0.8168
  576MPD2    C5 8543   0.254   3.728  12.678  0.3134  0.2356 -0.0705
  576MPD2     H 8544   0.326   3.993  12.406  0.8573 -0.2760 -0.3790
  576MPD2    H1 8545   0.172   3.876  12.800 -1.3017  1.6721  0.2139
  576MPD2    H2 8546   0.347   3.594  12.536 -0.8429 -0.1638  1.5984
  576MPD2    H3 8547   0.244   3.657  12.759 -3.3148 -0.8183 -1.4492
  576MPD2     N 8548   0.209   4.095  12.620  0.2193  0.6272  0.6898
  576MPD2    H5 8549   0.242   4.161  12.550 -0.6094  0.4743  0.1593
  576MPD2    N1 8550   0.394   3.766  12.338 -0.2725 -0.3163 -0.0939
  576MPD2    H7 8551   0.390   3.837  12.265 -0.8072 -0.5802 -0.3175
  577TMC3    C1 8552   0.500   3.639  12.158  0.3760 -0.4340  0.3757
  577TMC3    C2 8553   0.536   3.520  12.108  0.4343  0.5287 -0.7791
  577TMC3    C3 8554   0.612   3.520  11.992  0.3892  0.5253 -0.2038
  577TMC3    C4 8555   0.532   3.757  12.099 -0.1660  1.0678 -0.0800
  577TMC3    C5 8556   0.597   3.750  11.977  0.2734  0.5492  0.4977
  577TMC3    C6 8557   0.647   3.638  11.930 -0.2783 -0.0904 -0.6740
  577TMC3     C 8558   0.425   3.638  12.287 -1.0021  0.2913  0.6627
  577TMC3     O 8559   0.431   3.531  12.347 -0.2850 -0.3836  0.2470
  577TMC3     H 8560   0.481   3.429  12.129 -0.0565  0.3671 -2.7356
  577TMC3    H1 8561   0.477   3.848  12.117 -2.4398 -0.0996 -1.0732
  577TMC3    H2 8562   0.709   3.637  11.841  2.4877 -1.2767  1.2532
  577TMC3    C7 8563   0.615   3.872  11.896  0.0576  0.9158 -0.0594
  577TMC3    C8 8564   0.693   3.405  11.959  0.7581  0.1686 -0.8053
  577TMC3    O1 8565   0.606   3.854  11.776 -0.3545 -0.1188  0.0532
  577TMC3    O2 8566   0.628   3.305  11.982 -0.5149  0.8308 -0.0301
  578MPD2     C 8567   3.444   2.875   2.189  0.4430  0.0209 -0.0414
  578MPD2    C1 8568   3.486   2.869   2.061 -0.7239  0.0222  0.3875
  578MPD2    C2 8569   3.597   2.787   2.028  0.8143  0.4183  0.5375
  578MPD2    C3 8570   3.671   2.726   2.127  0.4554 -0.6193  0.1249
  578MPD2    C4 8571   3.619   2.729   2.259  0.3304  0.6130 -0.2051
  578MPD2    C5 8572   3.502   2.804   2.284 -1.1651 -0.0991 -0.7107
  578MPD2     H 8573   3.630   2.768   1.926  0.4764 -0.9048  0.6697
  578MPD2    H1 8574   3.641   2.653   2.334 -1.1092 -0.3391 -0.7564
  578MPD2    H2 8575   3.349   2.923   2.212  0.9389  0.9988 -0.0049
  578MPD2    H3 8576   3.461   2.786   2.383  0.0078 -0.9869 -0.3899
  578MPD2     N 8577   3.776   2.641   2.094 -0.4749 -0.3447 -0.1138
  578MPD2    H5 8578   3.810   2.642   1.998  3.0600 -0.3201  1.1387
  578MPD2    N1 8579   3.412   2.946   1.963 -0.8508  0.3868 -0.3180
  578MPD2    H7 8580   3.336   3.008   1.990 -1.4468  0.3076 -1.7779
  579TMC3    C1 8581   3.967   2.510   2.115  0.1238  0.5958 -0.3535
  579TMC3    C2 8582   4.097   2.539   2.137 -0.4522 -0.1640 -0.2526
  579TMC3    C3 8583   4.191   2.484   2.058 -0.0772 -0.2198  0.3978
  579TMC3    C4 8584   3.924   2.421   2.018 -0.2335 -0.6601  0.6396
  579TMC3    C5 8585   4.027   2.367   1.943  0.9352 -0.7403 -0.6682
  579TMC3    C6 8586   4.158   2.386   1.968  0.1558  0.4055  0.6552
  579TMC3     C 8587   3.873   2.601   2.182 -0.5914 -0.5569  1.1115
  579TMC3     O 8588   3.895   2.633   2.298 -0.2643  0.0409  0.1271
  579TMC3     H 8589   4.126   2.630   2.188 -1.4994  0.4674 -0.7739
  579TMC3    H1 8590   3.821   2.387   2.015 -0.4945  0.2861 -0.9501
  579TMC3    H2 8591   4.236   2.343   1.906 -1.9349 -1.4845 -0.6674
  579TMC3    C7 8592   4.001   2.264   1.848 -0.1519  0.5077  0.8552
  579TMC3    C8 8593   4.327   2.536   2.067 -0.2884  0.2332 -0.2610
  579TMC3    O1 8594   4.095   2.190   1.829  0.3657 -0.2384 -0.3762
  579TMC3    O2 8595   4.362   2.579   2.176 -0.2771 -0.3884  0.3999
  580TMC3    C1 8596   3.570   2.589  12.355  0.3997 -0.9042  0.1525
  580TMC3    C2 8597   3.704   2.599  12.379 -0.1270  0.3183  0.2292
  580TMC3    C3 8598   3.775   2.479  12.367 -0.6796  0.0685  0.5008
  580TMC3    C4 8599   3.507   2.473  12.330  0.1238 -0.9894  0.0855
  580TMC3    C5 8600   3.582   2.364  12.308  0.0488  0.1671  0.4018
  580TMC3    C6 8601   3.720   2.358  12.332  0.2705 -0.0026 -0.1967
  580TMC3     C 8602   3.490   2.712  12.374  0.6617  0.4324 -0.2411
  580TMC3     O 8603   3.379   2.712  12.423 -0.0554 -0.5544  0.1320
  580TMC3     H 8604   3.748   2.681  12.436 -1.0194  1.2236 -0.3811
  580TMC3    H1 8605   3.409   2.481  12.283  0.1458  0.7917  0.3209
  580TMC3    H2 8606   3.776   2.265  12.336  0.1618 -0.1279 -1.8049
  580TMC3    C7 8607   3.511   2.249  12.256 -0.9352 -0.6394 -1.4441
  580TMC3    C8 8608   3.921   2.495  12.382 -0.4146 -0.1277  0.0449
  580TMC3    O1 8609   3.391   2.256  12.240 -0.2337 -0.0393 -0.0531
  580TMC3    O2 8610   3.966   2.568  12.469  0.2909 -0.0554 -0.2489
  581MPD2     C 8611   0.811   1.782  14.576  0.4387 -0.6285 -0.1876
  581MPD2    C1 8612   0.722   1.867  14.650 -0.7929  0.0634 -0.0641
  581MPD2    C2 8613   0.619   1.926  14.576  0.5868 -0.6994  0.1906
  581MPD2    C3 8614   0.592   1.882  14.450  0.6916 -0.6858  0.1213
  581MPD2    C4 8615   0.681   1.818  14.372  0.3894 -0.0916  0.3017
  581MPD2    C5 8616   0.790   1.769  14.442  0.6539 -0.2777 -0.6002
  581MPD2     H 8617   0.554   2.001  14.618  0.8476 -0.7380  0.6671
  581MPD2    H1 8618   0.662   1.782  14.272 -0.4695 -1.3134  0.8995
  581MPD2    H2 8619   0.896   1.742  14.629  0.8819  2.3191  1.3480
  581MPD2    H3 8620   0.870   1.725  14.383 -0.7897 -3.0233 -0.4949
  581MPD2     N 8621   0.471   1.929  14.401  0.2200 -0.3390 -0.3278
  581MPD2    H5 8622   0.412   1.984  14.462 -0.3625 -1.4901  0.1381
  581MPD2    N1 8623   0.730   1.905  14.790 -0.7150 -0.4864 -0.2636
  581MPD2    H7 8624   0.644   1.933  14.835 -0.4240  1.3508 -0.8582
  582TMC3    C1 8625   0.811   1.940  14.997 -0.5069 -0.1039 -0.2257
  582TMC3    C2 8626   0.914   1.946  15.088 -0.4637  1.0943  0.9558
  582TMC3    C3 8627   0.898   2.025  15.199  0.1094  0.6159 -0.4220
  582TMC3    C4 8628   0.694   2.011  15.019 -0.5155 -0.5158 -0.4231
  582TMC3    C5 8629   0.680   2.084  15.132  0.1206  0.6397  0.2534
  582TMC3    C6 8630   0.781   2.090  15.225  0.2132 -0.7575  0.3001
  582TMC3     C 8631   0.839   1.890  14.868  0.5894 -0.4440 -0.5347
  582TMC3     O 8632   0.955   1.858  14.837  0.2210 -0.0850  0.0798
  582TMC3     H 8633   1.013   1.906  15.069 -1.0908  0.2335 -0.4960
  582TMC3    H1 8634   0.617   2.036  14.947  0.2278 -0.2304 -1.1164
  582TMC3    H2 8635   0.773   2.155  15.312 -1.7334 -0.6292  0.0390
  582TMC3    C7 8636   0.583   2.190  15.131  0.0510 -1.0040 -0.7229
  582TMC3    C8 8637   0.991   2.012  15.318 -0.0904  0.1780  1.1918
  582TMC3    O1 8638   0.467   2.164  15.095 -0.4597  0.1578  0.3223
  582TMC3    O2 8639   0.973   2.091  15.405  0.2421  0.2616  0.1038
  583MPD2     C 8640   0.833   3.310  16.517  0.1272 -0.0974  0.4049
  583MPD2    C1 8641   0.815   3.444  16.513 -0.2841  0.4661  0.2086
  583MPD2    C2 8642   0.755   3.505  16.624  0.1354  1.1078  0.5325
  583MPD2    C3 8643   0.711   3.436  16.734  0.0511 -0.0695  0.1288
  583MPD2    C4 8644   0.725   3.299  16.732 -0.1852  0.6372  0.5348
  583MPD2    C5 8645   0.791   3.242  16.627 -0.4139 -0.2361 -0.4265
  583MPD2     H 8646   0.745   3.613  16.625 -0.3045  1.0672  0.1644
  583MPD2    H1 8647   0.694   3.242  16.819  2.8368 -1.3608  0.3056
  583MPD2    H2 8648   0.878   3.246  16.441  0.6376  2.5031 -1.4818
  583MPD2    H3 8649   0.804   3.134  16.630  0.7372 -0.1145 -1.0940
  583MPD2     N 8650   0.646   3.507  16.839  0.5233  0.5495 -0.0312
  583MPD2    H5 8651   0.644   3.608  16.827  1.0588  0.4144 -1.3215
  583MPD2    N1 8652   0.856   3.525  16.404 -0.7243 -0.0980  0.3346
  583MPD2    H7 8653   0.832   3.624  16.404  0.3881  0.1701  0.8526
  584TMC3    C1 8654   0.489   3.570  16.996 -0.2326  0.0611 -1.0674
  584TMC3    C2 8655   0.496   3.699  16.936  1.2922  0.5765  0.4151
  584TMC3    C3 8656   0.466   3.807  17.012  0.1558 -0.4071  0.3767
  584TMC3    C4 8657   0.466   3.550  17.130 -0.3540  0.3846  0.6485
  584TMC3    C5 8658   0.452   3.663  17.202  0.5029 -0.4021 -0.0614
  584TMC3    C6 8659   0.456   3.785  17.145 -0.3111  0.4554  0.3266
  584TMC3     C 8660   0.565   3.456  16.938  0.0647  0.6297 -0.1766
  584TMC3     O 8661   0.542   3.339  16.975  0.5313  0.1831 -0.6292
  584TMC3     H 8662   0.520   3.720  16.833 -0.0116 -0.9331 -0.2009
  584TMC3    H1 8663   0.444   3.451  17.168 -1.1533 -0.0491 -0.9559
  584TMC3    H2 8664   0.432   3.873  17.203  2.3318  1.3294  0.1245
  584TMC3    C7 8665   0.413   3.647  17.348  0.2682  0.1951  0.1848
  584TMC3    C8 8666   0.491   3.937  16.954 -0.3321  0.3678  0.1771
  584TMC3    O1 8667   0.397   3.531  17.382  0.4157  0.2817  0.0175
  584TMC3    O2 8668   0.484   3.950  16.833 -0.1305  0.5961  0.1265
  585MPD2     C 8669   0.139   2.213   0.685 -0.1470 -0.4830 -0.5720
  585MPD2    C1 8670   0.204   2.236   0.569 -0.0602 -0.4887  0.8642
  585MPD2    C2 8671   0.191   2.140   0.463 -0.0997 -0.1274 -0.4927
  585MPD2    C3 8672   0.131   2.019   0.486  0.0848  0.4961  0.3475
  585MPD2    C4 8673   0.069   1.999   0.607  0.2506 -0.1070  0.6713
  585MPD2    C5 8674   0.075   2.095   0.709 -0.1838 -0.5659  0.1509
  585MPD2     H 8675   0.231   2.163   0.365 -0.9312  1.1031 -0.5437
  585MPD2    H1 8676   0.019   1.905   0.624 -2.7725  1.7850  2.2328
  585MPD2    H2 8677   0.131   2.285   0.766  1.1775  0.3486 -1.1727
  585MPD2    H3 8678   0.025   2.095   0.805  1.0835  2.2023  0.8134
  585MPD2     N 8679   0.145   1.915   0.393 -0.3806  0.4214  0.2098
  585MPD2    H5 8680   0.095   1.830   0.414 -0.6092  0.2841 -0.8828
  585MPD2    N1 8681   0.282   2.359   0.547  0.0479 -0.6462 -0.0429
  585MPD2    H7 8682   0.268   2.430   0.618  0.3675 -0.4395 -0.1887
  586TMC3    C1 8683   0.224   1.801   0.199  0.1800  0.4777  0.0136
  586TMC3    C2 8684   0.330   1.784   0.117  0.1423  0.3102  0.3603
  586TMC3    C3 8685   0.301   1.721   0.002 -0.4125  0.1336  0.2416
  586TMC3    C4 8686   0.096   1.769   0.174  0.4301 -0.9835  0.2738
  586TMC3    C5 8687   0.067   1.718   0.047 -0.2168 -0.1701 -0.3426
  586TMC3    C6 8688   0.171   1.690  17.647 -0.0268  0.3580 -0.2737
  586TMC3     C 8689   0.245   1.900   0.299 -1.0379 -0.3872  0.4939
  586TMC3     O 8690   0.341   1.971   0.272 -0.3529 -0.0845 -0.6565
  586TMC3     H 8691   0.431   1.802   0.153 -1.4496  2.1160  3.9421
  586TMC3    H1 8692   0.010   1.790   0.236 -0.0749  0.6619 -0.9886
  586TMC3    H2 8693   0.152   1.629  17.559  0.3308 -1.8837  1.1815
  586TMC3    C7 8694   4.656   1.744  17.679 -0.2333 -0.3373  0.5245
  586TMC3    C8 8695   0.416   1.679  17.608  0.4159  0.4492  0.5404
  586TMC3    O1 8696   4.564   1.766   0.073  0.5489  0.1197  0.4949
  586TMC3    O2 8697   0.520   1.659  17.670  0.5031  0.1536 -0.1905
  587TMC3    C1 8698   2.473   1.073  15.735 -0.1624  0.2505  0.0338
  587TMC3    C2 8699   2.519   1.195  15.774 -0.3017  0.7894  0.3016
  587TMC3    C3 8700   2.657   1.209  15.766 -0.0756 -0.0306 -0.3652
  587TMC3    C4 8701   2.563   0.976  15.703  0.1980 -0.6982  0.4950
  587TMC3    C5 8702   2.697   0.996  15.699  0.1396  0.1709  0.3871
  587TMC3    C6 8703   2.750   1.118  15.742 -0.2983  0.4318 -0.2592
  587TMC3     C 8704   2.330   1.060  15.675  0.4677  0.1414 -0.5337
  587TMC3     O 8705   2.310   0.961  15.605  0.1576 -0.1655 -0.2784
  587TMC3     H 8706   2.457   1.283  15.772  0.3643  1.2894  1.6867
  587TMC3    H1 8707   2.528   0.873  15.698  0.1520 -0.6292 -0.6181
  587TMC3    H2 8708   2.854   1.146  15.730  0.4025 -0.9568  2.4603
  587TMC3    C7 8709   2.784   0.885  15.684  0.5397  0.7377 -0.4106
  587TMC3    C8 8710   2.714   1.348  15.787  0.4714 -0.4342 -0.0176
  587TMC3    O1 8711   2.727   0.786  15.643  0.2537  0.0783  0.0173
  587TMC3    O2 8712   2.805   1.387  15.714  0.4344 -0.3671  0.5474
  588TMC3    C1 8713   0.143   4.330   9.695  0.6204  0.0543 -0.6166
  588TMC3    C2 8714   0.157   4.198   9.700  0.2143  0.1286  0.0746
  588TMC3    C3 8715   0.237   4.131   9.787 -0.2400  0.1199 -0.4740
  588TMC3    C4 8716   0.205   4.400   9.795 -0.4267  0.2350  0.2652
  588TMC3    C5 8717   0.294   4.334   9.884 -0.1008  0.1678 -0.4942
  588TMC3    C6 8718   0.315   4.196   9.879 -0.5059  0.2846  0.3243
  588TMC3     C 8719   0.091   4.398   9.578  0.4087  0.4192  0.0452
  588TMC3     O 8720   0.025   4.332   9.500  0.0466 -0.0135 -0.0034
  588TMC3     H 8721   0.099   4.145   9.624 -0.9003  2.4937 -0.7286
  588TMC3    H1 8722   0.163   4.495   9.826 -3.1156 -1.6215  2.3635
  588TMC3    H2 8723   0.371   4.133   9.947  2.5455  1.8821 -0.7320
  588TMC3    C7 8724   0.332   4.414  10.003 -0.0399 -0.1229 -0.6462
  588TMC3    C8 8725   0.207   3.991   9.796  0.4082  0.3629 -0.6382
  588TMC3    O1 8726   0.324   4.363  10.112  0.3412  0.3503 -0.1342
  588TMC3    O2 8727   0.086   3.978   9.781  0.1428  0.0462  0.0589
  589TMC3    C1 8728   3.793   1.291   1.876  0.5723 -0.0317  0.2308
  589TMC3    C2 8729   3.907   1.361   1.863  0.3855 -0.2972  0.3173
  589TMC3    C3 8730   4.011   1.311   1.781  0.5194 -0.3052  0.4920
  589TMC3    C4 8731   3.775   1.180   1.798  0.0975  1.0085  0.3333
  589TMC3    C5 8732   3.881   1.143   1.713  0.1018 -0.0629  0.3339
  589TMC3    C6 8733   4.004   1.203   1.704 -0.6557  0.1043  0.2346
  589TMC3     C 8734   3.674   1.359   1.923  0.6512 -1.3215 -0.9418
  589TMC3     O 8735   3.572   1.336   1.861 -0.0465 -0.2810 -0.2407
  589TMC3     H 8736   3.911   1.461   1.906 -1.2401 -0.4634  0.8546
  589TMC3    H1 8737   3.679   1.129   1.796 -0.1134  1.5287 -2.4538
  589TMC3    H2 8738   4.092   1.155   1.663 -0.4846  0.0805  0.6292
  589TMC3    C7 8739   3.865   1.028   1.629 -0.3625 -0.0083  0.2729
  589TMC3    C8 8740   4.121   1.402   1.780  0.5120  0.3540 -0.4847
  589TMC3    O1 8741   3.954   1.001   1.546 -0.5322  0.1513  0.0407
  589TMC3    O2 8742   4.118   1.496   1.854 -0.3527  0.0823  0.8834
  590MPD2     C 8743   3.097   4.537  16.548 -0.1492 -0.0945  0.2110
  590MPD2    C1 8744   3.038   4.602  16.441  0.5316 -0.5066 -0.6073
  590MPD2    C2 8745   3.128   4.645  16.341 -0.1155  0.4045  0.3576
  590MPD2    C3 8746   3.261   4.612  16.340 -0.1390 -0.1882 -0.3213
  590MPD2    C4 8747   3.315   4.531  16.442 -0.3003 -0.1576  0.7981
  590MPD2    C5 8748   3.229   4.497  16.545  0.4005  0.1816  0.5667
  590MPD2     H 8749   3.087   4.708  16.264  0.5973  2.3029  1.5369
  590MPD2    H1 8750   3.418   4.505  16.465  0.0641  1.4206  0.9261
  590MPD2    H2 8751   3.026   4.513  16.627  0.9839 -0.6699  1.0476
  590MPD2    H3 8752   3.271   4.438  16.626 -2.9271 -1.0790  1.3404
  590MPD2     N 8753   3.343   4.683  16.250 -0.0738  0.1664  0.8383
  590MPD2    H5 8754   3.302   0.032  16.191  3.6270  1.2504 -0.4690
  590MPD2    N1 8755   2.900   4.639  16.442 -0.1806 -0.4966 -0.3431
  590MPD2    H7 8756   2.851   4.636  16.531  0.9857  0.4077  0.3336
  591TMC3    C1 8757   3.552   0.041  16.162 -0.4885 -1.1605  0.0942
  591TMC3    C2 8758   3.671   0.004  16.107 -0.1156  0.3898 -0.4401
  591TMC3    C3 8759   3.747   0.093  16.041  0.1661 -0.3203  0.4702
  591TMC3    C4 8760   3.510   0.171  16.143 -0.3308 -0.7803 -0.9442
  591TMC3    C5 8761   3.587   0.257  16.075  0.1849 -0.0059 -0.1992
  591TMC3    C6 8762   3.705   0.221  16.022 -0.2831 -0.2357 -0.4226
  591TMC3     C 8763   3.477   4.656  16.235 -0.5174  0.3362 -0.8864
  591TMC3     O 8764   3.545   4.565  16.279  0.9381  0.1750 -0.0075
  591TMC3     H 8765   3.691   4.619  16.105  3.7996  1.1018  1.4946
  591TMC3    H1 8766   3.413   0.207  16.176 -0.2402 -1.9789  0.6440
  591TMC3    H2 8767   3.756   0.294  15.960  0.3154 -1.1975 -1.0767
  591TMC3    C7 8768   3.572   0.395  16.115  0.2667 -0.3553 -0.3604
  591TMC3    C8 8769   3.853   0.033  15.965 -0.6337  0.0018  0.4201
  591TMC3    O1 8770   3.513   0.419  16.217 -0.0532  0.5904 -0.2279
  591TMC3    O2 8771   3.873   4.632  15.973  0.4103  0.0033  0.3512
  592MPD2     C 8772   4.498   2.358  11.225  0.3256 -0.1255  0.7927
  592MPD2    C1 8773   4.489   2.397  11.356  0.2284  0.2621 -0.0843
  592MPD2    C2 8774   4.399   2.323  11.434 -0.1410 -0.0995 -0.1615
  592MPD2    C3 8775   4.332   2.211  11.387  0.0530  0.4178 -0.2171
  592MPD2    C4 8776   4.361   2.166  11.263  0.1193  0.2841 -0.1550
  592MPD2    C5 8777   4.436   2.240  11.179 -0.4554 -0.2349  0.3938
  592MPD2     H 8778   4.375   2.352  11.536 -0.4161 -2.2425  0.3870
  592MPD2    H1 8779   4.332   2.071  11.220 -1.4720 -0.2077  2.0483
  592MPD2    H2 8780   4.560   2.407  11.151  0.0111 -1.2662 -0.2316
  592MPD2    H3 8781   4.445   2.205  11.076 -0.0156 -1.5533  0.8855
  592MPD2     N 8782   4.237   2.144  11.466 -0.7792 -0.2349 -0.3619
  592MPD2    H5 8783   4.255   2.156  11.565  0.9447 -2.4410 -0.4057
  592MPD2    N1 8784   4.565   2.502  11.401  0.3262 -0.1532  0.6723
  592MPD2    H7 8785   4.610   2.559  11.330  0.8170 -2.0759 -0.5539
  593TMC3    C1 8786   4.639   2.671  11.543  0.0928 -1.2696  0.3286
  593TMC3    C2 8787   4.609   2.751  11.644  0.0795 -0.3729 -0.2915
  593TMC3    C3 8788   4.684   2.870  11.664 -0.2004  0.5863 -0.6293
  593TMC3    C4 8789   0.023   2.704  11.453 -0.4889  0.0717 -0.4111
  593TMC3    C5 8790   0.091   2.821  11.477 -0.0143 -0.3426 -0.2407
  593TMC3    C6 8791   0.065   2.903  11.588  0.2587 -0.4847 -0.6067
  593TMC3     C 8792   4.571   2.545  11.532  0.4050  0.1546  0.2952
  593TMC3     O 8793   4.508   2.508  11.632  0.0303 -0.3016 -0.1699
  593TMC3     H 8794   4.532   2.735  11.719  0.8595  0.2853  0.6615
  593TMC3    H1 8795   0.049   2.620  11.389  0.1107 -0.9134  1.1063
  593TMC3    H2 8796   0.118   2.998  11.593  0.9718 -0.9580  0.7719
  593TMC3    C7 8797   0.207   2.854  11.401  0.6923  0.0481  0.6659
  593TMC3    C8 8798   4.649   2.959  11.771  0.4036  0.0384  0.2425
  593TMC3    O1 8799   0.281   2.943  11.436 -0.0806 -0.0024  0.3012
  593TMC3    O2 8800   4.532   2.979  11.798  0.0772  0.3285  0.3864
  594MPD2     C 8801   2.701   0.556  14.690  0.5537 -0.0584 -0.3017
  594MPD2    C1 8802   2.591   0.632  14.666 -0.6168 -0.5653  0.4613
  594MPD2    C2 8803   2.600   0.748  14.589 -0.1678 -0.4682  0.0499
  594MPD2    C3 8804   2.721   0.785  14.536  0.8476  0.2494 -0.7061
  594MPD2    C4 8805   2.838   0.716  14.568  0.6877 -0.3653  0.2847
  594MPD2    C5 8806   2.823   0.605  14.645 -0.2958 -0.8702 -0.0688
  594MPD2     H 8807   2.512   0.810  14.575  0.7988  0.4598 -1.8352
  594MPD2    H1 8808   2.936   0.738  14.527  0.8649 -1.1104  0.3009
  594MPD2    H2 8809   2.690   0.468  14.752  0.9471  0.7975  0.9730
  594MPD2    H3 8810   2.917   0.558  14.672 -0.1143  0.2280  1.2082
  594MPD2     N 8811   2.716   0.887  14.439  0.0906 -0.3551  0.1853
  594MPD2    H5 8812   2.641   0.955  14.442 -0.6108 -0.9914 -3.0643
  594MPD2    N1 8813   2.471   0.577  14.714  0.4871  0.4679 -0.3505
  594MPD2    H7 8814   2.474   0.499  14.779  0.1055  0.0791 -0.7923
  595TMC3    C1 8815   2.891   1.167  14.110 -0.8684  0.5269 -0.1272
  595TMC3    C2 8816   2.905   1.048  14.180 -0.9117  0.6923 -0.1722
  595TMC3    C3 8817   2.812   1.031  14.279  0.2646 -0.4548  0.4763
  595TMC3    C4 8818   2.797   1.251  14.142 -0.5224 -0.0504 -0.1725
  595TMC3    C5 8819   2.716   1.228  14.243 -0.2282 -0.0527 -0.1925
  595TMC3    C6 8820   2.706   1.113  14.311  0.2430 -0.4793 -0.1012
  595TMC3     C 8821   3.011   1.236  14.107 -0.2960 -0.4784  0.0095
  595TMC3     O 8822   2.998   1.352  14.144  0.1300 -0.1074  0.3002
  595TMC3     H 8823   2.987   0.980  14.164 -0.6828  0.9062  0.1020
  595TMC3    H1 8824   2.799   1.344  14.087  1.4777 -0.9459 -1.5953
  595TMC3    H2 8825   2.662   1.112  14.410  0.5959 -0.6655  0.0562
  595TMC3    C7 8826   2.664   1.347  14.316 -0.0498 -0.9210 -0.3458
  595TMC3    C8 8827   2.825   0.910  14.354  0.0382  0.1199 -0.0207
  595TMC3    O1 8828   2.585   1.326  14.408 -0.3469 -0.1690  0.1424
  595TMC3    O2 8829   2.915   0.833  14.323  0.1297  0.0218  0.0448
  596MPD2     C 8830   1.746   3.317  16.433  0.5675  1.0823  0.1812
  596MPD2    C1 8831   1.669   3.433  16.401 -1.0949  0.1357  0.1331
  596MPD2    C2 8832   1.668   3.485  16.273 -0.2565  0.1936  0.0995
  596MPD2    C3 8833   1.751   3.423  16.182 -0.6568  0.5616  0.5921
  596MPD2    C4 8834   1.826   3.309  16.214  0.5060  0.3121  0.5292
  596MPD2    C5 8835   1.830   3.254  16.341 -0.0182 -0.1113 -0.6153
  596MPD2     H 8836   1.616   3.579  16.262 -2.9411 -1.4113 -1.0202
  596MPD2    H1 8837   1.895   3.269  16.141  0.5536  0.1106  0.6847
  596MPD2    H2 8838   1.736   3.267  16.528  0.0428  1.9231  0.5744
  596MPD2    H3 8839   1.901   3.177  16.366 -1.3763 -0.8200  1.0864
  596MPD2     N 8840   1.756   3.455  16.041 -0.2077 -0.5445  0.5877
  596MPD2    H5 8841   1.795   3.386  15.978 -2.8229 -2.8191  1.4722
  596MPD2    N1 8842   1.595   3.505  16.494 -0.5705  0.2175  0.3484
  596MPD2    H7 8843   1.551   3.590  16.459 -0.8290 -1.4291 -3.3218
  597TMC3    C1 8844   1.529   3.602  16.697  0.1597 -0.5323  0.2647
  597TMC3    C2 8845   1.609   3.709  16.682 -0.0127  0.3848 -0.1969
  597TMC3    C3 8846   1.582   3.824  16.751 -0.1393  0.3226 -0.8790
  597TMC3    C4 8847   1.445   3.594  16.799  0.8380 -0.4246  1.1906
  597TMC3    C5 8848   1.424   3.712  16.870  0.3103  0.4319  0.0530
  597TMC3    C6 8849   1.485   3.831  16.845  0.0562  0.1193  0.5378
  597TMC3     C 8850   1.572   3.477  16.626  0.4045  0.0096  0.4087
  597TMC3     O 8851   1.595   3.373  16.685 -0.2263  0.2818 -0.0808
  597TMC3     H 8852   1.706   3.697  16.635 -0.2840 -0.4216 -0.5559
  597TMC3    H1 8853   1.385   3.506  16.818  1.5475 -1.1477  0.0503
  597TMC3    H2 8854   1.449   3.925  16.885  2.5455  1.6815 -0.8764
  597TMC3    C7 8855   1.319   3.705  16.968 -0.0672 -0.5601  0.6071
  597TMC3    C8 8856   1.673   3.938  16.743 -0.5868  0.1159 -0.7595
  597TMC3    O1 8857   1.290   3.600  17.027  0.1426  0.2926  0.1162
  597TMC3    O2 8858   1.634   4.041  16.802 -0.3687  0.6125 -0.5819
  598TMC3    C1 8859   4.625   0.506  15.151  0.2182 -0.6526  0.2059
  598TMC3    C2 8860   4.492   0.471  15.152  0.4987 -0.1986  0.1137
  598TMC3    C3 8861   4.414   0.507  15.043 -0.4992 -0.5775 -0.3839
  598TMC3    C4 8862   4.678   0.588  15.057 -0.2145  0.0094 -0.3061
  598TMC3    C5 8863   4.604   0.611  14.942  0.5148 -0.7537 -0.0801
  598TMC3    C6 8864   4.469   0.575  14.940  0.6051 -0.0806  0.2700
  598TMC3     C 8865   4.721   0.432  15.233 -0.2183  0.3578 -0.2464
  598TMC3     O 8866   0.107   0.487  15.247  0.0054 -0.2394  0.4290
  598TMC3     H 8867   4.441   0.417  15.231 -0.0135  0.7217  0.4173
  598TMC3    H1 8868   0.063   0.607  15.052  0.1172 -2.3213 -2.4439
  598TMC3    H2 8869   4.413   0.603  14.851  0.0475 -2.3729 -0.0969
  598TMC3    C7 8870   4.651   0.690  14.830  0.8603 -0.3527  0.0112
  598TMC3    C8 8871   4.282   0.444  15.009 -0.8609 -0.1526 -0.6453
  598TMC3    O1 8872   4.580   0.694  14.733  0.7246 -0.4784  0.2565
  598TMC3    O2 8873   4.232   0.476  14.903  0.2648 -0.6738 -0.1609
  599MPD2     C 8874   0.309   3.022  16.357  1.0805 -0.2116  0.8423
  599MPD2    C1 8875   0.293   2.903  16.290  0.5044  0.7662  0.6295
  599MPD2    C2 8876   0.165   2.872  16.251 -0.0431  0.5446  0.7050
  599MPD2    C3 8877   0.053   2.958  16.276 -0.2237  0.2333 -0.4995
  599MPD2    C4 8878   0.074   3.078  16.347  0.6876  0.2662 -0.2267
  599MPD2    C5 8879   0.203   3.104  16.389  0.4926 -0.4868 -0.5723
  599MPD2     H 8880   0.145   2.782  16.194  0.8491  1.8474 -1.6743
  599MPD2    H1 8881   4.717   3.144  16.380 -0.8156 -2.1698  1.0837
  599MPD2    H2 8882   0.410   3.056  16.375  2.3607 -2.8477 -1.3631
  599MPD2    H3 8883   0.213   3.194  16.449 -1.5112 -0.9496  0.4587
  599MPD2     N 8884   4.644   2.916  16.249 -0.2518 -0.5733  0.2184
  599MPD2    H5 8885   4.578   2.983  16.287 -0.0869 -1.1693  1.5711
  599MPD2    N1 8886   0.408   2.832  16.253 -0.3418  0.3227 -0.1812
  599MPD2    H7 8887   0.497   2.870  16.282 -0.3034  0.7525 -0.8672
  600TMC3    C1 8888   4.474   2.752  16.240  0.4728 -0.8208 -0.4774
  600TMC3    C2 8889   4.466   2.621  16.281  0.1361 -0.2350  0.1167
  600TMC3    C3 8890   4.359   2.588  16.360 -0.0871 -0.3934  0.4506
  600TMC3    C4 8891   4.394   2.856  16.286 -0.6238 -0.5376  0.2182
  600TMC3    C5 8892   4.290   2.812  16.368  0.3014  0.0837  0.4973
  600TMC3    C6 8893   4.275   2.681  16.406  0.3383 -0.7890  0.3888
  600TMC3     C 8894   4.611   2.791  16.200  0.0078 -1.0259  0.0070
  600TMC3     O 8895   4.679   2.698  16.152  0.9624 -1.1025  0.0627
  600TMC3     H 8896   4.519   2.538  16.236 -0.8250 -0.8340  0.0999
  600TMC3    H1 8897   4.389   2.947  16.228  0.1518  1.6577  3.6347
  600TMC3    H2 8898   4.196   2.658  16.476  1.3373  0.1321  1.8178
  600TMC3    C7 8899   4.190   2.909  16.415  0.2348 -0.2816  0.4345
  600TMC3    C8 8900   4.361   2.456  16.417  0.0268  0.7035  0.3540
  600TMC3    O1 8901   4.104   2.858  16.489  0.7101  0.0792  0.4846
  600TMC3    O2 8902   4.467   2.395  16.426  0.0184 -0.0822 -0.0626
  601MPD2     C 8903   1.490   4.688   0.102  0.2023 -0.0855  0.8515
  601MPD2    C1 8904   1.540   4.676  17.664  0.3260 -0.3294  1.0777
  601MPD2    C2 8905   1.518   4.562  17.595 -0.0320  0.1288  0.1760
  601MPD2    C3 8906   1.440   4.459  17.648 -0.8397 -0.8094 -0.5223
  601MPD2    C4 8907   1.384   4.475   0.084 -0.6248  0.2857 -0.2790
  601MPD2    C5 8908   1.411   4.590   0.155  0.1058 -0.5018  0.8112
  601MPD2     H 8909   1.558   4.552  17.495 -1.5841  0.7668 -0.5035
  601MPD2    H1 8910   1.321   4.399   0.129 -0.4564  0.1282 -0.3077
  601MPD2    H2 8911   1.506   0.058   0.157  0.1715 -0.7342  1.9369
  601MPD2    H3 8912   1.372   4.599   0.255  0.5258  1.8907  0.7572
  601MPD2     N 8913   1.402   4.345  17.579  0.3667  0.1116  0.4835
  601MPD2    H5 8914   1.361   4.272  17.637 -1.2663  0.7737  0.1302
  601MPD2    N1 8915   1.622   0.054  17.610 -0.1952 -0.1109 -0.7244
  601MPD2    H7 8916   1.645   0.042  17.512  1.1724 -1.3432 -0.2635
  602TMC3    C1 8917   1.713   0.257  17.570 -0.2635 -0.3145 -0.2192
  602TMC3    C2 8918   1.779   0.367  17.627  0.5977 -0.5159 -0.5708
  602TMC3    C3 8919   1.803   0.473  17.551  0.2216  0.4293  0.4003
  602TMC3    C4 8920   1.662   0.263  17.435  0.0800  0.0615  0.7366
  602TMC3    C5 8921   1.683   0.379  17.365  0.3874 -0.0025 -0.4190
  602TMC3    C6 8922   1.762   0.482  17.416 -0.0396  0.3590  0.1604
  602TMC3     C 8923   1.679   0.158  17.675 -0.1424  0.5747  0.8433
  602TMC3     O 8924   1.693   0.183   0.110  0.4194 -0.3141  0.0565
  602TMC3     H 8925   1.805   0.372   0.044 -0.7002  0.6985 -0.3135
  602TMC3    H1 8926   1.597   0.185  17.397 -2.3671  1.1200  2.6687
  602TMC3    H2 8927   1.786   0.578  17.371  1.2417 -0.1413 -0.2150
  602TMC3    C7 8928   1.604   0.412  17.247 -0.6835  0.3254 -0.6615
  602TMC3    C8 8929   1.858   0.594  17.608  0.7026 -0.6238 -0.4806
  602TMC3    O1 8930   1.543   0.324  17.188 -0.0478  0.5231  0.1796
  602TMC3    O2 8931   1.925   0.588   0.028  0.0074  0.1555 -0.7805
  603TMC3    C1 8932   0.574   1.500  10.665  0.2466 -0.0572 -0.1854
  603TMC3    C2 8933   0.617   1.520  10.790  0.4267  0.0361  0.0118
  603TMC3    C3 8934   0.668   1.640  10.827 -0.7322 -0.1828 -0.3442
  603TMC3    C4 8935   0.577   1.597  10.571  0.1254  0.1314 -0.7208
  603TMC3    C5 8936   0.631   1.711  10.607  0.3155  0.4112 -0.0700
  603TMC3    C6 8937   0.692   1.737  10.731  1.1894 -0.1462  0.3787
  603TMC3     C 8938   0.555   1.366  10.617  0.0422 -0.1594  0.1631
  603TMC3     O 8939   0.491   1.363  10.510  0.3341  0.2899 -0.7416
  603TMC3     H 8940   0.593   1.450  10.869  0.2805 -0.7339 -0.7112
  603TMC3    H1 8941   0.533   1.586  10.472 -1.6300  2.6271 -0.2294
  603TMC3    H2 8942   0.728   1.839  10.739  1.0471 -0.1322  0.8356
  603TMC3    C7 8943   0.634   1.815  10.511 -0.3832 -0.4730  0.0978
  603TMC3    C8 8944   0.685   1.662  10.960  0.4187 -1.1132  0.0498
  603TMC3    O1 8945   0.717   1.903  10.523 -0.4905  0.7820 -0.8241
  603TMC3    O2 8946   0.695   1.566  11.037  0.1667 -0.4244 -0.0817
  604MPD2     C 8947   0.858   4.647  16.711 -0.3047  0.3457 -0.3335
  604MPD2    C1 8948   0.832   0.047  16.662  1.0354  0.1359  0.2430
  604MPD2    C2 8949   0.871   0.069  16.530  0.4620  0.5167 -0.1431
  604MPD2    C3 8950   0.947   4.700  16.465 -0.1629 -0.3282  0.2435
  604MPD2    C4 8951   0.961   4.569  16.517  0.1715 -0.0488  0.2940
  604MPD2    C5 8952   0.918   4.546  16.643  0.5027 -0.4114 -0.0848
  604MPD2     H 8953   0.881   0.173  16.500 -1.5862  0.6302 -0.3871
  604MPD2    H1 8954   1.007   4.485  16.466 -0.4212  1.4942 -2.7800
  604MPD2    H2 8955   0.832   4.622  16.813  0.2907 -0.7702 -0.4462
  604MPD2    H3 8956   0.931   4.448  16.686 -2.1667 -0.5314  0.4878
  604MPD2     N 8957   0.999   0.018  16.341 -0.6203 -0.3474 -0.0034
  604MPD2    H5 8958   0.964   0.107  16.308 -0.0841  0.0876  0.6187
  604MPD2    N1 8959   0.777   0.148  16.744 -0.8302 -0.5279 -0.0479
  604MPD2    H7 8960   0.765   0.127  16.843  1.9723  2.4670  0.9218
  605TMC3    C1 8961   0.678   0.351  16.811 -0.3763 -0.7351 -0.6748
  605TMC3    C2 8962   0.744   0.467  16.834  0.4364 -0.2354 -0.4654
  605TMC3    C3 8963   0.677   0.583  16.861  0.0937 -0.0438  0.0240
  605TMC3    C4 8964   0.544   0.359  16.796 -0.3498 -0.5570  0.0708
  605TMC3    C5 8965   0.477   0.473  16.825 -0.4299 -0.0680 -0.3070
  605TMC3    C6 8966   0.545   0.592  16.860  0.2690 -0.5129  0.6739
  605TMC3     C 8967   0.731   0.269  16.705  1.1212  0.2413 -0.2180
  605TMC3     O 8968   0.725   0.304  16.592 -0.1849  0.0409  0.3574
  605TMC3     H 8969   0.851   0.454  16.822  1.0102  4.1466 -0.2547
  605TMC3    H1 8970   0.494   0.271  16.757 -0.1738 -0.3644 -0.6004
  605TMC3    H2 8971   0.500   0.689  16.844  1.1854 -0.1905  0.0149
  605TMC3    C7 8972   0.334   0.480  16.803  0.2443 -0.8213 -0.4279
  605TMC3    C8 8973   0.762   0.709  16.828  0.2043  0.1870 -0.0358
  605TMC3    O1 8974   0.271   0.378  16.773  0.1615 -0.1681 -0.1216
  605TMC3    O2 8975   0.880   0.688  16.798 -0.6520  0.0152 -0.8590
  606TMC3    C1 8976   1.100   3.273   0.638 -0.3507 -0.2770 -0.2377
  606TMC3    C2 8977   1.168   3.175   0.717 -0.5359  0.1924  0.3360
  606TMC3    C3 8978   1.290   3.131   0.678 -0.7238  0.5126  0.0883
  606TMC3    C4 8979   1.165   3.329   0.538  0.1217  0.1301  0.2826
  606TMC3    C5 8980   1.289   3.281   0.503 -0.0332  0.6558 -0.4737
  606TMC3    C6 8981   1.351   3.177   0.563 -0.2949 -1.5043 -0.9796
  606TMC3     C 8982   0.997   3.348   0.705 -0.2429 -0.3970 -0.0051
  606TMC3     O 8983   0.992   3.360   0.826  0.4103 -0.3652  0.1637
  606TMC3     H 8984   1.114   3.132   0.801 -0.3412 -0.8046 -0.0494
  606TMC3    H1 8985   1.136   3.417   0.483  0.8526 -0.4392 -1.0066
  606TMC3    H2 8986   1.453   3.148   0.541  0.3438  0.9949 -1.2929
  606TMC3    C7 8987   1.326   3.312   0.364 -0.8271  0.4129 -0.1896
  606TMC3    C8 8988   1.355   3.023   0.748 -0.7995 -0.7957  0.3199
  606TMC3    O1 8989   1.278   3.411   0.309  0.0891 -0.2474 -0.4035
  606TMC3    O2 8990   1.462   2.989   0.702 -0.6853  0.0066  0.4629
  607MPD2     C 8991   0.168   1.736  11.577  0.1414 -0.3789  0.3363
  607MPD2    C1 8992   0.219   1.852  11.632 -0.3170 -0.5988  0.8801
  607MPD2    C2 8993   0.178   1.893  11.757  0.2520  0.4556 -0.0293
  607MPD2    C3 8994   0.073   1.829  11.827  0.2195 -0.3826  0.4398
  607MPD2    C4 8995   0.025   1.712  11.775  0.0754  0.9505  0.7239
  607MPD2    C5 8996   0.079   1.664  11.657  0.0238  0.6023  0.5344
  607MPD2     H 8997   0.227   1.975  11.807  0.4122 -1.0181  2.2765
  607MPD2    H1 8998   4.661   1.663  11.819  1.4648  0.0602  2.4340
  607MPD2    H2 8999   0.200   1.717  11.475  0.1457 -1.5564  0.5579
  607MPD2    H3 9000   0.022   1.577  11.626  0.4254  0.0636  1.3111
  607MPD2     N 9001   0.021   1.905  11.940 -0.0672 -0.1701  0.3807
  607MPD2    H5 9002   0.070   1.990  11.964 -1.2956  0.4026  0.8516
  607MPD2    N1 9003   0.305   1.946  11.564  0.8888 -0.1372 -0.2113
  607MPD2    H7 9004   0.331   2.019  11.629  0.1331 -0.7583  0.7861
  608TMC3    C1 9005   0.461   2.045  11.422  0.1182  0.1720 -0.5380
  608TMC3    C2 9006   0.506   2.114  11.528 -0.4183  0.1964  0.0050
  608TMC3    C3 9007   0.567   2.240  11.510  0.3113 -0.3127  0.3122
  608TMC3    C4 9008   0.466   2.096  11.295 -1.0636  0.2600 -0.0903
  608TMC3    C5 9009   0.531   2.214  11.285  0.4175 -0.0872  0.2437
  608TMC3    C6 9010   0.573   2.296  11.388  0.3725  0.4537 -0.6467
  608TMC3     C 9011   0.362   1.934  11.442 -0.1669  0.1172  0.2406
  608TMC3     O 9012   0.331   1.872  11.344  0.2464 -0.0509 -0.0987
  608TMC3     H 9013   0.513   2.065  11.624 -2.3939 -1.5483 -0.7335
  608TMC3    H1 9014   0.429   2.037  11.212  1.1704 -0.3520 -0.6480
  608TMC3    H2 9015   0.628   2.388  11.373  1.9865 -0.1474  1.6335
  608TMC3    C7 9016   0.526   2.267  11.151 -0.3055 -0.2111  0.0662
  608TMC3    C8 9017   0.587   2.328  11.624  0.7324 -0.0493 -0.4314
  608TMC3    O1 9018   0.434   2.235  11.080 -0.8675 -0.1277  0.7766
  608TMC3    O2 9019   0.643   2.434  11.597  0.1932  0.1084  0.7361
  609TMC3    C1 9020   2.640   1.558   9.036 -0.6055  0.8456  0.3436
  609TMC3    C2 9021   2.590   1.603   8.918 -1.0558  1.1513 -0.0610
  609TMC3    C3 9022   2.667   1.580   8.803 -0.4080  0.0468  0.3896
  609TMC3    C4 9023   2.746   1.470   9.040  0.0452  0.5344  0.4209
  609TMC3    C5 9024   2.823   1.449   8.929  0.2052  0.4941  0.2032
  609TMC3    C6 9025   2.789   1.505   8.810 -0.3692 -0.5072  1.2031
  609TMC3     C 9026   2.560   1.573   9.156  0.3777 -1.0407  0.4623
  609TMC3     O 9027   2.599   1.515   9.256  0.7911 -0.4592 -0.1042
  609TMC3     H 9028   2.494   1.652   8.907 -1.1824  1.3152  1.6939
  609TMC3    H1 9029   2.785   1.445   9.138 -1.1766 -0.6285  0.5989
  609TMC3    H2 9030   2.841   1.478   8.719 -2.1987 -0.2887  0.0892
  609TMC3    C7 9031   2.919   1.337   8.923 -0.9170 -1.0155 -0.1027
  609TMC3    C8 9032   2.626   1.635   8.675 -0.3592 -0.2678 -0.3714
  609TMC3    O1 9033   2.986   1.320   9.027  0.2695 -0.8125  0.3187
  609TMC3    O2 9034   2.687   1.596   8.576  0.6592  0.3900  0.3259
  610TMC3    C1 9035   4.673   0.846  12.954  0.0945 -0.2024  0.5443
  610TMC3    C2 9036   4.567   0.905  12.895 -0.1339 -0.2503 -0.0014
  610TMC3    C3 9037   4.528   1.032  12.934  0.9766 -0.0937  0.5163
  610TMC3    C4 9038   0.013   0.916  13.054  0.2406 -0.1088  0.2150
  610TMC3    C5 9039   4.702   1.045  13.083 -0.1198 -0.1787  1.2011
  610TMC3    C6 9040   4.586   1.100  13.036  0.1898 -0.1649 -0.0444
  610TMC3     C 9041   4.699   0.708  12.911 -0.0495 -0.1980 -0.5319
  610TMC3     O 9042   0.093   0.676  12.915  0.4100 -0.4035 -0.0965
  610TMC3     H 9043   4.513   0.863  12.812 -1.1752  0.5083  0.2919
  610TMC3    H1 9044   0.109   0.880  13.087  1.4168 -0.2417 -3.3409
  610TMC3    H2 9045   4.571   1.206  13.051  0.8195 -0.1125  0.2468
  610TMC3    C7 9046   0.096   1.131  13.103 -1.1922  0.3026 -0.9652
  610TMC3    C8 9047   4.455   1.103  12.837  0.1521 -0.4390 -0.5313
  610TMC3    O1 9048   0.205   1.082  13.073  0.1315 -0.2540  0.5627
  610TMC3    O2 9049   4.352   1.162  12.866 -0.1640 -0.0779  0.0085
  611MPD2     C 9050   4.135   2.400   9.723  0.7880  0.0030 -0.3236
  611MPD2    C1 9051   4.101   2.268   9.731 -0.3981 -0.1815  0.2174
  611MPD2    C2 9052   4.193   2.167   9.760  0.5654  0.3069 -0.4567
  611MPD2    C3 9053   4.329   2.196   9.780 -0.3482 -0.2400  0.1408
  611MPD2    C4 9054   4.361   2.331   9.765  0.5368  0.5945 -0.3100
  611MPD2    C5 9055   4.264   2.430   9.749 -0.0085 -0.5203  0.3411
  611MPD2     H 9056   4.155   2.066   9.769 -0.2272  0.6732  0.2918
  611MPD2    H1 9057   4.457   2.373   9.791  0.8972  0.3740 -1.3063
  611MPD2    H2 9058   4.067   2.479   9.693 -1.5422 -1.3543  1.3658
  611MPD2    H3 9059   4.308   2.529   9.748 -0.3978 -0.3617 -0.4953
  611MPD2     N 9060   4.423   2.104   9.829  0.0150  0.1619  0.0843
  611MPD2    H5 9061   4.518   2.139   9.833 -0.0039  0.1943  0.2607
  611MPD2    N1 9062   3.967   2.235   9.728 -0.8957 -0.1099  0.1287
  611MPD2    H7 9063   3.911   2.320   9.726  2.6956  2.2576  0.4516
  612TMC3    C1 9064   4.531   1.903   9.876 -0.4635 -0.7295  1.3542
  612TMC3    C2 9065   4.657   1.962   9.889  0.3518 -0.6195  0.9357
  612TMC3    C3 9066   0.037   1.880   9.936  0.4441 -0.5911 -0.1969
  612TMC3    C4 9067   4.513   1.772   9.900  0.0498 -0.0798  0.5353
  612TMC3    C5 9068   4.615   1.692   9.947 -0.2180  0.7632 -0.1671
  612TMC3    C6 9069   0.017   1.749   9.962  0.3210  0.0288  0.4446
  612TMC3     C 9070   4.406   1.975   9.864  0.3925 -0.3117 -0.0032
  612TMC3     O 9071   4.301   1.915   9.863 -0.1184 -0.0947  0.0049
  612TMC3     H 9072   4.673   2.066   9.866 -0.2806 -1.4297 -3.1100
  612TMC3    H1 9073   4.413   1.732   9.903 -0.8727  2.0808 -1.5546
  612TMC3    H2 9074   0.107   1.690   9.979 -0.4210 -2.0293 -2.8651
  612TMC3    C7 9075   4.596   1.549   9.940  0.4516  0.0699 -0.5291
  612TMC3    C8 9076   0.151   1.948   9.982  0.1670 -0.9174  0.3318
  612TMC3    O1 9077   4.498   1.504   9.884  0.0812  0.1492 -0.3848
  612TMC3    O2 9078   0.177   2.045   9.913 -0.8339  0.4646  0.0808
  613MPD2     C 9079   3.339   4.080  16.444 -0.1151 -0.0328 -0.8805
  613MPD2    C1 9080   3.216   4.069  16.377 -0.1195  0.1772 -0.5221
  613MPD2    C2 9081   3.171   3.946  16.345  0.2649  0.1990  1.0191
  613MPD2    C3 9082   3.255   3.838  16.360  1.1043 -0.3741  0.1094
  613MPD2    C4 9083   3.383   3.851  16.411  0.2880 -0.1814  0.4624
  613MPD2    C5 9084   3.422   3.971  16.466  0.3348  1.4075 -0.4615
  613MPD2     H 9085   3.089   3.938  16.274  0.4307 -0.4722  0.9018
  613MPD2    H1 9086   3.453   3.769  16.408  0.9838  0.3738  1.3962
  613MPD2    H2 9087   3.371   4.177  16.480 -4.0368  0.5829  0.8574
  613MPD2    H3 9088   3.517   3.981  16.517  0.3764 -2.6693  0.2783
  613MPD2     N 9089   3.220   3.711  16.308  0.4723  0.1223 -0.5768
  613MPD2    H5 9090   3.299   3.650  16.287  0.0944 -0.3390 -0.6645
  613MPD2    N1 9091   3.152   4.184  16.336  0.0301  0.2319  0.1978
  613MPD2    H7 9092   3.208   4.269  16.338  2.1185 -1.1386  0.0335
  614TMC3    C1 9093   2.991   4.324  16.236 -0.5484 -0.2969  0.3625
  614TMC3    C2 9094   3.066   4.327  16.120  0.8593  0.0506  0.0818
  614TMC3    C3 9095   2.997   4.318  15.998  0.7068  0.2817  0.3167
  614TMC3    C4 9096   2.855   4.343  16.228 -0.1092  0.9519  0.4256
  614TMC3    C5 9097   2.798   4.324  16.104  0.3158 -0.1696  0.1360
  614TMC3    C6 9098   2.861   4.311  15.991 -0.1647  0.6831  0.0179
  614TMC3     C 9099   3.019   4.198  16.296  0.5557 -0.4600  0.4357
  614TMC3     O 9100   2.932   4.114  16.292  0.6389 -0.0960  0.1304
  614TMC3     H 9101   3.170   4.357  16.127  1.3372 -1.5906  0.1648
  614TMC3    H1 9102   2.797   4.327  16.318 -0.0101 -1.7212 -0.0035
  614TMC3    H2 9103   2.820   4.293  15.892  2.2573  0.3509 -0.9185
  614TMC3    C7 9104   2.655   4.302  16.103  0.6378 -0.5519  0.6507
  614TMC3    C8 9105   3.060   4.216  15.919  0.7774  0.4629  0.1537
  614TMC3    O1 9106   2.599   4.358  16.196 -0.1850  0.5744 -0.1917
  614TMC3    O2 9107   3.132   4.146  15.986 -0.8321 -0.1869 -0.5867
  615MPD2     C 9108   2.095   0.254  16.612 -0.1816  0.0199  0.2783
  615MPD2    C1 9109   2.179   0.344  16.547 -0.3021 -0.0437 -0.5607
  615MPD2    C2 9110   2.187   0.333  16.410  0.2258 -0.0019 -0.0570
  615MPD2    C3 9111   2.123   0.229  16.345  0.5954  0.0367  0.8641
  615MPD2    C4 9112   2.048   0.143  16.415 -0.6024  0.1137  0.3098
  615MPD2    C5 9113   2.034   0.156  16.547 -0.3117  0.2661 -0.3288
  615MPD2     H 9114   2.247   0.415  16.372 -2.6294  1.8311 -0.5507
  615MPD2    H1 9115   2.004   0.054  16.372 -0.2713  0.3700 -0.5676
  615MPD2    H2 9116   2.087   0.246  16.720 -0.2300  0.9434  0.3479
  615MPD2    H3 9117   1.984   0.072  16.594 -1.0999 -0.7823 -3.0029
  615MPD2     N 9118   2.134   0.224  16.207  0.8173  0.1929 -0.4466
  615MPD2    H5 9119   2.102   0.139  16.162  1.4085 -0.2505 -0.0280
  615MPD2    N1 9120   2.243   0.460  16.608  0.0340 -0.7034  0.0589
  615MPD2    H7 9121   2.289   0.514  16.535 -0.8991  0.7379  0.5486
  616TMC3    C1 9122   2.332   0.590  16.771 -0.4227  0.1001 -0.2637
  616TMC3    C2 9123   2.439   0.552  16.839  0.5323  0.3529  0.2721
  616TMC3    C3 9124   2.543   0.639  16.847  0.2641 -0.3279 -0.2174
  616TMC3    C4 9125   2.323   0.704  16.694 -0.0124 -0.0270  0.1455
  616TMC3    C5 9126   2.441   0.777  16.687 -0.9974 -0.5641 -0.6174
  616TMC3    C6 9127   2.548   0.756  16.775  0.2746 -0.4680  0.3211
  616TMC3     C 9128   2.244   0.484  16.745 -0.1565 -0.2524  0.6831
  616TMC3     O 9129   2.216   0.408  16.833 -0.0817 -0.0791 -1.2176
  616TMC3     H 9130   2.435   0.458  16.893 -3.0476  0.7637  0.6804
  616TMC3    H1 9131   2.240   0.722  16.627 -0.7727  0.6317  1.2478
  616TMC3    H2 9132   2.624   0.832  16.789  0.7983 -0.5915 -1.8751
  616TMC3    C7 9133   2.426   0.909  16.630 -0.5022 -0.2857  0.2481
  616TMC3    C8 9134   2.666   0.572  16.883  0.0659 -0.8495  0.1347
  616TMC3    O1 9135   2.309   0.949  16.627  0.2556 -0.0369 -0.3227
  616TMC3    O2 9136   2.664   0.462  16.937  0.3565 -0.3358  0.5649
  617MPD2     C 9137   0.398   3.147  13.430  0.1304  0.1750 -0.2511
  617MPD2    C1 9138   0.430   3.196  13.555 -0.0494 -0.3726  0.5737
  617MPD2    C2 9139   0.332   3.186  13.653  0.6482  0.7689 -0.6658
  617MPD2    C3 9140   0.204   3.139  13.629 -0.4895  0.6383  0.0509
  617MPD2    C4 9141   0.173   3.097  13.503  0.0659 -0.4206 -0.4118
  617MPD2    C5 9142   0.270   3.103  13.404  0.2024 -0.5032 -0.2253
  617MPD2     H 9143   0.356   3.215  13.754  3.5928 -0.4613 -1.0176
  617MPD2    H1 9144   0.071   3.065  13.485 -0.2307  0.2999 -0.0057
  617MPD2    H2 9145   0.478   3.142  13.357 -0.3947  1.7458 -0.9335
  617MPD2    H3 9146   0.256   3.085  13.298  1.7287  1.7326 -0.7989
  617MPD2     N 9147   0.104   3.125  13.727  0.2576  0.1453  0.6246
  617MPD2    H5 9148   0.011   3.095  13.702  1.2870 -1.2671 -1.5143
  617MPD2    N1 9149   0.561   3.241  13.585 -0.2980  0.0697  0.6127
  617MPD2    H7 9150   0.631   3.242  13.511 -1.3121 -1.1002 -0.3789
  618TMC3    C1 9151   0.750   3.316  13.691 -0.4191 -0.7412 -0.0690
  618TMC3    C2 9152   0.826   3.207  13.664  0.6314 -0.0760 -0.1903
  618TMC3    C3 9153   0.961   3.225  13.658 -0.2434 -0.2228  0.2955
  618TMC3    C4 9154   0.802   3.436  13.735  0.0473 -0.0211  0.1226
  618TMC3    C5 9155   0.939   3.449  13.740 -0.1530  0.4101  0.7940
  618TMC3    C6 9156   1.019   3.341  13.706 -0.4572  0.0855 -0.6252
  618TMC3     C 9157   0.602   3.310  13.695  0.1750  0.3257 -0.5371
  618TMC3     O 9158   0.538   3.393  13.761  0.4409 -0.5175 -0.1454
  618TMC3     H 9159   0.782   3.113  13.634  1.6054  0.2471 -2.6174
  618TMC3    H1 9160   0.741   3.525  13.748 -0.1289 -0.2702  1.0186
  618TMC3    H2 9161   1.124   3.350  13.732 -0.6823  0.6646  0.1013
  618TMC3    C7 9162   0.982   3.565  13.811  0.1096 -0.8823 -0.1618
  618TMC3    C8 9163   1.036   3.099  13.653  0.1871 -0.0477  0.7552
  618TMC3    O1 9164   0.910   3.606  13.904  0.5040 -0.4479  0.4467
  618TMC3    O2 9165   0.975   2.996  13.663 -0.0095  0.2144  0.5109
  619MPD2     C 9166   1.994   4.615  13.436 -0.1313  0.4364 -0.0147
  619MPD2    C1 9167   1.873   4.662  13.480 -0.3277  0.8968 -0.0824
  619MPD2    C2 9168   1.830   4.626  13.607  0.6159 -0.6211  0.7963
  619MPD2    C3 9169   1.898   4.530  13.683  0.1028  0.8439  0.3462
  619MPD2    C4 9170   2.019   4.485  13.636  0.0235 -0.5213  0.5403
  619MPD2    C5 9171   2.069   4.531  13.515  0.7407  0.3209  0.9299
  619MPD2     H 9172   1.736   4.664  13.647 -0.5557 -0.4851 -2.0903
  619MPD2    H1 9173   2.075   4.410  13.690 -1.3640 -2.4709 -0.7402
  619MPD2    H2 9174   2.031   4.647  13.340  1.0813 -0.7513  0.0594
  619MPD2    H3 9175   2.164   4.491  13.479 -0.7427 -1.7752 -0.6543
  619MPD2     N 9176   1.839   4.469  13.802 -0.0308 -0.0617  0.5877
  619MPD2    H5 9177   1.890   4.399  13.855 -1.1434 -0.0373  1.6901
  619MPD2    N1 9178   1.782   0.018  13.400  0.5277 -0.2683 -0.6043
  619MPD2    H7 9179   1.691   0.020  13.447  1.1367 -0.1998  0.5762
  620TMC3    C1 9180   1.682   0.138  13.218 -0.2355 -0.3750  0.3501
  620TMC3    C2 9181   1.557   0.088  13.243  0.4576 -0.1642 -0.7687
  620TMC3    C3 9182   1.455   0.169  13.243  0.3666 -0.4100 -0.6032
  620TMC3    C4 9183   1.693   0.269  13.178  0.6890 -0.6735 -0.1762
  620TMC3    C5 9184   1.580   0.344  13.155  0.6888  0.4917  0.6664
  620TMC3    C6 9185   1.459   0.297  13.189  0.1764  0.2992 -0.4435
  620TMC3     C 9186   1.801   0.073  13.271  0.0369 -0.2819 -0.6493
  620TMC3     O 9187   1.913   0.093  13.221  0.1947  0.1744  0.0585
  620TMC3     H 9188   1.554   4.718  13.301  0.6532  0.1353 -0.2851
  620TMC3    H1 9189   1.787   0.314  13.149  1.4247 -2.1428 -0.0892
  620TMC3    H2 9190   1.371   0.359  13.175  2.5385  3.5909 -0.6662
  620TMC3    C7 9191   1.587   0.488  13.137  0.0411 -0.3533  0.2177
  620TMC3    C8 9192   1.360   0.161  13.352 -0.5023  0.3446  0.4787
  620TMC3    O1 9193   1.507   0.541  13.065 -0.1000 -0.9016  0.1049
  620TMC3    O2 9194   1.398   0.092  13.442  0.7606  0.2979  0.3980
  621MPD2     C 9195   2.185   0.715   9.567 -0.5427 -0.2856  0.1417
  621MPD2    C1 9196   2.307   0.656   9.531 -0.2287  0.0158  0.6540
  621MPD2    C2 9197   2.416   0.728   9.480  0.1749  0.5014 -0.5871
  621MPD2    C3 9198   2.402   0.866   9.469 -0.1275  0.3623  0.4639
  621MPD2    C4 9199   2.277   0.928   9.496  0.8511  0.3617  0.2531
  621MPD2    C5 9200   2.178   0.850   9.544  0.2476 -0.5528 -0.6921
  621MPD2     H 9201   2.512   0.679   9.471  0.3379  1.0832 -2.0396
  621MPD2    H1 9202   2.255   1.029   9.466 -2.1781 -0.0463  1.1012
  621MPD2    H2 9203   2.101   0.662   9.609 -1.2446  0.2509 -0.5756
  621MPD2    H3 9204   2.084   0.905   9.552  0.7303  0.2110 -0.2220
  621MPD2     N 9205   2.520   0.941   9.446 -0.5880  0.3791  0.3023
  621MPD2    H5 9206   2.596   0.888   9.406  0.2307  0.7555  1.3567
  621MPD2    N1 9207   2.337   0.515   9.533  0.7651  0.6201 -0.0929
  621MPD2    H7 9208   2.435   0.491   9.521  0.8192  1.3629 -1.1190
  622TMC3    C1 9209   2.313   0.294   9.496  0.0948 -0.3545 -0.2452
  622TMC3    C2 9210   2.344   0.200   9.588 -0.1378 -0.5824  0.1314
  622TMC3    C3 9211   2.445   0.115   9.554  0.9758 -0.3607  0.1457
  622TMC3    C4 9212   2.380   0.317   9.380 -0.5436  0.5030 -0.1957
  622TMC3    C5 9213   2.485   0.228   9.346 -0.5778 -0.1318 -0.0539
  622TMC3    C6 9214   2.515   0.131   9.434 -0.5944 -0.5761 -0.0729
  622TMC3     C 9215   2.251   0.415   9.555  0.0217 -0.7231  0.6633
  622TMC3     O 9216   2.145   0.415   9.617 -0.3703 -0.5718  0.0709
  622TMC3     H 9217   2.276   0.190   9.672 -0.9865 -1.9935 -0.7315
  622TMC3    H1 9218   2.362   0.410   9.328  0.4854  0.5112 -0.5439
  622TMC3    H2 9219   2.591   0.061   9.403  1.6960  1.7908  0.2762
  622TMC3    C7 9220   2.553   0.230   9.217 -0.4090 -0.2742 -0.3202
  622TMC3    C8 9221   2.531   0.074   9.667 -0.2704  0.0478 -0.1089
  622TMC3    O1 9222   2.608   0.131   9.177 -0.2724 -0.5178 -0.0661
  622TMC3    O2 9223   2.589   4.681   9.656 -0.0737 -0.5191 -0.0381
  623MPD2     C 9224   1.126   1.175  15.743  0.0220 -0.1475 -0.1935
  623MPD2    C1 9225   1.043   1.137  15.842 -0.1706 -0.9344 -0.1553
  623MPD2    C2 9226   1.093   1.149  15.970 -0.0294 -0.0843 -0.5977
  623MPD2    C3 9227   1.225   1.169  15.995 -0.7326  0.2455 -0.0742
  623MPD2    C4 9228   1.313   1.190  15.895  0.3829 -0.0372  0.5274
  623MPD2    C5 9229   1.258   1.205  15.770  0.4321  0.2295 -0.3148
  623MPD2     H 9230   1.027   1.133  16.054  1.9689 -0.5790  0.8532
  623MPD2    H1 9231   1.418   1.205  15.915  0.6962 -0.8523 -0.4930
  623MPD2    H2 9232   1.089   1.196  15.643 -1.9151 -1.3013  0.2840
  623MPD2    H3 9233   1.322   1.223  15.685  0.4357 -1.6262 -0.7009
  623MPD2     N 9234   1.261   1.173  16.134 -0.3124 -0.5394  0.3642
  623MPD2    H5 9235   1.187   1.144  16.197 -1.4911 -3.0673 -2.1650
  623MPD2    N1 9236   0.909   1.104  15.831  0.4614 -0.0312  0.0862
  623MPD2    H7 9237   0.850   1.084  15.912  0.4298  0.4940  0.1945
  624TMC3    C1 9238   1.405   1.208  16.544 -0.0649  0.5380 -1.1853
  624TMC3    C2 9239   1.275   1.198  16.584 -0.4621 -0.3128  0.2498
  624TMC3    C3 9240   1.180   1.225  16.493  0.3377 -0.5319 -0.4071
  624TMC3    C4 9241   1.439   1.252  16.424 -0.7220  0.9296 -0.3608
  624TMC3    C5 9242   1.337   1.266  16.332 -0.1441 -0.0483  0.3496
  624TMC3    C6 9243   1.205   1.256  16.368  0.3505  0.3338 -0.1887
  624TMC3     C 9244   1.507   1.136  16.626 -0.4674 -0.1150 -0.0285
  624TMC3     O 9245   1.475   1.082  16.731 -0.3900 -0.3594  0.4405
  624TMC3     H 9246   1.240   1.170  16.683  1.4340 -0.0875  0.9735
  624TMC3    H1 9247   1.542   1.238  16.393 -0.7761 -1.8782  0.7439
  624TMC3    H2 9248   1.129   1.285  16.297  0.7750  1.7216 -0.0712
  624TMC3    C7 9249   1.367   1.231  16.191 -1.0420  0.0550  0.1857
  624TMC3    C8 9250   1.043   1.227  16.538 -0.4970 -0.2546  0.0283
  624TMC3    O1 9251   1.476   1.263  16.146 -0.0773  0.4363  0.3210
  624TMC3    O2 9252   0.965   1.298  16.473 -0.2872  0.5869 -0.2541
  625MPD2     C 9253   1.513   1.273   0.266 -0.2921  0.3113 -0.3252
  625MPD2    C1 9254   1.594   1.352   0.350  0.4044 -0.1515 -0.2021
  625MPD2    C2 9255   1.629   1.291   0.467  0.2985  0.3869  0.1473
  625MPD2    C3 9256   1.572   1.174   0.509  0.7408 -0.2076 -0.0770
  625MPD2    C4 9257   1.491   1.107   0.424  0.3186 -0.1177 -0.5353
  625MPD2    C5 9258   1.463   1.154   0.305  0.3504 -0.0179 -0.1071
  625MPD2     H 9259   1.682   1.339   0.548  0.7929  0.9324 -0.5032
  625MPD2    H1 9260   1.425   1.030   0.462  3.0650 -0.8377  2.7390
  625MPD2    H2 9261   1.479   1.304   0.168  1.9205 -1.2159 -1.5877
  625MPD2    H3 9262   1.395   1.104   0.238 -0.1167  1.4316 -0.7060
  625MPD2     N 9263   1.598   1.117   0.638  0.3988  0.2218 -0.3831
  625MPD2    H5 9264   1.657   1.173   0.698  1.5184 -0.6357 -0.6852
  625MPD2    N1 9265   1.654   1.478   0.324  0.0109  0.2774 -0.2560
  625MPD2    H7 9266   1.712   1.505   0.402 -0.0834  1.4811 -0.6059
  626TMC3    C1 9267   1.733   1.653   0.181  0.2262 -0.7495 -0.5042
  626TMC3    C2 9268   1.707   1.718   0.065  0.2736  0.6977 -0.1035
  626TMC3    C3 9269   1.722   1.850   0.062 -0.8121  0.2091  0.0053
  626TMC3    C4 9270   1.787   1.721   0.292  0.3255 -0.0838 -0.3471
  626TMC3    C5 9271   1.801   1.857   0.282 -0.1291  0.0209  0.0979
  626TMC3    C6 9272   1.779   1.923   0.165 -0.3966  0.0560  0.4546
  626TMC3     C 9273   1.650   1.537   0.196 -0.0831  0.4281 -0.2615
  626TMC3     O 9274   1.596   1.490   0.095  0.2449  0.6045  0.3267
  626TMC3     H 9275   1.665   1.673  17.665  0.7102  1.5228 -0.7313
  626TMC3    H1 9276   1.824   1.673   0.382 -0.7066  0.4015  0.3359
  626TMC3    H2 9277   1.800   2.029   0.167  0.7435 -0.1463 -0.8974
  626TMC3    C7 9278   1.832   1.939   0.398 -0.1286  0.3712 -0.1439
  626TMC3    C8 9279   1.651   1.918  17.643 -0.0351  0.8148 -0.9471
  626TMC3    O1 9280   1.885   2.049   0.379 -0.4961 -0.1778  0.4636
  626TMC3    O2 9281   1.645   1.864  17.532 -0.0823 -0.4131 -0.5633
  627MPD2     C 9282   4.424   1.970  14.153 -0.3369  0.0104 -0.2200
  627MPD2    C1 9283   4.534   1.902  14.215  0.1300 -0.0010  0.5762
  627MPD2    C2 9284   4.500   1.789  14.293  0.1468  0.2670  0.0547
  627MPD2    C3 9285   4.371   1.748  14.311  0.1990 -0.6649  0.0688
  627MPD2    C4 9286   4.263   1.815  14.251 -0.5982  0.9363 -0.0140
  627MPD2    C5 9287   4.298   1.918  14.176  0.6283  0.1479 -0.6628
  627MPD2     H 9288   4.572   1.741  14.359 -0.1626 -1.6905 -1.0322
  627MPD2    H1 9289   4.163   1.781  14.272 -0.3004 -1.1165 -1.9479
  627MPD2    H2 9290   4.424   2.035  14.067 -3.2419  0.6854  0.2557
  627MPD2    H3 9291   4.216   1.973  14.133  0.7843  0.5434 -0.4581
  627MPD2     N 9292   4.348   1.636  14.397  0.6146 -0.2690 -0.3323
  627MPD2    H5 9293   4.432   1.597  14.439  0.1325  0.3704  1.2129
  627MPD2    N1 9294   4.670   1.937  14.194 -0.1815 -0.4346 -0.1625
  627MPD2    H7 9295   0.021   1.899  14.254 -0.8829  0.8403  1.4835
  628TMC3    C1 9296   0.118   2.090  14.169 -0.5094  0.1358  0.4802
  628TMC3    C2 9297   0.212   1.993  14.174  0.1588  0.3195  0.2779
  628TMC3    C3 9298   0.322   2.021  14.250 -0.0864 -0.3831  0.5595
  628TMC3    C4 9299   0.128   2.214  14.221  0.3612  0.1835 -0.3076
  628TMC3    C5 9300   0.237   2.243  14.293  0.7923  0.0604 -0.2076
  628TMC3    C6 9301   0.337   2.148  14.310 -0.0220 -0.2285  0.0562
  628TMC3     C 9302   4.707   2.049  14.131 -0.4509 -0.2295 -0.4598
  628TMC3     O 9303   4.644   2.135  14.067  0.4065 -0.1135 -0.3216
  628TMC3     H 9304   0.200   1.894  14.133 -0.8825  0.5115  0.1231
  628TMC3    H1 9305   0.039   2.275  14.233 -0.4244 -0.7305 -1.4381
  628TMC3    H2 9306   0.425   2.180  14.366 -0.7585  0.6077  0.7336
  628TMC3    C7 9307   0.262   2.370  14.357  0.0715  0.3052  0.5709
  628TMC3    C8 9308   0.418   1.921  14.274 -0.3595  0.8240 -0.1088
  628TMC3    O1 9309   0.360   2.377  14.431  0.0953 -0.2597  1.0555
  628TMC3    O2 9310   0.454   1.855  14.179 -0.3542 -0.2407 -0.1708
  629MPD2     C 9311   3.160   0.479  16.769  0.1072  0.0832 -0.7662
  629MPD2    C1 9312   3.117   0.574  16.688  0.1244 -0.0382  1.0943
  629MPD2    C2 9313   2.986   0.609  16.700 -0.0348  0.1760 -0.6064
  629MPD2    C3 9314   2.900   0.558  16.794  0.2625 -0.1473  0.7742
  629MPD2    C4 9315   2.946   0.463  16.878  0.1430  0.3649  1.2712
  629MPD2    C5 9316   3.076   0.422  16.858  0.0749 -0.0989 -0.1894
  629MPD2     H 9317   2.947   0.693  16.644 -1.4051  0.1117  0.2550
  629MPD2    H1 9318   2.897   0.425  16.967  1.7863  1.1537  2.5129
  629MPD2    H2 9319   3.263   0.445  16.769  0.1023  0.0619 -1.3422
  629MPD2    H3 9320   3.110   0.342  16.923  1.2567  0.4194 -0.1736
  629MPD2     N 9321   2.772   0.618  16.808 -0.1240 -0.4416 -0.8353
  629MPD2    H5 9322   2.750   0.698  16.750  0.9901  0.3561 -0.1693
  629MPD2    N1 9323   3.208   0.641  16.607  0.1283 -0.0712 -0.8029
  629MPD2    H7 9324   3.302   0.602  16.609  0.4318  0.6074 -1.5193
  630TMC3    C1 9325   3.316   0.809  16.488  0.4322 -0.4061 -0.6750
  630TMC3    C2 9326   3.369   0.923  16.552 -0.6856 -0.4923  0.0570
  630TMC3    C3 9327   3.503   0.926  16.575 -0.3340 -0.2937  0.2855
  630TMC3    C4 9328   3.393   0.707  16.455  0.2555 -0.5995  0.1779
  630TMC3    C5 9329   3.521   0.700  16.499 -0.3530  0.0355  0.4078
  630TMC3    C6 9330   3.578   0.814  16.563 -0.1774 -0.2555 -0.6905
  630TMC3     C 9331   3.187   0.756  16.535  0.1028 -0.0035 -0.3920
  630TMC3     O 9332   3.093   0.834  16.539  0.3274 -0.9664 -0.9578
  630TMC3     H 9333   3.311   1.010  16.577 -0.7724 -0.6067  0.2543
  630TMC3    H1 9334   3.336   0.623  16.417 -2.5752  1.5319 -0.2708
  630TMC3    H2 9335   3.678   0.804  16.604  0.3832  1.8231 -1.5812
  630TMC3    C7 9336   3.553   0.574  16.566  0.1286 -0.2534 -0.0570
  630TMC3    C8 9337   3.548   1.030  16.663 -0.9735 -0.2700 -0.2968
  630TMC3    O1 9338   3.460   0.496  16.575 -0.2712  0.6562  0.0042
  630TMC3    O2 9339   3.618   0.981  16.751  0.3923 -0.2283  0.6420
  631MPD2     C 9340   1.441   0.574  15.689 -0.0284 -1.2934  0.4364
  631MPD2    C1 9341   1.536   0.593  15.596  0.1083  0.2720  0.8794
  631MPD2    C2 9342   1.663   0.523  15.607 -0.0871  0.5638  0.3369
  631MPD2    C3 9343   1.682   0.435  15.710  0.4958 -0.2498 -0.3780
  631MPD2    C4 9344   1.581   0.428  15.812  0.2498 -0.1684  0.4964
  631MPD2    C5 9345   1.465   0.491  15.798 -0.0387  0.8350 -0.1146
  631MPD2     H 9346   1.745   0.548  15.540  0.8588 -1.4459  0.7395
  631MPD2    H1 9347   1.603   0.371  15.901  1.4235 -0.3925  0.0664
  631MPD2    H2 9348   1.344   0.621  15.679  1.1738  1.0400 -0.2639
  631MPD2    H3 9349   1.391   0.492  15.878 -0.7644  2.0494 -0.7948
  631MPD2     N 9350   1.812   0.383  15.718  0.6464  0.3070  0.1343
  631MPD2    H5 9351   1.877   0.414  15.647  0.7324 -2.3023 -0.9195
  631MPD2    N1 9352   1.506   0.692  15.494  0.0583  0.1186 -0.0981
  631MPD2    H7 9353   1.414   0.734  15.501  0.8892  1.6282  1.9649
  632TMC3    C1 9354   1.554   0.833  15.304 -0.1198  0.1158 -0.5416
  632TMC3    C2 9355   1.441   0.910  15.333  0.0553  0.3919 -0.4723
  632TMC3    C3 9356   1.401   1.005  15.241 -0.2851 -0.1678 -0.3076
  632TMC3    C4 9357   1.625   0.860  15.189  0.1139  0.0702 -0.0531
  632TMC3    C5 9358   1.579   0.950  15.099  0.1615 -0.2851  0.1149
  632TMC3    C6 9359   1.469   1.030  15.126  0.0954 -0.0174 -0.1013
  632TMC3     C 9360   1.599   0.720  15.393 -0.1632 -0.7129  0.4981
  632TMC3     O 9361   1.710   0.674  15.369 -0.2192 -0.3515 -0.1093
  632TMC3     H 9362   1.380   0.891  15.421  0.8341 -0.3209 -0.0963
  632TMC3    H1 9363   1.709   0.800  15.158 -0.5776  0.8722 -3.5051
  632TMC3    H2 9364   1.446   1.114  15.061  1.0096 -0.8345 -1.4697
  632TMC3    C7 9365   1.663   1.006  14.986 -1.1040 -0.1393 -0.1710
  632TMC3    C8 9366   1.273   1.064  15.268  0.1832  0.3454  0.4751
  632TMC3    O1 9367   1.631   1.107  14.915  0.2335  0.0842  0.0252
  632TMC3    O2 9368   1.220   1.052  15.383  0.4283 -0.2377 -0.4148
  633MPD2     C 9369   0.945   2.886  17.209  0.4136 -0.7504 -0.3128
  633MPD2    C1 9370   1.075   2.906  17.166  0.4022  0.4313  0.5018
  633MPD2    C2 9371   1.178   2.852  17.230 -0.4052 -0.5579 -0.2750
  633MPD2    C3 9372   1.155   2.770  17.337 -0.5597  0.1173 -0.1185
  633MPD2    C4 9373   1.031   2.759  17.392  0.0839 -0.1204  0.3309
  633MPD2    C5 9374   0.927   2.815  17.321 -0.0689  0.8399 -0.1289
  633MPD2     H 9375   1.279   2.866  17.194 -2.2580  1.4745 -4.6573
  633MPD2    H1 9376   1.017   2.703  17.484 -0.0586  0.0708  0.4265
  633MPD2    H2 9377   0.853   2.907  17.156 -0.8184  0.8612  2.4888
  633MPD2    H3 9378   0.823   2.816  17.354  0.4404 -1.1225  1.5581
  633MPD2     N 9379   1.258   2.699  17.398  0.1789 -0.7822 -0.1038
  633MPD2    H5 9380   1.244   2.649  17.485 -0.7460  0.0346  0.2116
  633MPD2    N1 9381   1.110   2.969  17.043 -0.2881  0.4761 -0.0649
  633MPD2    H7 9382   1.209   2.979  17.026 -0.6381  0.9490 -1.8466
  634TMC3    C1 9383   1.110   3.115  16.859 -0.4408 -1.0293 -0.2181
  634TMC3    C2 9384   1.222   3.051  16.806 -0.7305 -0.2503 -0.5022
  634TMC3    C3 9385   1.283   3.113  16.703  0.1192  0.5218 -0.0949
  634TMC3    C4 9386   1.063   3.240  16.818 -0.5676 -0.9493  0.6529
  634TMC3    C5 9387   1.139   3.299  16.721  1.3186  0.2060  0.0685
  634TMC3    C6 9388   1.253   3.243  16.674 -0.0026 -0.3975 -0.4378
  634TMC3     C 9389   1.032   3.044  16.961 -0.1371 -0.1887 -0.3815
  634TMC3     O 9390   0.914   3.070  16.974  0.7915 -0.1748 -0.1771
  634TMC3     H 9391   1.243   2.945  16.819 -0.4254 -0.2981 -1.4083
  634TMC3    H1 9392   0.961   3.273  16.836 -1.4042 -2.6272 -0.9968
  634TMC3    H2 9393   1.308   3.306  16.604 -1.5273  3.0377  1.4114
  634TMC3    C7 9394   1.129   3.441  16.705 -0.1603  0.7865  0.6754
  634TMC3    C8 9395   1.390   3.050  16.641  0.1146 -0.7465 -0.4536
  634TMC3    O1 9396   1.203   3.493  16.620 -0.5666 -0.2994  0.2363
  634TMC3    O2 9397   1.443   2.962  16.710  0.2974  0.2309  0.1034
  635TMC3    C1 9398   1.991   3.644  16.786 -0.2516  0.3407 -0.2553
  635TMC3    C2 9399   2.086   3.704  16.715  0.4824  0.1355 -0.9415
  635TMC3    C3 9400   2.141   3.632  16.609 -1.3535  0.1592  0.2889
  635TMC3    C4 9401   1.951   3.512  16.760  0.3726 -0.3332  0.4946
  635TMC3    C5 9402   2.005   3.450  16.649 -0.4239 -0.1625  0.0804
  635TMC3    C6 9403   2.098   3.509  16.571 -0.0447  0.1876 -0.7987
  635TMC3     C 9404   1.930   3.716  16.896 -0.4286 -0.1797 -0.5953
  635TMC3     O 9405   1.815   3.686  16.926  0.5250 -0.1418 -0.1809
  635TMC3     H 9406   2.125   3.800  16.748 -0.3096 -0.0120  0.4205
  635TMC3    H1 9407   1.869   3.467  16.814  0.8051 -0.6760  0.8726
  635TMC3    H2 9408   2.140   3.456  16.486  0.5235  0.4557 -0.6883
  635TMC3    C7 9409   1.998   3.304  16.646 -0.6039  0.4736 -0.6271
  635TMC3    C8 9410   2.255   3.682  16.537  0.0898 -0.0505  0.3839
  635TMC3    O1 9411   2.069   3.249  16.562 -0.4581 -0.1912  0.3242
  635TMC3    O2 9412   2.271   3.642  16.425  0.0234 -0.5298 -0.1660
  636MPD2     C 9413   2.351   3.767  16.019  0.1597  0.3454 -0.0267
  636MPD2    C1 9414   2.445   3.835  16.096 -0.1610  0.0217 -0.4709
  636MPD2    C2 9415   2.580   3.795  16.079 -0.6737  0.6619 -0.7237
  636MPD2    C3 9416   2.615   3.684  16.008  0.2382  0.3458  0.7986
  636MPD2    C4 9417   2.518   3.625  15.935 -0.1117 -0.0335  0.0857
  636MPD2    C5 9418   2.386   3.666  15.933 -0.4910 -1.0517  0.2411
  636MPD2     H 9419   2.653   3.851  16.137 -0.8193 -0.7153  0.8006
  636MPD2    H1 9420   2.550   3.559  15.855 -0.1243 -0.7212  0.6430
  636MPD2    H2 9421   2.244   3.786  16.015 -0.0465 -0.5126  1.4845
  636MPD2    H3 9422   2.309   3.608  15.885 -0.0293 -0.7246 -0.9057
  636MPD2     N 9423   2.753   3.648  16.008 -0.2968  0.3630  0.3557
  636MPD2    H5 9424   2.810   3.697  16.076  0.6159  0.3797 -0.4253
  636MPD2    N1 9425   2.411   3.952  16.174  0.2449  0.1218 -0.6191
  636MPD2    H7 9426   2.490   3.992  16.223  0.6361 -1.7152  0.2472
  637TMC3    C1 9427   2.950   3.545  15.965  0.3237 -0.4836  0.1912
  637TMC3    C2 9428   2.974   3.570  16.092 -0.1054  0.0316  0.3023
  637TMC3    C3 9429   3.099   3.606  16.135  0.0479 -0.0254  0.2145
  637TMC3    C4 9430   3.040   3.572  15.870 -0.3704  0.3137  0.1073
  637TMC3    C5 9431   3.161   3.621  15.913 -1.0028  0.6368 -1.3487
  637TMC3    C6 9432   3.196   3.637  16.046  0.3528 -0.3220 -0.1416
  637TMC3     C 9433   2.815   3.555  15.925 -0.3933  0.1779  0.7230
  637TMC3     O 9434   2.776   3.497  15.822  0.6634 -0.3518 -1.0496
  637TMC3     H 9435   2.896   3.552  16.165  0.6250 -0.2189  1.0264
  637TMC3    H1 9436   3.007   3.547  15.770  3.8004 -2.0199 -0.6598
  637TMC3    H2 9437   3.295   3.669  16.076  1.1841 -1.0692 -2.0830
  637TMC3    C7 9438   3.215   3.730  15.831  0.1324 -0.4358  0.1950
  637TMC3    C8 9439   3.099   3.684  16.258  0.6094 -0.3477  0.1922
  637TMC3    O1 9440   3.287   3.819  15.879  0.1751  0.2658 -0.2019
  637TMC3    O2 9441   2.992   3.708  16.316  0.0412  0.4329 -0.0835
  638MPD2     C 9442   2.607   2.682  15.137  0.7164 -0.3513  0.1267
  638MPD2    C1 9443   2.505   2.663  15.049 -0.4072 -0.3861 -0.4059
  638MPD2    C2 9444   2.411   2.563  15.074  1.0419  0.0497 -0.4582
  638MPD2    C3 9445   2.424   2.472  15.175  0.1962  0.2302 -0.3401
  638MPD2    C4 9446   2.521   2.503  15.268 -0.4241  0.2543  0.3089
  638MPD2    C5 9447   2.616   2.601  15.244 -0.5721  0.7244 -0.9693
  638MPD2     H 9448   2.325   2.540  15.011  1.3207 -0.5557 -0.6183
  638MPD2    H1 9449   2.540   2.437  15.352  0.4833 -0.3437 -0.3683
  638MPD2    H2 9450   2.691   2.745  15.113  1.4308 -0.5004  2.2238
  638MPD2    H3 9451   2.700   2.612  15.311 -1.8374  1.3884  0.4870
  638MPD2     N 9452   2.328   2.367  15.188  0.7212  0.0792 -0.1641
  638MPD2    H5 9453   2.240   2.370  15.137 -1.1531 -1.1987  3.0270
  638MPD2    N1 9454   2.508   2.736  14.925  0.1597 -0.5589 -0.0017
  638MPD2    H7 9455   2.595   2.786  14.908  0.4994 -0.7748  1.0879
  639TMC3    C1 9456   2.272   2.143  15.258  0.6004 -1.3457 -0.1320
  639TMC3    C2 9457   2.139   2.176  15.227 -0.4761 -0.5067  0.9578
  639TMC3    C3 9458   2.048   2.065  15.227  0.5926  0.0552 -0.7085
  639TMC3    C4 9459   2.306   2.011  15.279 -0.4953  0.4844  0.7151
  639TMC3    C5 9460   2.211   1.917  15.281 -0.4808 -0.3561 -0.4741
  639TMC3    C6 9461   2.078   1.945  15.267  0.4530 -0.7744  0.3672
  639TMC3     C 9462   2.376   2.244  15.237  0.4829 -0.2628 -0.5821
  639TMC3     O 9463   2.490   2.217  15.254 -0.0278  0.1284  0.5941
  639TMC3     H 9464   2.100   2.268  15.186 -0.5275  0.7010  3.6786
  639TMC3    H1 9465   2.405   1.988  15.316 -0.0937  0.5786 -0.2898
  639TMC3    H2 9466   2.008   1.862  15.270 -0.5131  0.0314 -0.0258
  639TMC3    C7 9467   2.259   1.779  15.281  0.0635 -0.2029  0.6148
  639TMC3    C8 9468   1.972   2.068  15.113  0.7884 -0.0059  0.6281
  639TMC3    O1 9469   2.200   1.687  15.335  0.4708  0.5707 -0.2304
  639TMC3    O2 9470   2.016   2.106  15.003  0.4327  0.8946  0.8527
  640MPD2     C 9471   3.120   1.942   9.909 -0.6736 -0.0126  1.0522
  640MPD2    C1 9472   3.047   1.962   9.793 -0.4281 -0.3365  0.0421
  640MPD2    C2 9473   2.955   2.062   9.795 -1.1646 -0.0179  0.4026
  640MPD2    C3 9474   2.937   2.142   9.910 -0.1549  0.2383 -0.2865
  640MPD2    C4 9475   3.021   2.120  10.027  0.0389  0.5160 -0.0342
  640MPD2    C5 9476   3.104   2.007  10.024 -0.4279 -0.6697 -0.2861
  640MPD2     H 9477   2.889   2.073   9.709 -0.9466 -2.5538 -0.0684
  640MPD2    H1 9478   3.025   2.190  10.110  0.9030  0.4021  0.0258
  640MPD2    H2 9479   3.196   1.865   9.909  0.3623  1.0286 -0.6174
  640MPD2    H3 9480   3.164   1.989  10.112  0.6102  0.9582 -0.6531
  640MPD2     N 9481   2.833   2.237   9.921  0.5739  0.0013 -0.1742
  640MPD2    H5 9482   2.834   2.285  10.010  3.4724 -1.6729  0.7238
  640MPD2    N1 9483   3.063   1.875   9.677 -0.2373 -0.5383  0.0457
  640MPD2    H7 9484   3.109   1.785   9.684 -1.4558 -1.2628 -1.0608
  641TMC3    C1 9485   3.042   1.800   9.455 -0.5708 -0.8243 -0.6299
  641TMC3    C2 9486   3.114   1.690   9.491  0.0862 -0.7186  0.0395
  641TMC3    C3 9487   3.114   1.586   9.401 -0.2540 -0.1406 -0.0344
  641TMC3    C4 9488   2.988   1.817   9.333  0.2102  0.0672  0.0099
  641TMC3    C5 9489   3.010   1.724   9.236  0.3635  0.2614  0.0428
  641TMC3    C6 9490   3.073   1.601   9.269 -0.7034  0.1103  0.0430
  641TMC3     C 9491   3.020   1.902   9.551 -0.6644  0.0520 -0.3504
  641TMC3     O 9492   2.972   2.007   9.509  0.5639 -1.2647  0.3542
  641TMC3     H 9493   3.152   1.673   9.591  0.0702  0.7459  0.2932
  641TMC3    H1 9494   2.934   1.909   9.311 -0.0327  0.1385  0.9389
  641TMC3    H2 9495   3.083   1.515   9.204 -1.2316 -1.0265  1.4684
  641TMC3    C7 9496   2.979   1.737   9.097  0.2262 -0.4538 -0.3790
  641TMC3    C8 9497   3.187   1.465   9.439  0.1283 -1.0180  0.3111
  641TMC3    O1 9498   3.041   1.651   9.032 -0.3767  0.3796  0.1452
  641TMC3    O2 9499   3.162   1.362   9.375  0.2524  0.4766 -0.0205
  642TMC3    C1 9500   4.144   2.197  12.703 -0.8053 -0.9503  0.9492
  642TMC3    C2 9501   4.235   2.127  12.776 -0.6942 -0.1432  0.0857
  642TMC3    C3 9502   4.259   2.000  12.738  0.4223  0.0244 -1.0240
  642TMC3    C4 9503   4.091   2.154  12.584  0.4230  0.1865  0.9506
  642TMC3    C5 9504   4.117   2.026  12.551 -0.8024 -0.3118 -0.0242
  642TMC3    C6 9505   4.202   1.949  12.625 -0.9615 -1.2428  0.2046
  642TMC3     C 9506   4.090   2.326  12.763  0.7143 -0.3805  0.1741
  642TMC3     O 9507   4.158   2.376  12.851  0.5374 -0.1565  0.2632
  642TMC3     H 9508   4.285   2.161  12.866  0.1839 -1.6287  0.1609
  642TMC3    H1 9509   4.023   2.214  12.525  1.3790  1.1581  0.8246
  642TMC3    H2 9510   4.222   1.845  12.602  1.2880 -0.2864 -2.1838
  642TMC3    C7 9511   4.091   1.996  12.413  1.0625  0.1101 -0.7693
  642TMC3    C8 9512   4.359   1.929  12.818  0.5710  0.7239 -0.1325
  642TMC3    O1 9513   4.071   2.084  12.329 -0.0065  0.1020  0.4119
  642TMC3    O2 9514   4.424   1.997  12.894  0.1412 -0.0511 -0.2642
  643TMC3    C1 9515   2.787   1.475   0.699  0.5234 -0.5483 -0.1010
  643TMC3    C2 9516   2.694   1.574   0.681 -0.7264  0.1451  0.6024
  643TMC3    C3 9517   2.732   1.667   0.584 -0.0704  0.2505 -0.8441
  643TMC3    C4 9518   2.894   1.455   0.609  0.2395  0.0453 -0.0549
  643TMC3    C5 9519   2.923   1.558   0.519  0.4384  0.2826  0.1805
  643TMC3    C6 9520   2.844   1.667   0.504 -0.1919 -0.0025 -0.5045
  643TMC3     C 9521   2.748   1.360   0.780  0.6768  0.5281  0.0495
  643TMC3     O 9522   2.630   1.334   0.807  0.4678  0.0863  0.3847
  643TMC3     H 9523   2.628   1.598   0.764  1.9669  3.2811  1.8433
  643TMC3    H1 9524   2.953   1.364   0.618 -2.0805 -1.0799  3.7748
  643TMC3    H2 9525   2.868   1.736   0.424 -0.5130 -2.0403 -2.3287
  643TMC3    C7 9526   3.030   1.550   0.425  0.2644  0.0786  0.4730
  643TMC3    C8 9527   2.669   1.799   0.599 -0.5119 -0.0343 -0.1910
  643TMC3    O1 9528   3.063   1.656   0.378  0.1951 -0.3002  0.3904
  643TMC3    O2 9529   2.569   1.800   0.671 -0.3840  0.1639 -0.0919
  644MPD2     C 9530   3.222   1.960   8.956  0.3542  0.0020 -0.0878
  644MPD2    C1 9531   3.247   1.955   9.091 -0.8054 -0.1324 -0.0145
  644MPD2    C2 9532   3.207   2.066   9.173  0.1195  0.6234 -0.2790
  644MPD2    C3 9533   3.119   2.159   9.113  0.8865  0.0675 -0.0454
  644MPD2    C4 9534   3.082   2.152   8.974 -0.6321 -0.4298  0.4211
  644MPD2    C5 9535   3.152   2.063   8.898  0.2831  0.2505 -0.5056
  644MPD2     H 9536   3.234   2.072   9.278  1.2953 -1.7755 -0.4421
  644MPD2    H1 9537   3.021   2.230   8.930 -0.1031  0.1721  0.7530
  644MPD2    H2 9538   3.256   1.877   8.895  0.4838  1.1159 -1.5237
  644MPD2    H3 9539   3.138   2.062   8.790 -1.8971 -0.7451 -0.2191
  644MPD2     N 9540   3.076   2.266   9.201  0.3408 -0.0461 -0.5122
  644MPD2    H5 9541   3.114   2.271   9.295  0.7674  1.5966 -0.7706
  644MPD2    N1 9542   3.329   1.852   9.133 -0.9077 -0.5109  0.0900
  644MPD2    H7 9543   3.360   1.789   9.060 -0.1874  3.0929 -2.7204
  645TMC3    C1 9544   2.981   2.474   9.249 -0.1201  0.7830  0.0920
  645TMC3    C2 9545   3.097   2.522   9.305  0.2829  0.0804  0.2090
  645TMC3    C3 9546   3.092   2.651   9.364  0.0167  0.8763  0.1024
  645TMC3    C4 9547   2.867   2.552   9.240 -0.0156 -1.2228  0.5128
  645TMC3    C5 9548   2.875   2.688   9.288 -0.4586  0.1660 -0.0170
  645TMC3    C6 9549   2.991   2.735   9.344  0.5203  0.0892 -0.1379
  645TMC3     C 9550   2.975   2.355   9.159 -0.6720  0.1054  0.8629
  645TMC3     O 9551   2.884   2.343   9.075 -0.1235  0.8781  0.4018
  645TMC3     H 9552   3.184   2.459   9.303 -0.9477 -1.6312  0.3016
  645TMC3    H1 9553   2.772   2.514   9.205 -0.3360 -0.2955  0.3651
  645TMC3    H2 9554   3.000   2.838   9.377  0.5069  0.7160 -2.0609
  645TMC3    C7 9555   2.751   2.766   9.293 -0.2841  0.2755  1.0052
  645TMC3    C8 9556   3.216   2.699   9.423 -0.1578  0.1653  0.3015
  645TMC3    O1 9557   2.652   2.715   9.246  0.0838  0.7997 -0.1342
  645TMC3    O2 9558   3.296   2.613   9.452  0.1298  0.5116  1.0334
  646MPD2     C 9559   2.342   1.522  14.298 -0.1938 -0.5995  0.0798
  646MPD2    C1 9560   2.250   1.512  14.404 -0.6677 -0.0634  0.4501
  646MPD2    C2 9561   2.131   1.583  14.397 -0.1260  0.7214 -0.7969
  646MPD2    C3 9562   2.110   1.674  14.297 -0.7976  0.3650 -0.9444
  646MPD2    C4 9563   2.205   1.685  14.196  0.0478 -0.5139 -0.1312
  646MPD2    C5 9564   2.315   1.606  14.192  0.1331 -0.2424 -0.0954
  646MPD2     H 9565   2.061   1.577  14.479 -0.5668 -2.2534 -1.3871
  646MPD2    H1 9566   2.200   1.757  14.115  1.8684 -0.7754 -0.4760
  646MPD2    H2 9567   2.437   1.472  14.282 -0.1768 -0.6855  0.4443
  646MPD2    H3 9568   2.390   1.617  14.114  1.1618 -0.8004  0.8064
  646MPD2     N 9569   1.987   1.749  14.305  0.8552  0.4114 -0.0975
  646MPD2    H5 9570   1.921   1.709  14.370  2.0114 -0.9685  0.2388
  646MPD2    N1 9571   2.285   1.409  14.499 -0.4010 -0.1880  0.0890
  646MPD2    H7 9572   2.375   1.366  14.481 -1.6602 -1.8874 -2.3366
  647TMC3    C1 9573   2.279   1.284  14.695 -0.0177 -0.5719 -0.2535
  647TMC3    C2 9574   2.207   1.251  14.809 -0.0999 -0.0517 -0.4266
  647TMC3    C3 9575   2.274   1.180  14.907  1.0668  0.3758  0.1674
  647TMC3    C4 9576   2.410   1.256  14.676  0.0978 -0.9665 -0.0659
  647TMC3    C5 9577   2.476   1.191  14.776 -0.3668 -0.1611 -0.6618
  647TMC3    C6 9578   2.407   1.151  14.890  0.2666  0.0723  0.4831
  647TMC3     C 9579   2.208   1.369  14.606 -0.9329  0.3392 -0.6455
  647TMC3     O 9580   2.097   1.413  14.646 -0.0754 -0.3193 -0.5202
  647TMC3     H 9581   2.100   1.264  14.822 -0.1101 -1.2117  0.6299
  647TMC3    H1 9582   2.457   1.277  14.581  1.8325  2.7634  1.5980
  647TMC3    H2 9583   2.468   1.107  14.969  0.6139 -0.7283 -0.2204
  647TMC3    C7 9584   2.619   1.154  14.766  0.5531  0.3150 -0.1616
  647TMC3    C8 9585   2.195   1.114  15.014 -0.8222 -0.5999  0.4512
  647TMC3    O1 9586   2.646   1.050  14.825  0.7664  0.0242 -0.1037
  647TMC3    O2 9587   2.092   1.168  15.048  0.0900  0.1755 -0.4018
  648TMC3    C1 9588   1.651   3.550  15.848 -0.5015 -0.2517  0.5558
  648TMC3    C2 9589   1.642   3.433  15.780  0.1387  0.7024 -0.3591
  648TMC3    C3 9590   1.589   3.439  15.657 -0.5174 -0.2936 -0.7401
  648TMC3    C4 9591   1.618   3.667  15.791 -0.4815 -0.0727 -0.0520
  648TMC3    C5 9592   1.576   3.672  15.658  0.3146  0.3981  0.1222
  648TMC3    C6 9593   1.555   3.554  15.594 -0.0221  0.6028 -0.5542
  648TMC3     C 9594   1.684   3.564  15.985  0.5389  0.4506  0.1015
  648TMC3     O 9595   1.652   3.666  16.043  0.2290 -0.0309  0.8761
  648TMC3     H 9596   1.664   3.345  15.839 -1.0921 -0.2493 -1.3053
  648TMC3    H1 9597   1.658   3.752  15.845  1.1404 -1.4553  0.9184
  648TMC3    H2 9598   1.498   3.556  15.502 -0.0959  0.4167 -0.5126
  648TMC3    C7 9599   1.476   3.774  15.635 -0.0989  0.4571 -0.2335
  648TMC3    C8 9600   1.605   3.331  15.567 -0.1563 -0.0815  0.5842
  648TMC3    O1 9601   1.410   3.759  15.533 -0.5085 -0.1401 -0.7321
  648TMC3    O2 9602   1.553   3.334  15.456  0.3279  0.8260  0.2671
  649TMC3    C1 9603   0.908   4.516  13.042 -0.3708  0.2709  0.7531
  649TMC3    C2 9604   1.031   4.459  13.072  0.2025  0.4137 -0.1587
  649TMC3    C3 9605   1.031   4.335  13.124 -0.0826 -0.4230 -0.4680
  649TMC3    C4 9606   0.785   4.459  13.066  0.0484  0.4174 -0.0271
  649TMC3    C5 9607   0.799   4.341  13.122 -0.2194 -0.1252  0.2565
  649TMC3    C6 9608   0.917   4.272  13.147  0.1156 -0.3293 -0.6645
  649TMC3     C 9609   0.903   4.625  12.948 -0.4556  0.0054 -0.4266
  649TMC3     O 9610   0.793   4.674  12.930  0.1752  0.4341  0.1633
  649TMC3     H 9611   1.127   4.501  13.042  0.3258  0.3242  0.1085
  649TMC3    H1 9612   0.694   4.516  13.051  0.7176  1.3876 -0.3784
  649TMC3    H2 9613   0.929   4.174  13.191  1.9591  0.1014 -0.1913
  649TMC3    C7 9614   0.696   4.317  13.223  0.6642  0.5914  0.0540
  649TMC3    C8 9615   1.151   4.288  13.188 -0.2585 -0.2458 -0.8751
  649TMC3    O1 9616   0.589   4.373  13.201 -0.2875  0.3888  0.3241
  649TMC3    O2 9617   1.172   4.169  13.203  0.2758  0.2670 -0.0504
  650TMC3    C1 9618   3.055   1.498  12.338 -0.1051  0.1733  0.0413
  650TMC3    C2 9619   3.008   1.612  12.398  0.0113 -0.0902 -0.4373
  650TMC3    C3 9620   3.005   1.727  12.322 -0.3863 -0.5688  0.8329
  650TMC3    C4 9621   3.117   1.504  12.216 -0.6828 -0.0041  0.4784
  650TMC3    C5 9622   3.123   1.624  12.151 -0.1051  0.6241 -0.6557
  650TMC3    C6 9623   3.064   1.738  12.204  0.3929  0.7076  0.6783
  650TMC3     C 9624   3.065   1.380  12.421 -0.4622 -0.0558 -0.2436
  650TMC3     O 9625   2.994   1.374  12.517 -0.0821 -0.1043  0.2994
  650TMC3     H 9626   2.957   1.611  12.494 -1.6763 -0.9397 -1.3433
  650TMC3    H1 9627   3.138   1.406  12.175 -0.9995 -0.4791  1.4321
  650TMC3    H2 9628   3.053   1.822  12.137  0.1840 -0.7505 -1.1036
  650TMC3    C7 9629   3.256   1.658  12.092  0.4286 -0.0388 -0.4113
  650TMC3    C8 9630   2.993   1.861  12.388  0.0138  0.4840 -0.4386
  650TMC3    O1 9631   3.318   1.564  12.048  0.6291  0.4178 -0.3621
  650TMC3    O2 9632   3.071   1.939  12.342  0.6197 -0.3415  0.1712
  651MPD2     C 9633   2.572   4.052  11.565  0.1213  0.4517 -0.0043
  651MPD2    C1 9634   2.533   4.173  11.499 -0.3927  0.5928 -0.3925
  651MPD2    C2 9635   2.622   4.238  11.422 -0.0605  0.0409  0.7836
  651MPD2    C3 9636   2.752   4.195  11.395 -0.9334  0.3074  0.7833
  651MPD2    C4 9637   2.791   4.072  11.453  0.2546 -0.0737  0.9197
  651MPD2    C5 9638   2.697   4.009  11.535  0.6432 -0.0667  0.0107
  651MPD2     H 9639   2.592   4.336  11.387  0.2602 -0.9310 -2.2209
  651MPD2    H1 9640   2.890   4.029  11.448 -0.9294 -2.4439 -1.8033
  651MPD2    H2 9641   2.498   3.995  11.619  0.0010  0.6781  0.0685
  651MPD2    H3 9642   2.730   3.922  11.590 -1.4762 -1.9426 -1.7285
  651MPD2     N 9643   2.829   4.273  11.307  0.4581 -0.1694  0.3876
  651MPD2    H5 9644   2.798   4.362  11.271  0.1667 -0.2647  0.4017
  651MPD2    N1 9645   2.411   4.236  11.505  0.5176 -0.2117  0.2977
  651MPD2    H7 9646   2.403   4.309  11.435  1.1413  2.4683  3.0261
  652TMC3    C1 9647   3.191   4.368  11.021 -0.3084  0.3093  0.2118
  652TMC3    C2 9648   3.146   4.298  11.128  0.3656  0.0793 -0.8065
  652TMC3    C3 9649   3.014   4.310  11.168  0.5273 -0.2405  0.1160
  652TMC3    C4 9650   3.115   4.465  10.962  0.1281  0.0830 -0.2473
  652TMC3    C5 9651   2.980   4.475  10.994  0.0079 -0.1286  0.2458
  652TMC3    C6 9652   2.928   4.387  11.090 -0.4839 -0.1640 -0.3337
  652TMC3     C 9653   3.334   4.384  11.020  0.3544  0.1555 -0.3759
  652TMC3     O 9654   3.387   4.378  11.128 -0.2323 -0.5545 -0.0058
  652TMC3     H 9655   3.213   4.228  11.176 -0.7342 -0.5554 -0.2037
  652TMC3    H1 9656   3.150   4.534  10.886 -2.2008  0.9378 -0.5670
  652TMC3    H2 9657   2.821   4.392  11.107 -0.6100  0.8659 -1.4270
  652TMC3    C7 9658   2.884   4.554  10.912 -0.0232 -0.0841  0.1824
  652TMC3    C8 9659   2.959   4.235  11.280 -0.4410  1.2028  0.4374
  652TMC3    O1 9660   2.766   4.521  10.922  0.6819  0.1414 -0.7468
  652TMC3    O2 9661   3.032   4.155  11.340  0.1910 -0.0209  0.2976
  653MPD2     C 9662   0.653   3.172  17.565  0.2286  0.5472 -0.2987
  653MPD2    C1 9663   0.632   3.272  17.478  0.5286  0.3110 -0.0896
  653MPD2    C2 9664   0.614   3.246  17.345  0.2715  0.1645  0.5242
  653MPD2    C3 9665   0.587   3.117  17.296 -0.1034  0.0795 -0.3984
  653MPD2    C4 9666   0.612   3.014  17.381 -0.1510 -0.3753  0.8219
  653MPD2    C5 9667   0.652   3.046  17.508  1.2055 -0.0349 -0.0830
  653MPD2     H 9668   0.611   3.336  17.284  2.8987  0.8662  1.4233
  653MPD2    H1 9669   0.597   2.910  17.354 -2.3850  0.2888 -0.5427
  653MPD2    H2 9670   0.674   3.171  17.671 -1.5301  0.3112  0.0494
  653MPD2    H3 9671   0.679   2.963  17.571 -0.8794 -1.5565 -1.1710
  653MPD2     N 9672   0.565   3.102  17.158  0.9302  0.0124 -0.0110
  653MPD2    H5 9673   0.557   3.188  17.104  0.3194 -0.2833 -0.3872
  653MPD2    N1 9674   0.642   3.405  17.512  0.9245 -0.2198  1.0249
  653MPD2    H7 9675   0.616   3.476  17.445  0.2142  0.3357  1.8821
  654TMC3    C1 9676   0.547   3.001  16.952 -0.1431 -0.2503 -0.0006
  654TMC3    C2 9677   0.428   3.046  16.917  0.0210 -0.2473  0.3159
  654TMC3    C3 9678   0.408   3.027  16.779  0.6977 -0.1954 -0.2938
  654TMC3    C4 9679   0.637   2.929  16.877 -0.4094  0.2716  0.0379
  654TMC3    C5 9680   0.609   2.928  16.741 -0.2028 -0.2430  0.2549
  654TMC3    C6 9681   0.499   2.983  16.686 -0.2585 -0.4118 -0.3112
  654TMC3     C 9682   0.563   2.980  17.091 -0.4016 -0.1973  0.3291
  654TMC3     O 9683   0.607   2.872  17.126 -0.2217  0.1193  0.3058
  654TMC3     H 9684   0.354   3.081  16.988  2.1043  0.3996  2.1635
  654TMC3    H1 9685   0.737   2.910  16.914  0.4535 -2.4692 -3.5963
  654TMC3    H2 9686   0.477   2.961  16.582  2.5226 -1.0517 -0.7458
  654TMC3    C7 9687   0.707   2.869  16.645 -0.1181 -0.4755  0.0092
  654TMC3    C8 9688   0.270   3.022  16.737 -0.4180  0.3900 -0.0279
  654TMC3    O1 9689   0.706   2.932  16.539  0.0925 -0.0812  0.2904
  654TMC3    O2 9690   0.189   3.095  16.795  0.5388  0.3001  0.1463
  655MPD2     C 9691   2.035   3.471  15.635  0.6760  1.5928 -0.3332
  655MPD2    C1 9692   1.976   3.579  15.566 -0.2918  0.7838  0.0077
  655MPD2    C2 9693   1.947   3.555  15.432 -0.1093 -0.7277  0.7371
  655MPD2    C3 9694   1.978   3.434  15.362 -0.6015  0.5275 -0.5025
  655MPD2    C4 9695   2.049   3.340  15.436  0.6686 -0.0618 -0.4041
  655MPD2    C5 9696   2.072   3.357  15.573 -0.2774 -0.6651  0.4012
  655MPD2     H 9697   1.911   3.631  15.363  0.3926 -0.1611  1.1001
  655MPD2    H1 9698   2.090   3.253  15.386  0.7553 -0.0425 -0.3663
  655MPD2    H2 9699   2.075   3.486  15.735  0.4641  1.9599 -0.3069
  655MPD2    H3 9700   2.132   3.289  15.632 -1.4696 -1.1484  1.0590
  655MPD2     N 9701   1.978   3.423  15.213  0.5257  0.0424 -0.0213
  655MPD2    H5 9702   2.023   3.346  15.165  0.0716  0.0004 -0.3770
  655MPD2    N1 9703   1.927   3.696  15.627 -0.6865  0.3344 -0.0872
  655MPD2    H7 9704   1.897   3.773  15.569 -1.6558  1.3639  1.7827
  656TMC3    C1 9705   1.897   3.857  15.791 -0.2963  0.1191 -0.7359
  656TMC3    C2 9706   1.922   3.898  15.921 -0.3805 -0.1742  0.8646
  656TMC3    C3 9707   1.896   4.026  15.956 -0.3733  0.4989  0.2347
  656TMC3    C4 9708   1.849   3.942  15.700  0.2100  0.1069 -0.2480
  656TMC3    C5 9709   1.822   4.070  15.747  0.4561  0.9729  0.3490
  656TMC3    C6 9710   1.838   4.110  15.868 -0.2644 -0.0092 -0.1914
  656TMC3     C 9711   1.945   3.728  15.761 -0.5001  0.1313  0.8228
  656TMC3     O 9712   1.992   3.662  15.854 -0.4256  0.2560 -0.5467
  656TMC3     H 9713   1.958   3.828  15.995  1.1942 -0.2583  0.0205
  656TMC3    H1 9714   1.837   3.914  15.596  3.5213  0.8124 -0.8107
  656TMC3    H2 9715   1.816   4.210  15.906 -0.3074  0.7442 -2.2138
  656TMC3    C7 9716   1.725   4.134  15.668 -0.5807  0.1180 -0.5404
  656TMC3    C8 9717   1.853   4.050  16.091 -0.2385  0.0633 -0.4247
  656TMC3    O1 9718   1.725   4.094  15.552 -0.4199  0.0143  0.6610
  656TMC3    O2 9719   1.866   4.162  16.130 -0.4139 -0.0512 -0.0211
  657TMC3    C1 9720   0.890   3.178  14.597  0.3836  0.5876 -0.0966
  657TMC3    C2 9721   0.938   3.173  14.728 -0.2525 -0.7785  0.4077
  657TMC3    C3 9722   0.915   3.274  14.817 -0.7003  0.3008  0.1584
  657TMC3    C4 9723   0.806   3.284  14.566 -0.2734 -0.2374 -1.2789
  657TMC3    C5 9724   0.776   3.376  14.668  0.3293 -0.5289  0.7533
  657TMC3    C6 9725   0.830   3.377  14.795 -0.5393  0.1411  0.6426
  657TMC3     C 9726   0.971   3.130  14.484  0.1833  0.0169  0.2607
  657TMC3     O 9727   0.969   3.195  14.380  0.3725 -0.2811 -0.2488
  657TMC3     H 9728   1.026   3.113  14.748  0.4912  0.3580  0.5597
  657TMC3    H1 9729   0.746   3.282  14.476  0.5825  1.6399 -1.8795
  657TMC3    H2 9730   0.799   3.447  14.872  1.2615  0.4855  1.0524
  657TMC3    C7 9731   0.667   3.473  14.651 -0.1969 -0.3271 -0.1284
  657TMC3    C8 9732   0.984   3.261  14.950  0.6192  0.0090  0.0874
  657TMC3    O1 9733   0.611   3.522  14.747  0.3544 -0.0580 -0.1533
  657TMC3    O2 9734   1.027   3.153  14.981  0.1293 -0.8349  0.6364
  658MPD2     C 9735   2.218   3.358  14.378 -0.0619 -0.0606  0.2272
  658MPD2    C1 9736   2.243   3.427  14.496  0.5271 -0.2086 -0.5082
  658MPD2    C2 9737   2.365   3.500  14.503  0.4865  0.7942 -0.1812
  658MPD2    C3 9738   2.460   3.499  14.401 -0.8170  0.9253  0.3237
  658MPD2    C4 9739   2.424   3.430  14.289 -0.0268 -0.1726  0.2050
  658MPD2    C5 9740   2.306   3.367  14.276 -0.5776  0.6253  0.2008
  658MPD2     H 9741   2.392   3.549  14.596  3.4117 -3.2521  1.1288
  658MPD2    H1 9742   2.487   3.442  14.201 -0.6322  3.0577  0.2288
  658MPD2    H2 9743   2.120   3.316  14.357 -0.2899  0.5361  0.1129
  658MPD2    H3 9744   2.270   3.325  14.182  2.3840 -0.5994 -0.3996
  658MPD2     N 9745   2.572   3.582  14.412 -0.0585 -0.1608 -0.7280
  658MPD2    H5 9746   2.578   3.652  14.485  0.0108 -0.5478 -0.3621
  658MPD2    N1 9747   2.137   3.429  14.590  0.0694  0.0227  0.7406
  658MPD2    H7 9748   2.049   3.387  14.563 -0.2099  1.1094 -0.0531
  659TMC3    C1 9749   2.025   3.482  14.799 -0.0723  0.3075 -0.4253
  659TMC3    C2 9750   2.025   3.470  14.934  0.5310 -0.0237  0.0466
  659TMC3    C3 9751   1.901   3.492  14.995  0.0556  0.1626 -0.0333
  659TMC3    C4 9752   1.922   3.519  14.722 -0.6936  0.0165 -0.3266
  659TMC3    C5 9753   1.804   3.547  14.786 -0.8164 -0.1487  0.2236
  659TMC3    C6 9754   1.787   3.528  14.925 -0.3953  0.0182 -0.4748
  659TMC3     C 9755   2.152   3.452  14.729  0.3945 -0.4529  0.5948
  659TMC3     O 9756   2.253   3.465  14.796  0.0789  0.0990  0.8520
  659TMC3     H 9757   2.112   3.450  14.995  1.7606  1.7189 -1.1396
  659TMC3    H1 9758   1.921   3.549  14.618 -1.4950  0.0891 -0.2957
  659TMC3    H2 9759   1.687   3.539  14.965 -0.5243 -1.4455 -0.3910
  659TMC3    C7 9760   1.684   3.574  14.711  0.6251 -0.4200 -0.0768
  659TMC3    C8 9761   1.890   3.508  15.142  0.4734  0.0448 -0.4179
  659TMC3    O1 9762   1.588   3.600  14.784 -0.2096  0.8844  0.9208
  659TMC3    O2 9763   1.796   3.578  15.176 -0.3088 -0.1326  0.2393
  660MPD2     C 9764   0.640   2.708  12.816  0.0847 -0.1873  0.8282
  660MPD2    C1 9765   0.540   2.696  12.728 -0.2229 -0.5125 -0.3591
  660MPD2    C2 9766   0.427   2.610  12.744  0.2552  0.0414 -0.6076
  660MPD2    C3 9767   0.418   2.539  12.864 -0.4899 -1.0079  0.1558
  660MPD2    C4 9768   0.517   2.555  12.958 -0.5919  0.1274  1.1286
  660MPD2    C5 9769   0.628   2.637  12.931 -0.0468  0.2214 -0.2385
  660MPD2     H 9770   0.351   2.594  12.668  0.0237 -0.1712 -0.3308
  660MPD2    H1 9771   0.522   2.511  13.057  0.2790 -1.0128  0.5828
  660MPD2    H2 9772   0.722   2.778  12.799 -0.9484 -0.0292 -3.6792
  660MPD2    H3 9773   0.701   2.643  13.011  0.3234  0.5908 -0.6090
  660MPD2     N 9774   0.309   2.458  12.898 -0.5495 -0.5270 -0.3869
  660MPD2    H5 9775   0.316   2.418  12.991  1.3165 -0.1572 -0.3539
  660MPD2    N1 9776   0.549   2.784  12.618 -1.5126 -0.4768 -0.1268
  660MPD2    H7 9777   0.637   2.834  12.610 -0.8042 -1.7196 -0.1469
  661TMC3    C1 9778   0.512   2.914  12.440  0.0537  0.3647 -0.4426
  661TMC3    C2 9779   0.627   2.882  12.374 -0.0472  0.3100 -0.3314
  661TMC3    C3 9780   0.666   2.965  12.274 -0.7455 -0.5749  0.2362
  661TMC3    C4 9781   0.440   3.035  12.424  0.1148 -0.5874 -0.7238
  661TMC3    C5 9782   0.486   3.111  12.321  0.7000 -0.6543  0.0285
  661TMC3    C6 9783   0.604   3.087  12.255 -0.3155  0.2017  0.7586
  661TMC3     C 9784   0.455   2.813  12.526  0.4935 -0.0987 -0.7235
  661TMC3     O 9785   0.333   2.808  12.528 -0.9255  0.2306 -0.3335
  661TMC3     H 9786   0.679   2.787  12.385  0.1574  0.5174  0.4536
  661TMC3    H1 9787   0.346   3.062  12.472  0.4055 -0.3806 -0.2754
  661TMC3    H2 9788   0.621   3.148  12.167 -1.5842 -2.2391 -1.1973
  661TMC3    C7 9789   0.392   3.127  12.213 -0.1966  0.2205  0.0369
  661TMC3    C8 9790   0.697   2.891  12.156 -0.0160 -0.2476 -0.3892
  661TMC3    O1 9791   0.430   3.101  12.101 -0.4260 -0.5134  0.0427
  661TMC3    O2 9792   0.744   2.780  12.166  0.1830 -0.1977  0.4878
  662MPD2     C 9793   0.662   1.500  17.204  0.4861 -0.4466 -0.1847
  662MPD2    C1 9794   0.666   1.467  17.336  0.5754 -0.5020  0.4770
  662MPD2    C2 9795   0.573   1.513  17.426  1.0353 -0.0336 -0.6553
  662MPD2    C3 9796   0.473   1.600  17.385  0.2696  0.0451 -0.0694
  662MPD2    C4 9797   0.473   1.630  17.254  0.0818 -0.5155  0.3716
  662MPD2    C5 9798   0.564   1.583  17.161 -0.4217  0.8305 -0.1827
  662MPD2     H 9799   0.579   1.487  17.531 -5.3725 -0.1354 -0.3016
  662MPD2    H1 9800   0.396   1.694  17.214  2.1623  0.2821 -2.2773
  662MPD2    H2 9801   0.742   1.476  17.135 -1.1938 -2.6042 -1.3534
  662MPD2    H3 9802   0.551   1.597  17.054 -2.2836  2.2470  0.2305
  662MPD2     N 9803   0.384   1.665  17.477 -0.6678 -0.1384 -0.1302
  662MPD2    H5 9804   0.300   1.712  17.444 -1.9462 -3.2736 -1.4135
  662MPD2    N1 9805   0.774   1.381  17.380 -0.0694 -0.3310 -0.1964
  662MPD2    H7 9806   0.845   1.377  17.308 -0.0472 -0.6227 -0.1565
  663TMC3    C1 9807   0.901   1.265  17.540  0.6313 -0.4674 -0.3165
  663TMC3    C2 9808   1.013   1.333  17.495 -0.7700 -0.8292 -0.0540
  663TMC3    C3 9809   1.131   1.323  17.560 -0.3564 -0.3064 -0.1039
  663TMC3    C4 9810   0.905   1.173  17.643 -0.4662 -0.5019  0.5481
  663TMC3    C5 9811   1.025   1.157   0.016  0.1811 -0.1794 -0.1859
  663TMC3    C6 9812   1.133   1.227  17.658  0.0887 -0.2975  0.3919
  663TMC3     C 9813   0.773   1.309  17.499 -0.2919 -0.0307  0.3448
  663TMC3     O 9814   0.675   1.290  17.577  0.0029 -0.4810 -0.2178
  663TMC3     H 9815   1.006   1.421  17.432 -0.1264  0.6386  1.9509
  663TMC3    H1 9816   0.814   1.119  17.668 -2.8218  2.5095 -1.4047
  663TMC3    H2 9817   1.222   1.232   0.031 -0.2442 -0.5977  0.8997
  663TMC3    C7 9818   1.020   1.105   0.145  0.0423  0.5113  0.9880
  663TMC3    C8 9819   1.182   1.449  17.592  0.4279  0.1202  0.5174
  663TMC3    O1 9820   1.096   1.145   0.229  0.5063  0.4326  0.0685
  663TMC3    O2 9821   1.303   1.467  17.579  0.3713 -0.4018  0.3097
  664MPD2     C 9822   3.808   0.249  17.632 -0.4734 -0.4980 -0.0412
  664MPD2    C1 9823   3.672   0.248  17.656  0.6256 -0.3979 -0.1087
  664MPD2    C2 9824   3.626   0.215   0.097 -0.3157 -0.2499  0.5102
  664MPD2    C3 9825   3.716   0.184   0.196  0.2084 -0.5401  1.0403
  664MPD2    C4 9826   3.851   0.186   0.174  0.5025  0.2112 -0.7217
  664MPD2    C5 9827   3.891   0.221   0.047 -0.4076  0.3700  0.4422
  664MPD2     H 9828   3.519   0.208   0.110 -0.4875 -1.9633 -1.8578
  664MPD2    H1 9829   3.928   0.194   0.249 -0.4880 -2.4934  0.5903
  664MPD2    H2 9830   3.851   0.287  17.540 -2.6122  0.6807 -0.5669
  664MPD2    H3 9831   3.998   0.230   0.032 -0.5576  2.0388  0.3702
  664MPD2     N 9832   3.662   0.158   0.321 -0.2229 -0.2656  0.0277
  664MPD2    H5 9833   3.565   0.183   0.336 -0.5291 -1.8219  0.6937
  664MPD2    N1 9834   3.584   0.277  17.554 -0.3752  0.3049 -0.0191
  664MPD2    H7 9835   3.488   0.256  17.578  0.3627 -0.3606  2.2831
  665TMC3    C1 9836   3.647   0.112   0.553  0.0698 -0.0549  0.4232
  665TMC3    C2 9837   3.510   0.121   0.544  0.2656  0.5625  0.1166
  665TMC3    C3 9838   3.456   0.167   0.658  0.2078 -0.3380 -0.0190
  665TMC3    C4 9839   3.726   0.133   0.659  0.1982  0.4813  0.0083
  665TMC3    C5 9840   3.670   0.185   0.770 -0.6529  0.0566 -0.0790
  665TMC3    C6 9841   3.533   0.204   0.763  0.3528  0.1135 -0.3770
  665TMC3     C 9842   3.726   0.111   0.428  0.4751  0.6270 -0.0902
  665TMC3     O 9843   3.838   0.061   0.431 -0.8969 -0.2666  0.6751
  665TMC3     H 9844   3.456   0.096   0.453 -0.1668  0.7662  0.3191
  665TMC3    H1 9845   3.834   0.132   0.651  0.1033  0.4661 -1.2174
  665TMC3    H2 9846   3.484   0.238   0.853  0.4428 -1.5239  0.2964
  665TMC3    C7 9847   3.724   0.148   0.899 -0.3021 -0.2402  0.3439
  665TMC3    C8 9848   3.324   0.128   0.692  0.2557 -0.0172  0.5715
  665TMC3    O1 9849   3.829   0.084   0.905 -0.0713  0.0058  0.3046
  665TMC3    O2 9850   3.291   0.164   0.805 -0.0612 -0.2351  0.3048
  666TMC3    C1 9851   2.666   1.124   9.454  0.0828  0.0497  0.5708
  666TMC3    C2 9852   2.758   1.027   9.489  0.0764 -0.5812 -0.5367
  666TMC3    C3 9853   2.875   1.071   9.547  0.3123  0.1391  0.0968
  666TMC3    C4 9854   2.684   1.263   9.460 -0.2572  0.4899  0.3336
  666TMC3    C5 9855   2.814   1.301   9.500 -0.2477  0.2471 -0.3805
  666TMC3    C6 9856   2.900   1.207   9.550 -0.0416  0.1188 -0.3940
  666TMC3     C 9857   2.528   1.075   9.450 -0.7275  0.1698 -0.0886
  666TMC3     O 9858   2.444   1.160   9.454 -0.1696  0.2859  0.7927
  666TMC3     H 9859   2.751   0.920   9.476 -1.5366 -0.7470  1.5853
  666TMC3    H1 9860   2.603   1.332   9.437  0.4641  1.3594  0.3935
  666TMC3    H2 9861   2.995   1.239   9.591 -0.7017 -0.6642  1.7767
  666TMC3    C7 9862   2.841   1.441   9.543  1.3453 -0.5191 -0.3465
  666TMC3    C8 9863   2.961   0.977   9.625 -0.0502 -0.7469  0.3588
  666TMC3    O1 9864   2.926   1.454   9.627  0.0747  0.7716 -0.3471
  666TMC3    O2 9865   2.902   0.879   9.664 -0.4521 -1.0819 -0.2370
  667MPD2     C 9866   3.385   0.846  14.499 -0.2875 -0.2381  0.1416
  667MPD2    C1 9867   3.384   0.712  14.537  0.4939  0.3803 -0.9810
  667MPD2    C2 9868   3.305   0.624  14.473 -1.1081  0.1292  0.1432
  667MPD2    C3 9869   3.224   0.670  14.370 -0.3497 -0.2825  0.5410
  667MPD2    C4 9870   3.224   0.803  14.327  0.1009  0.4003 -1.1163
  667MPD2    C5 9871   3.306   0.890  14.396 -0.0733  0.4790 -0.8660
  667MPD2     H 9872   3.322   0.518  14.489 -0.1600  0.0047 -1.7834
  667MPD2    H1 9873   3.160   0.832  14.244 -1.4478  0.3114  0.0311
  667MPD2    H2 9874   3.441   0.924  14.547 -1.6633  1.1605 -0.5126
  667MPD2    H3 9875   3.311   0.996  14.372  0.7860  0.7517  0.4611
  667MPD2     N 9876   3.138   0.578  14.306  0.3862 -0.2410  0.4817
  667MPD2    H5 9877   3.107   0.613  14.215  2.4440 -0.8330 -0.4568
  667MPD2    N1 9878   3.468   0.640  14.629  0.3616 -0.0984 -0.3987
  667MPD2    H7 9879   3.450   0.540  14.637  0.9233  0.1464  4.0377
  668TMC3    C1 9880   3.608   0.605  14.817 -0.2319 -0.5456 -0.0129
  668TMC3    C2 9881   3.725   0.645  14.885  0.1501 -0.1569 -0.9124
  668TMC3    C3 9882   3.751   0.589  15.008 -0.4060  0.1572  0.7029
  668TMC3    C4 9883   3.534   0.501  14.857 -0.8626 -0.0477 -0.5147
  668TMC3    C5 9884   3.575   0.431  14.970 -0.0999 -0.1743  0.3220
  668TMC3    C6 9885   3.673   0.482  15.049 -0.1233 -0.2948 -0.5380
  668TMC3     C 9886   3.565   0.696  14.711 -0.9365  0.1526  0.6716
  668TMC3     O 9887   3.611   0.808  14.714 -0.5239  0.4335 -0.7584
  668TMC3     H 9888   3.782   0.729  14.847 -1.6036  1.7132  0.5911
  668TMC3    H1 9889   3.452   0.461  14.800 -0.9886  0.8317 -0.9591
  668TMC3    H2 9890   3.694   0.436  15.145  0.2902 -0.7627 -0.8517
  668TMC3    C7 9891   3.530   0.286  14.986 -0.5846  0.0829 -0.0203
  668TMC3    C8 9892   3.865   0.621  15.091  0.4484  0.4298 -0.6457
  668TMC3    O1 9893   3.520   0.217  14.888 -0.0750 -0.3203  0.2222
  668TMC3    O2 9894   3.876   0.575  15.204  0.1743  0.2510 -0.3911
  669TMC3    C1 9895   2.103   0.491  14.880 -0.7474  0.2507 -0.7821
  669TMC3    C2 9896   1.991   0.506  14.805 -0.0784 -0.4866 -0.4678
  669TMC3    C3 9897   2.002   0.551  14.677  0.2102  0.2057 -0.3918
  669TMC3    C4 9898   2.231   0.508  14.832 -0.9165  0.7073  0.1219
  669TMC3    C5 9899   2.235   0.546  14.697 -0.2883  0.1117 -0.5358
  669TMC3    C6 9900   2.123   0.566  14.614  0.7208 -0.0065  0.2211
  669TMC3     C 9901   2.075   0.388  14.978  0.0012  1.1119 -0.0578
  669TMC3     O 9902   1.968   0.386  15.030 -0.3779 -0.4568 -0.2449
  669TMC3     H 9903   1.895   0.474  14.844  0.5880  1.8459  3.1114
  669TMC3    H1 9904   2.320   0.514  14.895 -1.0486 -0.2097  0.3955
  669TMC3    H2 9905   2.124   0.595  14.509 -0.8660 -0.2380  0.1363
  669TMC3    C7 9906   2.350   0.619  14.658 -0.4046  0.0568  0.2526
  669TMC3    C8 9907   1.891   0.572  14.592 -0.2537 -0.8040 -0.1164
  669TMC3    O1 9908   2.321   0.690  14.562 -0.1738 -0.4595  0.3044
  669TMC3    O2 9909   1.903   0.566  14.472 -0.3396  0.0783  0.0376
  670MPD2     C 9910   0.602   3.049  12.896  0.2353 -0.0857  0.9685
  670MPD2    C1 9911   0.671   3.055  13.014  0.2588  0.5082  0.9449
  670MPD2    C2 9912   0.615   2.998  13.127 -0.1223  0.2849 -0.1227
  670MPD2    C3 9913   0.501   2.922  13.127 -0.0482  0.6775  0.4091
  670MPD2    C4 9914   0.438   2.906  13.001  0.1413  0.2245 -0.2186
  670MPD2    C5 9915   0.489   2.978  12.892 -0.5772 -0.1831 -0.4901
  670MPD2     H 9916   0.663   3.020  13.221  1.5922 -1.0597 -0.6759
  670MPD2    H1 9917   0.348   2.846  13.000  1.0144 -1.1346  1.2646
  670MPD2    H2 9918   0.629   3.107  12.808 -0.7769 -1.2605 -0.1252
  670MPD2    H3 9919   0.422   2.979  12.807 -0.2087  1.9980 -0.7516
  670MPD2     N 9920   0.459   2.865  13.240 -0.2441 -0.0937 -0.5734
  670MPD2    H5 9921   0.521   2.886  13.318  1.1189 -0.7659 -1.4837
  670MPD2    N1 9922   0.772   3.145  13.032  0.0356 -0.1610 -0.4924
  670MPD2    H7 9923   0.808   3.153  13.127  1.7217 -0.0947 -1.1461
  671TMC3    C1 9924   0.334   2.745  13.401 -0.4203  0.0700 -0.1632
  671TMC3    C2 9925   0.438   2.728  13.488 -0.3260 -0.1720 -0.2973
  671TMC3    C3 9926   0.411   2.734  13.619 -0.5178 -0.0175 -0.5861
  671TMC3    C4 9927   0.208   2.749  13.449  0.4311  0.8060 -0.3925
  671TMC3    C5 9928   0.188   2.751  13.587 -0.1908 -0.5099 -0.0883
  671TMC3    C6 9929   0.289   2.760  13.676 -0.5452  0.1338  0.1193
  671TMC3     C 9930   0.345   2.783  13.258 -0.5650 -0.2746 -0.1425
  671TMC3     O 9931   0.248   2.760  13.183 -0.4287  0.1232 -0.4292
  671TMC3     H 9932   0.536   2.702  13.450 -0.6230 -1.1203 -0.4334
  671TMC3    H1 9933   0.121   2.741  13.384  1.1501 -1.1388 -1.1126
  671TMC3    H2 9934   0.271   2.773  13.783 -0.9798 -0.0659  0.0722
  671TMC3    C7 9935   0.104   2.641  13.617 -0.1882 -0.3113  0.3800
  671TMC3    C8 9936   0.493   2.653  13.702 -0.9339  0.1764 -0.1331
  671TMC3    O1 9937   0.000   2.633  13.552 -0.1620 -0.1127 -0.2931
  671TMC3    O2 9938   0.539   2.549  13.650 -0.1081  0.3059 -0.0489
  672MPD2     C 9939   0.906   2.449   0.944 -0.6104 -0.1978  0.2331
  672MPD2    C1 9940   0.954   2.576   0.913 -0.6486  0.4863 -0.1657
  672MPD2    C2 9941   0.932   2.675   1.000  0.0046  0.6279 -0.0248
  672MPD2    C3 9942   0.883   2.646   1.124  0.2149  0.0306 -0.4138
  672MPD2    C4 9943   0.836   2.523   1.157  0.6477 -0.0032  0.2356
  672MPD2    C5 9944   0.848   2.420   1.065  0.1885  0.1838 -0.2707
  672MPD2     H 9945   0.965   2.775   0.974  0.2671 -0.0481 -2.3145
  672MPD2    H1 9946   0.790   2.501   1.253  0.7180 -2.6430 -0.3409
  672MPD2    H2 9947   0.910   2.371   0.868  0.0541 -1.3254  1.4209
  672MPD2    H3 9948   0.798   2.326   1.082  0.2618 -0.1579 -1.9417
  672MPD2     N 9949   0.845   2.743   1.218 -0.2790  0.5252  0.5196
  672MPD2    H5 9950   0.820   2.712   1.311  0.1824 -0.2192  0.3949
  672MPD2    N1 9951   1.012   2.599   0.790  0.3443 -0.0434 -0.3956
  672MPD2    H7 9952   1.051   2.692   0.778 -0.5233  0.3113 -0.4830
  673TMC3    C1 9953   1.172   2.570   0.624 -0.5798  0.2453 -0.7185
  673TMC3    C2 9954   1.301   2.524   0.624 -0.7053 -0.9315 -0.5947
  673TMC3    C3 9955   1.401   2.608   0.577  0.0819 -0.4791 -0.3631
  673TMC3    C4 9956   1.140   2.684   0.558  0.1800  0.5276  0.0683
  673TMC3    C5 9957   1.240   2.768   0.507 -0.5159 -0.7940  0.6477
  673TMC3    C6 9958   1.373   2.727   0.525 -0.3652  0.0522  0.3375
  673TMC3     C 9959   1.065   2.500   0.704 -0.4345 -0.1260 -0.2899
  673TMC3     O 9960   1.066   2.379   0.708 -0.6207 -0.0377  0.9509
  673TMC3     H 9961   1.321   2.435   0.682  3.1958  0.0815 -0.3600
  673TMC3    H1 9962   1.034   2.701   0.547  0.2555  0.1615 -1.2634
  673TMC3    H2 9963   1.453   2.796   0.500  0.6507 -0.5188  2.0320
  673TMC3    C7 9964   1.215   2.868   0.418 -0.2157  0.3452 -0.3656
  673TMC3    C8 9965   1.536   2.592   0.618  0.1584 -0.4982  0.2063
  673TMC3    O1 9966   1.316   2.917   0.370 -0.1729 -0.0066 -0.0156
  673TMC3    O2 9967   1.627   2.602   0.540  0.6594 -0.6149  0.1944
  674MPD2     C 9968   1.139   2.755   0.077 -0.0654 -0.0597 -0.4456
  674MPD2    C1 9969   1.123   2.637   0.148  0.4742 -0.0647 -0.8604
  674MPD2    C2 9970   0.992   2.605   0.183 -0.0621 -0.4244  0.1887
  674MPD2    C3 9971   0.881   2.679   0.157  0.4098  0.6082 -0.9315
  674MPD2    C4 9972   0.901   2.799   0.092  0.3846 -0.3601  0.5240
  674MPD2    C5 9973   1.028   2.830   0.045  0.1740  0.0787 -0.7863
  674MPD2     H 9974   0.970   2.517   0.244  0.3838 -0.9910 -0.4634
  674MPD2    H1 9975   0.824   2.872   0.072  1.3084 -0.0035 -1.6774
  674MPD2    H2 9976   1.239   2.777   0.040 -0.5556  2.1805 -0.4441
  674MPD2    H3 9977   1.041   2.925  17.682  0.2744  1.2628  1.4218
  674MPD2     N 9978   0.751   2.631   0.201  0.0103 -0.0775 -0.6830
  674MPD2    H5 9979   0.747   2.547   0.258 -1.1695 -1.2733 -2.4927
  674MPD2    N1 9980   1.241   2.566   0.191 -0.0649 -0.0063  0.3014
  674MPD2    H7 9981   1.327   2.613   0.166  0.6558  0.2583  3.3764
  675TMC3    C1 9982   1.380   2.407   0.313  0.0524 -0.1682 -0.0631
  675TMC3    C2 9983   1.383   2.293   0.392 -0.3348 -0.2736  0.0692
  675TMC3    C3 9984   1.499   2.217   0.383 -0.1581  0.0722  0.3993
  675TMC3    C4 9985   1.496   2.456   0.250 -0.3579  0.7027 -1.1585
  675TMC3    C5 9986   1.611   2.391   0.271  0.7375  0.4080 -0.5023
  675TMC3    C6 9987   1.612   2.266   0.328  0.0549  0.5659  0.0483
  675TMC3     C 9988   1.245   2.464   0.286 -0.1212 -0.1404 -0.0275
  675TMC3     O 9989   1.152   2.405   0.338  0.5592  0.3012  0.5690
  675TMC3     H 9990   1.296   2.255   0.444 -1.0701  1.4257  0.0880
  675TMC3    H1 9991   1.495   2.541   0.183  0.3832  1.4668 -0.1883
  675TMC3    H2 9992   1.699   2.202   0.314  1.1225  2.0839 -0.3449
  675TMC3    C7 9993   1.714   2.416   0.172  1.2073 -0.0699 -0.2262
  675TMC3    C8 9994   1.489   2.069   0.383 -0.0341 -0.0688 -0.0135
  675TMC3    O1 9995   1.741   2.324   0.097 -0.9389  0.5763  0.0229
  675TMC3    O2 9996   1.533   2.020   0.281  0.2966 -0.2147 -0.4794
  676MPD2     C 9997   3.494   2.153  10.665  0.3736 -0.1782  0.4860
  676MPD2    C1 9998   3.414   2.075  10.743 -0.1409 -0.6241 -0.3858
  676MPD2    C2 9999   3.380   1.945  10.700 -0.1126 -0.0588 -0.3989
  676MPD2    C310000   3.446   1.893  10.587 -0.1084  0.7137 -0.1525
  676MPD2    C410001   3.515   1.981  10.503  0.2596 -0.3861  0.2564
  676MPD2    C510002   3.526   2.112  10.543  1.1427  0.2524  0.6292
  676MPD2     H10003   3.306   1.892  10.759 -0.6116  0.9719 -0.1106
  676MPD2    H110004   3.554   1.945  10.409  1.8776  0.8659  0.4391
  676MPD2    H210005   3.505   2.258  10.690 -0.1449 -0.1053  0.4061
  676MPD2    H310006   3.577   2.174  10.470  2.0799 -0.5949  0.5730
  676MPD2     N10007   3.420   1.766  10.540  0.1877 -0.0255 -0.8506
  676MPD2    H510008   3.460   1.741  10.450  1.6040 -1.0301  0.0567
  676MPD2    N110009   3.351   2.119  10.863  0.1032  0.8869  0.4362
  676MPD2    H710010   3.316   2.048  10.927 -0.6059  0.1576 -0.7817
  677TMC3    C110011   3.289   2.250  11.042 -0.4507 -0.0246 -0.0990
  677TMC3    C210012   3.222   2.141  11.099 -0.0492  0.0157  0.8207
  677TMC3    C310013   3.174   2.144  11.229  0.2047 -0.2898 -0.0569
  677TMC3    C410014   3.301   2.366  11.116  0.6923  0.0518 -0.3267
  677TMC3    C510015   3.243   2.371  11.236 -0.0451 -0.0099  0.5363
  677TMC3    C610016   3.180   2.261  11.299 -0.1472  0.6058 -0.1384
  677TMC3     C10017   3.360   2.243  10.915 -0.0144  0.0079  0.1710
  677TMC3     O10018   3.408   2.345  10.868 -0.3836  0.6423  0.7257
  677TMC3     H10019   3.209   2.049  11.045 -0.9448  1.6282 -1.7112
  677TMC3    H110020   3.332   2.459  11.070 -0.4057  0.4239 -0.2987
  677TMC3    H210021   3.147   2.260  11.402 -2.6021 -0.7695 -0.9383
  677TMC3    C710022   3.266   2.486  11.318  0.7832 -0.6301  0.2064
  677TMC3    C810023   3.226   2.031  11.296  0.2862 -0.5527  0.4516
  677TMC3    O110024   3.182   2.518  11.404  0.1803 -0.0616  0.3889
  677TMC3    O210025   3.330   1.986  11.252 -0.2205 -0.4589  0.4302
  678MPD2     C10026   4.477   1.657   1.539 -0.2986  0.0671 -0.7137
  678MPD2    C110027   4.469   1.541   1.472  0.2649 -0.4471 -0.5492
  678MPD2    C210028   4.380   1.449   1.524  0.8762  0.2175  0.0519
  678MPD2    C310029   4.313   1.468   1.641 -0.2522 -1.2697  0.4252
  678MPD2    C410030   4.340   1.583   1.715  1.0591 -0.0420  0.6033
  678MPD2    C510031   4.421   1.680   1.662  0.0284 -0.4807  0.3185
  678MPD2     H10032   4.361   1.357   1.470 -0.1535  1.7196 -2.1448
  678MPD2    H110033   4.293   1.599   1.811  0.3570 -0.5030  0.3399
  678MPD2    H210034   4.540   1.742   1.516 -1.1684  0.9227  0.0622
  678MPD2    H310035   4.442   1.770   1.718 -0.5253  0.4271 -0.9439
  678MPD2     N10036   4.206   1.382   1.674  0.1512  0.0249  0.1198
  678MPD2    H510037   4.199   1.299   1.616 -0.4358 -0.3662  0.7511
  678MPD2    N110038   4.544   1.498   1.357  0.1013  0.1678 -0.4158
  678MPD2    H710039   4.532   1.401   1.328  0.8026  0.8276 -2.9319
  679TMC3    C110040   0.096   1.334   1.103  0.6575  0.7805  1.0979
  679TMC3    C210041   0.021   1.386   1.205 -0.1589  0.3491 -0.1640
  679TMC3    C310042   4.692   1.512   1.181 -0.0848 -0.6813  0.1631
  679TMC3    C410043   0.141   1.412   1.003  0.3389 -0.3640  0.2012
  679TMC3    C510044   0.106   1.542   0.996  0.4910  0.0776  0.1204
  679TMC3    C610045   0.016   1.596   1.085  0.0926  1.1038  0.3102
  679TMC3     C10046   0.174   1.216   1.135  0.3902  0.4782 -0.7930
  679TMC3     O10047   0.173   1.125   1.052  0.0311  0.4310  0.1851
  679TMC3     H10048   4.707   1.321   1.285  1.5295  0.9297  1.0530
  679TMC3    H110049   0.215   1.367   0.938  0.1330 -1.5416  0.7794
  679TMC3    H210050   4.693   1.694   1.075  1.8825  1.8756 -0.1216
  679TMC3    C710051   0.181   1.645   0.917 -0.6128  0.1728  0.8525
  679TMC3    C810052   4.616   1.579   1.280  0.0970 -0.9678  0.3988
  679TMC3    O110053   0.253   1.604   0.825  0.0191 -0.3314 -0.0439
  679TMC3    O210054   4.612   1.698   1.280 -0.3315 -0.7972 -1.6473
  680MPD2     C10055   4.517   4.603  13.545  0.8594  0.2635 -0.5484
  680MPD2    C110056   4.644   4.564  13.590  0.1647  0.2589  0.6056
  680MPD2    C210057   0.004   4.661  13.640 -0.2018  0.6605 -0.3103
  680MPD2    C310058   4.692   0.073  13.640  1.3681  0.1690  0.1297
  680MPD2    C410059   4.569   0.119  13.590 -0.5178  0.3038  1.0875
  680MPD2    C510060   4.485   0.019  13.542  0.1687  0.6263  0.1796
  680MPD2     H10061   0.105   4.632  13.667 -0.2069 -0.5256 -1.5979
  680MPD2    H110062   4.546   0.225  13.586  0.4841  0.4326 -1.2445
  680MPD2    H210063   4.433   4.541  13.515  0.8986 -0.5863  1.0761
  680MPD2    H310064   4.383   0.042  13.514 -0.3521 -0.1231  1.4475
  680MPD2     N10065   0.056   0.175  13.680  0.7228 -0.7060 -0.0452
  680MPD2    H510066   0.028   0.267  13.650 -0.1814 -1.5297 -1.6804
  680MPD2    N110067   4.688   4.431  13.604 -0.9000  0.0282  0.3386
  680MPD2    H710068   0.045   4.416  13.667 -0.2086  0.6552 -0.3704
  681TMC3    C110069   4.671   4.203  13.615 -0.0134 -0.2926 -0.5632
  681TMC3    C210070   4.601   4.198  13.731  0.4595  0.3687 -0.7439
  681TMC3    C310071   4.665   4.173  13.848 -1.1029  0.7653 -0.0046
  681TMC3    C410072   0.088   4.176  13.612  0.1253 -0.0281 -0.2608
  681TMC3    C510073   0.152   4.157  13.730 -0.6443 -0.2742 -0.3054
  681TMC3    C610074   0.082   4.162  13.851 -0.3454  0.2524 -0.1462
  681TMC3     C10075   4.625   4.323  13.546 -0.0998 -0.1402  0.1956
  681TMC3     O10076   4.525   4.309  13.477  0.0337 -0.6377  0.0820
  681TMC3     H10077   4.503   4.245  13.733  0.9003  1.3017 -1.0519
  681TMC3    H110078   0.142   4.214  13.526  0.0491 -2.1482 -1.2364
  681TMC3    H210079   0.136   4.136  13.941  1.3498 -0.3039 -1.3094
  681TMC3    C710080   0.294   4.132  13.739 -0.0985  0.2258  0.4721
  681TMC3    C810081   4.597   4.208  13.973  0.0418  0.3304  0.4006
  681TMC3    O110082   0.347   4.111  13.850  0.3148 -0.0850 -0.3431
  681TMC3    O210083   4.474   4.219  13.958 -0.6413  0.0166  0.1993
  682MPD2     C10084   2.572   2.158  10.667  0.3844 -0.4910  0.0019
  682MPD2    C110085   2.588   2.021  10.651 -0.0421 -0.5276 -0.1707
  682MPD2    C210086   2.588   1.933  10.759 -1.1727 -0.0254 -0.2216
  682MPD2    C310087   2.569   1.980  10.888  0.1532 -0.4376 -0.3876
  682MPD2    C410088   2.563   2.116  10.904 -0.4090 -0.2417 -0.0461
  682MPD2    C510089   2.564   2.204  10.794 -0.5313 -0.4878 -0.0617
  682MPD2     H10090   2.605   1.829  10.736 -0.5698 -0.1220  0.6771
  682MPD2    H110091   2.556   2.157  11.004  0.8654 -1.6350  0.6137
  682MPD2    H210092   2.570   2.230  10.586  0.0222  0.6592  1.0346
  682MPD2    H310093   2.548   2.310  10.811  0.2704 -0.3724 -0.0106
  682MPD2     N10094   2.580   1.904  11.002  1.1428 -0.9828  0.2606
  682MPD2    H510095   2.603   1.953  11.088 -3.6916  3.2321 -0.8565
  682MPD2    N110096   2.613   1.965  10.526 -0.5382 -0.1758  0.2401
  682MPD2    H710097   2.597   1.865  10.521 -1.0534 -0.1617  1.5306
  683TMC3    C110098   2.683   1.703  11.355  0.1333  0.5227 -0.1744
  683TMC3    C210099   2.661   1.568  11.364  0.8601 -0.2558  0.2233
  683TMC3    C310100   2.618   1.500  11.253 -0.4484 -0.1067  0.3297
  683TMC3    C410101   2.643   1.778  11.247  1.0584 -0.2542  0.2246
  683TMC3    C510102   2.593   1.706  11.137  0.7530 -0.1693 -0.1471
  683TMC3    C610103   2.583   1.569  11.136 -0.7464  0.0553  0.1147
  683TMC3     C10104   2.755   1.772  11.458 -0.4190 -0.5129  1.3830
  683TMC3     O10105   2.744   1.894  11.460 -0.4212 -0.0733 -0.5814
  683TMC3     H10106   2.670   1.514  11.458 -0.3764 -1.0878 -0.1403
  683TMC3    H110107   2.669   1.883  11.248  2.1785 -0.5533  1.5562
  683TMC3    H210108   2.569   1.523  11.039 -0.0840  1.1475 -0.5025
  683TMC3    C710109   2.569   1.766  11.007  0.0873 -0.1124  0.3493
  683TMC3    C810110   2.589   1.355  11.261  0.0825  0.1667 -0.2681
  683TMC3    O110111   2.530   1.693  10.920 -0.0406 -0.2175 -0.4795
  683TMC3    O210112   2.653   1.294  11.353  0.7867 -0.2330 -0.6182
  684MPD2     C10113   0.404   1.308  16.287 -0.1760  0.3969 -0.5661
  684MPD2    C110114   0.533   1.272  16.251  0.3888  0.6161 -0.2032
  684MPD2    C210115   0.645   1.311  16.328 -0.0809  0.0474 -0.4113
  684MPD2    C310116   0.619   1.399  16.438 -0.0286  0.6820 -0.7931
  684MPD2    C410117   0.486   1.440  16.468  0.1221  0.7777 -0.4905
  684MPD2    C510118   0.384   1.387  16.397 -0.1691  0.0323 -0.4933
  684MPD2     H10119   0.748   1.286  16.305 -0.2226 -0.0782 -0.9106
  684MPD2    H110120   0.459   1.514  16.542 -0.5161 -1.2774  1.3212
  684MPD2    H210121   0.318   1.278  16.228  0.3253  2.3751 -2.3092
  684MPD2    H310122   0.284   1.409  16.430  0.1113  0.3250  0.1599
  684MPD2     N10123   0.724   1.463  16.503  0.1472 -0.0937  0.1711
  684MPD2    H510124   0.816   1.424  16.488 -0.8354 -3.3610  2.7034
  684MPD2    N110125   0.554   1.190  16.138 -0.2259  0.2743 -0.0778
  684MPD2    H710126   0.648   1.152  16.131 -0.6396 -0.8971  0.7770
  685TMC3    C110127   0.530   1.073  15.925  1.0267  0.3877  0.3989
  685TMC3    C210128   0.448   0.987  15.857  0.3691 -0.5021 -0.1282
  685TMC3    C310129   0.492   0.949  15.736  0.2646  0.4327  0.1650
  685TMC3    C410130   0.657   1.109  15.874  0.1209 -0.2461  0.3189
  685TMC3    C510131   0.692   1.071  15.751 -0.4602  0.2145  0.0521
  685TMC3    C610132   0.614   0.983  15.681  0.6661 -1.0336 -0.0020
  685TMC3     C10133   0.469   1.159  16.034  0.3468 -0.2498  0.1296
  685TMC3     O10134   0.351   1.187  16.027  0.2428  0.0649 -0.0256
  685TMC3     H10135   0.348   0.972  15.895  0.8492  0.5340  1.5435
  685TMC3    H110136   0.709   1.186  15.931 -0.3370  0.8968 -0.8224
  685TMC3    H210137   0.651   0.947  15.585 -0.0699  0.2758 -0.7638
  685TMC3    C710138   0.834   1.086  15.719  0.8473  0.0227 -0.4773
  685TMC3    C810139   0.409   0.859  15.660 -0.4136  0.4138 -0.5611
  685TMC3    O110140   0.873   1.069  15.606  1.0020  0.0070  0.0211
  685TMC3    O210141   0.447   0.822  15.552  0.7430  0.5754 -0.2381
  686MPD2     C10142   1.845   0.788  15.754  0.0506 -0.0548 -0.4684
  686MPD2    C110143   1.883   0.687  15.830  0.3779  0.9209  0.0070
  686MPD2    C210144   2.004   0.627  15.809  0.0709 -0.9423 -0.1724
  686MPD2    C310145   2.094   0.665  15.706 -0.2180  0.1056  0.4142
  686MPD2    C410146   2.054   0.767  15.624 -0.3723  0.0392  0.3232
  686MPD2    C510147   1.933   0.830  15.654  0.1517 -0.2593  0.3405
  686MPD2     H10148   2.034   0.550  15.878  0.9563  0.4608  1.0026
  686MPD2    H110149   2.112   0.809  15.543  1.0053 -0.5010  1.0252
  686MPD2    H210150   1.746   0.830  15.769 -0.4632 -1.1274 -0.8584
  686MPD2    H310151   1.903   0.909  15.587  1.6373  0.1740  0.2048
  686MPD2     N10152   2.218   0.609  15.679  0.1861 -0.3449 -0.1911
  686MPD2    H510153   2.284   0.667  15.629  0.0602 -0.0237  0.0189
  686MPD2    N110154   1.805   0.659  15.942  0.2713 -0.2586 -0.0040
  686MPD2    H710155   1.712   0.697  15.929  1.2787  2.6275  1.3384
  687TMC3    C110156   2.188   0.391  15.780  0.2741 -0.4041  0.3643
  687TMC3    C210157   2.069   0.349  15.735  1.3493  0.7396  0.0261
  687TMC3    C310158   1.997   0.264  15.815 -0.2047 -0.1950  0.3558
  687TMC3    C410159   2.247   0.349  15.898  0.2124 -0.1845  0.1252
  687TMC3    C510160   2.175   0.272  15.983  0.1973  0.2601  0.8960
  687TMC3    C610161   2.043   0.242  15.943  0.0231  0.0528 -0.3644
  687TMC3     C10162   2.276   0.488  15.717 -0.9156 -0.3496 -0.5043
  687TMC3     O10163   2.399   0.468  15.706  0.0844  0.2906 -0.4790
  687TMC3     H10164   2.044   0.365  15.631 -0.8314  0.7868  0.5692
  687TMC3    H110165   2.337   0.400  15.931  1.7849 -0.8513 -3.0603
  687TMC3    H210166   1.970   0.213  16.018 -1.3506 -1.8970 -2.4488
  687TMC3    C710167   2.201   0.308  16.124 -0.0945 -0.5038  0.4619
  687TMC3    C810168   1.851   0.284  15.806 -0.1011  0.3164  0.1497
  687TMC3    O110169   2.279   0.402  16.145 -0.2801 -0.3607 -0.1031
  687TMC3    O210170   1.781   0.207  15.874  0.2302  0.3180 -0.3711
  688MPD2     C10171   0.988   3.990  17.242 -0.4867  0.1003  0.4597
  688MPD2    C110172   1.019   3.855  17.265 -0.4137  0.1157 -0.0215
  688MPD2    C210173   1.122   3.802  17.184 -0.0591 -0.6952  0.5940
  688MPD2    C310174   1.182   3.876  17.081  0.1147 -0.2702  0.2170
  688MPD2    C410175   1.158   4.014  17.075  0.0966 -0.1098  0.3500
  688MPD2    C510176   1.062   4.066  17.156  0.4757  0.3299  0.2744
  688MPD2     H10177   1.153   3.698  17.181  2.0791  0.0264 -2.2852
  688MPD2    H110178   1.212   4.072  17.001 -1.6538  0.8816 -0.1395
  688MPD2    H210179   0.916   4.053  17.292  0.0907 -0.0256  1.4479
  688MPD2    H310180   1.039   4.170  17.133 -1.3142  0.1680  1.3159
  688MPD2     N10181   1.266   3.831  16.979 -0.5655 -0.1615 -0.2879
  688MPD2    H510182   1.292   3.896  16.906 -2.0997  2.3463  1.3851
  688MPD2    N110183   0.956   3.792  17.377 -0.8853 -0.1442 -0.1987
  688MPD2    H710184   0.997   3.700  17.390 -2.6767 -0.8011  0.7380
  689TMC3    C110185   0.852   3.758  17.580 -0.6352  0.1101 -0.3453
  689TMC3    C210186   0.836   3.823   0.013  0.1333 -0.4353 -0.1560
  689TMC3    C310187   0.761   3.760   0.111 -0.2856 -0.4807 -0.8114
  689TMC3    C410188   0.791   3.640  17.558  0.0291  0.7217 -0.0781
  689TMC3    C510189   0.698   3.594  17.645  0.1513  0.4749 -0.1255
  689TMC3    C610190   0.699   3.636   0.089  0.4184  0.4522  0.3724
  689TMC3     C10191   0.865   3.843  17.463  0.0810  0.3960  0.4648
  689TMC3     O10192   0.789   3.940  17.449  0.2855 -0.4249 -0.2522
  689TMC3     H10193   0.888   3.918   0.017 -0.8812  0.0278  2.3142
  689TMC3    H110194   0.801   3.593  17.461 -0.6031  0.9074 -0.2342
  689TMC3    H210195   0.637   3.589   0.164  1.0920 -0.5274  0.3273
  689TMC3    C710196   0.663   3.455  17.640 -0.1587  0.8970  0.7165
  689TMC3    C810197   0.741   3.815   0.238  0.3024  0.0950  0.0996
  689TMC3    O110198   0.655   3.393   0.056 -0.3897  0.2561  0.2397
  689TMC3    O210199   0.712   3.734   0.325 -0.1760  0.6951  0.6134
  690MPD2     C10200   3.366   1.361  15.888  0.0646 -0.0817  1.1468
  690MPD2    C110201   3.392   1.363  15.750  0.0684 -0.4269  0.3335
  690MPD2    C210202   3.494   1.438  15.699 -0.6227 -0.6128 -0.6322
  690MPD2    C310203   3.567   1.524  15.782 -0.3231 -0.0062  0.5656
  690MPD2    C410204   3.523   1.536  15.913  0.1214 -0.5284 -0.1856
  690MPD2    C510205   3.434   1.453  15.961 -0.2805 -0.2327 -0.4838
  690MPD2     H10206   3.518   1.451  15.594  0.0080 -0.1842 -0.4310
  690MPD2    H110207   3.562   1.609  15.982 -1.0477  0.0613 -0.1571
  690MPD2    H210208   3.292   1.299  15.936 -0.8365 -0.7553 -1.0857
  690MPD2    H310209   3.419   1.467  16.067  0.6944 -1.5324 -0.1705
  690MPD2     N10210   3.677   1.595  15.736  0.1858 -0.2345 -0.2986
  690MPD2    H510211   3.696   1.595  15.637 -0.6203 -3.1168 -0.4465
  690MPD2    N110212   3.327   1.283  15.655  0.0009 -0.1551  0.2994
  690MPD2    H710213   3.382   1.256  15.574 -1.9854  0.4264 -1.2462
  691TMC3    C110214   3.180   1.155  15.551 -0.2624 -0.0955  0.0789
  691TMC3    C210215   3.074   1.190  15.483 -0.3969  0.1598  0.3186
  691TMC3    C310216   3.049   1.122  15.369  0.4569 -0.2890 -0.6732
  691TMC3    C410217   3.256   1.044  15.524  0.4368 -0.0572 -0.1186
  691TMC3    C510218   3.225   0.971  15.411  0.5436  0.4194  0.1139
  691TMC3    C610219   3.124   1.016  15.329  0.1217 -0.0930  0.4168
  691TMC3     C10220   3.207   1.228  15.668  0.3375 -0.7937  0.1477
  691TMC3     O10221   3.111   1.268  15.733 -0.4656 -0.4077 -0.3765
  691TMC3     H10222   3.006   1.269  15.512 -0.8413  0.1338 -0.6633
  691TMC3    H110223   3.335   1.007  15.589  2.8083  2.1076 -1.7688
  691TMC3    H210224   3.102   0.966  15.235  1.0588  2.0380 -0.9036
  691TMC3    C710225   3.231   0.824  15.419 -0.4670 -0.2986  0.1428
  691TMC3    C810226   2.913   1.081  15.361 -0.1006 -0.5073  0.0613
  691TMC3    O110227   3.329   0.777  15.471 -0.0680  0.2854  0.8586
  691TMC3    O210228   2.897   0.964  15.342 -0.1522 -0.5837 -0.1270
  692TMC3    C110229   0.556   2.668  16.155  0.2345  0.6075  0.1151
  692TMC3    C210230   0.659   2.696  16.246 -0.6113 -0.0066 -0.1291
  692TMC3    C310231   0.783   2.635  16.232  0.7048  0.1446 -0.2928
  692TMC3    C410232   0.576   2.578  16.054 -0.4879  0.2154 -0.4718
  692TMC3    C510233   0.709   2.538  16.038  0.3311 -0.0044 -0.6445
  692TMC3    C610234   0.813   2.562  16.120  0.3511  0.6295  0.3927
  692TMC3     C10235   0.422   2.708  16.183  0.1752  0.3582 -0.6972
  692TMC3     O10236   0.336   2.633  16.133  0.1259  0.0842 -0.0215
  692TMC3     H10237   0.646   2.747  16.341 -2.4631 -1.3572  0.3307
  692TMC3    H110238   0.501   2.553  15.980 -1.6336  0.8646  0.4536
  692TMC3    H210239   0.912   2.542  16.082  0.8429  1.1547  1.3946
  692TMC3    C710240   0.717   2.418  15.962 -0.2573 -0.2038  0.3401
  692TMC3    C810241   0.890   2.717  16.274  0.0178 -0.0524 -0.3374
  692TMC3    O110242   0.631   2.406  15.875 -0.2678 -0.2220  0.5718
  692TMC3    O210243   0.878   2.834  16.248 -0.4559 -0.0457 -0.1516
  693MPD2     C10244   0.249   1.386  10.924  0.0181  0.0401 -0.0123
  693MPD2    C110245   0.185   1.278  10.854  0.1786  0.4091  0.2664
  693MPD2    C210246   0.235   1.150  10.858  0.4787  0.5858 -1.1502
  693MPD2    C310247   0.358   1.129  10.913 -0.2511 -0.3226 -0.5199
  693MPD2    C410248   0.434   1.233  10.967  0.4695 -0.2687 -0.8359
  693MPD2    C510249   0.373   1.356  10.979  0.0855  0.9403 -0.2291
  693MPD2     H10250   0.178   1.068  10.815 -2.3518  0.6303  2.4956
  693MPD2    H110251   0.534   1.227  11.009  0.4556  0.2221 -0.7315
  693MPD2    H210252   0.217   1.489  10.925  0.7619  0.2872 -1.2697
  693MPD2    H310253   0.425   1.436  11.032  1.6934 -1.0076  1.1277
  693MPD2     N10254   0.420   0.999  10.922  0.3256 -0.0545 -0.2659
  693MPD2    H510255   0.501   0.989  10.983 -0.8287 -0.5400  1.1792
  693MPD2    N110256   0.051   1.301  10.812  0.1375  0.1574 -0.7494
  693MPD2    H710257   0.000   1.377  10.856  2.5717  1.2396  0.1709
  694TMC3    C110258   4.567   1.227  10.730 -0.6628  0.0462 -0.8692
  694TMC3    C210259   4.501   1.157  10.635  0.1118  0.0183 -1.1793
  694TMC3    C310260   4.403   1.066  10.667 -0.2036 -0.2345 -0.0615
  694TMC3    C410261   4.527   1.215  10.861 -0.3457 -0.6213 -0.1637
  694TMC3    C510262   4.423   1.126  10.891 -0.2635 -0.3416  0.0560
  694TMC3    C610263   4.361   1.052  10.793  0.8858 -0.6221 -1.0640
  694TMC3     C10264   4.712   1.218  10.721  0.0526 -0.3135 -1.2574
  694TMC3     O10265   0.037   1.137  10.644 -0.3835  0.0348  0.2631
  694TMC3     H10266   4.542   1.166  10.536 -0.6005  0.8150 -1.3984
  694TMC3    H110267   4.579   1.259  10.946  0.5248 -0.1278 -0.9616
  694TMC3    H210268   4.274   0.994  10.822  1.2946 -0.5250  0.3354
  694TMC3    C710269   4.447   1.063  11.021  0.2360 -0.5108  0.1621
  694TMC3    C810270   4.330   0.991  10.565 -0.2712  0.5512  0.2315
  694TMC3    O110271   4.494   1.135  11.108 -0.1689 -0.4251 -0.1302
  694TMC3    O210272   4.225   0.933  10.604 -0.2758  0.2475  0.4322
  695MPD2     C10273   0.671   2.089  13.384 -0.1279 -0.0862 -0.6328
  695MPD2    C110274   0.592   2.105  13.503  0.1768  0.1449 -0.6899
  695MPD2    C210275   0.477   2.182  13.496 -0.0340 -0.3059 -0.3986
  695MPD2    C310276   0.431   2.238  13.381 -1.1080  0.1201  0.5910
  695MPD2    C410277   0.510   2.226  13.266 -0.4390  0.5956 -0.1485
  695MPD2    C510278   0.622   2.143  13.268  0.5997  0.6457  0.2320
  695MPD2     H10279   0.418   2.186  13.587  0.6034 -0.5430  0.0260
  695MPD2    H110280   0.475   2.265  13.171 -0.6440 -1.7245 -1.0521
  695MPD2    H210281   0.760   2.027  13.375  0.9250  1.2901  0.3707
  695MPD2    H310282   0.672   2.114  13.176  1.4402  0.1902  0.8379
  695MPD2     N10283   0.308   2.310  13.388  0.1919  0.3139  1.1796
  695MPD2    H510284   0.253   2.300  13.473 -1.7089  1.5528  0.1034
  695MPD2    N110285   0.633   2.062  13.629 -0.5187 -0.2239  0.0617
  695MPD2    H710286   0.576   2.095  13.706 -0.6859 -2.9845  1.1025
  696TMC3    C110287   0.114   2.388  13.284  0.5532  0.3964 -0.1179
  696TMC3    C210288   0.042   2.293  13.350 -0.3653  0.5857 -0.4334
  696TMC3    C310289   4.632   2.315  13.358  0.5900 -0.7078  0.5635
  696TMC3    C410290   0.058   2.506  13.241  0.3100 -0.1879 -0.4306
  696TMC3    C510291   4.642   2.514  13.243  0.7143 -0.0884 -0.1549
  696TMC3    C610292   4.567   2.431  13.318  0.1981 -0.3485 -0.2752
  696TMC3     C10293   0.255   2.379  13.276 -0.3734  0.2295  0.3565
  696TMC3     O10294   0.301   2.426  13.173 -0.0350 -0.1070  0.3435
  696TMC3     H10295   0.081   2.197  13.382  1.4996  1.1439 -1.0137
  696TMC3    H110296   0.103   2.587  13.185  0.9752 -1.3315 -1.5600
  696TMC3    H210297   4.459   2.437  13.319  0.1915 -0.5138 -0.0344
  696TMC3    C710298   4.579   2.641  13.228 -0.0726  0.2073  0.1385
  696TMC3    C810299   4.547   2.226  13.430  0.2576  0.6228 -0.5307
  696TMC3    O110300   4.623   2.703  13.134  0.0321  0.1294 -0.1852
  696TMC3    O210301   4.444   2.197  13.374  0.2489 -0.4227 -0.1966
  697MPD2     C10302   4.371   3.957  15.853  0.8004  0.7442 -0.2390
  697MPD2    C110303   4.408   3.888  15.736 -0.1730  0.1947  0.0440
  697MPD2    C210304   4.456   3.960  15.628  0.2571  0.2169 -0.5754
  697MPD2    C310305   4.470   4.101  15.633  0.1374  0.7081 -0.2474
  697MPD2    C410306   4.447   4.165  15.756  0.0786 -0.2576  0.7916
  697MPD2    C510307   4.404   4.089  15.864 -0.0605 -0.2257  0.4090
  697MPD2     H10308   4.484   3.905  15.539  0.8342 -0.8830  0.2832
  697MPD2    H110309   4.467   4.269  15.779  3.6631 -1.0849  1.4358
  697MPD2    H210310   4.341   3.907  15.944  0.6571  2.3471  0.6030
  697MPD2    H310311   4.389   4.140  15.959 -0.0456 -2.0190  1.3867
  697MPD2     N10312   4.530   4.162  15.528  0.3976  0.0858 -0.0058
  697MPD2    H510313   4.573   4.105  15.456  3.5060 -0.0556  1.9645
  697MPD2    N110314   4.382   3.746  15.719 -0.2476  0.5604  0.0012
  697MPD2    H710315   4.405   3.702  15.630 -1.4666  2.0263 -1.0340
  698TMC3    C110316   4.624   4.330  15.400  0.7377 -0.0921  0.4136
  698TMC3    C210317   4.629   4.467  15.380  0.5890 -0.5567 -0.6544
  698TMC3    C310318   4.701   4.507  15.270 -0.2058  0.3295 -0.4004
  698TMC3    C410319   4.680   4.241  15.312  0.5941  0.4002  1.2457
  698TMC3    C510320   0.018   4.295  15.202  0.0450  0.6682  0.0087
  698TMC3    C610321   0.036   4.424  15.178 -0.0330 -0.1245 -0.5541
  698TMC3     C10322   4.540   4.295  15.510  0.1382  0.2702 -0.1792
  698TMC3     O10323   4.502   4.384  15.585  0.0318 -0.4459  0.2145
  698TMC3     H10324   4.578   4.541  15.440 -0.9825 -0.4595 -2.1073
  698TMC3    H110325   4.674   4.133  15.321  1.2661  0.1529 -1.2920
  698TMC3    H210326   0.060   4.465  15.081  1.1152  1.3399  0.3660
  698TMC3    C710327   0.059   4.200  15.101 -0.4165  0.2458  0.0003
  698TMC3    C810328   4.661   4.635  15.225  0.1412  0.0033 -0.5224
  698TMC3    O110329   4.714   4.096  15.095 -0.2545 -0.7827 -0.4327
  698TMC3    O210330   4.542   4.662  15.216  0.1325  0.1981 -0.4554
  699TMC3    C110331   0.078   2.380  12.916  0.4827  0.0487  0.2430
  699TMC3    C210332   0.116   2.261  12.974  0.4084 -0.0766  0.1201
  699TMC3    C310333   0.012   2.180  13.018  0.4932 -0.6351  0.1014
  699TMC3    C410334   4.668   2.413  12.903 -0.5092  0.0819  0.3466
  699TMC3    C510335   4.571   2.330  12.959  0.1263  0.3371  0.1309
  699TMC3    C610336   4.608   2.212  13.006  0.3214  0.5145  0.4596
  699TMC3     C10337   0.180   2.461  12.844 -0.2768 -0.5608 -0.4351
  699TMC3     O10338   0.139   2.539  12.756  0.1860 -0.7284  0.7101
  699TMC3     H10339   0.219   2.250  13.008  1.0898  0.6194 -1.7179
  699TMC3    H110340   4.638   2.501  12.847  0.0502  0.7748  1.1196
  699TMC3    H210341   4.532   2.143  13.041  1.4505 -0.1498  1.5765
  699TMC3    C710342   4.436   2.369  12.983  0.2207 -0.4813  0.6051
  699TMC3    C810343   0.033   2.063  13.103  0.2119 -0.9444 -0.4737
  699TMC3    O110344   4.393   2.320  13.090  0.0684  0.1856  0.6237
  699TMC3    O210345   4.661   2.010  13.168  0.1302 -0.2218  0.4549
  700TMC3    C110346   3.794   4.124  17.147  0.3226 -0.0806  0.0298
  700TMC3    C210347   3.775   3.994  17.116  0.6224  0.1797 -0.3485
  700TMC3    C310348   3.807   3.904  17.211 -0.1716 -0.9326 -0.5130
  700TMC3    C410349   3.814   4.170  17.272 -0.0171  0.1379  0.1427
  700TMC3    C510350   3.838   4.072  17.361  0.2095  0.2562 -0.8488
  700TMC3    C610351   3.842   3.940  17.339  0.6928  0.0165  0.5026
  700TMC3     C10352   3.823   4.208  17.031  0.5502  0.0974 -0.0941
  700TMC3     O10353   3.802   4.160  16.922 -0.0666  0.5894  0.1868
  700TMC3     H10354   3.769   3.967  17.011 -2.9627 -0.7476  0.1051
  700TMC3    H110355   3.828   4.276  17.292  1.1938  0.2997 -1.5552
  700TMC3    H210356   3.896   3.868  17.398  1.2852  0.5713  0.6323
  700TMC3    C710357   3.894   4.127  17.486 -0.1878 -0.2704  0.3947
  700TMC3    C810358   3.830   3.770  17.175  0.8276 -0.1466 -0.3064
  700TMC3    O110359   4.003   4.082  17.525  0.0543 -0.1632  0.5877
  700TMC3    O210360   3.891   3.756  17.070  0.4569 -0.4641  0.9673
  701TMC3    C110361   4.015   3.020  15.547 -0.4289  0.0705 -0.3850
  701TMC3    C210362   4.059   2.982  15.423  0.3673  0.2571  0.5319
  701TMC3    C310363   4.060   3.085  15.326 -0.0419 -0.0157  0.3484
  701TMC3    C410364   3.980   3.152  15.570  0.8294 -0.1166  0.2831
  701TMC3    C510365   3.990   3.245  15.479 -0.4745  0.0177 -0.4208
  701TMC3    C610366   4.037   3.212  15.353 -0.4121  0.3356  0.2849
  701TMC3     C10367   3.982   2.928  15.644 -0.3176  0.3078  0.5156
  701TMC3     O10368   3.872   2.939  15.702 -0.1844 -0.5238  0.4897
  701TMC3     H10369   4.090   2.883  15.391  0.4109  0.5373 -0.2911
  701TMC3    H110370   3.957   3.164  15.676 -1.9548 -1.3108 -0.1847
  701TMC3    H210371   4.061   3.286  15.278 -1.8386  0.9443  0.4406
  701TMC3    C710372   4.011   3.389  15.513 -0.0033  0.0428 -0.4893
  701TMC3    C810373   4.108   3.041  15.198 -0.2608 -0.3938  0.8197
  701TMC3    O110374   4.070   3.456  15.426 -0.2187 -0.5011  0.8344
  701TMC3    O210375   4.149   3.130  15.123 -0.4781  0.5759 -0.0513
  702MPD2     C10376   3.733   1.420  10.028 -0.1615 -0.0298 -0.3106
  702MPD2    C110377   3.625   1.492  10.064 -0.5515  0.4421  0.3682
  702MPD2    C210378   3.583   1.602   9.989  0.0866  0.1869 -0.1260
  702MPD2    C310379   3.667   1.642   9.887 -0.8977  0.4188 -0.1013
  702MPD2    C410380   3.779   1.575   9.855  0.0267 -0.2667  0.9330
  702MPD2    C510381   3.812   1.460   9.925 -0.1542  0.2817  0.4495
  702MPD2     H10382   3.487   1.650  10.004  0.5292  0.6224  1.3237
  702MPD2    H110383   3.837   1.609   9.770 -0.7721  0.4799  0.6970
  702MPD2    H210384   3.760   1.331  10.082  1.7068  0.8670  0.2354
  702MPD2    H310385   3.899   1.405   9.892  0.6772  0.4222  2.4067
  702MPD2     N10386   3.643   1.766   9.813  0.2682 -0.3502  0.0592
  702MPD2    H510387   3.696   1.797   9.733  1.5274  0.5100  1.2394
  702MPD2    N110388   3.543   1.476  10.177 -0.0020 -0.2463  0.3060
  702MPD2    H710389   3.471   1.547  10.181 -2.0677 -2.1571 -2.4257
  703TMC3    C110390   3.578   1.992   9.806  0.4091 -0.3475  0.9500
  703TMC3    C210391   3.528   2.089   9.892 -0.2165  0.6206 -0.8752
  703TMC3    C310392   3.600   2.200   9.919 -0.6098  0.5906  0.1377
  703TMC3    C410393   3.692   2.006   9.732  0.2243  0.4108  0.4958
  703TMC3    C510394   3.765   2.122   9.749 -0.0410 -0.1967 -0.0296
  703TMC3    C610395   3.725   2.214   9.850  0.0572 -0.0079  0.0243
  703TMC3     C10396   3.547   1.859   9.849  0.3150 -0.5520 -0.0209
  703TMC3     O10397   3.448   1.841   9.922  0.9391  0.5562  0.1731
  703TMC3     H10398   3.425   2.079   9.922  0.2231 -2.6899 -0.3669
  703TMC3    H110399   3.714   1.932   9.655  1.7389  0.6219  0.7279
  703TMC3    H210400   3.769   2.312   9.856 -1.5096  0.7260 -0.4405
  703TMC3    C710401   3.907   2.110   9.727 -0.3849 -0.4177 -0.3340
  703TMC3    C810402   3.573   2.279  10.032  0.9108  0.5878  0.6130
  703TMC3    O110403   3.951   1.996   9.716  0.5763  0.1878  0.2490
  703TMC3    O210404   3.628   2.387  10.031 -0.2058 -0.4740 -0.1953
  704TMC3    C110405   1.113   4.238  12.351  0.6330  0.3908  0.0684
  704TMC3    C210406   1.221   4.293  12.407 -0.1895 -0.7750 -0.9444
  704TMC3    C310407   1.296   4.220  12.490 -0.7274  0.0067  0.1088
  704TMC3    C410408   1.064   4.123  12.395  0.1883  0.2596  0.2979
  704TMC3    C510409   1.137   4.057  12.481 -0.2587 -0.3844  0.2053
  704TMC3    C610410   1.256   4.101  12.538 -0.5768  0.9289 -0.3656
  704TMC3     C10411   1.034   4.313  12.257  0.3208  0.2503  0.2746
  704TMC3     O10412   0.914   4.290  12.250  0.0046 -0.0589 -0.1190
  704TMC3     H10413   1.248   4.395  12.380 -0.5262  0.1907  2.4500
  704TMC3    H110414   0.980   4.087  12.339  0.8735  0.5400 -0.9098
  704TMC3    H210415   1.326   4.034  12.588 -0.1369  1.6234 -0.0585
  704TMC3    C710416   1.114   3.918  12.487 -0.1872 -0.1031 -0.3660
  704TMC3    C810417   1.443   4.234  12.479  0.1767 -0.1935 -0.1851
  704TMC3    O110418   1.200   3.844  12.533  0.2388 -0.7569 -0.0709
  704TMC3    O210419   1.494   4.275  12.379 -0.0239 -0.3152 -0.3855
  705MPD2     C10420   1.361   1.904  16.626 -0.4364 -0.8883  0.0036
  705MPD2    C110421   1.251   1.952  16.553  0.0723 -0.2663  0.4921
  705MPD2    C210422   1.123   1.956  16.612 -0.0242  0.0678 -0.0409
  705MPD2    C310423   1.103   1.907  16.741  0.4755 -0.0023 -0.3369
  705MPD2    C410424   1.211   1.847  16.807 -0.3137  0.1517  0.2280
  705MPD2    C510425   1.336   1.852  16.750 -0.1004  0.0192 -0.0388
  705MPD2     H10426   1.037   1.987  16.554  0.9048 -0.8776 -1.9416
  705MPD2    H110427   1.206   1.807  16.908 -1.5772  1.7376  0.7841
  705MPD2    H210428   1.462   1.906  16.586 -0.6299 -0.5442 -0.4734
  705MPD2    H310429   1.412   1.785  16.791  0.3459  0.0013 -0.8865
  705MPD2     N10430   0.972   1.899  16.795  0.0269  0.6780 -0.1160
  705MPD2    H510431   0.958   1.851  16.884  1.5629 -0.9552 -0.7477
  705MPD2    N110432   1.262   2.006  16.418 -0.4382  0.1761 -0.0035
  705MPD2    H710433   1.184   2.046  16.367 -0.0324  2.2984  1.0467
  706TMC3    C110434   1.316   1.989  15.974 -0.5681  0.4517 -0.4263
  706TMC3    C210435   1.258   2.114  15.961  0.7962 -0.7674  0.3463
  706TMC3    C310436   1.244   2.199  16.071  0.4057 -0.6498  0.3994
  706TMC3    C410437   1.366   1.954  16.099 -0.3442  0.3393  0.7267
  706TMC3    C510438   1.347   2.043  16.199  0.1865 -0.0266  0.4765
  706TMC3    C610439   1.294   2.166  16.195  0.2107  0.4791 -0.3165
  706TMC3     C10440   1.361   1.913  15.863  0.4326  0.0883  0.0328
  706TMC3     O10441   1.455   1.839  15.869  0.3476  0.3040  0.5223
  706TMC3     H10442   1.259   2.163  15.864 -2.6782 -0.5443  0.4267
  706TMC3    H110443   1.408   1.854  16.109  1.1384  0.9155  0.2066
  706TMC3    H210444   1.282   2.232  16.281 -0.9514  0.8806 -0.7781
  706TMC3    C710445   1.374   1.994  16.334  0.1581  0.2307 -0.0378
  706TMC3    C810446   1.210   2.337  16.042  0.3507 -0.0004 -0.4312
  706TMC3    O110447   1.463   1.906  16.340 -0.7986 -0.6814 -0.1135
  706TMC3    O210448   1.113   2.352  15.965  0.2202  0.0023 -0.3525
  707TMC3    C110449   1.906   0.508   1.503  0.3227  0.4075  0.1868
  707TMC3    C210450   1.925   0.383   1.454  0.4027  0.2296  0.9783
  707TMC3    C310451   1.829   0.328   1.371 -0.3867  0.1190 -0.1408
  707TMC3    C410452   1.794   0.587   1.477  0.2941 -0.1894 -0.4619
  707TMC3    C510453   1.699   0.524   1.392 -0.2020 -0.1867  0.3539
  707TMC3    C610454   1.715   0.397   1.342  0.1784  0.6686 -0.2468
  707TMC3     C10455   2.028   0.568   1.564 -0.7310  0.2200  0.4160
  707TMC3     O10456   2.103   0.491   1.617 -0.1279  0.3001 -0.2525
  707TMC3     H10457   2.010   0.323   1.486  0.1107 -1.4306 -1.2907
  707TMC3    H110458   1.768   0.685   1.515  2.4121  0.2355 -0.1221
  707TMC3    H210459   1.643   0.349   1.277  0.6814  0.6022 -0.7590
  707TMC3    C710460   1.601   0.614   1.332 -0.2295 -0.0096  0.6932
  707TMC3    C810461   1.872   0.229   1.274  0.5291 -0.4116 -0.2603
  707TMC3    O110462   1.579   0.720   1.389  0.1360  0.3712 -0.0311
  707TMC3    O210463   1.796   0.205   1.182  0.6827  0.4223  0.0124
  708MPD2     C10464   4.212   0.937  13.153 -0.5149 -0.4294  0.4902
  708MPD2    C110465   4.144   1.055  13.188 -0.7099  0.4550 -0.0075
  708MPD2    C210466   4.030   1.058  13.271  0.9313  0.1559  0.9103
  708MPD2    C310467   4.004   0.940  13.339  0.2946  0.4023  0.2423
  708MPD2    C410468   4.072   0.819  13.304  0.1832  0.5608  0.4770
  708MPD2    C510469   4.165   0.815  13.203 -0.1021  0.1476 -0.3755
  708MPD2     H10470   3.981   1.146  13.312 -0.3596 -0.7123  1.2057
  708MPD2    H110471   4.041   0.726  13.350  2.7034 -0.2186  0.5781
  708MPD2    H210472   4.293   0.941  13.080  0.4289 -0.6088  1.5264
  708MPD2    H310473   4.216   0.724  13.173  0.7239  1.2762 -2.4787
  708MPD2     N10474   3.908   0.946  13.438  0.1315  0.4239  0.3386
  708MPD2    H510475   3.864   1.036  13.456  1.5048  0.8754  1.4554
  708MPD2    N110476   4.187   1.176  13.132 -0.3805 -0.1659 -0.0878
  708MPD2    H710477   4.254   1.175  13.056 -0.5871 -0.3727 -0.2639
  709TMC3    C110478   4.228   1.402  13.102  0.0880  0.4258 -0.3265
  709TMC3    C210479   4.208   1.415  12.966  1.1274  0.3464  0.0082
  709TMC3    C310480   4.141   1.529  12.920  0.4646  0.4500  0.5697
  709TMC3    C410481   4.232   1.516  13.175 -0.1156  0.1396  0.1821
  709TMC3    C510482   4.177   1.637  13.125 -0.0003 -0.4644  0.3945
  709TMC3    C610483   4.134   1.646  12.995  0.7711  0.6778  0.2084
  709TMC3     C10484   4.168   1.302  13.179  0.0786  0.3749 -0.0548
  709TMC3     O10485   4.104   1.342  13.274 -0.3784 -0.1650  0.5188
  709TMC3     H10486   4.186   1.320  12.919 -0.1365  0.4562  0.3738
  709TMC3    H110487   4.263   1.534  13.277  1.0570 -0.5213 -0.0588
  709TMC3    H210488   4.075   1.733  12.967  0.9648  0.5380 -0.6301
  709TMC3    C710489   4.087   1.692  13.222  0.5636 -0.0161 -0.6872
  709TMC3    C810490   4.097   1.544  12.782 -0.3014 -0.1523  1.2272
  709TMC3    O110491   4.066   1.806  13.231  0.2188  0.0980 -0.1609
  709TMC3    O210492   4.083   1.659  12.740 -0.0460 -0.0374 -0.2958
  710TMC3    C110493   0.745   2.191   0.463  0.1581  0.0781  0.4604
  710TMC3    C210494   0.796   2.122   0.356 -0.1413 -0.2480 -0.5831
  710TMC3    C310495   0.752   1.993   0.337  0.1607  0.0967 -0.6543
  710TMC3    C410496   0.636   2.137   0.530  0.5404  0.0683  0.9465
  710TMC3    C510497   0.589   2.013   0.504  0.4486 -0.9398 -0.7378
  710TMC3    C610498   0.644   1.939   0.405 -0.5750  0.1851  0.5529
  710TMC3     C10499   0.753   2.334   0.467 -0.4943  0.3928 -1.0705
  710TMC3     O10500   0.779   2.398   0.362  0.2408  0.3629  0.0646
  710TMC3     H10501   0.874   2.174   0.301 -0.3002  1.1889  0.5431
  710TMC3    H110502   0.568   2.210   0.572 -0.4519  0.4597 -1.3100
  710TMC3    H210503   0.609   1.837   0.393  0.6540 -0.1850  0.1541
  710TMC3    C710504   0.492   1.951   0.595 -0.1355 -0.2085  0.4362
  710TMC3    C810505   0.811   1.913   0.233 -0.8794  0.2247  0.9160
  710TMC3    O110506   0.459   1.836   0.575  0.1799 -0.2176  0.1690
  710TMC3    O210507   0.747   1.816   0.193 -0.9304 -0.1108  0.6261
  711TMC3    C110508   4.509   2.930  15.179  0.0777 -0.1505 -0.6874
  711TMC3    C210509   4.532   2.893  15.306  0.0562 -0.0294 -0.3212
  711TMC3    C310510   4.618   2.964  15.379  0.4663  0.0645 -0.0745
  711TMC3    C410511   4.560   3.046  15.128  0.3059 -0.5017  0.1113
  711TMC3    C510512   4.640   3.122  15.210 -0.1277  0.0145  0.0375
  711TMC3    C610513   4.682   3.068  15.324 -0.2004 -0.1111  0.0355
  711TMC3     C10514   4.476   2.822  15.092  0.2355 -0.0289 -0.0495
  711TMC3     O10515   4.401   2.735  15.142 -0.6005  0.0401  0.1749
  711TMC3     H10516   4.501   2.799  15.350 -2.9459 -0.6149 -3.7170
  711TMC3    H110517   4.562   3.060  15.021  0.6054  0.7206  0.2778
  711TMC3    H210518   0.038   3.129  15.369  0.9192 -0.8790 -0.8477
  711TMC3    C710519   0.021   3.194  15.146  0.3939  0.3005  0.8731
  711TMC3    C810520   4.658   2.903  15.507 -0.8661  0.5655  0.5600
  711TMC3    O110521   0.069   3.160  15.040 -0.1469  0.3117  0.2125
  711TMC3    O210522   4.573   2.840  15.569 -0.1026  0.6397  0.3089
  712MPD2     C10523   1.551   3.852  13.353 -0.1674  0.7509 -0.0842
  712MPD2    C110524   1.434   3.894  13.411 -0.2169  0.1813 -0.9837
  712MPD2    C210525   1.438   3.963  13.530 -0.0256 -0.2443 -0.1963
  712MPD2    C310526   1.559   3.985  13.598 -0.6792  1.0106  0.8378
  712MPD2    C410527   1.674   3.939  13.543  0.0178  0.0795 -0.5949
  712MPD2    C510528   1.671   3.864  13.428  0.1614 -0.4163 -0.4164
  712MPD2     H10529   1.345   4.008  13.565 -0.5207 -2.1667  0.9616
  712MPD2    H110530   1.777   3.955  13.572 -0.0584 -0.0246 -0.2749
  712MPD2    H210531   1.558   3.801  13.258  1.7065  0.0966  0.4099
  712MPD2    H310532   1.766   3.838  13.384  0.6985 -0.1366  0.5725
  712MPD2     N10533   1.565   4.060  13.718 -0.1957  0.5923 -0.5403
  712MPD2    H510534   1.658   4.071  13.759 -1.0345 -1.1916  1.8416
  712MPD2    N110535   1.308   3.887  13.344  0.4087  0.1726  0.0133
  712MPD2    H710536   1.227   3.934  13.383  1.6937  0.4327  2.3606
  713TMC3    C110537   1.499   4.224  13.873  0.9888  0.4738 -0.1293
  713TMC3    C210538   1.623   4.283  13.862 -0.3209 -0.0516  0.0054
  713TMC3    C310539   1.658   4.401  13.933 -0.4141  0.4245  0.4211
  713TMC3    C410540   1.403   4.294  13.935 -0.5181  0.1818  0.3649
  713TMC3    C510541   1.428   4.414  13.992  0.3401  0.6698  0.7460
  713TMC3    C610542   1.557   4.460  14.005 -0.1168 -0.0150  0.7221
  713TMC3     C10543   1.460   4.121  13.775 -0.3976  0.1612 -0.2026
  713TMC3     O10544   1.335   4.105  13.768 -0.2099 -0.4282  0.3279
  713TMC3     H10545   1.695   4.245  13.792 -2.2468 -1.3683 -1.2591
  713TMC3    H110546   1.306   4.249  13.955 -0.4943  0.4279  1.0612
  713TMC3    H210547   1.559   4.556  14.056  0.0555  1.0034 -1.1839
  713TMC3    C710548   1.329   4.494  14.068 -0.0833  0.1831  0.0399
  713TMC3    C810549   1.714   4.500  13.853 -0.0508  0.0816  0.2608
  713TMC3    O110550   1.358   4.527  14.180 -0.0339  0.3439  0.4643
  713TMC3    O210551   1.642   4.598  13.833 -0.1053 -0.0704  0.5385
  714MPD2     C10552   3.126   2.136   2.195  0.1940  0.2971 -0.3265
  714MPD2    C110553   3.129   2.096   2.069  0.2429  0.5181 -0.0962
  714MPD2    C210554   3.015   2.086   1.998  0.6187  0.1622 -1.1423
  714MPD2    C310555   2.893   2.111   2.064  0.6814 -0.0466 -0.5086
  714MPD2    C410556   2.895   2.153   2.194  0.3985 -0.7934 -0.0758
  714MPD2    C510557   3.013   2.163   2.259  0.7653 -0.1070 -0.9098
  714MPD2     H10558   3.022   2.072   1.891 -2.3331 -1.4806 -1.1061
  714MPD2    H110559   2.803   2.180   2.245  0.7450 -0.3627  0.3167
  714MPD2    H210560   3.218   2.137   2.253  0.3597  0.7627 -0.5976
  714MPD2    H310561   3.018   2.179   2.366 -1.4052 -0.0866 -0.8093
  714MPD2     N10562   2.768   2.094   1.995  0.0477 -0.8691 -0.6330
  714MPD2    H510563   2.771   2.067   1.897 -0.7206 -1.7415 -0.4119
  714MPD2    N110564   3.261   2.062   2.022  0.1525  0.3656  0.4567
  714MPD2    H710565   3.334   2.056   2.093 -0.3670  3.0384  1.2086
  715TMC3    C110566   3.425   1.936   1.901  0.0669 -0.1026  0.0587
  715TMC3    C210567   3.437   1.822   1.827 -0.1000 -0.4276 -0.9360
  715TMC3    C310568   3.562   1.764   1.819 -0.5587 -0.4202  0.2389
  715TMC3    C410569   3.527   1.996   1.966 -0.2335  0.0200 -0.2339
  715TMC3    C510570   3.643   1.925   1.972 -0.6230 -0.4118 -0.1082
  715TMC3    C610571   3.660   1.807   1.902 -0.0912  0.3644 -0.3864
  715TMC3     C10572   3.288   1.991   1.903 -0.9131 -0.0037 -0.9225
  715TMC3     O10573   3.207   1.939   1.825  0.3457  0.5630 -0.4405
  715TMC3     H10574   3.369   1.795   1.746 -0.6324  0.2964 -0.7291
  715TMC3    H110575   3.510   2.091   2.017 -3.3376  0.0848 -1.4069
  715TMC3    H210576   3.757   1.760   1.915 -0.0995  0.0336 -1.4837
  715TMC3    C710577   3.764   1.976   2.039 -0.1363  0.3640 -0.3864
  715TMC3    C810578   3.579   1.660   1.719 -0.0759 -0.5905 -0.1450
  715TMC3    O110579   3.870   1.923   2.008  0.3144  0.0919 -0.3485
  715TMC3    O210580   3.478   1.616   1.669 -0.1968 -0.4377  0.2647
  716MPD2     C10581   3.493   1.409   9.639  0.0609  0.6852 -0.3768
  716MPD2    C110582   3.399   1.389   9.543 -0.4601  0.2500 -0.1971
  716MPD2    C210583   3.433   1.286   9.455  0.2844  0.1108 -0.1017
  716MPD2    C310584   3.551   1.210   9.472  0.4717  0.4050  0.0701
  716MPD2    C410585   3.640   1.233   9.570  0.4881 -0.0215 -0.0682
  716MPD2    C510586   3.605   1.326   9.663 -0.3990  0.1007 -0.2929
  716MPD2     H10587   3.369   1.267   9.369 -0.4356  0.5538  0.3404
  716MPD2    H110588   3.728   1.173   9.587  0.5990 -0.6338 -2.7284
  716MPD2    H210589   3.480   1.489   9.712  0.4811  1.9513 -1.7017
  716MPD2    H310590   3.671   1.331   9.748  0.2118  2.0090 -0.8788
  716MPD2     N10591   3.573   1.111   9.376  0.0080  0.6823 -0.1491
  716MPD2    H510592   3.504   1.106   9.302 -0.1051 -0.2357  0.0175
  716MPD2    N110593   3.289   1.480   9.527 -0.8307 -0.2314  0.3606
  716MPD2    H710594   3.275   1.540   9.608 -2.5191  1.2720 -1.0469
  717TMC3    C110595   3.667   0.966   9.234  1.1765  1.0036  0.0645
  717TMC3    C210596   3.544   0.970   9.181  0.0399 -0.9100  0.2190
  717TMC3    C310597   3.528   0.995   9.051 -0.5848 -0.3528  1.2621
  717TMC3    C410598   3.774   0.984   9.148 -0.4457 -0.2655  0.2347
  717TMC3    C510599   3.748   0.999   9.016 -0.4577  0.2646 -0.2802
  717TMC3    C610600   3.627   1.007   8.962  0.0107  0.2321 -0.6512
  717TMC3     C10601   3.684   1.034   9.357  0.1112  0.2317 -0.1587
  717TMC3     O10602   3.794   1.019   9.410  0.8763  0.4029 -0.5682
  717TMC3     H10603   3.459   0.951   9.245 -0.9365  2.2727 -0.1187
  717TMC3    H110604   3.873   0.996   9.190  0.3182 -1.1903 -1.3240
  717TMC3    H210605   3.612   1.026   8.856 -0.1121 -1.1265 -0.8828
  717TMC3    C710606   3.860   0.996   8.925  0.1322 -0.6492 -0.7608
  717TMC3    C810607   3.395   1.049   9.017 -0.1769  0.5976  0.3179
  717TMC3    O110608   3.833   1.051   8.817 -0.3151  0.0088 -0.3229
  717TMC3    O210609   3.333   1.109   9.103  0.1849 -0.0926  0.1048
  718MPD2     C10610   3.355   4.463  12.635  0.0637  0.1451 -0.7000
  718MPD2    C110611   3.288   4.568  12.686  0.2824 -0.1454  0.1278
  718MPD2    C210612   3.153   4.553  12.715  0.2471  0.2645  0.5015
  718MPD2    C310613   3.084   4.438  12.688  0.4462 -0.3638 -0.2686
  718MPD2    C410614   3.144   4.329  12.628  0.7466  0.6940 -0.4265
  718MPD2    C510615   3.275   4.355  12.597 -0.0768 -0.4482  0.7358
  718MPD2     H10616   3.095   4.641  12.738  0.9799  0.9153 -0.1362
  718MPD2    H110617   3.096   4.239  12.593  0.2602  0.3499  1.1101
  718MPD2    H210618   3.460   4.455  12.609  0.5732  1.8966  0.8171
  718MPD2    H310619   3.326   4.282  12.535  1.2373  0.9224  0.2027
  718MPD2     N10620   2.944   4.450  12.709 -0.2656 -0.0017  0.2077
  718MPD2    H510621   2.916   4.544  12.735 -1.9344 -0.2291 -0.7389
  718MPD2    N110622   3.362   4.691  12.700  0.4418 -0.0576  0.4521
  718MPD2    H710623   3.459   4.687  12.670 -0.0705 -0.5545 -1.1033
  719TMC3    C110624   3.400   0.210  12.706 -0.1063 -0.1775  0.0217
  719TMC3    C210625   3.322   0.322  12.689  0.2770  0.4216  0.3216
  719TMC3    C310626   3.332   0.401  12.578 -0.1772  0.3766  0.5136
  719TMC3    C410627   3.503   0.196  12.616 -0.5735  0.1139 -0.8157
  719TMC3    C510628   3.534   0.295  12.526  0.3807  0.0477  0.3283
  719TMC3    C610629   3.445   0.393  12.499  0.6068 -0.3053  0.5652
  719TMC3     C10630   3.308   0.093  12.721 -1.0680  0.2189 -0.3114
  719TMC3     O10631   3.189   0.121  12.747  0.2345  0.5580 -0.6830
  719TMC3     H10632   3.240   0.342  12.756  2.0724  0.2967  2.5794
  719TMC3    H110633   3.555   0.101  12.620 -1.1102 -0.1636 -0.3601
  719TMC3    H210634   3.450   0.441  12.402  1.0191  0.2947  0.8874
  719TMC3    C710635   3.648   0.288  12.445 -0.7588  0.4696  0.4680
  719TMC3    C810636   3.210   0.434  12.505  1.0470  0.1345 -0.1021
  719TMC3    O110637   3.664   0.389  12.379  0.2003 -0.2510  0.2759
  719TMC3    O210638   3.230   0.509  12.411  0.1728 -0.5255 -0.8458
  720MPD2     C10639   1.161   1.395  13.986  0.0585  0.2468  1.0597
  720MPD2    C110640   1.259   1.461  13.919  0.0472 -0.0140 -0.3721
  720MPD2    C210641   1.391   1.455  13.963 -0.3098  0.5338 -0.8505
  720MPD2    C310642   1.424   1.372  14.072  0.7412 -0.3394  0.7912
  720MPD2    C410643   1.320   1.307  14.146  0.2213  0.2248 -0.2815
  720MPD2    C510644   1.188   1.320  14.099 -0.3556 -1.4158 -0.2697
  720MPD2     H10645   1.462   1.516  13.910 -0.5110  2.1757  0.7598
  720MPD2    H110646   1.330   1.243  14.233 -1.0657  1.4664  0.7817
  720MPD2    H210647   1.060   1.394  13.948  1.2719  2.7378 -2.1986
  720MPD2    H310648   1.109   1.276  14.159  1.1416  0.1705  2.9094
  720MPD2     N10649   1.553   1.365  14.117  0.5110 -0.4123 -0.5278
  720MPD2    H510650   1.617   1.430  14.071  1.5092 -0.3970  0.8866
  720MPD2    N110651   1.227   1.537  13.800  0.0590  0.3585  0.0656
  720MPD2    H710652   1.304   1.587  13.758  0.1680 -0.0919 -0.2661
  721TMC3    C110653   1.747   1.301  14.233  0.3228 -0.5807  0.1007
  721TMC3    C210654   1.804   1.238  14.341 -0.0111 -0.7243  0.6102
  721TMC3    C310655   1.941   1.225  14.331 -0.2568 -0.4439  0.1902
  721TMC3    C410656   1.827   1.348  14.129  0.5179 -0.0549 -0.4724
  721TMC3    C510657   1.963   1.330  14.130 -0.0295 -0.1474  0.0623
  721TMC3    C610658   2.028   1.269  14.235 -0.1854 -0.1556 -0.3234
  721TMC3     C10659   1.605   1.292  14.216  0.9322  0.1736  0.1573
  721TMC3     O10660   1.545   1.236  14.305  0.5803 -0.0173  0.8612
  721TMC3     H10661   1.737   1.192  14.413  1.0494 -3.2925 -0.0446
  721TMC3    H110662   1.795   1.407  14.044  1.7514 -0.8239 -1.4627
  721TMC3    H210663   2.136   1.261  14.229 -0.2299 -0.7215 -0.4001
  721TMC3    C710664   2.052   1.364  14.026 -0.0449 -0.2729 -0.6145
  721TMC3    C810665   2.002   1.158  14.445 -0.1410  0.2286  0.4186
  721TMC3    O110666   2.144   1.287  13.993 -0.0480  0.1040  0.3302
  721TMC3    O210667   2.120   1.121  14.426 -0.6043  0.3319 -0.4296
  722MPD2     C10668   0.350   4.550  13.427  0.5122 -0.4893 -0.1778
  722MPD2    C110669   0.331   4.685  13.429  0.2088  0.1368  0.2777
  722MPD2    C210670   0.213   0.010  13.365 -0.5851  0.0141 -0.4323
  722MPD2    C310671   0.124   4.648  13.308 -0.0253  0.0599 -0.4128
  722MPD2    C410672   0.149   4.513  13.297  0.9258 -0.4817  0.1565
  722MPD2    C510673   0.267   4.468  13.351  0.7018  0.2938 -1.1975
  722MPD2     H10674   0.180   0.113  13.356  2.2099  1.0097  0.8395
  722MPD2    H110675   0.088   4.443  13.241 -1.4063  0.0248  2.0647
  722MPD2    H210676   0.440   4.506  13.468  1.2576  0.4184 -0.8243
  722MPD2    H310677   0.287   4.361  13.349  0.1089  0.1612  0.1734
  722MPD2     N10678   0.005   4.701  13.257 -0.2398  0.4459 -0.2755
  722MPD2    H510679   4.717   0.079  13.237 -2.0749 -0.6050 -4.6221
  722MPD2    N110680   0.414   0.057  13.478 -0.3964 -0.7773 -0.6235
  722MPD2    H710681   0.403   0.157  13.466  0.0293 -1.0393 -3.2655
  723TMC3    C110682   4.520   0.004  13.167 -0.8548 -0.7724  0.3045
  723TMC3    C210683   4.419   4.681  13.088 -0.6019 -0.5425  0.9090
  723TMC3    C310684   4.315   0.036  13.035 -0.3247  0.0944 -0.8674
  723TMC3    C410685   4.522   0.139  13.195  0.3651 -0.0009  0.3016
  723TMC3    C510686   4.423   0.220  13.140 -0.1748 -0.5683  0.4545
  723TMC3    C610687   4.316   0.167  13.062 -0.4834  0.0064  0.1123
  723TMC3     C10688   4.622   4.630  13.208  0.5156 -0.1036  0.1915
  723TMC3     O10689   4.600   4.512  13.195 -0.3775 -0.1434  0.4526
  723TMC3     H10690   4.402   4.574  13.083  1.2189 -0.6999 -1.7657
  723TMC3    H110691   4.600   0.174  13.262 -0.8565  1.5007  0.9260
  723TMC3    H210692   4.249   0.236  13.013 -0.9916 -1.6449 -1.5133
  723TMC3    C710693   4.420   0.360  13.159 -0.7505  0.3040 -0.3171
  723TMC3    C810694   4.213   4.694  12.952  0.3217  0.3581  0.9686
  723TMC3    O110695   4.319   0.423  13.141 -0.1636  0.0247  0.0327
  723TMC3    O210696   4.099   0.021  12.948  0.6948  0.6024 -0.7116
  724TMC3    C110697   0.531   3.940   9.152 -0.3528  0.1599 -0.3232
  724TMC3    C210698   0.513   4.071   9.118 -0.2202  0.1914  0.2043
  724TMC3    C310699   0.606   4.156   9.169 -0.2792 -0.3590 -0.4457
  724TMC3    C410700   0.647   3.892   9.213  0.3844 -0.1520  0.1316
  724TMC3    C510701   0.741   3.981   9.254 -0.3776 -0.1343 -0.7760
  724TMC3    C610702   0.720   4.115   9.234 -0.1245 -1.1424  0.0136
  724TMC3     C10703   0.417   3.844   9.153 -0.0604  0.5043 -0.0751
  724TMC3     O10704   0.430   3.733   9.204  0.3989  0.4146 -0.5376
  724TMC3     H10705   0.420   4.114   9.081 -0.1404 -2.6450 -3.2793
  724TMC3    H110706   0.659   3.789   9.245 -2.1348 -0.7270 -0.7573
  724TMC3    H210707   0.768   4.184   9.302 -1.0512  0.5396 -1.0565
  724TMC3    C710708   0.851   3.940   9.332 -0.0250  0.3223 -0.1921
  724TMC3    C810709   0.561   4.292   9.185  0.5676 -0.0118 -0.1765
  724TMC3    O110710   0.854   3.826   9.375 -0.1189  0.6765  0.1960
  724TMC3    O210711   0.445   4.316   9.160  0.4455 -0.1654 -0.2402
  725TMC3    C110712   1.969   1.834  13.009 -0.2971 -0.0135 -0.1127
  725TMC3    C210713   1.881   1.895  12.913  1.1394  0.2291 -0.5616
  725TMC3    C310714   1.804   1.812  12.845  0.3263  0.2138 -0.0062
  725TMC3    C410715   1.965   1.697  13.040  0.4289 -0.1052  0.4438
  725TMC3    C510716   1.876   1.625  12.974  0.3186 -0.1463  0.3356
  725TMC3    C610717   1.794   1.679  12.878  0.8315 -0.1911 -0.5794
  725TMC3     C10718   2.081   1.916  13.049  0.4371 -0.0865 -0.1299
  725TMC3     O10719   2.072   2.039  13.025  0.0796  0.7848  0.3954
  725TMC3     H10720   1.880   2.000  12.888  1.6084  0.3386 -0.1262
  725TMC3    H110721   2.034   1.650  13.109 -0.5322 -0.4162  1.1940
  725TMC3    H210722   1.737   1.617  12.809  3.0029 -2.2209 -0.5919
  725TMC3    C710723   1.874   1.482  12.994 -0.4840  0.6941 -0.2988
  725TMC3    C810724   1.688   1.867  12.773 -1.1393 -0.2801  0.1631
  725TMC3    O110725   1.928   1.439  13.097 -0.1880  0.3968 -0.0105
  725TMC3    O210726   1.601   1.787  12.750  0.3586 -0.2285  0.0519
  726MPD2     C10727   0.700   3.266  10.626  0.3882  0.1708 -0.6258
  726MPD2    C110728   0.574   3.326  10.597 -0.1502  0.1976 -0.2064
  726MPD2    C210729   0.467   3.244  10.615  0.2137 -0.3665  0.0151
  726MPD2    C310730   0.478   3.107  10.651 -0.1070 -0.2476  0.0399
  726MPD2    C410731   0.603   3.059  10.678 -0.9977  0.5785  0.3230
  726MPD2    C510732   0.708   3.140  10.670 -0.5754  0.1541 -0.6435
  726MPD2     H10733   0.372   3.294  10.599  0.0565 -0.3075  1.1400
  726MPD2    H110734   0.624   2.955  10.700 -1.6312  0.7960  1.9510
  726MPD2    H210735   0.797   3.311  10.610  0.9818 -0.8988  0.0304
  726MPD2    H310736   0.808   3.099  10.685 -1.4502 -1.6277  0.3070
  726MPD2     N10737   0.365   3.017  10.658  0.2548  0.2273  0.6450
  726MPD2    H510738   0.387   2.924  10.691  0.5533  0.6084  1.5128
  726MPD2    N110739   0.545   3.453  10.548  0.4747 -0.0194 -0.2218
  726MPD2    H710740   0.450   3.471  10.518  1.3062  4.1179 -0.4753
  727TMC3    C110741   0.580   3.656  10.449 -0.3073  0.4195  0.0731
  727TMC3    C210742   0.669   3.744  10.400 -0.1246 -0.6855  0.4537
  727TMC3    C310743   0.622   3.847  10.327  0.3497  0.1223  0.2383
  727TMC3    C410744   0.440   3.667  10.438 -0.8334  0.0454  0.0041
  727TMC3    C510745   0.399   3.771  10.355 -1.0231  0.5796 -0.2902
  727TMC3    C610746   0.488   3.848  10.284  0.5103 -0.5598 -0.2159
  727TMC3     C10747   0.643   3.540  10.517  0.5998  0.1130 -0.0815
  727TMC3     O10748   0.760   3.546  10.539  0.3239  0.3233 -0.3291
  727TMC3     H10749   0.774   3.738  10.426 -0.0420 -1.5176 -0.0636
  727TMC3    H110750   0.370   3.602  10.489 -0.8981  0.5928  0.6141
  727TMC3    H210751   0.457   3.923  10.213 -0.9175 -1.1282 -0.1798
  727TMC3    C710752   0.258   3.790  10.320 -0.1733 -0.4994  0.2835
  727TMC3    C810753   0.720   3.918  10.249  0.5729  0.0354 -0.7757
  727TMC3    O110754   0.181   3.698  10.350  0.0434  0.2078  0.2084
  727TMC3    O210755   0.827   3.861  10.244 -0.3756 -0.1913  0.1893
  728TMC3    C110756   3.792   1.803  15.739  0.0821  0.6234 -0.8908
  728TMC3    C210757   3.903   1.863  15.784  0.0136  0.3370 -0.0343
  728TMC3    C310758   3.945   1.977  15.719  0.6673 -0.5190 -0.6660
  728TMC3    C410759   3.717   1.856  15.641 -0.5412  0.0541 -0.0394
  728TMC3    C510760   3.758   1.970  15.577 -0.3397  0.0792 -0.4028
  728TMC3    C610761   3.876   2.029  15.613  0.0895  0.3637  0.4766
  728TMC3     C10762   3.739   1.691  15.814  0.5339 -0.1695 -0.7697
  728TMC3     O10763   3.774   1.677  15.931  0.3048  0.1372  0.5072
  728TMC3     H10764   3.958   1.826  15.870  1.2861  0.3967 -0.8387
  728TMC3    H110765   3.624   1.805  15.618 -1.1756  1.6560 -1.0231
  728TMC3    H210766   3.905   2.126  15.573  1.0721  0.0134  0.3576
  728TMC3    C710767   3.679   2.012  15.464  0.5885  0.1065 -0.3780
  728TMC3    C810768   4.034   2.067  15.779  0.2623 -0.0227  0.7165
  728TMC3    O110769   3.557   1.993  15.469  0.0723  0.0823 -0.4665
  728TMC3    O210770   4.103   2.140  15.710  0.7891  0.0465  0.3151
  729MPD2     C10771   1.939   2.190  16.942 -0.0941 -0.3023  0.1365
  729MPD2    C110772   1.904   2.319  16.906 -0.1090 -0.0728 -0.0015
  729MPD2    C210773   1.843   2.403  17.001  0.3544 -0.3316 -0.1863
  729MPD2    C310774   1.846   2.364  17.128  0.0093  0.1766  0.5585
  729MPD2    C410775   1.893   2.238  17.164 -0.2372  0.4754 -1.0862
  729MPD2    C510776   1.927   2.144  17.071  0.2110  1.0786 -0.2487
  729MPD2     H10777   1.791   2.496  16.981  1.9924  0.4538 -0.7781
  729MPD2    H110778   1.882   2.205  17.266  2.1388 -0.4638 -1.1375
  729MPD2    H210779   1.971   2.114  16.872  1.0216 -2.0091  2.4736
  729MPD2    H310780   1.954   2.041  17.093 -0.1850  1.0404  0.0618
  729MPD2     N10781   1.781   2.444  17.226 -0.0385  0.3131 -0.2119
  729MPD2    H510782   1.752   2.395  17.310 -0.5090  0.0191 -0.5467
  729MPD2    N110783   1.916   2.348  16.770  0.2184 -0.1288  0.4725
  729MPD2    H710784   1.958   2.286  16.701 -0.0709 -0.9057  0.9918
  730TMC3    C110785   1.707   2.623  17.342 -0.5746 -0.4287  0.2815
  730TMC3    C210786   1.732   2.742  17.393  0.0600  0.1264 -0.5095
  730TMC3    C310787   1.649   2.778  17.494 -0.4747  0.2568 -0.5602
  730TMC3    C410788   1.580   2.562  17.363  0.4694  0.1109 -0.9381
  730TMC3    C510789   1.487   2.628  17.438 -0.3319 -0.0606  1.1444
  730TMC3    C610790   1.525   2.728  17.517  0.0059 -0.2522  0.2045
  730TMC3     C10791   1.761   2.579  17.215 -0.0469 -0.5187  0.4094
  730TMC3     O10792   1.824   2.660  17.145  0.4275 -0.1745  0.3732
  730TMC3     H10793   1.824   2.799  17.379  0.1418  0.2729  0.6576
  730TMC3    H110794   1.540   2.490  17.292 -0.4764  0.8318 -1.1331
  730TMC3    H210795   1.444   2.781  17.567  0.0192 -0.8090  0.8221
  730TMC3    C710796   1.387   2.687  17.348 -0.0579 -0.0492  0.0868
  730TMC3    C810797   1.658   2.916  17.532  0.2238  0.3367 -0.6886
  730TMC3    O110798   1.419   2.680  17.227 -0.5625 -0.1763  0.5370
  730TMC3    O210799   1.729   2.985  17.461  0.2675  0.0218  0.1563
  731MPD2     C10800   1.456   1.909  11.859 -0.6228  0.2252  0.3748
  731MPD2    C110801   1.375   1.799  11.836  0.0492  0.1814  0.1035
  731MPD2    C210802   1.277   1.773  11.931  0.4418 -0.8400 -0.1355
  731MPD2    C310803   1.263   1.851  12.040 -0.3989 -0.5306 -0.1358
  731MPD2    C410804   1.353   1.950  12.063  0.0740  0.0020  0.1533
  731MPD2    C510805   1.445   1.980  11.969 -0.3155  1.1160  0.0765
  731MPD2     H10806   1.210   1.688  11.918  1.6542 -1.8681  0.3785
  731MPD2    H110807   1.354   2.001  12.159 -1.8790 -0.7174  0.5582
  731MPD2    H210808   1.540   1.935  11.795  1.7439 -1.4668  2.7536
  731MPD2    H310809   1.507   2.069  11.975  0.1794  0.8552 -1.1514
  731MPD2     N10810   1.174   1.803  12.136  0.1530  0.0970 -0.5318
  731MPD2    H510811   1.117   1.722  12.115  3.1166 -2.5863  1.7713
  731MPD2    N110812   1.388   1.709  11.720  0.4313  0.0452 -0.8060
  731MPD2    H710813   1.339   1.621  11.734  2.2071 -1.0966 -1.7571
  732TMC3    C110814   1.497   1.597  11.536  0.7418  0.2484  0.0311
  732TMC3    C210815   1.415   1.487  11.550  0.1654  0.7638  0.8914
  732TMC3    C310816   1.455   1.375  11.475  0.2322  0.5009 -0.6496
  732TMC3    C410817   1.611   1.586  11.469 -0.1351  0.9499 -0.0208
  732TMC3    C510818   1.647   1.472  11.402  0.7154 -0.2683 -0.6396
  732TMC3    C610819   1.570   1.363  11.413 -0.9693  0.6954 -0.7401
  732TMC3     C10820   1.483   1.721  11.624  0.8722 -0.2234 -0.0054
  732TMC3     O10821   1.544   1.820  11.589  0.4758 -0.3137 -0.4367
  732TMC3     H10822   1.312   1.487  11.584  0.1690  0.2176  0.8957
  732TMC3    H110823   1.685   1.665  11.476  2.1170 -1.1599 -0.0943
  732TMC3    H210824   1.579   1.277  11.347  0.4342  1.4989 -1.5904
  732TMC3    C710825   1.778   1.423  11.438 -0.1517 -1.5394  0.2730
  732TMC3    C810826   1.384   1.253  11.500  0.3884  0.0030 -1.0072
  732TMC3    O110827   1.872   1.470  11.380  0.3614 -0.4207 -0.5743
  732TMC3    O210828   1.418   1.154  11.437  0.1961 -0.2227 -0.0067
  733TMC3    C110829   2.500   4.453  12.686  0.2310 -0.1108 -0.8274
  733TMC3    C210830   2.617   4.393  12.714 -0.7070 -0.3399  0.3714
  733TMC3    C310831   2.726   4.423  12.639  0.7633 -0.2246 -0.4426
  733TMC3    C410832   2.495   4.554  12.599  0.4666 -0.8795  0.4692
  733TMC3    C510833   2.611   4.590  12.533 -0.2448  0.4247 -0.2369
  733TMC3    C610834   2.729   4.524  12.550 -0.1318 -0.5273  0.2077
  733TMC3     C10835   2.376   4.428  12.755  0.0600  0.0200  0.0871
  733TMC3     O10836   2.286   4.512  12.742  0.4556  0.2321  0.5852
  733TMC3     H10837   2.622   4.336  12.806  2.4970 -0.5392  0.0722
  733TMC3    H110838   2.399   4.601  12.580  1.4444  0.6235 -0.7241
  733TMC3    H210839   2.820   4.542  12.495 -1.0060  3.1953 -0.0020
  733TMC3    C710840   2.619   0.004  12.478 -0.0068 -0.0736  0.8735
  733TMC3    C810841   2.852   4.362  12.666  0.2587  0.1981  0.7543
  733TMC3    O110842   2.535   0.054  12.402  0.0946 -0.0084  0.1407
  733TMC3    O210843   2.861   4.241  12.644  0.3342 -0.0830  0.6708
  734MPD2     C10844   0.378   2.478  12.078 -0.4141  0.3660 -0.2768
  734MPD2    C110845   0.338   2.353  12.055 -0.5228 -0.5403  0.3094
  734MPD2    C210846   0.392   2.288  11.942  0.5227 -0.1709 -0.2654
  734MPD2    C310847   0.490   2.348  11.863  0.4398  0.0239 -0.1571
  734MPD2    C410848   0.538   2.471  11.893  0.4441  0.0206 -0.5671
  734MPD2    C510849   0.478   2.526  12.003  0.5169 -0.8558 -0.0941
  734MPD2     H10850   0.352   2.192  11.910 -1.5398  0.5606  0.1324
  734MPD2    H110851   0.599   2.530  11.825  2.6141 -2.1722 -0.5210
  734MPD2    H210852   0.344   2.538  12.162 -1.7792 -2.0252  0.8555
  734MPD2    H310853   0.500   2.632  12.012  1.4745 -1.1321  0.8102
  734MPD2     N10854   0.525   2.282  11.746 -0.2040  0.1911 -0.4147
  734MPD2    H510855   0.498   2.185  11.749 -1.1859  0.4109 -2.1152
  734MPD2    N110856   0.239   2.292  12.132  0.1809 -0.4152 -0.5259
  734MPD2    H710857   0.222   2.324  12.227 -0.5123  0.1780 -0.8482
  735TMC3    C110858   0.052   2.148  12.170 -0.1663 -0.4764 -0.0573
  735TMC3    C210859   4.688   2.075  12.093  0.3844 -0.7426 -0.6972
  735TMC3    C310860   4.641   1.955  12.141  0.6308 -0.7441 -0.3401
  735TMC3    C410861   0.093   2.102  12.289  0.4830  0.0655 -0.0368
  735TMC3    C510862   0.059   1.972  12.328  0.1339 -0.0746  0.0945
  735TMC3    C610863   4.688   1.900  12.255  0.2643  0.4644  0.1020
  735TMC3     C10864   0.156   2.198  12.080 -1.0231 -0.2037  0.3263
  735TMC3     O10865   0.143   2.168  11.962 -0.4389  0.2120  0.1355
  735TMC3     H10866   4.638   2.119  12.007 -1.2238  0.6173  0.9291
  735TMC3    H110867   0.190   2.129  12.329 -0.4077  1.1342  1.3921
  735TMC3    H210868   4.639   1.810  12.290 -0.0061  0.2172 -0.9066
  735TMC3    C710869   0.174   1.887  12.363  0.1492  0.5574  0.6143
  735TMC3    C810870   4.648   1.857  12.032  0.3273 -0.0736  0.2551
  735TMC3    O110871   0.283   1.936  12.343 -0.4039 -0.2271  0.4333
  735TMC3    O210872   4.607   1.747  12.056  0.5008 -0.3891  0.0203
  736MPD2     C10873   0.129   1.518  12.375  0.3030  0.7335 -0.1134
  736MPD2    C110874   0.181   1.642  12.334 -0.3983 -0.1650  0.1042
  736MPD2    C210875   0.266   1.646  12.223  0.1871  0.3186  0.9650
  736MPD2    C310876   0.314   1.532  12.166 -0.0019 -0.3581  0.0390
  736MPD2    C410877   0.261   1.413  12.218  1.1529 -0.3915 -1.0836
  736MPD2    C510878   0.167   1.402  12.311 -0.1527  0.1540 -1.1603
  736MPD2     H10879   0.308   1.742  12.196  0.6569  0.0196  0.6265
  736MPD2    H110880   0.291   1.328  12.159  1.6982 -0.8962 -0.0907
  736MPD2    H210881   0.059   1.508  12.457 -0.2953 -2.1311 -0.9753
  736MPD2    H310882   0.133   1.303  12.341 -2.3615  0.9058 -1.2425
  736MPD2     N10883   0.406   1.514  12.061  0.1476  0.1738  0.3933
  736MPD2    H510884   0.417   1.424  12.015 -0.8276 -1.1514  2.7580
  736MPD2    N110885   0.129   1.759  12.396 -0.3537  0.6835 -0.0932
  736MPD2    H710886   0.047   1.751  12.455  1.0762  0.1695  1.8438
  737TMC3    C110887   0.558   1.585  11.896  0.7086  0.5360  0.2302
  737TMC3    C210888   0.595   1.686  11.815 -0.4143 -0.7440  0.7647
  737TMC3    C310889   0.647   1.665  11.690  0.6908 -0.1363 -0.2646
  737TMC3    C410890   0.557   1.459  11.841 -0.7401 -0.7544 -0.8063
  737TMC3    C510891   0.606   1.435  11.720 -0.5437  0.3145  0.3835
  737TMC3    C610892   0.653   1.540  11.639  0.1573 -0.3717 -0.2137
  737TMC3     C10893   0.491   1.618  12.017  1.1864  0.0478  0.0755
  737TMC3     O10894   0.503   1.731  12.067 -0.3509 -0.5989  0.0782
  737TMC3     H10895   0.594   1.790  11.845  0.7547 -0.3547 -0.5534
  737TMC3    H110896   0.555   1.373  11.906  2.1868 -2.1065 -2.5299
  737TMC3    H210897   0.688   1.516  11.539  2.7899 -0.8025  0.8130
  737TMC3    C710898   0.670   1.306  11.694 -0.9210 -0.0296 -0.6779
  737TMC3    C810899   0.665   1.776  11.601 -0.1454 -0.3435 -0.3073
  737TMC3    O110900   0.641   1.213  11.772  0.0447  0.0435 -0.3910
  737TMC3    O210901   0.686   1.888  11.652  0.0130  0.6421 -0.3383
  738MPD2     C10902   4.654   0.136  15.024 -0.4916  0.3088 -0.6638
  738MPD2    C110903   0.045   0.088  15.080 -0.8013 -0.2029 -0.3355
  738MPD2    C210904   0.166   0.147  15.053 -0.3815  0.2002 -0.4169
  738MPD2    C310905   0.169   0.244  14.959  0.2737  0.4363 -0.1596
  738MPD2    C410906   0.053   0.288  14.897 -0.3035 -0.3142 -0.0964
  738MPD2    C510907   4.651   0.238  14.933  0.1000 -0.1458  0.9462
  738MPD2     H10908   0.256   0.122  15.107 -1.1714  2.3271  1.8628
  738MPD2    H110909   0.049   0.377  14.836  0.8023 -0.4022 -0.2979
  738MPD2    H210910   4.553   0.097  15.031 -0.3191 -0.1471 -0.7306
  738MPD2    H310911   4.560   0.277  14.889  0.3299  0.0652  0.6568
  738MPD2     N10912   0.288   0.292  14.910  0.0576  0.2060  0.2658
  738MPD2    H510913   0.286   0.357  14.833 -1.7141 -0.1929 -0.0125
  738MPD2    N110914   0.049   4.695  15.156  0.2733 -0.3056 -0.5951
  738MPD2    H710915   0.138   4.649  15.171  0.1409  0.1500  1.5542
  739TMC3    C110916   0.512   0.342  14.901  0.2442  0.7183 -0.5222
  739TMC3    C210917   0.517   0.315  14.768 -0.1432  0.1940 -0.3440
  739TMC3    C310918   0.636   0.317  14.706  0.6801 -0.2059  0.8349
  739TMC3    C410919   0.628   0.360  14.971  0.4335 -0.3365 -0.2328
  739TMC3    C510920   0.745   0.369  14.904 -0.2753  0.2274 -0.2128
  739TMC3    C610921   0.753   0.349  14.771  0.7150 -0.7190  0.2025
  739TMC3     C10922   0.401   0.293  14.981  0.0647 -0.2136  0.5895
  739TMC3     O10923   0.433   0.266  15.096 -0.4504  0.5455  0.1136
  739TMC3     H10924   0.428   0.277  14.719 -2.1941  1.3477  2.4800
  739TMC3    H110925   0.634   0.386  15.077 -1.5405 -3.2042  0.5635
  739TMC3    H210926   0.849   0.348  14.720  0.3210  0.0031 -0.5490
  739TMC3    C710927   0.876   0.372  14.972  0.1840  0.2299 -0.4322
  739TMC3    C810928   0.630   0.340  14.565  0.4348  0.3401  0.1590
  739TMC3    O110929   0.976   0.361  14.904 -0.3531  0.5894  0.6499
  739TMC3    O210930   0.534   0.286  14.508  0.2864  0.6910  0.0269
  740TMC3    C110931   1.390   1.786  14.115 -0.3326 -0.5573  0.1942
  740TMC3    C210932   1.446   1.740  14.232 -0.3115  0.9049 -0.0984
  740TMC3    C310933   1.573   1.694  14.234 -0.0760 -0.9741 -0.2648
  740TMC3    C410934   1.471   1.795  13.995  0.9543  0.2437  0.6456
  740TMC3    C510935   1.599   1.758  14.003  0.2486 -0.7809  0.0201
  740TMC3    C610936   1.643   1.686  14.114  0.0956 -0.4403  0.0748
  740TMC3     C10937   1.247   1.773  14.086 -0.4572  1.0428 -0.0823
  740TMC3     O10938   1.202   1.831  13.989 -0.4486  0.8501 -0.2644
  740TMC3     H10939   1.381   1.747  14.318  0.3736 -0.9216  0.5642
  740TMC3    H110940   1.416   1.810  13.903  0.2306 -0.2124  0.9990
  740TMC3    H210941   1.741   1.642  14.122  0.7049  0.3013 -3.3447
  740TMC3    C710942   1.659   1.712  13.876  0.0854 -0.7406  0.5493
  740TMC3    C810943   1.641   1.642  14.352  0.5742 -0.0649 -0.0496
  740TMC3    O110944   1.718   1.602  13.879 -0.6862 -0.0606  0.2945
  740TMC3    O210945   1.753   1.604  14.337 -0.2307  0.3028 -0.2985
  741TMC3    C110946   0.520   0.702  14.474 -0.6862 -0.0846 -0.1733
  741TMC3    C210947   0.420   0.607  14.460  0.5884 -1.0518  0.1704
  741TMC3    C310948   0.366   0.559  14.578  0.3942  0.2439 -0.2331
  741TMC3    C410949   0.561   0.744  14.601 -0.8856  0.3947  0.0325
  741TMC3    C510950   0.490   0.700  14.710 -0.2116 -0.0635  0.3754
  741TMC3    C610951   0.390   0.605  14.700 -0.1943  0.2077  0.6118
  741TMC3     C10952   0.544   0.804  14.377 -0.4597  0.5042 -0.9043
  741TMC3     O10953   0.643   0.876  14.392 -0.0297  0.2738 -0.0882
  741TMC3     H10954   0.403   0.556  14.366 -0.8012  1.3161 -0.8512
  741TMC3    H110955   0.624   0.831  14.617 -0.4270  0.2767 -1.1551
  741TMC3    H210956   0.348   0.579  14.797 -0.3651 -2.7997 -0.2906
  741TMC3    C710957   0.523   0.742  14.846 -0.0635 -1.0790  0.2568
  741TMC3    C810958   0.245   0.480  14.582 -0.2269 -0.2531  0.0509
  741TMC3    O110959   0.434   0.754  14.927  0.0639 -0.4237 -0.6098
  741TMC3    O210960   0.202   0.453  14.694  0.4413  0.2257 -0.1888
  742TMC3    C110961   0.303   3.984  15.239  0.3791  0.3377  0.2465
  742TMC3    C210962   0.210   3.918  15.158  0.3521 -0.1821  0.6773
  742TMC3    C310963   0.258   3.860  15.049  0.8487 -0.5106 -0.3976
  742TMC3    C410964   0.433   4.006  15.207  0.9906 -0.2271  0.3846
  742TMC3    C510965   0.475   3.950  15.092 -0.4894  0.3284 -0.8471
  742TMC3    C610966   0.390   3.874  15.013 -0.5464  0.4039 -1.3160
  742TMC3     C10967   0.251   4.048  15.356  0.7773 -0.0559  0.6323
  742TMC3     O10968   0.168   3.988  15.424 -0.3189 -0.2202  0.4382
  742TMC3     H10969   0.109   3.906  15.196  0.1255  2.1236  0.7956
  742TMC3    H110970   0.494   4.029  15.294  1.6012 -1.4333  0.2713
  742TMC3    H210971   0.418   3.834  14.916 -0.5948 -0.7172 -0.8758
  742TMC3    C710972   0.617   3.933  15.070  0.3831  0.0931  0.0669
  742TMC3    C810973   0.172   3.806  14.949  1.1252 -0.1626  0.0563
  742TMC3    O110974   0.643   3.835  15.000 -0.0126  0.4684 -0.1536
  742TMC3    O210975   0.226   3.747  14.857 -0.4267  0.4953 -0.4418
  743MPD2     C10976   2.823   0.006   1.794  0.2230 -0.1882 -0.4367
  743MPD2    C110977   2.912   4.701   1.700  0.7468  0.4421 -0.2085
  743MPD2    C210978   3.042   4.664   1.732 -0.1765 -0.4971  0.2279
  743MPD2    C310979   3.075   4.654   1.867 -0.1301  0.0393  0.3667
  743MPD2    C410980   2.982   4.670   1.966 -0.3025 -0.3901  0.7551
  743MPD2    C510981   2.854   4.708   1.927 -0.7508 -0.2606 -0.1654
  743MPD2     H10982   3.117   4.650   1.655 -0.5550 -0.3282 -0.1753
  743MPD2    H110983   2.997   4.658   2.073 -2.1483  0.3186  1.0766
  743MPD2    H210984   2.728   0.049   1.762 -1.8645 -2.3884  2.8623
  743MPD2    H310985   2.776   4.719   2.002  0.4400  1.0149  0.8925
  743MPD2     N10986   3.212   4.627   1.892  0.5686  0.2636 -0.0398
  743MPD2    H510987   3.274   4.624   1.812 -0.3698  0.8808 -0.7973
  743MPD2    N110988   2.867   0.006   1.563  0.2357 -0.5453 -0.7651
  743MPD2    H710989   2.774   0.046   1.560 -0.8141 -2.7632  2.3485
  744TMC3    C110990   2.855   4.712   1.338  0.3366 -0.2897 -1.1734
  744TMC3    C210991   2.726   0.036   1.347  0.3265 -0.7087  0.0919
  744TMC3    C310992   2.661   0.054   1.226  0.1059 -0.0128  0.2515
  744TMC3    C410993   2.911   4.681   1.220  0.1749  0.5936  0.1898
  744TMC3    C510994   2.841   4.685   1.104  0.2958 -0.3231  0.7384
  744TMC3    C610995   2.710   0.013   1.106 -0.1211  0.0129 -0.5976
  744TMC3     C10996   2.937   4.687   1.453  0.2993  0.1715 -0.0459
  744TMC3     O10997   3.047   4.635   1.437 -0.0219  0.6188  0.1889
  744TMC3     H10998   2.673   0.032   1.441 -0.1101  4.9380  0.0914
  744TMC3    H110999   3.016   4.653   1.211 -0.5240 -1.7055 -0.8428
  744TMC3    H211000   2.641   0.015   1.023 -0.0070  1.8517 -0.6505
  744TMC3    C711001   2.928   4.672   0.988 -0.7284  0.1146 -0.3860
  744TMC3    C811002   2.522   0.083   1.242  0.5352  0.2358  0.0497
  744TMC3    O111003   3.035   4.614   0.996 -0.2167 -0.3825  0.2276
  744TMC3    O211004   2.491   0.156   1.333  0.2716  0.7161  0.3475
  745TMC3    C111005   1.149   3.794  13.197  0.3979  0.1805 -0.1685
  745TMC3    C211006   1.055   3.786  13.297  0.2958  0.0404 -0.3516
  745TMC3    C311007   0.928   3.820  13.255  0.3308  0.0533  0.2968
  745TMC3    C411008   1.118   3.819  13.063 -0.1780  0.5972 -0.1830
  745TMC3    C511009   0.985   3.852  13.032  0.4718  0.4023 -0.8674
  745TMC3    C611010   0.891   3.858  13.131  0.5651  0.1973  0.1613
  745TMC3     C11011   1.290   3.806  13.234 -0.4087  0.2710  0.9482
  745TMC3     O11012   1.364   3.742  13.161  0.7144 -0.4115  0.2131
  745TMC3     H11013   1.085   3.754  13.396  1.9288  0.4364 -0.7207
  745TMC3    H111014   1.194   3.808  12.986  0.3518 -0.3637  0.4802
  745TMC3    H211015   0.792   3.903  13.127  0.0087 -0.9630  0.6364
  745TMC3    C711016   0.978   3.953  12.927  0.7091 -0.6313 -0.5587
  745TMC3    C811017   0.815   3.805  13.347  0.3020 -0.9159  0.1257
  745TMC3    O111018   0.867   4.004  12.915 -0.0315  0.2340  0.4146
  745TMC3    O211019   0.710   3.758  13.310 -0.0175  0.8323  0.1528
  746TMC3    C111020   3.385   1.535  10.544  0.5671 -0.4996 -0.1921
  746TMC3    C211021   3.434   1.521  10.418 -0.4440  0.3228 -0.5949
  746TMC3    C311022   3.454   1.394  10.371  0.3404 -0.2310  0.1398
  746TMC3    C411023   3.349   1.420  10.613  0.5350  0.7679 -0.2197
  746TMC3    C511024   3.375   1.295  10.564  0.2439 -0.0469  0.4750
  746TMC3    C611025   3.432   1.278  10.442 -0.8633  0.2056 -0.1978
  746TMC3     C11026   3.364   1.661  10.615  0.4552 -0.0995  0.7373
  746TMC3     O11027   3.338   1.659  10.734 -0.1894 -0.4997  0.1202
  746TMC3     H11028   3.436   1.605  10.350 -1.9476 -0.1567 -1.2199
  746TMC3    H111029   3.313   1.434  10.714 -1.4188  1.5009 -1.0247
  746TMC3    H211030   3.441   1.175  10.408 -1.0219 -0.4276  1.6831
  746TMC3    C711031   3.325   1.176  10.627 -0.2224  0.7331 -0.1142
  746TMC3    C811032   3.548   1.379  10.264  0.6388 -0.4677  0.0027
  746TMC3    O111033   3.376   1.067  10.597  0.4929 -0.4616 -0.3287
  746TMC3    O211034   3.626   1.288  10.279 -0.3001  0.1865 -0.5138
  747TMC3    C111035   1.341   1.266  10.911 -0.1570  0.6102  0.0607
  747TMC3    C211036   1.264   1.182  10.977 -0.3383 -0.4360  0.0736
  747TMC3    C311037   1.213   1.233  11.101  0.1134 -0.6696 -0.1903
  747TMC3    C411038   1.366   1.389  10.959 -0.8617  0.3675 -0.5307
  747TMC3    C511039   1.318   1.442  11.075 -0.1187 -0.0273  0.3835
  747TMC3    C611040   1.234   1.364  11.147 -0.1059 -0.5232 -0.1465
  747TMC3     C11041   1.417   1.220  10.795 -0.1565 -0.1639  0.9788
  747TMC3     O11042   1.507   1.293  10.764 -0.7705 -0.1310 -0.4882
  747TMC3     H11043   1.247   1.079  10.948  0.7173 -0.6133  0.0988
  747TMC3    H111044   1.445   1.445  10.909  0.2552  0.9656  1.8763
  747TMC3    H211045   1.183   1.411  11.231 -0.6647  0.5981 -1.1181
  747TMC3    C711046   1.368   1.560  11.130 -0.8204 -0.6209  0.0178
  747TMC3    C811047   1.139   1.137  11.182 -0.9562 -0.1760  0.0055
  747TMC3    O111048   1.357   1.569  11.251  0.2477 -0.5536  0.2523
  747TMC3    O211049   1.116   1.028  11.142  0.5233 -0.0977  0.4758
  748MPD2     C11050   1.789   1.166   1.876 -0.3762 -0.4608 -0.5247
  748MPD2    C111051   1.863   1.055   1.851 -0.3461  1.3414  0.2903
  748MPD2    C211052   2.002   1.068   1.831  0.5396  0.1612 -0.0610
  748MPD2    C311053   2.065   1.190   1.837  0.0204 -0.0411 -0.0939
  748MPD2    C411054   1.996   1.304   1.868 -0.0605  0.0796  0.2147
  748MPD2    C511055   1.857   1.293   1.880 -0.0566 -0.4398  0.3471
  748MPD2     H11056   2.070   0.986   1.808  0.0294 -0.2611 -0.0624
  748MPD2    H111057   2.038   1.404   1.876  0.9929 -0.5244  2.3625
  748MPD2    H211058   1.682   1.161   1.893 -0.4831 -2.6304 -1.7455
  748MPD2    H311059   1.803   1.387   1.888 -0.9479 -0.8288 -1.1028
  748MPD2     N11060   2.200   1.179   1.815  0.2400 -0.0934  0.3202
  748MPD2    H511061   2.231   1.082   1.809  1.6186  0.4760 -1.5256
  748MPD2    N111062   1.793   0.927   1.857  0.1950  0.0819 -0.6342
  748MPD2    H711063   1.691   0.932   1.856  0.2039  0.5683  1.0951
  749TMC3    C111064   2.424   1.247   1.803  0.3757  0.6621 -1.0169
  749TMC3    C211065   2.461   1.116   1.807 -0.6650  0.0446  0.4327
  749TMC3    C311066   2.593   1.087   1.789  0.1164 -0.9608  0.3241
  749TMC3    C411067   2.514   1.338   1.771  0.9316  0.1861  0.1904
  749TMC3    C511068   2.642   1.303   1.734  0.5164  0.6333 -0.1125
  749TMC3    C611069   2.684   1.176   1.737  0.1193 -0.7598 -0.0276
  749TMC3     C11070   2.284   1.288   1.815 -0.1813 -0.3037 -0.5779
  749TMC3     O11071   2.267   1.411   1.823 -0.0940  0.0776 -0.2342
  749TMC3     H11072   2.392   1.040   1.842  1.4260 -2.3982 -0.7835
  749TMC3    H111073   2.484   1.439   1.750  1.8614  0.5816  0.7436
  749TMC3    H211074   2.791   1.155   1.741  0.3184  0.4389  0.8803
  749TMC3    C711075   2.720   1.409   1.666 -0.1452 -0.5455 -0.8365
  749TMC3    C811076   2.643   0.971   1.863 -0.4371 -0.0550 -0.3187
  749TMC3    O111077   2.674   1.521   1.670 -0.7705  0.2707  0.6029
  749TMC3    O211078   2.583   0.960   1.969 -0.4082 -0.2670 -0.2156
  750MPD2     C11079   4.011   3.070  11.382  0.4046 -0.0880  0.3751
  750MPD2    C111080   3.883   3.090  11.427 -0.9310 -0.1893  0.6752
  750MPD2    C211081   3.783   3.032  11.352  0.2385  0.7653 -0.6494
  750MPD2    C311082   3.814   2.929  11.256 -0.5600  0.0543  0.2669
  750MPD2    C411083   3.940   2.894  11.232 -0.4303 -0.2203 -0.3695
  750MPD2    C511084   4.036   2.969  11.296  0.5237 -0.7642  0.1547
  750MPD2     H11085   3.679   3.056  11.372  0.7174 -0.4518  3.3023
  750MPD2    H111086   3.968   2.817  11.160 -1.7682 -1.0946  0.0508
  750MPD2    H211087   4.094   3.132  11.414  0.4403 -0.4836  1.0630
  750MPD2    H311088   4.139   2.955  11.268  0.8699 -2.1241  2.1758
  750MPD2     N11089   3.713   2.854  11.185 -0.4366 -0.5399  0.4961
  750MPD2    H511090   3.746   2.781  11.122  0.2674  1.8973 -1.9927
  750MPD2    N111091   3.857   3.177  11.528  0.4903  0.2703 -0.4355
  750MPD2    H711092   3.929   3.236  11.570  1.9061 -1.3459 -0.5869
  751TMC3    C111093   3.521   2.798  11.069  0.3514  0.2829 -0.0980
  751TMC3    C211094   3.381   2.807  11.064 -0.2243  0.0819 -0.2256
  751TMC3    C311095   3.320   2.774  10.944 -0.1861  0.1881 -0.2057
  751TMC3    C411096   3.595   2.736  10.972 -0.2786  0.0556 -0.2015
  751TMC3    C511097   3.530   2.716  10.857 -0.1040  0.0369  0.3161
  751TMC3    C611098   3.394   2.732  10.838  0.3625  0.2803 -0.1849
  751TMC3     C11099   3.579   2.868  11.185 -0.2411 -0.5902  0.8813
  751TMC3     O11100   3.507   2.936  11.256  0.4753 -0.3988 -0.2506
  751TMC3     H11101   3.325   2.859  11.141 -0.5871  1.5076 -1.4358
  751TMC3    H111102   3.702   2.719  10.969 -0.1309  0.9959 -0.1565
  751TMC3    H211103   3.356   2.681  10.750  0.9309 -0.2045 -0.1543
  751TMC3    C711104   3.592   2.636  10.753 -0.0625  0.0816  0.2145
  751TMC3    C811105   3.189   2.732  10.938  0.1548  0.0544 -0.4787
  751TMC3    O111106   3.551   2.651  10.640 -0.0528 -0.3447  0.8949
  751TMC3    O211107   3.147   2.694  10.825 -0.8854  0.1001  0.1086
  752TMC3    C111108   2.688   2.337  17.193  0.2915 -0.3787  0.2981
  752TMC3    C211109   2.689   2.221  17.271  0.0761 -0.3238 -0.0676
  752TMC3    C311110   2.620   2.227  17.392  0.3462  0.3663  0.4114
  752TMC3    C411111   2.626   2.447  17.239  0.3112 -0.8478 -0.5807
  752TMC3    C511112   2.559   2.441  17.359  0.3085 -0.0881  0.0423
  752TMC3    C611113   2.562   2.338  17.442  0.0818  0.7054  0.8292
  752TMC3     C11114   2.703   2.310  17.048 -0.4221 -0.0917 -0.2824
  752TMC3     O11115   2.789   2.234  17.008 -0.4826  0.4723  0.2112
  752TMC3     H11116   2.752   2.143  17.231 -0.4626 -0.3285 -0.9072
  752TMC3    H111117   2.615   2.527  17.167 -0.2815  1.8064  2.4338
  752TMC3    H211118   2.517   2.331  17.541  0.2489  1.0554  0.9297
  752TMC3    C711119   2.486   2.561  17.406 -0.2167 -0.0679  0.1318
  752TMC3    C811120   2.608   2.107  17.466 -1.0765 -0.3480 -0.7789
  752TMC3    O111121   2.462   2.568  17.527  0.1244  0.2483  0.0337
  752TMC3    O211122   2.556   2.116  17.577  0.2017 -0.0699  0.8626
  753TMC3    C111123   4.120   3.965  13.309  0.0109  0.3406 -0.4810
  753TMC3    C211124   4.117   3.911  13.435  0.3437 -0.9526  0.4193
  753TMC3    C311125   4.110   3.777  13.440  0.1074  0.6196  0.3963
  753TMC3    C411126   4.109   3.891  13.190 -0.1149  0.1254 -0.7219
  753TMC3    C511127   4.104   3.757  13.202 -0.4271  0.4648  0.0300
  753TMC3    C611128   4.111   3.697  13.329 -0.5232 -0.5467 -0.4659
  753TMC3     C11129   4.087   4.100  13.300  0.3045 -0.2445 -0.7633
  753TMC3     O11130   4.129   4.177  13.387  0.0801  0.0405 -0.2085
  753TMC3     H11131   4.122   3.976  13.521 -0.6118  0.2785 -0.4352
  753TMC3    H111132   4.106   3.943  13.095  0.5349  0.2526 -0.6686
  753TMC3    H211133   4.103   3.589  13.330 -1.8002 -0.4323  2.0117
  753TMC3    C711134   4.067   3.680  13.080 -0.4554  0.1194 -0.3321
  753TMC3    C811135   4.082   3.716  13.572  0.1561 -0.3936  0.1950
  753TMC3    O111136   4.082   3.740  12.977 -0.1490 -0.1684 -0.3262
  753TMC3    O211137   4.016   3.614  13.563 -0.0927  0.7694  0.5815
  754MPD2     C11138   3.364   2.729  13.097 -0.0028  0.1491 -1.2007
  754MPD2    C111139   3.323   2.603  13.091  0.1478  0.6895 -0.1102
  754MPD2    C211140   3.184   2.569  13.061  0.3123  0.8385 -0.3907
  754MPD2    C311141   3.091   2.674  13.048  0.2802  0.6197  0.2808
  754MPD2    C411142   3.139   2.802  13.059  0.2889  0.3077  0.0136
  754MPD2    C511143   3.274   2.827  13.073 -0.6024  0.1705 -0.1726
  754MPD2     H11144   3.158   2.464  13.058 -0.0218  0.9510 -1.3672
  754MPD2    H111145   3.074   2.888  13.042 -0.0499  0.0894  0.2081
  754MPD2    H211146   3.467   2.758  13.110 -0.4765  0.9034  0.8957
  754MPD2    H311147   3.315   2.926  13.060 -0.5475  0.3370  1.2168
  754MPD2     N11148   2.951   2.659  13.029  0.1562  0.3816 -1.1317
  754MPD2    H511149   2.896   2.743  13.028  0.2451  0.4520 -0.5397
  754MPD2    N111150   3.426   2.508  13.098  0.4580  0.5964 -0.3877
  754MPD2    H711151   3.519   2.540  13.072  0.9065 -0.1211  0.3258
  755MPD2     C11152   2.341   3.263  13.170  0.0991  0.3719  0.5364
  755MPD2    C111153   2.307   3.158  13.254 -0.0195 -0.0662 -0.5433
  755MPD2    C211154   2.372   3.033  13.240 -0.1092  0.2128 -0.7816
  755MPD2    C311155   2.466   3.017  13.137  0.1190 -0.5314 -0.6428
  755MPD2    C411156   2.485   3.118  13.048 -0.0863 -0.1420  0.3283
  755MPD2    C511157   2.425   3.239  13.066  0.5394 -0.0925  0.1602
  755MPD2     H11158   2.338   2.947  13.296 -1.7769  1.3021 -0.1294
  755MPD2    H111159   2.555   3.109  12.967  1.6109  0.5747  1.7125
  755MPD2    H211160   2.291   3.359  13.172 -1.3309 -0.3117 -2.3754
  755MPD2    H311161   2.451   3.330  13.013  0.3637 -0.3182 -0.3119
  755MPD2     N11162   2.534   2.890  13.113  0.5875 -0.4598 -0.2546
  755MPD2    H511163   2.601   2.877  13.037 -0.9088  0.6528 -1.7681
  755MPD2    N111164   2.214   3.170  13.363  0.4988  0.5316  0.4259
  755MPD2    H711165   2.218   3.090  13.426  0.8841  0.6366  0.5366
  756MPD2     C11166   3.315   4.421  10.126 -0.3839  0.8116 -0.2569
  756MPD2    C111167   3.256   4.330  10.214 -0.0119 -0.7470 -0.2016
  756MPD2    C211168   3.123   4.307  10.190  0.6188 -1.0585 -0.3539
  756MPD2    C311169   3.052   4.368  10.086 -0.2448 -0.1468  0.2415
  756MPD2    C411170   3.121   4.449   9.995 -0.2626 -0.2663 -0.5131
  756MPD2    C511171   3.253   4.475  10.020 -0.0456  0.9350 -0.2936
  756MPD2     H11172   3.073   4.234  10.253  2.2215 -1.5404  0.3784
  756MPD2    H111173   3.070   4.483   9.905 -2.3002 -0.3499  0.6086
  756MPD2    H211174   3.411   4.463  10.153 -0.3722  1.2097 -0.9231
  756MPD2    H311175   3.308   4.549   9.964  2.4485 -0.9569 -0.3272
  756MPD2     N11176   2.915   4.335  10.071 -0.3555  0.3996  0.1597
  756MPD2    H511177   2.878   4.263  10.133  0.7805 -1.0829 -0.8915
  756MPD2    N111178   3.316   4.270  10.326  0.0433  0.4589  1.0307
  756MPD2    H711179   3.264   4.199  10.378 -1.5756  1.8163  1.2854
  757MPD2     C11180   2.774   3.517  10.061  0.2511  0.6980  0.2146
  757MPD2    C111181   2.659   3.556  10.006 -0.3253 -0.0229  0.6195
  757MPD2    C211182   2.623   3.693  10.005  0.2706  0.0746  0.5376
  757MPD2    C311183   2.701   3.789  10.062 -0.6987  0.0723 -0.7705
  757MPD2    C411184   2.823   3.743  10.113  0.4023 -0.6177 -0.2750
  757MPD2    C511185   2.859   3.607  10.114 -0.0120 -0.1100 -0.8943
  757MPD2     H11186   2.526   3.720   9.965  1.2990  1.7247 -0.8619
  757MPD2    H111187   2.891   3.816  10.155  0.2468 -0.4166 -0.3736
  757MPD2    H211188   2.794   3.412  10.073 -0.9899  0.1524 -2.4986
  757MPD2    H311189   2.948   3.570  10.164 -0.6443  0.7482  0.8590
  757MPD2     N11190   2.672   3.929  10.070  0.0353 -0.0073 -0.4133
  757MPD2    H511191   2.747   3.990  10.103  1.2890 -2.2852  0.9407
  757MPD2    N111192   2.592   3.455   9.946  0.1556 -0.4515  0.0370
  757MPD2    H711193   2.614   3.359   9.971 -1.2739 -0.8183 -0.0681
  758MPD2     C11194   2.988   2.295  15.939 -0.3805  0.4849  0.0993
  758MPD2    C111195   3.015   2.175  16.004 -0.3651  0.2347 -0.0211
  758MPD2    C211196   3.055   2.188  16.139 -0.9369 -0.5127  0.4886
  758MPD2    C311197   3.057   2.309  16.198  0.3009  0.8856  0.0021
  758MPD2    C411198   3.030   2.427  16.137 -0.1775  0.6192  0.7544
  758MPD2    C511199   3.000   2.415  16.002  0.1868 -0.5717 -0.5105
  758MPD2     H11200   3.077   2.104  16.204 -1.0232  0.3238  1.5994
  758MPD2    H111201   3.029   2.528  16.175 -0.8608  0.4480  1.1737
  758MPD2    H211202   2.959   2.284  15.836  2.5358 -3.1782 -0.3354
  758MPD2    H311203   2.969   2.507  15.953  2.0316  0.3291  0.0030
  758MPD2     N11204   3.089   2.312  16.331  0.1446  0.5981  0.1236
  758MPD2    H511205   3.124   2.231  16.380 -0.4157  0.5825  0.5081
  758MPD2    N111206   3.010   2.055  15.935 -0.6740 -0.6136 -0.0049
  758MPD2    H711207   2.984   2.055  15.837  3.7135 -0.7657 -1.1992
  759MPD2     C11208   2.842   1.002  10.088  0.3111  0.0063  0.0246
  759MPD2    C111209   2.739   1.042  10.168 -0.1683  1.0585  0.2161
  759MPD2    C211210   2.664   1.156  10.136  0.4823  0.1838  0.0099
  759MPD2    C311211   2.685   1.229  10.022 -0.3924 -0.0433  0.5302
  759MPD2    C411212   2.792   1.189   9.943 -0.0729 -0.0764  0.1973
  759MPD2    C511213   2.860   1.070   9.973  0.3146 -0.5875  0.0582
  759MPD2     H11214   2.595   1.201  10.207 -0.8523  0.2975 -1.3561
  759MPD2    H111215   2.815   1.234   9.847 -1.2252  0.8695  0.3582
  759MPD2    H211216   2.906   0.917  10.104  1.9304  1.2938  0.4064
  759MPD2    H311217   2.940   1.032   9.910 -1.6752 -0.7483 -2.3351
  759MPD2     N11218   2.607   1.343  10.012 -0.3251  0.1509 -0.8361
  759MPD2    H511219   2.540   1.350  10.087 -2.1101 -1.2139 -2.2905
  759MPD2    N111220   2.695   0.967  10.276 -0.0367  0.2200 -0.0950
  759MPD2    H711221   2.617   1.000  10.331 -0.2185  1.0965 -0.8686
  760MPD2     C11222   1.434   3.169  11.918  0.4215  0.2695  0.1579
  760MPD2    C111223   1.571   3.142  11.915  0.2228  0.4573  0.1603
  760MPD2    C211224   1.619   3.016  11.918 -0.9447 -0.5883 -0.5750
  760MPD2    C311225   1.534   2.912  11.944 -0.5449  0.4498  0.9157
  760MPD2    C411226   1.398   2.940  11.946 -0.1967 -0.1639 -0.8159
  760MPD2    C511227   1.350   3.066  11.943 -0.7796 -0.1913 -0.1701
  760MPD2     H11228   1.726   3.005  11.898 -0.6844  1.7714 -0.4799
  760MPD2    H111229   1.326   2.861  11.966  1.2376 -1.4059 -0.5226
  760MPD2    H211230   1.397   3.269  11.942 -1.0802 -0.2975  0.2014
  760MPD2    H311231   1.243   3.078  11.958 -0.5801  0.9548  0.2900
  760MPD2     N11232   1.586   2.781  11.967 -0.7083  0.7870 -0.0540
  760MPD2    H511233   1.519   2.711  11.997  1.2256 -0.7964  0.6169
  760MPD2    N111234   1.669   3.242  11.886  0.1644 -0.1392  0.2745
  760MPD2    H711235   1.765   3.209  11.877  1.0479  2.8342 -1.2763
  761MPD2     C11236   2.865   2.385  11.147  0.1366 -0.1079  0.1455
  761MPD2    C111237   2.925   2.385  11.026  0.0766  0.1273 -0.0905
  761MPD2    C211238   3.007   2.496  10.990 -0.2003  0.6777 -0.1017
  761MPD2    C311239   3.040   2.594  11.085 -0.4693  0.1234 -0.8463
  761MPD2    C411240   2.973   2.593  11.211 -0.0426  0.3217 -0.0432
  761MPD2    C511241   2.893   2.486  11.240 -0.3222  0.3632 -0.1079
  761MPD2     H11242   3.059   2.500  10.895 -0.3370  0.2222 -0.1954
  761MPD2    H111243   2.995   2.668  11.285  1.6418  1.3714 -1.6116
  761MPD2    H211244   2.809   2.299  11.181 -3.4422  1.3517 -2.0310
  761MPD2    H311245   2.854   2.488  11.341  0.1848  1.5981  0.0647
  761MPD2     N11246   3.136   2.696  11.058 -0.4452  0.3766 -0.0602
  761MPD2    H511247   3.178   2.746  11.135  0.7622 -0.1589 -0.3615
  761MPD2    N111248   2.891   2.281  10.935  0.0094  0.1156 -0.9881
  761MPD2    H711249   2.831   2.206  10.968 -0.2300  0.9634  0.5038
  762MPD2     C11250   3.323   2.376  10.471  0.8964 -0.0912 -0.6891
  762MPD2    C111251   3.269   2.264  10.411 -0.0597 -1.0308  0.2354
  762MPD2    C211252   3.316   2.219  10.290  0.1110 -0.0585 -0.2100
  762MPD2    C311253   3.424   2.287  10.230  0.0550 -0.3196 -0.6071
  762MPD2    C411254   3.482   2.390  10.294 -0.1355 -0.0098  0.2015
  762MPD2    C511255   3.428   2.440  10.410 -0.7381 -0.2739 -0.1319
  762MPD2     H11256   3.276   2.130  10.244 -0.5374  0.4258 -0.5835
  762MPD2    H111257   3.567   2.445  10.255  1.9856 -1.8163  2.2841
  762MPD2    H211258   3.280   2.426  10.557 -0.2513 -2.5755  0.1950
  762MPD2    H311259   3.481   2.522  10.458 -0.0868  0.0828 -1.4648
  762MPD2     N11260   3.480   2.224  10.116  0.1041  0.3293  0.3808
  762MPD2    H511261   3.437   2.136  10.091  3.8977 -1.4802  0.1989
  762MPD2    N111262   3.157   2.200  10.476 -0.7619  0.0538 -0.2619
  762MPD2    H711263   3.129   2.253  10.558 -2.2237 -1.5950  0.3197
  763MPD2     C11264   4.650   2.024  15.838 -0.5194 -0.5733 -0.3657
  763MPD2    C111265   0.061   2.049  15.813 -0.7414  0.1036  0.0191
  763MPD2    C211266   0.152   2.078  15.917 -0.3730 -0.1102  0.1507
  763MPD2    C311267   0.111   2.060  16.049 -0.1663 -0.0491  0.0918
  763MPD2    C411268   4.703   2.038  16.073 -0.0085  0.5422 -0.4720
  763MPD2    C511269   4.613   2.019  15.975  0.2454 -0.3099 -0.2295
  763MPD2     H11270   0.252   2.105  15.888 -0.3276 -2.3378 -1.7645
  763MPD2    H111271   4.665   2.048  16.174  0.6809 -0.4043 -0.1107
  763MPD2    H211272   4.574   1.998  15.766 -2.2790  0.0565  1.2666
  763MPD2    H311273   4.510   1.997  16.000 -0.8645  2.1013 -2.7660
  763MPD2     N11274   0.191   2.072  16.165  0.2003 -0.4587  0.0450
  763MPD2    H511275   0.139   2.063  16.252 -1.5330 -0.0613 -0.9381
  763MPD2    N111276   0.116   2.043  15.680 -0.0575 -0.1611  0.2289
  763MPD2    H711277   0.214   2.069  15.670 -0.4999  1.6503  0.6842
  764MPD2     C11278   2.475   3.152   0.580 -0.3706  0.4158 -0.5054
  764MPD2    C111279   2.349   3.136   0.539 -0.5640  0.2905 -0.4273
  764MPD2    C211280   2.259   3.063   0.621  0.2478 -0.9860 -0.9000
  764MPD2    C311281   2.307   2.997   0.730  0.0243  0.3854 -0.0443
  764MPD2    C411282   2.439   3.018   0.774 -0.2337 -0.3357  0.1598
  764MPD2    C511283   2.519   3.096   0.699 -0.4415  0.2013 -0.0899
  764MPD2     H11284   2.155   3.049   0.594 -0.5518  2.4094  0.4684
  764MPD2    H111285   2.479   2.974   0.865  2.1073  1.1249 -0.1704
  764MPD2    H211286   2.549   3.209   0.524 -1.6058  2.5572  0.0350
  764MPD2    H311287   2.624   3.103   0.726  0.0670  0.0172 -1.9546
  764MPD2     N11288   2.216   2.916   0.807 -0.0097 -0.3224  0.2472
  764MPD2    H511289   2.122   2.926   0.771  1.3847  3.9206 -2.2058
  764MPD2    N111290   2.302   3.183   0.413  0.0340  0.5684 -0.3951
  764MPD2    H711291   2.214   3.143   0.382 -0.1204 -1.4210  2.5850
  765MPD2     C11292   2.410   1.141  15.365 -0.4507 -0.6972  0.1885
  765MPD2    C111293   2.466   1.248  15.429  0.0991 -0.2378  0.0428
  765MPD2    C211294   2.602   1.257  15.442 -0.0283 -0.4810  0.1184
  765MPD2    C311295   2.687   1.158  15.390  0.2625 -0.1964  0.7416
  765MPD2    C411296   2.632   1.054  15.330  0.6139  0.4534  0.4524
  765MPD2    C511297   2.493   1.044  15.310 -0.9693  0.4479 -0.8172
  765MPD2     H11298   2.646   1.351  15.472  1.7661 -0.7466 -1.7197
  765MPD2    H111299   2.693   0.983  15.274  0.4225 -0.0563  0.8962
  765MPD2    H211300   2.303   1.126  15.356 -0.7963  1.8441 -0.0390
  765MPD2    H311301   2.463   0.955  15.255 -1.4771  0.1925 -0.1302
  765MPD2     N11302   2.823   1.185  15.391  0.5445 -0.0936 -0.2157
  765MPD2    H511303   2.863   1.274  15.417 -0.9641  0.2689  0.8770
  765MPD2    N111304   2.371   1.348  15.469 -0.1432  0.3937  0.5970
  765MPD2    H711305   2.276   1.327  15.441  0.3543 -2.7042  1.2662
  766MPD2     C11306   1.744   1.620  15.354 -0.0755  0.0054  0.2434
  766MPD2    C111307   1.880   1.594  15.335  0.1551  0.5119 -0.4088
  766MPD2    C211308   1.939   1.590  15.214  0.6499  0.3795 -0.6414
  766MPD2    C311309   1.869   1.620  15.096  0.7864 -0.0849  0.3023
  766MPD2    C411310   1.731   1.635  15.114 -0.1346 -0.2506 -0.2525
  766MPD2    C511311   1.673   1.641  15.237 -0.3366  0.5629  0.1006
  766MPD2     H11312   2.045   1.567  15.219  0.4820  0.0388  1.2684
  766MPD2    H111313   1.669   1.658  15.028 -1.0109 -2.9317 -0.3540
  766MPD2    H211314   1.696   1.617  15.450  1.1822  3.0905  0.9720
  766MPD2    H311315   1.567   1.660  15.245 -0.4352  0.4004 -0.8383
  766MPD2     N11316   1.928   1.625  14.973 -0.0859  0.2384  0.4508
  766MPD2    H511317   1.879   1.656  14.890  0.6423  2.3644  0.8186
  766MPD2    N111318   1.966   1.569  15.437 -0.1141 -0.4854  0.3053
  766MPD2    H711319   2.061   1.561  15.402  0.2140 -0.0129  1.0852
  767MPD2     C11320   1.631   1.955  15.082  0.4427  0.0514 -0.5124
  767MPD2    C111321   1.754   1.986  15.036  0.2116  0.3646 -0.3137
  767MPD2    C211322   1.775   1.993  14.895  0.3618  0.5691  0.2402
  767MPD2    C311323   1.676   1.965  14.807 -0.8921  0.2751  0.6006
  767MPD2    C411324   1.552   1.942  14.859  0.6894  0.4840 -0.3105
  767MPD2    C511325   1.532   1.935  14.998  0.3887 -1.0631  0.3891
  767MPD2     H11326   1.873   2.011  14.852  1.7311 -2.9471  1.8585
  767MPD2    H111327   1.465   1.920  14.798  1.1238  0.3712 -0.8865
  767MPD2    H211328   1.615   1.935  15.188  3.1923  0.3543 -0.0521
  767MPD2    H311329   1.434   1.907  15.035 -0.3404 -1.6876 -2.0055
  767MPD2     N11330   1.706   1.960  14.667 -0.1845  0.0530  0.0809
  767MPD2    H511331   1.800   1.981  14.636  0.6848 -1.8865  1.4141
  767MPD2    N111332   1.853   2.008  15.131  0.2408 -0.0175 -0.6933
  767MPD2    H711333   1.825   2.004  15.228  1.2379  0.5217 -0.3839
  768MPD2     C11334   3.692   0.882  10.332  0.6808  0.5304 -0.0713
  768MPD2    C111335   3.641   0.826  10.451 -0.4515  1.0196  0.7604
  768MPD2    C211336   3.720   0.813  10.563  0.3514 -0.7115  0.0058
  768MPD2    C311337   3.854   0.861  10.558  0.1390  0.0813 -0.5314
  768MPD2    C411338   3.897   0.915  10.441  0.0157 -0.5295 -0.1911
  768MPD2    C511339   3.817   0.925  10.330  0.6762 -0.3357  0.2123
  768MPD2     H11340   3.684   0.766  10.654  2.3452  0.3757  1.3531
  768MPD2    H111341   4.001   0.946  10.434  0.8598 -3.5956 -0.9395
  768MPD2    H211342   3.633   0.895  10.241  1.0867  0.1951 -0.3858
  768MPD2    H311343   3.855   0.976  10.242 -0.0124  1.5576  1.0155
  768MPD2     N11344   3.939   0.869  10.668  0.3891 -0.1831  0.7083
  768MPD2    H511345   4.025   0.922  10.664  0.4825 -0.2607  1.5935
  768MPD2    N111346   3.506   0.808  10.464 -0.0690 -0.0734  0.1615
  768MPD2    H711347   3.466   0.800  10.557  1.2261  0.6354  0.7760
  769MPD2     C11348   4.066   2.746  14.786 -0.8083  0.3874 -0.8900
  769MPD2    C111349   3.966   2.713  14.873  0.1525  0.4728  0.0788
  769MPD2    C211350   3.960   2.783  14.993  0.2681 -0.0033 -0.5405
  769MPD2    C311351   4.060   2.872  15.028  0.2909  0.1244 -0.2914
  769MPD2    C411352   4.162   2.900  14.944  0.1082  0.3639  0.0050
  769MPD2    C511353   4.158   2.841  14.818 -0.0325 -0.0098  0.5739
  769MPD2     H11354   3.872   2.765  15.053  1.7267  1.1154  1.9271
  769MPD2    H111355   4.251   2.955  14.973  0.1540  0.8550 -1.0723
  769MPD2    H211356   4.086   2.704  14.688 -0.8335 -0.8206 -0.3769
  769MPD2    H311357   4.236   2.855  14.745  1.0433  0.8865  1.8894
  769MPD2     N11358   4.053   2.923  15.160  0.3940  0.9935 -0.1445
  769MPD2    H511359   3.989   2.883  15.228  2.8651 -3.2256 -0.3107
  769MPD2    N111360   3.869   2.620  14.845  0.7835  0.0063 -0.0052
  769MPD2    H711361   3.799   2.608  14.919 -1.4731 -1.5198 -2.3897
  770MPD2     C11362   3.037   2.056  14.969  0.4604  0.2870  0.8818
  770MPD2    C111363   3.085   2.035  14.844 -0.2251  0.3304 -0.1560
  770MPD2    C211364   3.176   2.119  14.794 -0.0220 -0.0031  0.9350
  770MPD2    C311365   3.235   2.219  14.871 -0.1122 -0.1017  0.5553
  770MPD2    C411366   3.200   2.229  14.999 -0.0391 -0.0405 -0.7726
  770MPD2    C511367   3.102   2.149  15.045 -0.9432 -0.1660 -0.3104
  770MPD2     H11368   3.201   2.110  14.689 -1.2478  0.6857  0.5848
  770MPD2    H111369   3.249   2.303  15.061  0.7336 -0.4226 -0.9344
  770MPD2    H211370   2.955   2.001  15.014 -0.6543 -0.0629 -1.5909
  770MPD2    H311371   3.073   2.149  15.149 -0.7081  0.2550 -0.2452
  770MPD2     N11372   3.341   2.303  14.811 -0.0830  0.5391 -0.0371
  770MPD2    H511373   3.374   2.289  14.716 -0.4932 -1.6441  0.1530
  770MPD2    N111374   3.049   1.928  14.766  0.1459 -0.3142  0.0661
  770MPD2    H711375   3.114   1.912  14.689  0.4928 -3.0045  0.9173
  771MPD2     C11376   4.667   1.269  14.055 -0.7086 -0.2115  0.1597
  771MPD2    C111377   4.561   1.346  14.022 -0.3306 -0.7494  0.6564
  771MPD2    C211378   4.445   1.290  13.977 -0.2248 -0.0560  0.2062
  771MPD2    C311379   4.423   1.157  13.990  0.1016  0.5436 -0.1353
  771MPD2    C411380   4.521   1.080  14.034  0.2067 -0.9501  0.2613
  771MPD2    C511381   4.641   1.135  14.075  0.6268 -0.0340 -0.8688
  771MPD2     H11382   4.365   1.359  13.951 -0.6724 -0.5599  0.2611
  771MPD2    H111383   4.501   0.974  14.047 -1.7358 -0.6604 -0.4237
  771MPD2    H211384   0.047   1.305  14.073 -0.0806 -0.0470 -3.8877
  771MPD2    H311385   0.007   1.077  14.104  1.9556  2.7078  0.6200
  771MPD2     N11386   4.302   1.114  13.922  0.1429  0.4639 -0.0901
  771MPD2    H511387   4.240   1.186  13.886 -1.1064 -0.6956 -0.2875
  771MPD2    N111388   4.562   1.487  14.015 -0.3438  0.0278 -0.2065
  771MPD2    H711389   4.488   1.528  13.959 -0.1238  2.4068  1.2618
  772MPD2     C11390   4.150   2.015  13.729 -0.0516  0.3727 -0.1686
  772MPD2    C111391   4.171   1.920  13.823  0.8520 -0.1386 -0.1627
  772MPD2    C211392   4.061   1.860  13.890  0.6272 -0.4992 -0.0762
  772MPD2    C311393   3.935   1.900  13.861 -0.0358 -0.1479  0.2427
  772MPD2    C411394   3.918   2.000  13.768 -0.1899  0.2803 -0.1275
  772MPD2    C511395   4.024   2.067  13.714  0.9838 -0.1843  0.3916
  772MPD2     H11396   4.074   1.792  13.973 -2.0769 -0.1203  0.6644
  772MPD2    H111397   3.816   2.034  13.751 -0.5279 -1.0468 -0.7780
  772MPD2    H211398   4.233   2.059  13.676 -0.0759 -1.3571 -1.6669
  772MPD2    H311399   3.997   2.137  13.636 -2.2782  0.0939  1.7937
  772MPD2     N11400   3.821   1.842  13.919  0.1090 -0.6022  0.7914
  772MPD2    H511401   3.729   1.864  13.882  0.3736 -1.3437 -0.2854
  772MPD2    N111402   4.298   1.864  13.851 -0.0053  0.3545 -0.2832
  772MPD2    H711403   4.301   1.780  13.908 -0.1829 -0.8152 -2.0005
  773MPD2     C11404   3.419   2.213   1.012  0.2357  0.2039 -0.2326
  773MPD2    C111405   3.415   2.191   0.873  0.7488 -0.7459 -0.1052
  773MPD2    C211406   3.439   2.068   0.822 -0.5314  0.7467 -0.2951
  773MPD2    C311407   3.464   1.956   0.909 -0.0595  1.0052  0.3109
  773MPD2    C411408   3.471   1.976   1.039 -0.5039 -0.0488 -0.0175
  773MPD2    C511409   3.456   2.102   1.088  0.3102 -0.1343 -0.2383
  773MPD2     H11410   3.411   2.046   0.720  2.8996  0.4718 -1.1846
  773MPD2    H111411   3.502   1.900   1.109 -2.2913 -1.4361 -0.7245
  773MPD2    H211412   3.382   2.301   1.064  0.3009 -0.5030  1.0141
  773MPD2    H311413   3.459   2.111   1.197  2.5777  1.5006 -0.4281
  773MPD2     N11414   3.486   1.830   0.841 -0.4372  0.1942 -0.3190
  773MPD2    H511415   3.504   1.833   0.742  1.4961  2.1558  0.0803
  773MPD2    N111416   3.374   2.297   0.786  0.0078  1.0224  0.1123
  773MPD2    H711417   3.362   2.275   0.688 -0.9980  0.1608  0.4283
  774MPD2     C11418   2.868   1.673  12.961  0.2102 -0.1343  0.3228
  774MPD2    C111419   2.870   1.700  13.099  0.2537  0.1084  0.0156
  774MPD2    C211420   2.943   1.803  13.152  0.3505 -0.0973 -0.2398
  774MPD2    C311421   3.016   1.883  13.078 -0.5319 -0.2731  0.0692
  774MPD2    C411422   3.000   1.872  12.942 -0.7029  0.0375  0.0057
  774MPD2    C511423   2.928   1.769  12.881  0.7015  0.2127  0.3554
  774MPD2     H11424   2.954   1.816  13.259 -0.2276  0.9309 -0.3125
  774MPD2    H111425   3.058   1.938  12.878  1.2811 -1.0355  0.6892
  774MPD2    H211426   2.801   1.603  12.914 -0.7794  0.3716  0.9835
  774MPD2    H311427   2.925   1.759  12.773 -1.7856 -0.0387  0.4687
  774MPD2     N11428   3.111   1.973  13.135 -0.4248  0.8406 -0.2986
  774MPD2    H511429   3.158   2.037  13.072  2.0876 -0.3369  0.3965
  774MPD2    N111430   2.807   1.613  13.189  0.0664  1.0505 -0.0462
  774MPD2    H711431   2.822   1.638  13.286  1.7802 -1.5876  0.3678
  775MPD2     C11432   4.220   2.689  15.996 -0.2897  0.2923  0.4083
  775MPD2    C111433   4.140   2.797  16.040  0.3697 -0.0129 -0.1288
  775MPD2    C211434   4.174   2.925  16.007  0.0984 -0.5186  0.4335
  775MPD2    C311435   4.287   2.946  15.931  0.5691  0.6348 -0.0372
  775MPD2    C411436   4.364   2.843  15.894 -0.5506  0.2128 -1.0088
  775MPD2    C511437   4.328   2.715  15.921  0.8976 -0.0003  0.5820
  775MPD2     H11438   4.116   3.007  16.047  2.9104  1.4456  0.4500
  775MPD2    H111439   4.458   2.846  15.840  1.1986  0.8632  2.0409
  775MPD2    H211440   4.204   2.586  16.026 -2.3969  0.5866  0.3243
  775MPD2    H311441   4.386   2.630  15.888  0.7586 -0.2377  0.9460
  775MPD2     N11442   4.319   3.074  15.875  0.2230 -0.1008  0.7809
  775MPD2    H511443   4.401   3.072  15.816 -0.6682 -0.6084 -0.4333
  775MPD2    N111444   4.032   2.758  16.126  0.4913  0.0274  0.3848
  775MPD2    H711445   4.025   2.662  16.159 -1.3983  0.6544  1.7841
  776MPD2     C11446   4.221   3.683  11.657  0.6900 -0.0777  0.2753
  776MPD2    C111447   4.090   3.714  11.685 -0.3833  0.5464  0.3233
  776MPD2    C211448   4.051   3.846  11.677 -0.1954 -0.6189  0.2566
  776MPD2    C311449   4.145   3.945  11.657 -0.4269 -0.3822  0.0228
  776MPD2    C411450   4.277   3.921  11.653 -0.4384 -0.6694 -0.2351
  776MPD2    C511451   4.314   3.789  11.654  0.1003 -0.6627  0.8174
  776MPD2     H11452   3.948   3.871  11.699 -0.5676 -3.0340  1.2508
  776MPD2    H111453   4.350   4.000  11.643 -0.5093 -0.5420  0.3057
  776MPD2    H211454   4.263   3.585  11.674 -0.2221 -0.7247 -1.2531
  776MPD2    H311455   4.420   3.769  11.657  0.5475  1.5102 -0.6302
  776MPD2     N11456   4.101   4.080  11.648 -0.6489 -0.0642 -0.1053
  776MPD2    H511457   4.169   4.152  11.625 -1.0824  0.5100  0.4188
  776MPD2    N111458   3.992   3.609  11.699 -0.4901  0.5377 -1.2637
  776MPD2    H711459   4.011   3.518  11.657 -1.3984  0.5273 -1.6642
  777MPD2     C11460   3.633   0.068   1.390 -0.0149  0.3900 -0.3146
  777MPD2    C111461   3.590   0.199   1.359 -0.2184  0.0808  1.0763
  777MPD2    C211462   3.595   0.234   1.224 -0.5405 -0.2908 -0.1741
  777MPD2    C311463   3.657   0.151   1.128  0.0193  0.0392  0.0321
  777MPD2    C411464   3.722   0.035   1.169 -0.6967  0.1050 -0.4001
  777MPD2    C511465   3.699   4.716   1.293  0.2687 -0.9098 -0.1033
  777MPD2     H11466   3.555   0.325   1.181 -1.3955 -0.9009 -0.6692
  777MPD2    H111467   3.779   4.689   1.107 -0.1588  0.1746  0.0230
  777MPD2    H211468   3.624   0.022   1.488  0.6608 -0.3993 -0.6325
  777MPD2    H311469   3.743   4.620   1.318  0.5245 -0.4125  1.3461
  777MPD2     N11470   3.649   0.194   0.999 -0.2439  0.1238 -0.2732
  777MPD2    H511471   3.588   0.273   0.983 -2.4353 -1.6898 -0.9513
  777MPD2    N111472   3.539   0.291   1.452  0.1868 -0.2152 -0.3856
  777MPD2    H711473   3.549   0.268   1.551  0.7368  1.8868  0.0551
  778MPD2     C11474   4.120   0.714  15.196 -0.6330  0.9421 -0.3835
  778MPD2    C111475   4.072   0.749  15.071 -0.4986  0.5085  0.1855
  778MPD2    C211476   4.153   0.817  14.987  0.3394  0.2064 -0.0948
  778MPD2    C311477   4.280   0.858  15.017 -0.8584  0.9003  0.5207
  778MPD2    C411478   4.338   0.804  15.136  0.2183  0.2139  0.1237
  778MPD2    C511479   4.251   0.739  15.223  0.4793 -0.3015  0.7330
  778MPD2     H11480   4.103   0.843  14.894 -0.0925 -1.0558 -0.2167
  778MPD2    H111481   4.443   0.806  15.166 -0.0796 -3.4940  1.5302
  778MPD2    H211482   4.060   0.664  15.272 -0.2595  1.5891  0.3381
  778MPD2    H311483   4.294   0.696  15.313  0.2933 -1.9193  0.0481
  778MPD2     N11484   4.354   0.928  14.912 -0.3313 -0.1896 -0.0635
  778MPD2    H511485   4.305   0.937  14.824 -0.0571  0.8315 -0.1190
  778MPD2    N111486   3.948   0.703  15.021 -0.1449 -0.0411  0.2377
  778MPD2    H711487   3.932   0.732  14.925 -0.7715 -1.4791 -0.0822
  779MPD2     C11488   4.021   4.238  14.566 -0.4153 -0.5491 -0.1931
  779MPD2    C111489   4.160   4.258  14.585 -0.1857 -0.8502  0.0789
  779MPD2    C211490   4.198   4.387  14.625  0.7797  0.1418  0.2146
  779MPD2    C311491   4.109   4.487  14.628  0.0721 -0.0589  0.3142
  779MPD2    C411492   3.973   4.464  14.629 -0.1773 -0.0490  0.2090
  779MPD2    C511493   3.936   4.335  14.612  0.3721 -0.7526  0.0091
  779MPD2     H11494   4.304   4.407  14.618  0.6765  0.8836  0.7701
  779MPD2    H111495   3.899   4.538  14.654  0.1581  0.6924 -0.9632
  779MPD2    H211496   3.982   4.141  14.537 -2.1774 -0.4603  1.8546
  779MPD2    H311497   3.829   4.319  14.613  0.3845 -0.7650  1.2788
  779MPD2     N11498   4.157   4.623  14.630  0.2255 -0.5366  0.2187
  779MPD2    H511499   4.253   4.640  14.659 -0.1435 -1.6107  2.0467
  779MPD2    N111500   4.256   4.171  14.541 -0.5757 -0.2758 -0.1013
  779MPD2    H711501   4.352   4.197  14.559 -0.3519 -0.9068 -0.3900
  780MPD2     C11502   3.428   3.875   0.978  0.0305  0.5237 -0.3094
  780MPD2    C111503   3.560   3.920   0.986 -0.0254  0.4154  0.4865
  780MPD2    C211504   3.619   3.977   0.882 -0.9334 -0.1651  0.0117
  780MPD2    C311505   3.557   3.979   0.762 -0.7891  0.3409  0.3556
  780MPD2    C411506   3.431   3.917   0.748  0.0871 -0.5469 -0.1632
  780MPD2    C511507   3.358   3.872   0.855 -0.8515  0.6117 -0.4362
  780MPD2     H11508   3.714   4.020   0.912 -0.2252 -0.9209 -1.1547
  780MPD2    H111509   3.379   3.917   0.653 -1.1795  0.9825  0.5105
  780MPD2    H211510   3.369   3.833   1.059  1.3251 -0.3971  0.1579
  780MPD2    H311511   3.264   3.822   0.838 -0.3505 -0.2229 -0.7537
  780MPD2     N11512   3.619   4.026   0.643  0.2928 -0.6844 -0.5613
  780MPD2    H511513   3.573   4.005   0.555  0.1237 -1.5782 -0.2599
  780MPD2    N111514   3.624   3.910   1.117  0.4596 -0.4424  0.0125
  780MPD2    H711515   3.565   3.858   1.182  1.8760 -0.6923  1.0916
  781MPD2     C11516   0.870   2.143  11.787 -0.0181 -0.3637  0.5288
  781MPD2    C111517   0.971   2.143  11.882 -0.1390 -0.5404 -0.7175
  781MPD2    C211518   1.101   2.156  11.832  0.5856 -0.2607 -0.4041
  781MPD2    C311519   1.142   2.156  11.702 -0.2722 -0.5603 -0.7672
  781MPD2    C411520   1.040   2.140  11.609 -0.5529 -0.5821  0.5028
  781MPD2    C511521   0.910   2.143  11.654  0.6866 -0.1201  0.1907
  781MPD2     H11522   1.170   2.156  11.916 -0.9293  1.4272  0.8092
  781MPD2    H111523   1.066   2.154  11.504 -1.6116  0.1559  0.3330
  781MPD2    H211524   0.764   2.139  11.808  0.0253 -1.9094  0.4548
  781MPD2    H311525   0.832   2.151  11.580  0.1541  1.5804  0.9185
  781MPD2     N11526   1.279   2.181  11.664 -0.3244 -0.7137  0.5870
  781MPD2    H511527   1.294   2.179  11.564 -0.7854 -1.8074  0.5343
  781MPD2    N111528   0.947   2.148  12.015 -0.3547  0.1711 -0.0879
  781MPD2    H711529   1.024   2.174  12.075 -0.8671 -0.2182  0.7579
  782MPD2     C11530   4.130   2.847  10.177 -0.2710  0.0958 -0.1130
  782MPD2    C111531   4.164   2.729  10.239 -0.0824 -0.3369  0.7417
  782MPD2    C211532   4.258   2.729  10.338  0.8576 -0.2944 -0.6447
  782MPD2    C311533   4.335   2.842  10.371  0.3114  0.2324  0.5525
  782MPD2    C411534   4.308   2.958  10.294  0.1764 -0.2820  0.2777
  782MPD2    C511535   4.207   2.960  10.203 -0.2543 -0.1139 -0.3659
  782MPD2     H11536   4.272   2.629  10.379 -0.7157 -0.5498 -0.7315
  782MPD2    H111537   4.367   3.047  10.314  0.0901 -0.4775  1.3716
  782MPD2    H211538   4.038   2.856  10.120  1.1698  0.2326 -2.4227
  782MPD2    H311539   4.182   3.051  10.148  0.0955 -0.4064 -1.0182
  782MPD2     N11540   4.442   2.826  10.461  0.7587  0.6279 -0.6446
  782MPD2    H511541   4.448   2.734  10.503  1.4055  0.1296 -1.8287
  782MPD2    N111542   4.104   2.606  10.216  0.0852 -0.0461 -0.1468
  782MPD2    H711543   4.135   2.531  10.277 -0.4260 -0.4258 -0.3591
  783MPD2     C11544   3.777   2.333  10.831 -0.2159  0.0568  0.0783
  783MPD2    C111545   3.731   2.434  10.754  0.2571  0.1840  0.1981
  783MPD2    C211546   3.757   2.437  10.618  0.2707 -0.8535 -0.2065
  783MPD2    C311547   3.818   2.326  10.562  0.7402 -0.0398 -0.2801
  783MPD2    C411548   3.860   2.224  10.639 -0.2721 -0.6482  0.0941
  783MPD2    C511549   3.841   2.231  10.773 -0.0330  0.1849  0.4903
  783MPD2     H11550   3.733   2.525  10.560 -3.4759 -1.3691  0.5272
  783MPD2    H111551   3.917   2.140  10.600 -2.0919 -1.9854  0.3211
  783MPD2    H211552   3.764   2.319  10.937  0.3564  2.0402  0.4209
  783MPD2    H311553   3.864   2.141  10.828  3.6506  0.7373 -0.1508
  783MPD2     N11554   3.843   2.323  10.422  0.7135 -0.1483 -0.8518
  783MPD2    H511555   3.825   2.413  10.378 -1.6503  1.0759  2.6183
  783MPD2    N111556   3.668   2.539  10.816 -0.0696 -0.4391 -0.6142
  783MPD2    H711557   3.672   2.536  10.918 -0.0600 -1.6018 -0.6466
  784MPD2     C11558   1.844   2.371   0.977  0.5919  0.0483 -0.2513
  784MPD2    C111559   1.718   2.394   1.037 -0.2272 -0.3003 -0.5343
  784MPD2    C211560   1.625   2.446   0.948  0.0984 -0.2422  0.1484
  784MPD2    C311561   1.644   2.493   0.816 -0.6043 -0.0490  0.1302
  784MPD2    C411562   1.772   2.487   0.773  0.3422  0.0867 -0.0516
  784MPD2    C511563   1.868   2.422   0.850  0.1537 -0.2252  0.0875
  784MPD2     H11564   1.524   2.445   0.986 -0.4522 -2.2538 -1.3644
  784MPD2    H111565   1.807   2.522   0.677  1.8153 -1.6004 -0.1350
  784MPD2    H211566   1.921   2.314   1.028 -1.1444 -0.4545  1.8134
  784MPD2    H311567   1.968   2.413   0.811  1.4046  2.6599  2.7025
  784MPD2     N11568   1.533   2.549   0.749  0.5978 -0.3106  0.1245
  784MPD2    H511569   1.443   2.553   0.795  0.7893  1.9080  0.3498
  784MPD2    N111570   1.682   2.371   1.165 -0.1205  0.1274 -0.1189
  784MPD2    H711571   1.583   2.374   1.188 -0.0963 -0.1897  0.0288
  785MPD2     C11572   2.346   1.465  10.741  0.1567 -0.3727 -0.7563
  785MPD2    C111573   2.284   1.568  10.680  0.5704 -0.2769  0.5453
  785MPD2    C211574   2.196   1.542  10.578  0.1875  0.5121  0.1878
  785MPD2    C311575   2.160   1.416  10.541 -1.0920 -0.4674 -0.0538
  785MPD2    C411576   2.222   1.309  10.598 -0.1506 -0.0319 -0.0420
  785MPD2    C511577   2.328   1.331  10.694  0.4831 -0.2710 -0.8394
  785MPD2     H11578   2.140   1.616  10.522  0.4085 -0.4445 -1.3230
  785MPD2    H111579   2.204   1.208  10.562 -0.9090  0.1554 -0.1855
  785MPD2    H211580   2.399   1.477  10.835 -0.3540 -0.7207 -0.4256
  785MPD2    H311581   2.374   1.254  10.754 -0.2351  0.5602  0.7842
  785MPD2     N11582   2.053   1.399  10.455 -0.0748  0.4662  0.3047
  785MPD2    H511583   2.035   1.478  10.394  0.6105  1.0207  0.8299
  785MPD2    N111584   2.316   1.697  10.734 -0.4155 -0.2932  0.1606
  785MPD2    H711585   2.376   1.689  10.816  0.5385 -0.9893 -0.6052
  786MPD2     C11586   4.455   3.740  14.673 -0.1325 -0.6128 -0.4769
  786MPD2    C111587   4.586   3.703  14.651  0.6434 -0.1308 -0.3460
  786MPD2    C211588   4.679   3.724  14.754  0.1288 -0.0428  0.1322
  786MPD2    C311589   4.657   3.808  14.861  0.2771  0.5824  0.0032
  786MPD2    C411590   4.523   3.845  14.873  0.2014  0.5994 -0.3308
  786MPD2    C511591   4.421   3.802  14.791 -0.0093 -0.4182  0.4451
  786MPD2     H11592   0.048   3.664  14.753  0.9291  1.1890 -0.8965
  786MPD2    H111593   4.495   3.900  14.962 -1.3098 -0.6442 -0.0518
  786MPD2    H211594   4.380   3.727  14.596 -0.4569 -2.0931  0.0892
  786MPD2    H311595   4.319   3.837  14.797  0.0452 -0.3913  1.2502
  786MPD2     N11596   0.035   3.846  14.951 -0.0095 -0.2176  0.5563
  786MPD2    H511597   0.013   3.927  15.008 -1.2909 -0.2927  0.1787
  786MPD2    N111598   4.637   3.634  14.533  0.0297 -1.1232  0.5305
  786MPD2    H711599   0.013   3.607  14.540  0.4043  0.1054 -0.1306
  787MPD2     C11600   0.363   3.249  14.649  0.9449  0.0826  0.6927
  787MPD2    C111601   0.356   3.247  14.513 -0.1719 -1.0450  0.0940
  787MPD2    C211602   0.448   3.175  14.442  0.4357  0.1996 -0.1438
  787MPD2    C311603   0.541   3.098  14.510  0.7212 -0.2467 -0.1950
  787MPD2    C411604   0.533   3.085  14.646 -0.4820 -0.8120 -0.4388
  787MPD2    C511605   0.454   3.166  14.716  0.0321  0.5962  0.4269
  787MPD2     H11606   0.463   3.183  14.335  1.3143 -0.4066 -0.0609
  787MPD2    H111607   0.601   3.021  14.702  1.6380  0.2795 -1.7508
  787MPD2    H211608   0.293   3.305  14.710 -0.5812  1.4245 -2.2890
  787MPD2    H311609   0.457   3.168  14.824 -0.6804 -0.0863  0.4656
  787MPD2     N11610   0.638   3.026  14.434 -0.3479  0.2992  0.2533
  787MPD2    H511611   0.642   3.034  14.333  1.5206 -1.1461  0.2245
  787MPD2    N111612   0.258   3.326  14.455 -0.0254 -0.4155  0.2441
  787MPD2    H711613   0.200   3.391  14.507 -2.6081 -1.0993 -1.7951
  788MPD2     C11614   1.642   1.423   1.240  0.0857 -0.1749  0.0400
  788MPD2    C111615   1.696   1.375   1.125 -0.3487 -0.6902 -0.4831
  788MPD2    C211616   1.772   1.461   1.048 -0.2874 -0.4974 -0.1729
  788MPD2    C311617   1.804   1.584   1.090 -0.1328 -0.0073  0.5563
  788MPD2    C411618   1.749   1.633   1.199 -0.3265  0.3546 -0.0435
  788MPD2    C511619   1.675   1.552   1.278 -0.6645 -0.1550  0.0520
  788MPD2     H11620   1.820   1.422   0.959 -1.0141 -1.6432 -0.0660
  788MPD2    H111621   1.762   1.736   1.230 -2.5211  1.2041 -1.9068
  788MPD2    H211622   1.565   1.368   1.293 -0.1746  1.1730  1.0693
  788MPD2    H311623   1.616   1.605   1.351  0.7948  1.6423 -0.0629
  788MPD2     N11624   1.889   1.671   1.018  0.2602  0.5368  0.8564
  788MPD2    H511625   1.918   1.755   1.067 -2.1432  1.1147  1.2745
  788MPD2    N111626   1.670   1.250   1.070  0.2376  0.3914  0.1022
  788MPD2    H711627   1.699   1.232   0.974 -0.7714  0.4639 -0.2118
  789MPD2     C11628   2.693   1.653  15.809  0.0430  0.1935  0.3182
  789MPD2    C111629   2.634   1.558  15.889  0.0077  0.2147  0.5003
  789MPD2    C211630   2.549   1.608  15.988 -0.2708 -0.6606 -0.1801
  789MPD2    C311631   2.522   1.740  15.996 -0.4485 -0.6855  0.8115
  789MPD2    C411632   2.580   1.830  15.913 -0.2608  0.4016  0.7951
  789MPD2    C511633   2.675   1.787  15.826 -0.3189  0.1943 -0.4861
  789MPD2     H11634   2.507   1.529  16.050 -2.3718  0.5212 -0.1235
  789MPD2    H111635   2.546   1.933  15.911 -0.7307  0.2191 -0.8470
  789MPD2    H211636   2.776   1.625  15.745 -0.1830  0.7045 -0.2029
  789MPD2    H311637   2.719   1.859  15.758  3.3889 -1.6601 -0.0598
  789MPD2     N11638   2.407   1.789  16.064  0.5961 -0.7210  0.1440
  789MPD2    H511639   2.400   1.890  16.055 -0.3310 -1.0021 -2.4398
  789MPD2    N111640   2.634   1.417  15.877 -0.6808  0.1608  0.0152
  789MPD2    H711641   2.577   1.365  15.942 -0.6294  0.5692  0.3847
  790MPD2     C11642   3.681   3.655  13.577 -0.1416  0.3502 -0.0947
  790MPD2    C111643   3.601   3.542  13.545 -0.3277 -0.1709  0.4120
  790MPD2    C211644   3.538   3.531  13.424 -0.7141 -0.1963 -0.2773
  790MPD2    C311645   3.565   3.617  13.319  0.5158  0.1192  0.4354
  790MPD2    C411646   3.641   3.729  13.352 -0.2473 -0.2989  0.3727
  790MPD2    C511647   3.702   3.743  13.480 -0.3210  0.6756 -1.3350
  790MPD2     H11648   3.468   3.450  13.405 -1.0008  0.3522 -1.5611
  790MPD2    H111649   3.659   3.817  13.292  1.7275  0.2155  1.7242
  790MPD2    H211650   3.715   3.680  13.677 -1.2963 -2.2823  0.9585
  790MPD2    H311651   3.745   3.841  13.495  0.2254 -0.0371  1.9568
  790MPD2     N11652   3.518   3.584  13.185  0.2611  0.4254 -0.1153
  790MPD2    H511653   3.445   3.515  13.172  0.7464 -0.2683  0.9285
  790MPD2    N111654   3.561   3.462  13.646  0.7647 -0.3225 -0.5696
  790MPD2    H711655   3.596   3.481  13.740  0.0403 -0.3321 -0.2898
  791MPD2     C11656   2.918   3.815  12.689 -0.7155 -0.9522 -0.5992
  791MPD2    C111657   2.943   3.704  12.756  0.5227 -0.7026 -0.4307
  791MPD2    C211658   2.855   3.614  12.804  0.3149 -0.7256  0.6832
  791MPD2    C311659   2.729   3.626  12.747 -0.6010  0.0228 -0.0094
  791MPD2    C411660   2.702   3.732  12.667  0.0686 -0.7675 -0.4640
  791MPD2    C511661   2.792   3.833  12.651  0.1134 -0.1948 -0.7329
  791MPD2     H11662   2.882   3.539  12.877 -0.3072  0.7702  2.4658
  791MPD2    H111663   2.614   3.760  12.611 -0.6250  0.1370  1.0809
  791MPD2    H211664   2.993   3.882  12.649  0.4385 -1.2807  1.0423
  791MPD2    H311665   2.757   3.912  12.586  0.1913  1.0766  0.7689
  791MPD2     N11666   2.630   3.529  12.777  0.2564 -0.3611  0.4057
  791MPD2    H511667   2.658   3.450  12.835 -0.9443 -0.7854  0.4141
  791MPD2    N111668   3.085   3.686  12.777 -0.7661 -0.3179 -0.3691
  791MPD2    H711669   3.144   3.753  12.729  0.3474  0.3796  1.9611
  792MPD2     C11670   4.347   3.606  11.323 -0.2323 -0.4954 -0.0713
  792MPD2    C111671   4.222   3.673  11.304 -0.5975 -0.1200 -0.0494
  792MPD2    C211672   4.116   3.590  11.273 -0.0202 -0.2660  0.0863
  792MPD2    C311673   4.130   3.454  11.257  0.1255 -0.1867  0.0037
  792MPD2    C411674   4.249   3.394  11.283  0.5052 -0.1752  0.3171
  792MPD2    C511675   4.353   3.473  11.321  0.2626 -0.3791 -0.0337
  792MPD2     H11676   4.021   3.641  11.257  0.2022  0.6047  1.5291
  792MPD2    H111677   4.260   3.286  11.277 -3.0176 -0.5435  0.2037
  792MPD2    H211678   4.432   3.663  11.359 -0.4622 -0.8208  0.9855
  792MPD2    H311679   4.447   3.421  11.332 -0.8906 -2.3075  0.7180
  792MPD2     N11680   4.026   3.366  11.224  0.0653  0.1579  0.2811
  792MPD2    H511681   4.048   3.272  11.193  0.8471  1.1816 -2.2836
  792MPD2    N111682   4.212   3.818  11.323  0.3261 -0.3253 -0.1930
  792MPD2    H711683   4.298   3.871  11.330  1.3406 -1.7971 -1.6968
  793MPD2     C11684   3.217   3.681  10.777 -0.3000  0.5500 -0.3299
  793MPD2    C111685   3.338   3.723  10.813  0.2955  0.5107 -0.2904
  793MPD2    C211686   3.419   3.643  10.902 -0.1615  0.6430 -0.4483
  793MPD2    C311687   3.378   3.516  10.933  0.2445 -0.4586 -0.2936
  793MPD2    C411688   3.257   3.469  10.885 -0.3773  0.1915 -0.3168
  793MPD2    C511689   3.175   3.556  10.818  0.6433  0.3861  0.3045
  793MPD2     H11690   3.509   3.685  10.944 -1.4719  2.7987  0.1761
  793MPD2    H111691   3.218   3.368  10.890 -1.1197  0.5823  1.7271
  793MPD2    H211692   3.147   3.732  10.712 -1.0334  0.0034  0.0371
  793MPD2    H311693   3.079   3.521  10.782  0.5348 -0.0816  1.0561
  793MPD2     N11694   3.473   3.439  11.001  0.3968  0.3703  0.1668
  793MPD2    H511695   3.561   3.483  11.025 -0.3566  0.7716  2.1756
  793MPD2    N111696   3.388   3.846  10.764  0.2346  0.2321  0.0920
  793MPD2    H711697   3.468   3.883  10.816  0.7337 -0.5783 -0.0911
  794MPD2     C11698   3.501   2.465   0.083  0.2487 -0.0493 -0.2858
  794MPD2    C111699   3.373   2.522   0.120  0.4530 -0.6498 -0.4726
  794MPD2    C211700   3.309   2.596   0.017 -0.1062 -0.1974  0.3615
  794MPD2    C311701   3.356   2.599  17.574 -0.1808 -1.2717  0.0572
  794MPD2    C411702   3.466   2.530  17.542 -0.7767 -0.8130 -0.0844
  794MPD2    C511703   3.538   2.468  17.638 -0.8678  0.3970 -0.2473
  794MPD2     H11704   3.217   2.647   0.045 -0.8702 -1.1796 -0.3433
  794MPD2    H111705   3.515   2.519  17.446  1.7652 -0.1744  1.1549
  794MPD2    H211706   3.569   2.419   0.154 -0.7805 -3.7688 -1.7287
  794MPD2    H311707   3.634   2.430  17.604 -0.4394  0.0667  1.3319
  794MPD2     N11708   3.298   2.682  17.475  0.2125 -0.4137  0.0854
  794MPD2    H511709   3.346   2.695  17.386  0.9045 -0.1832  0.4888
  794MPD2    N111710   3.315   2.518   0.249 -0.6696 -0.0905  0.1359
  794MPD2    H711711   3.229   2.572   0.260 -0.5184  0.1730  0.0408
  795MPD2     C11712   0.984   0.151  14.072 -0.6719 -0.6628  1.1446
  795MPD2    C111713   0.978   0.095  13.944 -0.0316  0.0451  0.1750
  795MPD2    C211714   1.050   4.699  13.920  1.2105 -0.0212  0.0183
  795MPD2    C311715   1.139   4.654  14.015 -0.2065 -0.6157 -0.9866
  795MPD2    C411716   1.145   4.705  14.140 -0.8087  0.5067 -0.0513
  795MPD2    C511717   1.065   0.087  14.166 -0.3280  0.8049  0.6786
  795MPD2     H11718   1.045   4.638  13.831 -0.9439 -0.4769  0.4479
  795MPD2    H111719   1.204   4.673  14.226 -1.3119 -0.1206  0.0610
  795MPD2    H211720   0.927   0.235  14.109 -2.7955 -3.1608  3.5036
  795MPD2    H311721   1.074   0.141  14.260  1.1222 -0.1599  1.0910
  795MPD2     N11722   1.220   4.533  13.990  0.2697 -0.0178 -0.2782
  795MPD2    H511723   1.227   4.502  13.894 -3.6075 -1.5035 -0.1004
  795MPD2    N111724   0.896   0.148  13.840 -0.2429  0.9151  0.2459
  795MPD2    H711725   0.892   0.095  13.754 -0.9362 -0.8922  1.4097
  796MPD2     C11726   0.700   1.910  16.014 -0.2872  0.3363 -0.0376
  796MPD2    C111727   0.795   1.959  16.092  0.3914 -0.0532 -0.1496
  796MPD2    C211728   0.827   2.090  16.094  0.5178 -0.4469  0.0495
  796MPD2    C311729   0.771   2.180  16.008 -0.6592  0.3868  0.0463
  796MPD2    C411730   0.688   2.133  15.909 -0.4978 -0.2099  0.3599
  796MPD2    C511731   0.651   2.004  15.919 -0.7852 -0.2352 -0.3937
  796MPD2     H11732   0.897   2.126  16.168  2.7242 -0.1887 -2.1632
  796MPD2    H111733   0.649   2.187  15.823  1.6292 -1.6008 -1.5086
  796MPD2    H211734   0.655   1.812  16.025  0.2304  0.2663  1.5947
  796MPD2    H311735   0.575   1.967  15.851 -1.8860 -0.5736  1.0135
  796MPD2     N11736   0.791   2.321  16.030 -0.5947 -0.1275 -0.1663
  796MPD2    H511737   0.852   2.348  16.106 -0.5990 -0.0434 -0.1924
  796MPD2    N111738   0.846   1.870  16.189 -0.2589 -0.3022  0.0913
  796MPD2    H711739   0.790   1.786  16.203 -2.0073  0.7384 -0.7410
  797MPD2     C11740   1.495   0.568  17.017 -0.7160  0.6590  0.1898
  797MPD2    C111741   1.538   0.622  17.130  0.9271 -0.0840  0.2416
  797MPD2    C211742   1.538   0.761  17.128 -0.0505  1.1608  1.0021
  797MPD2    C311743   1.497   0.844  17.026 -0.4884  0.2441 -0.2248
  797MPD2    C411744   1.461   0.779  16.909  0.1761  0.2449  0.0423
  797MPD2    C511745   1.451   0.638  16.910 -0.0691 -0.9112  0.1515
  797MPD2     H11746   1.566   0.806  17.223 -2.8268 -0.5705  2.6601
  797MPD2    H111747   1.432   0.832  16.818  0.5617 -1.2714 -0.9635
  797MPD2    H211748   1.498   0.461  16.998  0.0705  0.4836  1.3334
  797MPD2    H311749   1.415   0.579  16.826 -0.3296  0.5159 -0.7485
  797MPD2     N11750   1.505   0.986  17.029  0.1899  0.0096 -0.5360
  797MPD2    H511751   1.483   1.032  16.941 -0.2935  1.6087  0.4299
  797MPD2    N111752   1.600   0.547  17.233  0.0831  0.3929 -0.2726
  797MPD2    H711753   1.631   0.598  17.315  0.0291  2.0148 -1.2664
  798MPD2     C11754   1.981   1.083  17.510 -0.1600  0.7227 -0.0461
  798MPD2    C111755   1.858   1.056  17.451 -0.2931 -0.0981  0.8665
  798MPD2    C211756   1.787   0.932  17.476 -0.1582  0.1736 -0.2398
  798MPD2    C311757   1.859   0.838  17.548  0.0496 -0.3781 -0.2354
  798MPD2    C411758   1.986   0.858  17.601  0.0029  0.3982  0.1030
  798MPD2    C511759   2.041   0.984  17.587  0.3244 -0.9169 -0.2299
  798MPD2     H11760   1.691   0.909  17.433  0.1782 -2.4591  0.4264
  798MPD2    H111761   2.031   0.786  17.668 -1.7586  0.2713  1.1373
  798MPD2    H211762   2.028   1.179  17.491  0.5161  0.1791 -1.0946
  798MPD2    H311763   2.144   0.994  17.617  0.3798  2.3831 -1.5559
  798MPD2     N11764   1.799   0.712  17.561  0.2122 -0.1187  0.3273
  798MPD2    H511765   1.716   0.694  17.506  0.7404 -0.4602 -0.3553
  798MPD2    N111766   1.802   1.135  17.348 -0.4664  0.1247  0.0416
  798MPD2    H711767   1.712   1.099  17.321 -0.6883 -0.6174  1.7493
  799MPD2     C11768   0.296   2.665  14.443 -0.1992 -0.3656  0.1558
  799MPD2    C111769   0.200   2.614  14.356 -0.2272  0.3102  0.2683
  799MPD2    C211770   0.103   2.693  14.309  0.0589 -0.3359 -0.0859
  799MPD2    C311771   0.104   2.830  14.339 -0.0128  0.1405 -0.1543
  799MPD2    C411772   0.209   2.890  14.413 -0.3891 -0.2799 -0.6797
  799MPD2    C511773   0.303   2.802  14.460  0.3155  0.2807 -0.6986
  799MPD2     H11774   0.035   2.653  14.234  1.8536  0.7560 -2.2744
  799MPD2    H111775   0.214   2.998  14.417  0.5553 -0.3395 -0.2450
  799MPD2    H211776   0.372   2.599  14.484  2.1017  1.3920 -1.2726
  799MPD2    H311777   0.383   2.845  14.519 -0.5226 -0.1365  0.7334
  799MPD2     N11778   0.015   2.921  14.282 -0.0963 -0.0662  0.6403
  799MPD2    H511779   0.026   3.015  14.320  0.4964  0.1230  0.0154
  799MPD2    N111780   0.181   2.479  14.329  0.3890 -0.5506 -0.9044
  799MPD2    H711781   0.090   2.463  14.287  0.4355  1.8365 -1.9368
  800MPD2     C11782   0.667   3.782  13.841 -0.2896 -0.1683 -0.2829
  800MPD2    C111783   0.783   3.851  13.829 -0.3109  0.6065 -0.8549
  800MPD2    C211784   0.854   3.859  13.707 -1.0062 -0.1071  0.5437
  800MPD2    C311785   0.800   3.806  13.595 -1.2697 -0.0123 -0.1066
  800MPD2    C411786   0.678   3.738  13.602 -0.4868  0.1340  0.1215
  800MPD2    C511787   0.610   3.738  13.717 -0.1429  0.5475 -0.5819
  800MPD2     H11788   0.950   3.909  13.696  1.2080 -3.7895  3.2696
  800MPD2    H111789   0.626   3.701  13.514 -0.7956  0.1632  0.2940
  800MPD2    H211790   0.615   3.766  13.935  0.7248 -0.3816  0.2374
  800MPD2    H311791   0.516   3.685  13.721 -0.4402  1.1622  0.5713
  800MPD2     N11792   0.863   3.825  13.471  0.4420  0.6901  0.1866
  800MPD2    H511793   0.956   3.865  13.480 -0.1068  1.7070  1.3951
  800MPD2    N111794   0.826   3.925  13.947 -0.1347  0.1872  0.4293
  800MPD2    H711795   0.765   3.932  14.028  0.4249  0.3825  0.8368
  801MPD2     C11796   0.627   4.608  14.046  0.4711 -0.4331 -0.8361
  801MPD2    C111797   0.658   4.555  14.168  0.7343 -0.2431 -0.7653
  801MPD2    C211798   0.601   4.603  14.282  0.1051  0.2037 -0.1229
  801MPD2    C311799   0.509   4.705  14.281 -0.1300 -0.1908 -0.2237
  801MPD2    C411800   0.475   0.037  14.157  1.0823  0.0710 -0.0884
  801MPD2    C511801   0.535   4.706  14.044 -0.2393 -0.2392  0.1218
  801MPD2     H11802   0.624   4.557  14.378 -2.4116 -0.5059  0.1321
  801MPD2    H111803   0.409   0.122  14.139  0.7088 -0.4752 -1.3398
  801MPD2    H211804   0.664   4.562  13.955 -0.3635 -0.0244 -1.3855
  801MPD2    H311805   0.512   0.024  13.946 -0.4519 -0.6122  0.0236
  801MPD2     N11806   0.432   0.022  14.397  0.7975 -0.2413  0.5614
  801MPD2    H511807   0.344   0.070  14.384  0.9808 -0.2380 -0.6570
  801MPD2    N111808   0.737   4.448  14.191  0.0773  0.2897  0.2887
  801MPD2    H711809   0.764   4.429  14.287 -2.4426 -0.3835  0.8414
  802MPD2     C11810   0.103   3.619  17.214 -0.9132  0.8183  0.2835
  802MPD2    C111811   0.102   3.747  17.170  0.5859  0.6006 -0.1093
  802MPD2    C211812   0.116   3.764  17.029  0.1086  1.0469 -0.3195
  802MPD2    C311813   0.134   3.655  16.940  0.4795  0.8998 -0.2109
  802MPD2    C411814   0.128   3.527  16.993 -0.0231 -0.1527 -0.2310
  802MPD2    C511815   0.097   3.512  17.125 -0.6836 -0.3789 -0.2763
  802MPD2     H11816   0.121   3.860  16.979 -0.9537  1.7779  1.0073
  802MPD2    H111817   0.147   3.441  16.929  0.6317 -0.3955  0.2935
  802MPD2    H211818   0.085   3.597  17.318 -0.2121 -0.8418  0.0486
  802MPD2    H311819   0.084   3.410  17.159 -3.7376  0.2549  0.4639
  802MPD2     N11820   0.171   3.684  16.807  0.5608 -0.3617  1.0327
  802MPD2    H511821   0.149   3.778  16.777 -1.0818 -1.3018 -0.6969
  802MPD2    N111822   0.108   3.858  17.260  0.1800 -0.3710  1.0701
  802MPD2    H711823   0.157   3.941  17.229 -0.8199 -0.5762 -1.0575
  803MPD2     C11824   1.699   3.883  11.815  0.3050  0.7403  0.0200
  803MPD2    C111825   1.772   3.812  11.908  0.2379  1.2461 -0.0745
  803MPD2    C211826   1.705   3.727  11.992  0.1638  1.6460 -0.1604
  803MPD2    C311827   1.564   3.701  11.985  0.8586  0.0711 -0.2756
  803MPD2    C411828   1.495   3.770  11.889 -0.0096 -0.4887 -0.6925
  803MPD2    C511829   1.562   3.859  11.807  0.6593  0.7356  0.4965
  803MPD2     H11830   1.773   3.687  12.066  2.0119  3.4930 -0.8565
  803MPD2    H111831   1.387   3.758  11.887 -0.1174  0.3693 -0.0738
  803MPD2    H211832   1.735   3.965  11.756 -1.5518  1.9532  0.5701
  803MPD2    H311833   1.514   3.914  11.727  1.8429 -1.1270 -1.4879
  803MPD2     N11834   1.492   3.614  12.067 -0.9584  0.3791  0.0658
  803MPD2    H511835   1.393   3.614  12.047 -1.1887  0.3594  1.1865
  803MPD2    N111836   1.903   3.848  11.944 -0.3257 -0.1358 -0.2544
  803MPD2    H711837   1.941   3.792  12.019 -2.2822 -0.7614  0.2882
  804MPD2     C11838   0.587   4.215  16.894  0.3382 -0.2022  0.7104
  804MPD2    C111839   0.624   4.138  17.005 -0.2742 -0.4309  0.1432
  804MPD2    C211840   0.718   4.191  17.091  0.1649 -0.0030  0.1034
  804MPD2    C311841   0.772   4.318  17.075 -0.2768  0.1507 -0.2163
  804MPD2    C411842   0.724   4.393  16.975 -0.3861  0.3959 -0.1506
  804MPD2    C511843   0.645   4.343  16.877 -0.5499 -0.4991 -0.7101
  804MPD2     H11844   0.757   4.122  17.165  3.4596  0.8393 -0.8447
  804MPD2    H111845   0.755   4.496  16.959 -1.5578  0.5872 -1.1368
  804MPD2    H211846   0.508   4.178  16.830  0.5882  0.9528 -0.2539
  804MPD2    H311847   0.604   4.405  16.798 -2.2521 -0.4995  0.1703
  804MPD2     N11848   0.861   4.379  17.161 -0.2125 -0.1633 -0.6102
  804MPD2    H511849   0.890   4.470  17.125 -1.2973  0.8156  0.9695
  804MPD2    N111850   0.565   4.014  17.043 -0.1738 -0.4758 -0.9036
  804MPD2    H711851   0.590   3.968  17.129 -0.8543 -0.7084 -0.8290
  805MPD2     C11852   0.087   2.854  15.765 -0.7522  0.2463 -0.1366
  805MPD2    C111853   0.147   2.884  15.641  0.2944  0.2101 -0.0652
  805MPD2    C211854   0.289   2.900  15.638  0.7259 -0.7979 -0.6837
  805MPD2    C311855   0.363   2.871  15.749  0.0802  0.3809  0.1154
  805MPD2    C411856   0.297   2.843  15.870  0.4230 -0.2521 -0.8792
  805MPD2    C511857   0.161   2.823  15.873  0.2788  0.2405 -0.3605
  805MPD2     H11858   0.340   2.937  15.550  0.3188  0.5958 -0.3341
  805MPD2    H111859   0.354   2.832  15.962  0.1787 -3.3440 -1.1089
  805MPD2    H211860   4.701   2.850  15.776 -0.7234 -1.9461 -0.5346
  805MPD2    H311861   0.114   2.799  15.967  0.3941  1.8693  0.1102
  805MPD2     N11862   0.497   2.878  15.730 -0.2631 -0.4803 -0.5920
  805MPD2    H511863   0.523   2.883  15.632 -0.6159 -1.5290 -0.7429
  805MPD2    N111864   0.071   2.913  15.523 -0.4941 -0.2892 -0.6081
  805MPD2    H711865   0.122   2.941  15.439  0.5499  0.2846  0.2121
  806MPD2     C11866   1.353   1.634   0.594 -0.9095  0.3420 -0.3830
  806MPD2    C111867   1.331   1.728   0.686 -0.0738  0.3376 -0.0708
  806MPD2    C211868   1.342   1.861   0.647 -0.3393 -0.5343 -0.0261
  806MPD2    C311869   1.397   1.890   0.521 -0.3248  0.6138 -0.0813
  806MPD2    C411870   1.407   1.789   0.428  0.4966 -0.9686 -0.5703
  806MPD2    C511871   1.383   1.670   0.466  0.5727  0.1129  1.3278
  806MPD2     H11872   1.319   1.943   0.714 -1.3573 -1.1427  0.3777
  806MPD2    H111873   1.437   1.808   0.325  2.0349 -1.2564 -0.1670
  806MPD2    H211874   1.351   1.530   0.624  0.8492  0.3979 -0.0921
  806MPD2    H311875   1.407   1.598   0.389 -0.9817 -1.5199  2.3642
  806MPD2     N11876   1.432   2.026   0.500 -0.0602 -0.2530 -0.0226
  806MPD2    H511877   1.423   2.100   0.569 -3.0058  0.5512 -1.2248
  806MPD2    N111878   1.314   1.690   0.826  0.1284  0.1537  0.0852
  806MPD2    H711879   1.357   1.601   0.851 -0.7459  0.0842  1.3580
  807MPD2     C11880   0.967   2.182   1.379  0.0700 -0.3204 -0.3210
  807MPD2    C111881   0.963   2.046   1.353 -0.3359  0.5886  0.0659
  807MPD2    C211882   0.838   1.989   1.359 -0.2622  0.0144 -0.0789
  807MPD2    C311883   0.732   2.054   1.415  0.2032 -0.2013 -0.2723
  807MPD2    C411884   0.738   2.183   1.434 -0.6143  0.3018  0.5437
  807MPD2    C511885   0.857   2.248   1.424 -0.1054  0.2959 -0.5041
  807MPD2     H11886   0.828   1.883   1.337  1.3453 -0.1389 -0.1261
  807MPD2    H111887   0.657   2.233   1.486 -1.0087  1.2018 -0.9294
  807MPD2    H211888   1.062   2.234   1.375 -0.4691  0.8602  1.9460
  807MPD2    H311889   0.858   2.354   1.446 -0.3012 -0.2279  2.0325
  807MPD2     N11890   0.618   1.973   1.436  0.0067 -0.1858  0.2345
  807MPD2    H511891   0.629   1.873   1.422 -1.2105 -0.2326 -0.3527
  807MPD2    N111892   1.073   1.970   1.299 -0.6112 -0.1856 -1.0044
  807MPD2    H711893   1.059   1.870   1.288 -0.3378 -0.2392 -0.8604
  808MPD2     C11894   1.162   0.648   9.812  0.3142 -0.3611  0.6510
  808MPD2    C111895   1.235   0.640   9.697 -0.1111  0.0025 -0.2284
  808MPD2    C211896   1.346   0.723   9.680 -0.3652 -0.0822 -0.2394
  808MPD2    C311897   1.367   0.823   9.780 -0.9428 -0.2538  0.4665
  808MPD2    C411898   1.302   0.826   9.897 -0.2664  0.7366  0.4802
  808MPD2    C511899   1.201   0.735   9.908  0.4505  0.1919 -0.3840
  808MPD2     H11900   1.415   0.705   9.599  0.2602  0.4981  0.1728
  808MPD2    H111901   1.332   0.881   9.985  1.3111  0.3259  0.1979
  808MPD2    H211902   1.082   0.584   9.848 -1.6154 -0.2193 -3.3496
  808MPD2    H311903   1.164   0.722  10.009 -0.4276 -0.4584 -0.7898
  808MPD2     N11904   1.482   0.907   9.772  0.5836  0.2469 -0.2564
  808MPD2    H511905   1.505   0.965   9.852  0.3164  2.0088 -1.4634
  808MPD2    N111906   1.211   0.536   9.605  0.0667 -0.3448 -0.1845
  808MPD2    H711907   1.288   0.542   9.540  1.0407  0.3837  1.0292
  809MPD2     C11908   1.869   1.222   8.899 -0.6388  0.4835  0.0340
  809MPD2    C111909   1.978   1.163   8.964 -0.2603  0.3461 -0.3884
  809MPD2    C211910   1.968   1.150   9.102  0.0463  0.2791 -0.6046
  809MPD2    C311911   1.846   1.174   9.166 -0.0848 -0.9133 -0.6826
  809MPD2    C411912   1.736   1.214   9.092  0.4016 -0.5677 -0.1059
  809MPD2    C511913   1.749   1.244   8.961 -0.6775  0.2530 -0.2401
  809MPD2     H11914   2.053   1.106   9.153  0.7646  0.5801 -1.5417
  809MPD2    H111915   1.645   1.253   9.138 -0.6805 -2.2442 -0.8337
  809MPD2    H211916   1.880   1.254   8.796 -0.7602  0.8769  0.1441
  809MPD2    H311917   1.660   1.281   8.910  0.3674  1.4560 -1.2009
  809MPD2     N11918   1.818   1.155   9.301 -0.1845 -0.0105  0.4645
  809MPD2    H511919   1.719   1.164   9.324 -0.5959 -0.1672 -1.2538
  809MPD2    N111920   2.100   1.123   8.905  0.0102  0.5882  0.1090
  809MPD2    H711921   2.172   1.080   8.962 -0.2158 -3.8428 -2.9087
  810MPD2     C11922   1.257   3.498  10.410 -0.2736 -0.5953 -0.4168
  810MPD2    C111923   1.162   3.576  10.343 -0.1337  0.2601 -0.4696
  810MPD2    C211924   1.199   3.703  10.306  0.7701  0.4600  0.4830
  810MPD2    C311925   1.322   3.755  10.329 -0.7844 -0.2416 -0.5789
  810MPD2    C411926   1.414   3.680  10.407  0.7656  0.4243 -0.4964
  810MPD2    C511927   1.374   3.555  10.444 -0.1241 -0.2108  0.0373
  810MPD2     H11928   1.124   3.760  10.252  0.2505 -1.0621 -0.3901
  810MPD2    H111929   1.511   3.720  10.437 -0.3129  0.2605  3.1497
  810MPD2    H211930   1.235   3.399  10.449 -0.0005  0.0238  1.2711
  810MPD2    H311931   1.441   3.490  10.500 -1.4246 -2.1340 -0.6072
  810MPD2     N11932   1.369   3.875  10.268 -0.1578  0.3872 -0.5081
  810MPD2    H511933   1.465   3.902  10.286 -0.1421  0.7427 -1.1405
  810MPD2    N111934   1.033   3.532  10.304 -0.9591  0.0007 -0.6774
  810MPD2    H711935   0.981   3.598  10.246 -0.8793 -0.2890 -1.0827
  811MPD2     C11936   0.239   3.531  10.020  0.1516  0.3377 -0.2037
  811MPD2    C111937   0.367   3.590  10.028 -0.3035 -0.4782  0.2819
  811MPD2    C211938   0.379   3.723   9.977 -0.3597 -0.4844 -0.1316
  811MPD2    C311939   0.275   3.793   9.923 -1.4835 -0.4537  0.5083
  811MPD2    C411940   0.151   3.733   9.939  0.2884  0.3485 -0.2626
  811MPD2    C511941   0.135   3.604   9.980  0.0655 -0.1585 -0.2349
  811MPD2     H11942   0.474   3.775   9.983  0.2973 -1.6717 -0.1203
  811MPD2    H111943   0.062   3.792   9.921 -0.1044  0.3334  1.6161
  811MPD2    H211944   0.214   3.428  10.046  0.4827  0.2316 -0.3023
  811MPD2    H311945   0.039   3.556   9.996 -0.8516  2.1240  1.2107
  811MPD2     N11946   0.299   3.920   9.863  0.4685 -0.5149  0.1273
  811MPD2    H511947   0.397   3.945   9.869 -0.5349  3.2099  1.0905
  811MPD2    N111948   0.469   3.503  10.070 -0.0255 -0.2124 -0.2832
  811MPD2    H711949   0.441   3.406  10.075  2.3174 -0.7954  1.6193
  812MPD2     C11950   4.568   4.143  11.973 -0.7575 -0.0677 -0.4349
  812MPD2    C111951   4.465   4.110  12.057  1.1976  0.1169 -0.1101
  812MPD2    C211952   4.422   3.978  12.078 -0.9252 -0.0098 -0.1560
  812MPD2    C311953   4.492   3.880  12.010  0.0179 -0.4847  0.3219
  812MPD2    C411954   4.607   3.909  11.935 -0.1988 -0.6422  0.6259
  812MPD2    C511955   4.646   4.044  11.922 -0.2345  0.1796  0.0971
  812MPD2     H11956   4.334   3.951  12.135  0.4088  1.1240  2.4647
  812MPD2    H111957   4.670   3.831  11.893 -0.7786 -0.4888 -0.5302
  812MPD2    H211958   4.592   4.247  11.953 -4.4763  1.1620  1.5086
  812MPD2    H311959   0.003   4.071  11.852  0.8568 -2.7279  0.1919
  812MPD2     N11960   4.447   3.746  12.037  0.1651  0.1339 -0.3607
  812MPD2    H511961   4.369   3.734  12.102  0.2716  2.1508  0.1491
  812MPD2    N111962   4.404   4.220  12.120 -0.1708  0.0075  0.0006
  812MPD2    H711963   4.435   4.312  12.089  2.9583 -0.9427  0.3487
  813MPD2     C11964   3.733   0.420  12.848 -0.3009  0.1957 -0.5004
  813MPD2    C111965   3.659   0.514  12.777 -0.2733  0.6278  0.6180
  813MPD2    C211966   3.539   0.554  12.833  0.0303  0.5968  0.1797
  813MPD2    C311967   3.479   0.486  12.937  0.0570 -0.6946  0.5609
  813MPD2    C411968   3.557   0.392  13.004  0.5860  0.4057  0.3187
  813MPD2    C511969   3.693   0.370  12.967  0.3579 -0.3207 -0.3824
  813MPD2     H11970   3.467   0.615  12.778  2.6853  1.3289 -2.4654
  813MPD2    H111971   3.527   0.346  13.097 -0.0361  1.2480  0.5374
  813MPD2    H211972   3.828   0.389  12.805  0.0184 -0.3062  0.5779
  813MPD2    H311973   3.751   0.306  13.032  0.9571  3.4560  2.8660
  813MPD2     N11974   3.350   0.528  12.971  0.1267  0.2591  0.5869
  813MPD2    H511975   3.322   0.611  12.920  0.8986  0.2042  0.0677
  813MPD2    N111976   3.707   0.560  12.651  0.2923  0.6229  0.1387
  813MPD2    H711977   3.796   0.521  12.621  0.5507 -0.1843  1.9523
  814MPD2     C11978   4.013   1.642  12.051 -0.3530 -0.2768 -0.0176
  814MPD2    C111979   4.005   1.781  12.041  0.4217  0.4281  0.2711
  814MPD2    C211980   4.035   1.862  12.154 -0.1184  0.4330 -0.0922
  814MPD2    C311981   4.065   1.794  12.272  0.5453 -0.5179 -0.3477
  814MPD2    C411982   4.071   1.660  12.277  0.4651  0.1984  0.0146
  814MPD2    C511983   4.049   1.580  12.166 -0.3040 -0.3790 -0.1469
  814MPD2     H11984   4.025   1.969  12.150 -3.5435  0.0786 -1.1789
  814MPD2    H111985   4.083   1.613  12.374 -0.3162  0.1852  0.1054
  814MPD2    H211986   3.990   1.578  11.967  0.1270 -2.6301  1.6564
  814MPD2    H311987   4.054   1.472  12.162  0.7995 -0.3013 -0.6929
  814MPD2     N11988   4.088   1.861  12.396 -0.3129  0.4485  0.3095
  814MPD2    H511989   4.106   1.806  12.480 -4.1333 -0.5287  0.4824
  814MPD2    N111990   3.975   1.841  11.918  0.6404 -0.1665 -0.9642
  814MPD2    H711991   3.959   1.779  11.839  0.2196 -1.0466 -0.1869
  815MPD2     C11992   0.257   0.847  11.886  0.0490 -0.6645  0.1311
  815MPD2    C111993   0.165   0.854  11.785  0.9776  0.2250 -0.0259
  815MPD2    C211994   0.049   0.787  11.785  0.1844  0.1298 -0.3791
  815MPD2    C311995   0.014   0.719  11.906  0.2801  0.4633  0.3810
  815MPD2    C411996   0.098   0.729  12.013  0.3364 -0.1605  0.3894
  815MPD2    C511997   0.222   0.781  11.994 -0.0790 -0.4031 -0.0141
  815MPD2     H11998   4.707   0.769  11.699  1.0173 -0.6271 -0.8358
  815MPD2    H111999   0.068   0.696  12.111 -0.7538  0.8302  0.3839
  815MPD2    H212000   0.347   0.908  11.883 -1.0597  0.9498 -0.2489
  815MPD2    H312001   0.295   0.776  12.074  0.6512 -0.6768 -0.6999
  815MPD2     N12002   4.611   0.665  11.905  1.0747  0.0600 -0.0475
  815MPD2    H512003   4.558   0.683  11.820  0.9365  1.0031  0.2463
  815MPD2    N112004   0.206   0.929  11.676 -0.0741  0.2082 -0.3604
  815MPD2    H712005   0.301   0.965  11.667  0.8297 -2.5906 -2.1659
  816MPD2     C12006   3.737   3.454  17.328 -0.2838  0.6853 -0.2113
  816MPD2    C112007   3.807   3.534  17.249 -0.1179 -0.2926  0.6596
  816MPD2    C212008   3.887   3.479  17.148 -0.4012  0.3803 -0.0034
  816MPD2    C312009   3.888   3.348  17.126 -0.1017  0.1918 -0.4264
  816MPD2    C412010   3.812   3.261  17.201 -0.2902 -0.3540 -0.0697
  816MPD2    C512011   3.739   3.320  17.302  0.2490 -0.5672  0.1980
  816MPD2     H12012   3.954   3.535  17.084  0.2877 -0.2529  0.1690
  816MPD2    H112013   3.802   3.156  17.174 -1.9741 -0.5880  1.4175
  816MPD2    H212014   3.676   3.484  17.412 -2.6998 -2.6841 -0.7376
  816MPD2    H312015   3.672   3.264  17.366 -0.6215  1.5610  1.1648
  816MPD2     N12016   3.974   3.308  17.023 -0.2949  0.3422 -0.1721
  816MPD2    H512017   4.024   3.380  16.973  0.0902 -0.7432 -1.3486
  816MPD2    N112018   3.798   3.677  17.272 -0.0249  0.0569 -0.1630
  816MPD2    H712019   3.747   3.705  17.355  1.4464  0.8366  0.4756
  817MPD2     C12020   4.192   1.458   9.642  0.0647  0.3246  0.3748
  817MPD2    C112021   4.128   1.355   9.578  0.1585 -0.5466  0.4401
  817MPD2    C212022   4.004   1.374   9.525 -0.2934 -0.4262 -1.0358
  817MPD2    C312023   3.954   1.500   9.529 -0.2766  0.3785 -0.6187
  817MPD2    C412024   4.022   1.610   9.579  0.3685  1.2594 -0.8956
  817MPD2    C512025   4.141   1.583   9.641 -0.2728  0.0592 -0.6314
  817MPD2     H12026   3.958   1.293   9.470 -3.2069  0.2382  0.4406
  817MPD2    H112027   3.981   1.710   9.570 -0.6888  1.0523  1.6251
  817MPD2    H212028   4.278   1.459   9.708 -1.6527 -0.1529  2.6143
  817MPD2    H312029   4.199   1.668   9.675 -0.3783 -0.0526 -0.1802
  817MPD2     N12030   3.830   1.513   9.460 -0.1281  0.1718  0.5824
  817MPD2    H512031   3.816   1.440   9.391  2.7721  2.1555 -2.1057
  817MPD2    N112032   4.184   1.220   9.575 -0.0860  0.2091 -0.4903
  817MPD2    H712033   4.134   1.145   9.528 -1.1359  0.3227  0.4435
  818MPD2     C12034   2.624   1.887   9.647 -0.1888 -0.1375  0.0248
  818MPD2    C112035   2.714   1.814   9.724 -0.3053  0.3971  0.6860
  818MPD2    C212036   2.771   1.709   9.659  0.3920  0.1901  0.0841
  818MPD2    C312037   2.737   1.669   9.532 -0.3326  0.4227  0.0287
  818MPD2    C412038   2.674   1.760   9.449 -0.3697  0.5759 -0.0604
  818MPD2    C512039   2.620   1.867   9.512 -0.0232  0.8062  0.0717
  818MPD2     H12040   2.823   1.636   9.720 -0.8441 -0.4484  0.3800
  818MPD2    H112041   2.658   1.733   9.346  3.6571  0.5972 -0.6933
  818MPD2    H212042   2.568   1.972   9.686 -1.0720  0.6875 -3.0666
  818MPD2    H312043   2.553   1.927   9.451 -0.2488  0.5868  0.1037
  818MPD2     N12044   2.762   1.540   9.478  0.7772  0.0197  0.3117
  818MPD2    H512045   2.724   1.514   9.388  0.7040  1.9374 -0.2204
  818MPD2    N112046   2.743   1.823   9.861  0.5970 -0.8713 -0.1214
  818MPD2    H712047   2.825   1.773   9.894  1.3011  1.5004  1.7377
  819MPD2     C12048   1.158   3.312  15.593  0.1840 -0.0334  0.2693
  819MPD2    C112049   1.114   3.189  15.557  0.3742 -0.1378 -0.6368
  819MPD2    C212050   1.176   3.079  15.612  0.2272  0.2379 -0.6557
  819MPD2    C312051   1.282   3.095  15.695 -0.5500 -0.2437 -0.0478
  819MPD2    C412052   1.311   3.215  15.746  0.0937  0.3522  0.1583
  819MPD2    C512053   1.247   3.322  15.693  0.1434  0.2467  0.6537
  819MPD2     H12054   1.147   2.983  15.571 -1.9810  0.0163  1.4429
  819MPD2    H112055   1.395   3.236  15.811 -0.7402  0.1074  1.3117
  819MPD2    H212056   1.104   3.400  15.559  1.3199  0.7309  0.4572
  819MPD2    H312057   1.276   3.424  15.715 -1.0188  1.2590 -2.4106
  819MPD2     N12058   1.361   2.980  15.730 -0.3697 -0.2075  0.3576
  819MPD2    H512059   1.345   2.895  15.677  0.8698 -0.3133  0.1474
  819MPD2    N112060   1.011   3.183  15.457  0.6537  0.0379  0.1261
  819MPD2    H712061   0.991   3.268  15.406 -1.5882 -0.8009 -0.3807
  820MPD2     C12062   0.161   3.510  15.222  0.7198 -0.6154 -0.7687
  820MPD2    C112063   0.168   3.376  15.186 -0.5390 -0.0009 -0.3371
  820MPD2    C212064   0.289   3.316  15.156  0.0870 -0.2126  0.4169
  820MPD2    C312065   0.402   3.389  15.149  0.0899 -0.5669 -0.4860
  820MPD2    C412066   0.400   3.525  15.181 -0.1035  0.0758 -0.3026
  820MPD2    C512067   0.280   3.578  15.223 -0.4521  0.2533  0.5571
  820MPD2     H12068   0.294   3.211  15.130 -0.8032 -0.0475 -0.4307
  820MPD2    H112069   0.490   3.586  15.181 -0.6057  0.8139 -0.3445
  820MPD2    H212070   0.074   3.566  15.254  1.0399 -0.1205 -0.7749
  820MPD2    H312071   0.272   3.678  15.262 -0.2496  1.2220 -1.8927
  820MPD2     N12072   0.520   3.317  15.122 -0.2746  0.0775  0.0283
  820MPD2    H512073   0.504   3.218  15.106  2.3358  0.2939 -3.8618
  820MPD2    N112074   0.053   3.304  15.208 -0.3366 -0.8578  1.0036
  820MPD2    H712075   4.712   3.350  15.272  0.0317  2.9710 -1.3738
  821MPD2     C12076   1.015   4.205  12.764 -0.5265 -0.4030  0.7864
  821MPD2    C112077   1.115   4.144  12.842 -0.2323  0.2261 -0.0105
  821MPD2    C212078   1.231   4.211  12.879  0.0046 -0.4569 -0.4792
  821MPD2    C312079   1.245   4.343  12.842 -0.6668  0.2359 -0.1875
  821MPD2    C412080   1.144   4.398  12.767  0.5850  0.1624  0.3594
  821MPD2    C512081   1.029   4.334  12.733 -0.5289 -0.3668 -0.5123
  821MPD2     H12082   1.291   4.160  12.953 -0.6669 -1.9551 -0.9800
  821MPD2    H112083   1.141   4.499  12.730 -2.8736 -0.3114 -0.6063
  821MPD2    H212084   0.921   4.159  12.737 -1.7367  1.3457  2.0668
  821MPD2    H312085   0.956   4.388  12.675 -2.2504 -2.4546 -0.3159
  821MPD2     N12086   1.356   4.425  12.872  0.4310  0.0132  0.3481
  821MPD2    H512087   1.357   4.519  12.832 -2.4408  0.1533  0.5705
  821MPD2    N112088   1.103   4.014  12.894 -0.0351 -0.3668  0.3691
  821MPD2    H712089   1.186   3.961  12.917  0.4172  0.3473  0.4033
  822MPD2     C12090   1.278   3.993  15.643  1.1240 -0.5262 -0.0623
  822MPD2    C112091   1.367   3.965  15.747  0.0938 -0.5835  0.5133
  822MPD2    C212092   1.356   4.036  15.868  0.0087 -0.2930 -0.1196
  822MPD2    C312093   1.245   4.112  15.890  0.3561  0.7003  0.7237
  822MPD2    C412094   1.146   4.120  15.797  0.0694  0.3525  0.1127
  822MPD2    C512095   1.170   4.074  15.671  0.4251 -0.0436  0.3902
  822MPD2     H12096   1.424   4.025  15.952  0.8225 -0.0026 -0.7438
  822MPD2    H112097   1.053   4.171  15.817  0.4816  0.3957  1.8934
  822MPD2    H212098   1.279   3.952  15.543  0.7993 -1.8382  0.4729
  822MPD2    H312099   1.095   4.095  15.595  0.3112 -0.9496  0.2526
  822MPD2     N12100   1.229   4.169  16.016  0.7004 -0.1050  0.0936
  822MPD2    H512101   1.314   4.178  16.072 -0.1515  0.6596  1.2768
  822MPD2    N112102   1.463   3.860  15.740 -0.1300  0.1127 -0.3260
  822MPD2    H712103   1.524   3.853  15.820 -2.4961  3.4594  1.7671
  823MPD2     C12104   0.940   3.893  16.856  0.7068 -0.1338  0.4370
  823MPD2    C112105   1.008   3.871  16.731  0.1083 -0.0364  0.4631
  823MPD2    C212106   1.054   3.736  16.714  0.5172  0.0073  0.0676
  823MPD2    C312107   1.016   3.639  16.806  0.3523 -0.7689 -0.1172
  823MPD2    C412108   0.944   3.666  16.918 -0.5948  0.0089  0.1879
  823MPD2    C512109   0.904   3.790  16.938  0.1366 -0.2676 -0.9149
  823MPD2     H12110   1.109   3.705  16.626 -0.0764 -0.9391  0.0222
  823MPD2    H112111   0.918   3.595  16.996 -0.5648  2.7613  2.7242
  823MPD2    H212112   0.908   3.993  16.882  1.0353  0.4113 -1.2363
  823MPD2    H312113   0.845   3.815  17.025 -0.4075 -2.4570 -0.6701
  823MPD2     N12114   1.048   3.504  16.799 -0.2136 -0.0279 -0.2090
  823MPD2    H512115   1.001   3.446  16.867  0.1493  0.9342  0.8481
  823MPD2    N112116   1.024   3.976  16.642  0.0561  0.0140  0.2638
  823MPD2    H712117   0.994   4.065  16.681 -0.7323  0.5062 -1.4752
  824MPD2     C12118   1.639   3.046  15.461 -0.2586 -0.7821  0.4173
  824MPD2    C112119   1.689   3.092  15.586  0.0594  1.1775  0.3043
  824MPD2    C212120   1.778   3.020  15.656  0.3222  1.0634  0.4150
  824MPD2    C312121   1.826   2.903  15.602  0.6915 -0.3064  0.0563
  824MPD2    C412122   1.777   2.851  15.483  0.1878  1.1168 -0.2160
  824MPD2    C512123   1.682   2.923  15.417 -0.7148 -0.0957  0.0268
  824MPD2     H12124   1.825   3.050  15.749 -1.0066  0.6893  1.2013
  824MPD2    H112125   1.821   2.757  15.453 -0.8211  0.7857 -0.6553
  824MPD2    H212126   1.567   3.093  15.396 -3.0823 -2.6427  2.1794
  824MPD2    H312127   1.616   2.881  15.343 -0.5070  1.2218 -0.8990
  824MPD2     N12128   1.928   2.839  15.672  0.3092  0.1540 -0.9484
  824MPD2    H512129   1.961   2.883  15.757 -3.8586 -1.8827  1.7333
  824MPD2    N112130   1.664   3.224  15.634 -0.1645  0.4628 -0.4438
  824MPD2    H712131   1.697   3.248  15.727 -2.4867  0.7273  0.3157
  825MPD2     C12132   2.476   3.059  15.278 -0.4142 -0.1837  0.0233
  825MPD2    C112133   2.432   3.096  15.403  0.5721 -0.0817  0.1052
  825MPD2    C212134   2.411   3.233  15.432  0.2793  0.0817  0.2247
  825MPD2    C312135   2.433   3.330  15.331 -0.1387  0.4643  0.4873
  825MPD2    C412136   2.475   3.291  15.203  0.5182 -0.2987 -0.0602
  825MPD2    C512137   2.496   3.154  15.177  0.4147  0.2125  0.6125
  825MPD2     H12138   2.397   3.261  15.536  1.0898  1.8051 -0.1295
  825MPD2    H112139   2.485   3.357  15.118 -0.6243 -1.6972 -1.2773
  825MPD2    H212140   2.483   2.956  15.245 -1.2522 -0.1638 -0.2085
  825MPD2    H312141   2.519   3.126  15.075  0.0762  1.4272  0.2030
  825MPD2     N12142   2.403   3.468  15.338 -0.0909  0.0608 -0.3476
  825MPD2    H512143   2.411   3.511  15.246  0.5664  2.2949  0.7609
  825MPD2    N112144   2.411   2.987  15.507  0.5463 -0.9910 -0.4118
  825MPD2    H712145   2.437   2.893  15.478  0.7184 -2.1060  3.2763
  826MPD2     C12146   2.488   3.245  13.773 -0.7362 -0.1734  0.8870
  826MPD2    C112147   2.482   3.304  13.648 -0.5357 -0.6349  0.0908
  826MPD2    C212148   2.392   3.399  13.623 -0.3048 -0.8709  0.5083
  826MPD2    C312149   2.305   3.444  13.726 -0.3326  0.1549  0.2550
  826MPD2    C412150   2.306   3.369  13.848  0.2959  0.1264  0.1001
  826MPD2    C512151   2.405   3.278  13.871  0.4056 -0.5590 -0.2505
  826MPD2     H12152   2.380   3.439  13.523 -0.7894 -2.0655  0.0895
  826MPD2    H112153   2.242   3.390  13.933  0.2318  3.3877 -0.7491
  826MPD2    H212154   2.546   3.157  13.800  1.5844  1.0594 -0.0497
  826MPD2    H312155   2.409   3.228  13.967 -0.3209  0.8760  0.5438
  826MPD2     N12156   2.210   3.551  13.724  0.4071  0.6269  0.2109
  826MPD2    H512157   2.163   3.574  13.811  0.9793 -0.6780  0.8766
  826MPD2    N112158   2.559   3.253  13.543 -0.4914 -0.2006  0.1241
  826MPD2    H712159   2.617   3.178  13.580  2.8235  2.8716  1.1647
  827MPD2     C12160   3.623   0.695   9.734 -0.2464 -0.7018  0.4824
  827MPD2    C112161   3.564   0.614   9.829 -0.7101  0.1286  0.3962
  827MPD2    C212162   3.436   0.561   9.807 -0.2811  0.4730 -0.3259
  827MPD2    C312163   3.364   0.608   9.700 -0.0945  0.0588  0.1312
  827MPD2    C412164   3.420   0.701   9.611 -0.5076 -0.0410  0.3365
  827MPD2    C512165   3.551   0.739   9.628  0.7865 -0.3017  0.1137
  827MPD2     H12166   3.386   0.497   9.878 -1.2947  0.5905 -0.9443
  827MPD2    H112167   3.376   0.750   9.525  0.8683 -2.3592 -1.6815
  827MPD2    H212168   3.722   0.738   9.751 -1.0532  1.1258  0.6238
  827MPD2    H312169   3.595   0.811   9.560  2.4641 -0.8970  0.5579
  827MPD2     N12170   3.236   0.571   9.674  0.3538  0.6602  0.5204
  827MPD2    H512171   3.178   0.535   9.748 -0.0829  1.3904  0.5323
  827MPD2    N112172   3.643   0.583   9.946  0.6417 -0.1959 -0.5030
  827MPD2    H712173   3.732   0.630   9.952 -0.5997  2.0879 -0.0913
  828MPD2     C12174   1.834   4.476  12.617 -0.3684 -0.4075 -0.1368
  828MPD2    C112175   1.792   4.493  12.485  0.2434  0.3858  0.1748
  828MPD2    C212176   1.885   4.473  12.388 -0.1297  0.2559  0.5904
  828MPD2    C312177   2.012   4.418  12.408 -0.2788 -0.8481  0.1884
  828MPD2    C412178   2.050   4.403  12.541  0.8509  0.2899 -0.2196
  828MPD2    C512179   1.964   4.431  12.642 -0.3086  0.8612  0.2331
  828MPD2     H12180   1.858   4.491  12.285  0.6708 -1.3515  0.0908
  828MPD2    H112181   2.146   4.364  12.572  0.4377 -0.5343  0.0243
  828MPD2    H212182   1.769   4.484  12.704 -1.7461 -2.1388 -0.9984
  828MPD2    H312183   1.984   4.418  12.747 -1.6326  0.1621  0.3932
  828MPD2     N12184   2.108   4.382  12.312  0.6005 -0.6367  0.5668
  828MPD2    H512185   2.201   4.351  12.339  0.7892  1.7446  2.6847
  828MPD2    N112186   1.665   4.537  12.446  0.2838 -1.0267 -0.1063
  828MPD2    H712187   1.643   4.532  12.347  0.8407  0.9595 -0.3092
  829MPD2     C12188   1.828   0.244  11.812 -0.3311 -0.8992 -0.4379
  829MPD2    C112189   1.700   0.296  11.819  0.9711  0.3733  0.1958
  829MPD2    C212190   1.620   0.242  11.916  0.0760  0.4280  0.4792
  829MPD2    C312191   1.670   0.155  12.010  0.3847 -0.6219  0.0114
  829MPD2    C412192   1.796   0.102  11.999 -0.0965 -0.4638  0.5146
  829MPD2    C512193   1.876   0.157  11.905 -0.5420 -0.2423 -0.4197
  829MPD2     H12194   1.521   0.284  11.932  0.7089  1.7743  0.8881
  829MPD2    H112195   1.834   0.029  12.070  0.5891  0.0763  0.6956
  829MPD2    H212196   1.901   0.277  11.739  0.6185 -0.3256  0.7814
  829MPD2    H312197   1.983   0.141  11.910 -0.0784  1.7766 -4.0571
  829MPD2     N12198   1.595   0.105  12.119 -0.5664  0.5106 -0.3663
  829MPD2    H512199   1.647   0.044  12.181 -0.3464  1.3441  0.2719
  829MPD2    N112200   1.668   0.402  11.731  0.0587  0.5521  0.7051
  829MPD2    H712201   1.737   0.417  11.658 -0.5230 -0.7992 -0.1329
  830MPD2     C12202   1.338   2.318  15.543 -0.0088  0.2878 -0.2627
  830MPD2    C112203   1.404   2.442  15.531 -0.8107 -0.1180 -0.6942
  830MPD2    C212204   1.440   2.477  15.401 -0.3364  0.1374  0.0086
  830MPD2    C312205   1.413   2.397  15.287  0.1352  0.2485  0.9539
  830MPD2    C412206   1.335   2.283  15.307 -0.4234  0.6071 -0.2367
  830MPD2    C512207   1.291   2.248  15.432 -0.3671 -0.8173  0.4877
  830MPD2     H12208   1.505   2.561  15.377 -0.3003 -0.2880 -1.3907
  830MPD2    H112209   1.299   2.222  15.225 -0.4121  0.8513 -0.4247
  830MPD2    H212210   1.307   2.295  15.644  2.0345 -2.0500 -0.1680
  830MPD2    H312211   1.230   2.160  15.447 -0.8578 -0.2494  1.8454
  830MPD2     N12212   1.458   2.433  15.163 -0.6879  0.8224  0.2205
  830MPD2    H512213   1.504   2.524  15.163 -0.2212  0.5834 -0.9407
  830MPD2    N112214   1.445   2.529  15.635  0.0844  0.2947 -0.0166
  830MPD2    H712215   1.471   2.622  15.602 -0.9493  0.0228 -1.6227
  831MPD2     C12216   1.665   4.051  16.340  0.2297  0.4864 -0.4821
  831MPD2    C112217   1.657   3.972  16.229  0.2362  0.5616 -0.3359
  831MPD2    C212218   1.539   3.905  16.205  0.3081 -0.3352 -0.1914
  831MPD2    C312219   1.420   3.913  16.279  0.0186 -0.0948 -0.4504
  831MPD2    C412220   1.434   3.989  16.400  0.6899 -0.3813 -0.3505
  831MPD2    C512221   1.553   4.054  16.427  0.8971 -0.3103  0.6495
  831MPD2     H12222   1.534   3.854  16.110  1.2411  2.0223 -1.5070
  831MPD2    H112223   1.351   3.986  16.469  2.2480 -1.9990  1.4204
  831MPD2    H212224   1.744   4.124  16.350  0.9431 -0.3568  0.0142
  831MPD2    H312225   1.548   4.125  16.509  1.5802  0.0115  0.4087
  831MPD2     N12226   1.301   3.850  16.251 -0.5852 -0.0076  0.0459
  831MPD2    H512227   1.229   3.841  16.321 -0.8526 -0.6157 -0.3023
  831MPD2    N112228   1.761   3.956  16.129 -0.2184  0.2007 -0.5562
  831MPD2    H712229   1.743   3.872  16.074  1.0037  0.4178 -1.2986
  832MPD2     C12230   0.237   0.045  17.543 -0.1886 -0.2725  0.0469
  832MPD2    C112231   0.189   0.172  17.561 -0.2697  0.7546  0.0689
  832MPD2    C212232   0.085   0.223  17.489  0.3118 -0.0590 -0.3603
  832MPD2    C312233   0.021   0.140  17.402  0.2881  0.2898  0.6938
  832MPD2    C412234   0.072   0.013  17.382 -0.3725 -0.0876  0.4568
  832MPD2    C512235   0.186   4.691  17.447  0.6567  1.2967 -0.3242
  832MPD2     H12236   0.049   0.323  17.510 -1.0734 -0.8571  1.0776
  832MPD2    H112237   0.035   4.659  17.312 -0.0752 -0.9086  1.1889
  832MPD2    H212238   0.318   0.006  17.603  0.6790 -0.2157 -1.0803
  832MPD2    H312239   0.221   4.591  17.429  0.6843  1.1048  0.8050
  832MPD2     N12240   4.620   0.169  17.329 -0.5582  0.0699 -1.3142
  832MPD2    H512241   4.591   0.095  17.265 -0.5011 -0.7023 -0.4457
  832MPD2    N112242   0.251   0.248  17.670 -0.5800  0.1285  0.2398
  832MPD2    H712243   0.320   0.200   0.038  0.4909  0.4731 -0.7773
  833MPD2     C12244   2.299   2.331  12.741 -0.6555 -0.3843 -0.2624
  833MPD2    C112245   2.313   2.414  12.633  0.6721 -0.0732 -0.2442
  833MPD2    C212246   2.412   2.388  12.533  0.3742  0.6877  0.1019
  833MPD2    C312247   2.490   2.271  12.539 -0.5824  0.1188  0.5157
  833MPD2    C412248   2.466   2.178  12.640  0.1612  0.1061 -0.1168
  833MPD2    C512249   2.376   2.212  12.744 -0.5075 -0.0592 -0.8077
  833MPD2     H12250   2.413   2.449  12.444  2.2020 -0.4844 -0.6869
  833MPD2    H112251   2.517   2.083  12.647  0.5126  0.2592 -0.6560
  833MPD2    H212252   2.241   2.357  12.829  1.4016 -2.1285  1.5882
  833MPD2    H312253   2.363   2.144  12.828 -0.9110  2.1541  0.9107
  833MPD2     N12254   2.590   2.239  12.448 -0.1963  0.1166  0.0893
  833MPD2    H512255   2.611   2.140  12.443 -2.0209 -0.3647  1.9010
  833MPD2    N112256   2.246   2.537  12.636 -0.6452  0.1271  0.0326
  833MPD2    H712257   2.157   2.538  12.684 -1.4078 -0.8351 -1.3903
  834MPD2     C12258   2.864   1.583  11.748  0.5116 -0.2066  1.0185
  834MPD2    C112259   2.839   1.700  11.682  0.4926 -0.4512  0.7170
  834MPD2    C212260   2.832   1.817  11.748  0.4849 -0.2483 -0.1966
  834MPD2    C312261   2.817   1.820  11.887 -0.5242  0.6249  0.1561
  834MPD2    C412262   2.841   1.700  11.952 -0.1652 -0.3807  0.2081
  834MPD2    C512263   2.864   1.584  11.883 -0.4505  0.2244  0.6690
  834MPD2     H12264   2.830   1.911  11.695 -1.8939  0.4654  1.1641
  834MPD2    H112265   2.844   1.689  12.060 -0.0638 -0.6512  0.1780
  834MPD2    H212266   2.870   1.488  11.697  0.9951  0.5787 -0.3661
  834MPD2    H312267   2.887   1.489  11.931  0.6677 -0.2383 -0.7629
  834MPD2     N12268   2.798   1.942  11.957 -0.0585  0.5422  0.0063
  834MPD2    H512269   2.810   2.031  11.910 -3.3008 -0.1959 -2.2474
  834MPD2    N112270   2.808   1.683  11.545 -0.1340  0.4868 -0.0090
  834MPD2    H712271   2.824   1.589  11.509 -2.0492 -0.0684  0.6150
  835MPD2     C12272   2.844   0.294  11.180 -0.5343 -0.5556 -0.3494
  835MPD2    C112273   2.709   0.293  11.160  0.0280  0.3943  0.0100
  835MPD2    C212274   2.625   0.285  11.271 -0.2023 -0.3561  0.1209
  835MPD2    C312275   2.680   0.283  11.398  0.0726 -0.4210 -0.1864
  835MPD2    C412276   2.822   0.280  11.411 -0.5716  0.2982 -0.2714
  835MPD2    C512277   2.899   0.289  11.303 -0.1823  0.1719 -0.2613
  835MPD2     H12278   2.519   0.295  11.252 -0.3930  2.5763  2.7144
  835MPD2    H112279   2.865   0.266  11.510 -2.2865 -0.3413  0.3902
  835MPD2    H212280   2.911   0.285  11.095 -0.2327 -1.5012 -0.0042
  835MPD2    H312281   3.006   0.276  11.312 -0.6480 -3.6381 -0.3806
  835MPD2     N12282   2.603   0.295  11.514  0.3058  0.3752 -0.1632
  835MPD2    H512283   2.645   0.290  11.606  1.1040  2.7859 -0.3915
  835MPD2    N112284   2.647   0.271  11.034  0.0039  0.1070  0.1747
  835MPD2    H712285   2.546   0.266  11.034 -0.0134  0.3677 -0.3072
  836MPD2     C12286   1.972   0.740  11.652 -0.3963  0.3056 -0.0826
  836MPD2    C112287   1.983   0.644  11.752 -0.1632 -0.8458  0.8891
  836MPD2    C212288   1.894   0.649  11.864  0.0324 -0.0039  0.0182
  836MPD2    C312289   1.783   0.729  11.859  0.1563 -0.4468 -0.5091
  836MPD2    C412290   1.778   0.827  11.766  0.0427 -1.1728 -0.1938
  836MPD2    C512291   1.870   0.834  11.665 -0.5138  0.2702  0.1209
  836MPD2     H12292   1.898   0.566  11.933  0.0109 -1.2779 -1.4911
  836MPD2    H112293   1.697   0.898  11.771  0.0553 -1.2819  1.6602
  836MPD2    H212294   2.051   0.757  11.579  2.2215  1.9528  3.1556
  836MPD2    H312295   1.860   0.914  11.592 -3.1766 -0.1169  0.0429
  836MPD2     N12296   1.680   0.737  11.954 -0.5921  0.0864 -0.5833
  836MPD2    H512297   1.596   0.791  11.936 -1.2149 -1.3663 -2.0176
  836MPD2    N112298   2.090   0.561  11.734 -0.2570 -0.3933  0.2256
  836MPD2    H712299   2.143   0.573  11.648  1.8826 -2.7208  1.2039
  837MPD2     C12300   0.345   4.660  10.189 -0.0579 -0.3135  0.0957
  837MPD2    C112301   0.349   4.661  10.053 -0.1542 -0.0231 -0.5917
  837MPD2    C212302   0.331   0.063   9.986  0.3471 -0.1312  0.4007
  837MPD2    C312303   0.298   0.180  10.048 -0.0982  0.1871 -0.2586
  837MPD2    C412304   0.280   0.174  10.186 -0.0379  0.4620  0.6401
  837MPD2    C512305   0.313   0.056  10.249 -0.1601  0.3579 -0.0506
  837MPD2     H12306   0.353   0.071   9.880 -0.6018 -0.0592  0.2044
  837MPD2    H112307   0.269   0.268  10.239 -0.5218  0.3760  0.6917
  837MPD2    H212308   0.369   4.570  10.244  1.2655 -0.2107 -0.3186
  837MPD2    H312309   0.310   0.054  10.358  1.2453  0.2550 -0.0148
  837MPD2     N12310   0.284   0.292   9.971  0.2026 -0.4177  0.7211
  837MPD2    H512311   0.302   0.283   9.872  0.1552 -0.2625  0.6984
  837MPD2    N112312   0.353   4.546   9.968 -0.4878 -0.2825 -0.2214
  837MPD2    H712313   0.347   4.564   9.869  0.1187  0.1814 -0.1658
  838MPD2     C12314   4.278   2.656  12.057  0.5246 -0.1526 -0.3843
  838MPD2    C112315   4.181   2.582  11.993 -0.3481 -0.1497  0.1544
  838MPD2    C212316   4.088   2.512  12.071  0.5402  0.4899  0.5553
  838MPD2    C312317   4.083   2.523  12.208 -0.4933  0.1641 -0.6375
  838MPD2    C412318   4.178   2.592  12.265 -0.4356 -0.2560  0.0769
  838MPD2    C512319   4.268   2.664  12.193  0.2251 -0.2765 -0.1887
  838MPD2     H12320   4.002   2.467  12.023  0.8976  0.4107 -0.0088
  838MPD2    H112321   4.172   2.600  12.373  0.4609 -0.7749  0.1638
  838MPD2    H212322   4.335   2.735  12.009 -0.8490  0.3710 -1.1590
  838MPD2    H312323   4.330   2.731  12.252 -1.6628 -1.1567  2.8029
  838MPD2     N12324   3.967   2.469  12.258 -0.1755 -0.6758  0.2242
  838MPD2    H512325   3.897   2.429  12.196  0.2943  2.2580 -2.2086
  838MPD2    N112326   4.159   2.583  11.850 -0.2361 -0.4482  0.0431
  838MPD2    H712327   4.086   2.521  11.817  1.4700 -1.6917 -1.3971
  839MPD2     C12328   3.404   2.685  11.472 -0.2112 -0.8685  0.9982
  839MPD2    C112329   3.471   2.592  11.395  0.1331  0.5485  0.0187
  839MPD2    C212330   3.607   2.589  11.390  0.1752  0.0630  0.5091
  839MPD2    C312331   3.678   2.670  11.474  0.3943  0.7735  0.1749
  839MPD2    C412332   3.610   2.761  11.560 -0.3184 -0.1743  0.5936
  839MPD2    C512333   3.478   2.767  11.559 -0.0548  0.4679 -0.3221
  839MPD2     H12334   3.657   2.517  11.326 -1.7313  1.5774 -2.7233
  839MPD2    H112335   3.667   2.821  11.630  0.7685  2.0740 -2.1911
  839MPD2    H212336   3.296   2.690  11.486 -0.4613  2.1062 -2.1040
  839MPD2    H312337   3.434   2.827  11.638  1.8329 -1.1004  1.9074
  839MPD2     N12338   3.822   2.675  11.492 -0.3829 -0.5626  0.2278
  839MPD2    H512339   3.856   2.726  11.572  0.0284  1.0613 -0.9940
  839MPD2    N112340   3.399   2.510  11.309 -0.2243 -0.5744 -0.4524
  839MPD2    H712341   3.444   2.450  11.240  0.0517 -0.3311 -0.4846
  840MPD2     C12342   4.172   0.929  10.083 -0.0719  0.6142 -0.3658
  840MPD2    C112343   4.145   0.853  10.190 -0.3048 -0.5053 -0.1193
  840MPD2    C212344   4.214   0.880  10.311 -0.6277 -1.3787  0.7563
  840MPD2    C312345   4.299   0.986  10.324 -0.4134  0.1687  0.1639
  840MPD2    C412346   4.327   1.058  10.208  0.0310 -0.4566 -0.4116
  840MPD2    C512347   4.266   1.025  10.087  0.2708 -0.0488  0.0722
  840MPD2     H12348   4.205   0.807  10.391  0.6818 -0.7725  1.4490
  840MPD2    H112349   4.392   1.143  10.224  0.4222 -1.0045  0.8953
  840MPD2    H212350   4.117   0.918   9.991 -1.3849 -1.1186  0.6366
  840MPD2    H312351   4.275   1.090  10.001 -2.5726  0.6474  0.2816
  840MPD2     N12352   4.360   1.031  10.439  0.0337 -0.4196 -0.0047
  840MPD2    H512353   4.433   1.101  10.429  1.2631 -1.9537 -1.6542
  840MPD2    N112354   4.045   0.752  10.182 -0.6432 -0.3169 -0.0710
  840MPD2    H712355   3.979   0.753  10.105 -0.6727  0.8457 -0.0238
  841MPD2     C12356   2.616   4.410  14.604  0.0817 -0.6405  0.7054
  841MPD2    C112357   2.732   4.379  14.531  0.3330  0.2754  0.2804
  841MPD2    C212358   2.786   4.485  14.469 -1.0387  0.0051  0.1541
  841MPD2    C312359   2.746   4.617  14.479  0.0631  0.5942  0.3762
  841MPD2    C412360   2.635   4.644  14.547 -0.3409 -0.0227  1.2329
  841MPD2    C512361   2.572   4.537  14.611  0.1434  0.4059  0.8018
  841MPD2     H12362   2.881   4.471  14.418 -0.6105 -0.6213  1.1242
  841MPD2    H112363   2.589   0.020  14.546  1.7484  0.9333  0.4264
  841MPD2    H212364   2.571   4.334  14.666  0.5125 -1.2632  0.2440
  841MPD2    H312365   2.482   4.550  14.670 -0.7406 -0.2227 -0.3923
  841MPD2     N12366   2.815   4.712  14.399  0.2812  0.3763 -0.3444
  841MPD2    H512367   2.901   4.678  14.356  0.4487 -0.7162  0.8409
  841MPD2    N112368   2.801   4.262  14.526  0.1592  0.0224  0.1899
  841MPD2    H712369   2.886   4.256  14.469  0.3387 -1.7757  0.6493
  842MPD2     C12370   3.881   0.466  16.717 -0.0238  0.3528  0.6899
  842MPD2    C112371   3.744   0.474  16.694 -0.8685 -0.7348  0.5410
  842MPD2    C212372   3.664   0.391  16.771  0.1453  0.3723 -0.7838
  842MPD2    C312373   3.713   0.297  16.869 -0.6023  0.0542 -0.4356
  842MPD2    C412374   3.855   0.284  16.873 -0.0488  0.5800 -0.6636
  842MPD2    C512375   3.930   0.372  16.812 -0.1494  0.6471  0.1286
  842MPD2     H12376   3.566   0.368  16.730 -0.1872  1.4408 -0.5939
  842MPD2    H112377   3.904   0.210  16.935  1.0940  0.9124 -1.1779
  842MPD2    H212378   3.947   0.542  16.679 -0.8454  0.6028 -0.2548
  842MPD2    H312379   4.032   0.381  16.847 -1.1249  1.3728  2.7869
  842MPD2     N12380   3.634   0.228  16.964 -0.2672 -0.4911  0.1480
  842MPD2    H512381   3.683   0.162  17.023 -0.6442 -1.1382 -0.2595
  842MPD2    N112382   3.686   0.565  16.600  0.2862  0.4448 -1.0314
  842MPD2    H712383   3.739   0.635  16.549  1.3037  1.1301  0.9306
  843MPD2     C12384   1.177   0.904  17.513 -0.5485 -0.1790  0.5958
  843MPD2    C112385   1.205   0.840  17.632  0.5612  0.7275 -0.3128
  843MPD2    C212386   1.313   0.882   0.022 -0.1769  0.7405  0.0494
  843MPD2    C312387   1.395   0.969  17.653  0.2586 -0.1376 -0.2166
  843MPD2    C412388   1.372   1.029  17.530  0.4867 -0.3804 -0.4523
  843MPD2    C512389   1.259   1.006  17.461  0.3021 -0.7048 -0.1113
  843MPD2     H12390   1.333   0.836   0.118  0.6762  1.2788  0.1257
  843MPD2    H112391   1.449   1.087  17.481 -0.9415  0.5652 -1.5970
  843MPD2    H212392   1.084   0.889  17.460 -1.1507 -0.3559  1.7092
  843MPD2    H312393   1.238   1.062  17.371 -2.4620  1.1975  1.7295
  843MPD2     N12394   1.521   1.006   0.021 -0.6685  0.6140  1.2005
  843MPD2    H512395   1.571   1.083  17.665 -0.2334 -1.4015 -1.7773
  843MPD2    N112396   1.118   0.736  17.670 -0.2822 -0.0166  0.0228
  843MPD2    H712397   1.042   0.715  17.606 -0.5883  0.4792  0.2314
  844MPD2     C12398   4.291   4.341  16.969  0.2074  0.1995 -0.2640
  844MPD2    C112399   4.316   4.384  16.837  0.3591  0.0200 -0.4839
  844MPD2    C212400   4.413   4.481  16.814  0.4568 -0.4538  0.2715
  844MPD2    C312401   4.467   4.545  16.923 -0.8092 -0.6779 -0.4712
  844MPD2    C412402   4.429   4.507  17.052  0.2043  0.5135 -0.2987
  844MPD2    C512403   4.349   4.402  17.075 -0.6503 -0.6045  0.2446
  844MPD2     H12404   4.424   4.532  16.719 -0.2459 -1.4797 -0.3553
  844MPD2    H112405   4.470   4.555  17.141 -1.8705 -1.2610  1.6202
  844MPD2    H212406   4.225   4.258  16.986  0.5175  0.3966  1.9720
  844MPD2    H312407   4.312   4.383  17.175 -2.2572 -1.2855 -0.4845
  844MPD2     N12408   4.555   4.651  16.893  0.3803 -0.3604 -0.2064
  844MPD2    H512409   4.573   4.671  16.795  1.1167 -1.3377 -0.2718
  844MPD2    N112410   4.254   4.331  16.717  0.1304 -0.1267 -0.1144
  844MPD2    H712411   4.279   4.374  16.628  0.0002 -0.0406 -0.1082
  845MPD2     C12412   0.520   0.619  17.237  0.2672  0.5810  0.3331
  845MPD2    C112413   0.386   0.612  17.242  0.6364 -0.7669  0.5665
  845MPD2    C212414   0.321   0.502  17.187 -0.3617  0.0765 -0.1823
  845MPD2    C312415   0.383   0.391  17.132 -0.2444 -0.6803 -0.5601
  845MPD2    C412416   0.521   0.397  17.133  0.5893 -0.0151  0.6248
  845MPD2    C512417   0.583   0.507  17.190 -0.0392  0.2323 -0.3883
  845MPD2     H12418   0.213   0.512  17.184 -0.6278 -2.9337 -0.2018
  845MPD2    H112419   0.576   0.318  17.084 -0.1893  0.1426 -0.5076
  845MPD2    H212420   0.574   0.705  17.276  1.3979  0.5805 -1.2438
  845MPD2    H312421   0.691   0.502  17.192 -0.1525 -0.9251  1.9829
  845MPD2     N12422   0.305   0.297  17.060  0.2824  0.0492  0.7955
  845MPD2    H512423   0.207   0.320  17.050  0.3627 -0.2908 -0.8022
  845MPD2    N112424   0.302   0.707  17.305  0.4457  0.3561  0.0165
  845MPD2    H712425   0.206   0.681  17.325  0.1547  1.1797 -0.3465
  846MPD2     C12426   1.717   1.738  13.366 -0.5703  0.2049 -0.5221
  846MPD2    C112427   1.659   1.857  13.412  0.4627  0.2906  0.0825
  846MPD2    C212428   1.642   1.880  13.546 -0.4122 -0.3937 -0.4469
  846MPD2    C312429   1.671   1.779  13.638 -0.8986  0.6772  0.5237
  846MPD2    C412430   1.735   1.662  13.593 -0.0809  0.0577  0.2526
  846MPD2    C512431   1.743   1.644  13.458  0.0925  0.2074  0.3489
  846MPD2     H12432   1.596   1.976  13.565 -0.1921 -0.8832  2.5378
  846MPD2    H112433   1.759   1.577  13.656  2.9374 -1.2147 -2.6250
  846MPD2    H212434   1.743   1.715  13.263 -0.3737  0.2646 -0.4870
  846MPD2    H312435   1.798   1.554  13.432  0.4479  0.3230  0.7039
  846MPD2     N12436   1.632   1.796  13.771 -0.0889 -0.2565  0.9428
  846MPD2    H512437   1.577   1.877  13.796 -1.7477 -0.9955 -0.3190
  846MPD2    N112438   1.630   1.961  13.321  0.4326  0.1657  0.2258
  846MPD2    H712439   1.609   2.048  13.368  0.8342 -1.0054  2.5923
  847MPD2     C12440   1.529   2.518  14.233  0.2325  0.3936 -0.4567
  847MPD2    C112441   1.655   2.583  14.240  0.1805  0.2504  1.0209
  847MPD2    C212442   1.733   2.550  14.346 -0.3757 -0.3248  0.1405
  847MPD2    C312443   1.691   2.457  14.443 -0.2696 -0.0594  0.0701
  847MPD2    C412444   1.565   2.394  14.429  0.5038  0.0223 -0.7940
  847MPD2    C512445   1.485   2.428  14.325  0.2905 -0.8029  0.4328
  847MPD2     H12446   1.833   2.591  14.346 -0.0151 -1.1995 -1.6527
  847MPD2    H112447   1.534   2.317  14.497  1.3286  0.2779 -0.1255
  847MPD2    H212448   1.466   2.528  14.145  1.5883 -0.4827 -1.5245
  847MPD2    H312449   1.391   2.376  14.311 -0.8386  1.7673 -1.6192
  847MPD2     N12450   1.783   2.420  14.548  0.0966  0.1388  0.4564
  847MPD2    H512451   1.874   2.464  14.538 -0.7002  0.8250 -3.7039
  847MPD2    N112452   1.702   2.679  14.149 -0.3511  0.5657  0.1083
  847MPD2    H712453   1.789   2.729  14.160 -1.1498  1.6566  1.5501
  848MPD2     C12454   4.282   0.691  16.789 -0.1848  0.4876  0.2256
  848MPD2    C112455   4.277   0.698  16.927 -0.9903  0.2114  0.6186
  848MPD2    C212456   4.250   0.824  16.988  0.1327 -0.5606  0.1024
  848MPD2    C312457   4.223   0.934  16.913 -0.0335  0.4667  0.4873
  848MPD2    C412458   4.217   0.924  16.779  0.2661  0.0805  0.2939
  848MPD2    C512459   4.255   0.802  16.718  0.2175  0.2412 -0.1496
  848MPD2     H12460   4.238   0.821  17.096  0.5184  2.5048  0.2177
  848MPD2    H112461   4.178   1.004  16.717 -1.0896 -1.1657 -0.4694
  848MPD2    H212462   4.322   0.602  16.739 -0.7258 -0.6069  1.7550
  848MPD2    H312463   4.274   0.789  16.612 -1.7834 -0.0705 -0.4634
  848MPD2     N12464   4.181   1.057  16.965 -0.3316 -0.3662  0.2045
  848MPD2    H512465   4.140   1.126  16.903  0.1804 -2.9178 -2.9707
  848MPD2    N112466   4.307   0.593  17.014 -0.0949 -0.3091 -0.1534
  848MPD2    H712467   4.302   0.609  17.114  0.6725  1.0987 -0.3511
  849MPD2     C12468   3.881   1.732  13.438 -0.6835 -0.2944 -0.6867
  849MPD2    C112469   3.933   1.608  13.402  0.6893  0.3900  0.3165
  849MPD2    C212470   3.884   1.494  13.452  0.2865  0.0911 -0.0555
  849MPD2    C312471   3.782   1.496  13.544 -0.2345  0.1079 -0.1339
  849MPD2    C412472   3.741   1.618  13.595 -0.1958 -0.1547 -0.8166
  849MPD2    C512473   3.790   1.732  13.538  0.2285 -0.3352  0.1688
  849MPD2     H12474   3.926   1.404  13.409 -0.9776 -0.0899 -0.9275
  849MPD2    H112475   3.673   1.614  13.680 -0.2847 -1.5404 -0.9433
  849MPD2    H212476   3.920   1.827  13.404  0.4242  0.0436  1.5463
  849MPD2    H312477   3.760   1.830  13.574 -0.7931 -0.6697  0.2422
  849MPD2     N12478   3.732   1.374  13.598 -0.2949  0.3481  0.0007
  849MPD2    H512479   3.690   1.374  13.691 -0.8215  0.7800 -0.2380
  849MPD2    N112480   4.032   1.589  13.300 -0.1582  0.2558 -0.1811
  849MPD2    H712481   4.050   1.493  13.273  0.8543  0.2042  0.7075
  850MPD2     C12482   1.347   3.396  14.347  0.4533 -0.0714 -0.2207
  850MPD2    C112483   1.320   3.479  14.456  0.1621  0.0803 -0.2644
  850MPD2    C212484   1.426   3.516  14.536 -0.2099 -0.3824  0.3903
  850MPD2    C312485   1.557   3.474  14.508  0.5658 -0.1378  0.3529
  850MPD2    C412486   1.577   3.380  14.409 -0.5464  0.3424 -0.0933
  850MPD2    C512487   1.468   3.334  14.331 -0.1038 -0.2330  0.7019
  850MPD2     H12488   1.419   3.581  14.622 -2.0798 -2.7116  1.9904
  850MPD2    H112489   1.675   3.341  14.384 -0.9442 -0.8052  0.1243
  850MPD2    H212490   1.269   3.367  14.277 -1.2991 -0.9084  2.0667
  850MPD2    H312491   1.491   3.257  14.258 -0.2484 -0.4511  0.8874
  850MPD2     N12492   1.674   3.502  14.591 -0.2684 -0.4373  0.1552
  850MPD2    H512493   1.765   3.475  14.554  0.3003 -0.6962  1.7629
  850MPD2    N112494   1.190   3.538  14.468 -0.0512 -0.5527 -0.1339
  850MPD2    H712495   1.143   3.547  14.378 -0.7220 -1.0071  0.1753
  851MPD2     C12496   1.666   3.240  15.074 -0.4219  0.0315 -0.4595
  851MPD2    C112497   1.574   3.221  14.975  0.1755 -0.9272 -0.6112
  851MPD2    C212498   1.580   3.102  14.900 -0.1250  0.0665 -0.2767
  851MPD2    C312499   1.661   3.007  14.939 -0.2056 -0.2343 -0.3087
  851MPD2    C412500   1.746   3.024  15.043  0.2314 -0.0208  0.3222
  851MPD2    C512501   1.750   3.141  15.113 -0.1400  0.0650 -0.0189
  851MPD2     H12502   1.504   3.084  14.825 -0.5465  0.8732 -0.0530
  851MPD2    H112503   1.819   2.952  15.077  0.4089 -0.0678 -0.1542
  851MPD2    H212504   1.649   3.324  15.140  2.7157  0.7117 -0.5260
  851MPD2    H312505   1.812   3.156  15.201  1.2850  2.4229 -1.4127
  851MPD2     N12506   1.634   2.884  14.878  0.5325 -0.0325 -0.1892
  851MPD2    H512507   1.557   2.886  14.813 -2.5242 -1.3285  3.3665
  851MPD2    N112508   1.465   3.310  14.956 -0.0289 -0.4130 -0.0308
  851MPD2    H712509   1.461   3.393  15.014  2.7544  1.3837 -2.4282
  852MPD2     C12510   1.651   1.689   9.873  0.4380  0.2506  0.4357
  852MPD2    C112511   1.655   1.737  10.008 -0.0113 -0.7070  0.0867
  852MPD2    C212512   1.612   1.866  10.035  0.1778  0.2641 -0.6667
  852MPD2    C312513   1.588   1.954   9.931 -0.1214 -0.2381 -0.3530
  852MPD2    C412514   1.588   1.912   9.803 -0.4630  0.2511 -0.1467
  852MPD2    C512515   1.620   1.779   9.775 -0.2082 -0.3157  0.6443
  852MPD2     H12516   1.610   1.909  10.134 -1.7104  1.4165 -1.2000
  852MPD2    H112517   1.571   1.981   9.721  1.0462  0.2499 -0.4525
  852MPD2    H212518   1.682   1.587   9.855  1.1503  0.8084 -1.5722
  852MPD2    H312519   1.615   1.751   9.670 -1.0190 -0.2631  0.6681
  852MPD2     N12520   1.560   2.087   9.970 -0.5111 -0.3410  0.3509
  852MPD2    H512521   1.568   2.095  10.071  0.0179  1.7736  0.1337
  852MPD2    N112522   1.688   1.646  10.111  0.6838  0.3284 -0.0432
  852MPD2    H712523   1.663   1.679  10.204 -1.5242 -3.5722  0.7320
  853MPD2     C12524   3.165   0.985  12.070  0.3365  0.0153  0.5139
  853MPD2    C112525   3.099   1.102  12.046  0.1097 -0.3892  0.0179
  853MPD2    C212526   3.142   1.194  11.954 -0.4869 -0.2410  0.7734
  853MPD2    C312527   3.256   1.170  11.878 -0.3446 -0.2127  0.4406
  853MPD2    C412528   3.321   1.051  11.898 -0.6984 -0.8511 -0.3870
  853MPD2    C512529   3.284   0.959  11.992  0.1205  0.0824 -0.2197
  853MPD2     H12530   3.086   1.286  11.942 -1.6756 -1.0193  0.3385
  853MPD2    H112531   3.414   1.034  11.846 -0.3192 -0.6710  0.2339
  853MPD2    H212532   3.148   0.912  12.148  1.6858 -1.7642 -0.8619
  853MPD2    H312533   3.334   0.863  12.005  0.3247  0.3813  1.2855
  853MPD2     N12534   3.300   1.260  11.783  0.4250  0.1000 -0.2054
  853MPD2    H512535   3.379   1.229  11.728 -0.7932  1.7455 -2.8583
  853MPD2    N112536   2.985   1.128  12.129 -0.1284  0.4658 -0.0681
  853MPD2    H712537   2.980   1.069  12.211  0.6325 -0.7020 -0.8580
  854MPD2     C12538   0.099   1.443  13.282  0.0642 -0.1439  0.4862
  854MPD2    C112539   0.153   1.346  13.206  0.5746  0.1408  0.0294
  854MPD2    C212540   0.291   1.328  13.198 -0.5863 -0.0588 -0.4133
  854MPD2    C312541   0.370   1.419  13.269 -0.3178  0.5798 -0.0036
  854MPD2    C412542   0.309   1.503  13.364 -0.6496 -0.0668  0.4975
  854MPD2    C512543   0.177   1.519  13.364 -0.0253 -0.0671  0.2173
  854MPD2     H12544   0.340   1.254  13.135 -0.1615 -1.7966  1.9262
  854MPD2    H112545   0.368   1.575  13.420  1.0476  0.9242 -2.5223
  854MPD2    H212546   4.715   1.453  13.305  0.3310  0.4812  1.4750
  854MPD2    H312547   0.131   1.586  13.436  1.5005  1.1514  0.0767
  854MPD2     N12548   0.512   1.417  13.266  0.3359 -0.1862  0.0170
  854MPD2    H512549   0.558   1.485  13.326 -0.8507 -0.0285  0.7412
  854MPD2    N112550   0.065   1.251  13.165 -0.0002  0.4524  0.1034
  854MPD2    H712551   4.690   1.275  13.183  0.0548 -1.1341  2.5310
  855MPD2     C12552   0.219   0.908  13.556 -0.1128  0.3971  0.0067
  855MPD2    C112553   0.337   0.852  13.594  0.4622  0.3235  0.8371
  855MPD2    C212554   0.453   0.922  13.585  0.2066  0.0383  1.0316
  855MPD2    C312555   0.451   1.050  13.533 -0.0601 -0.9801 -0.0134
  855MPD2    C412556   0.333   1.111  13.495 -0.6669 -0.1511  0.7827
  855MPD2    C512557   0.219   1.036  13.498 -0.3445  1.0757 -0.1772
  855MPD2     H12558   0.547   0.880  13.617 -0.3511 -2.1067 -0.1423
  855MPD2    H112559   0.320   1.210  13.451 -1.2871  0.2738  1.9083
  855MPD2    H212560   0.124   0.856  13.558  0.4184 -0.7802 -5.0246
  855MPD2    H312561   0.127   1.084  13.468  0.4308  1.7938 -1.4369
  855MPD2     N12562   0.570   1.128  13.507 -0.2050 -0.2814  0.0654
  855MPD2    H512563   0.555   1.220  13.468 -1.1491 -0.5606 -0.2360
  855MPD2    N112564   0.347   0.723  13.661 -0.3310  0.0058  0.4975
  855MPD2    H712565   0.434   0.695  13.705 -0.5797  1.0369  1.6324
  856MPD2     C12566   2.551   1.997  13.427 -0.1062 -0.2130 -0.7133
  856MPD2    C112567   2.646   2.058  13.499  0.2119 -0.1369 -0.2955
  856MPD2    C212568   2.633   2.191  13.543  0.4402 -0.5198 -0.1402
  856MPD2    C312569   2.527   2.266  13.499 -0.0701  0.5195 -0.6272
  856MPD2    C412570   2.436   2.205  13.417  1.1684 -0.6200 -0.0811
  856MPD2    C512571   2.452   2.074  13.386  0.1272 -0.5168 -0.2657
  856MPD2     H12572   2.708   2.224  13.614 -0.7532  0.7893  0.5214
  856MPD2    H112573   2.364   2.265  13.363  0.1876 -1.3647  0.4117
  856MPD2    H212574   2.563   1.899  13.381  1.5293 -0.9666  1.3481
  856MPD2    H312575   2.378   2.034  13.318  0.2526 -0.8649 -0.1979
  856MPD2     N12576   2.512   2.405  13.537  0.2297 -0.1894  0.2824
  856MPD2    H512577   2.423   2.444  13.508  0.6538 -0.2819 -1.1322
  856MPD2    N112578   2.750   1.980  13.558 -0.3747 -0.5752 -0.0173
  856MPD2    H712579   2.811   2.036  13.617 -1.2910 -0.2801  0.6628
  857MPD2     C12580   4.079   4.369  12.569  0.2143  0.6831 -0.8664
  857MPD2    C112581   4.206   4.332  12.620  0.2203  0.2722  0.4534
  857MPD2    C212582   4.261   4.416  12.712 -0.4207 -0.4479  0.5394
  857MPD2    C312583   4.197   4.523  12.771 -0.3275  0.3434  0.2764
  857MPD2    C412584   4.070   4.552  12.732  0.8373 -0.4451  0.1442
  857MPD2    C512585   4.017   4.479  12.629  0.7548 -0.1415 -0.2043
  857MPD2     H12586   4.357   4.396  12.759 -0.9961 -3.0671  0.5784
  857MPD2    H112587   4.006   4.630  12.772 -0.2373 -0.3149 -1.8009
  857MPD2    H212588   4.019   4.310  12.501  2.1890  1.3481 -3.1922
  857MPD2    H312589   3.917   4.506  12.598  0.6364  0.9829  1.1371
  857MPD2     N12590   4.261   4.594  12.875 -0.0532  0.1278  0.0297
  857MPD2    H512591   4.352   4.551  12.888  0.1978 -0.3061 -3.0582
  857MPD2    N112592   4.268   4.209  12.574 -0.3039  0.1119 -0.0577
  857MPD2    H712593   4.224   4.150  12.504 -3.5007 -0.1959  2.2062
  858MPD2     C12594   4.677   2.273  16.677  0.3225 -0.1965 -0.3838
  858MPD2    C112595   0.086   2.290  16.699 -1.0743 -0.1544  0.7617
  858MPD2    C212596   0.129   2.393  16.784  0.2210 -0.0095  0.3264
  858MPD2    C312597   0.040   2.482  16.842  0.9769 -0.2157 -0.4647
  858MPD2    C412598   4.628   2.454  16.824 -0.1248 -0.2239  0.9057
  858MPD2    C512599   4.587   2.356  16.743 -0.1919  0.0668  0.3871
  858MPD2     H12600   0.237   2.403  16.796  0.2473 -1.8889  1.7402
  858MPD2    H112601   4.549   2.509  16.873 -2.2367 -0.9549 -1.6882
  858MPD2    H212602   4.636   2.193  16.616 -0.7739  0.2611 -0.2502
  858MPD2    H312603   4.481   2.345  16.727  0.0108 -1.9243  0.3364
  858MPD2     N12604   0.079   2.599  16.912 -0.0783 -0.0404  0.4968
  858MPD2    H512605   0.010   2.665  16.946  0.0156  0.7147 -0.7787
  858MPD2    N112606   0.174   2.210  16.621  0.2438 -0.0239  0.0326
  858MPD2    H712607   0.134   2.151  16.549 -0.4882 -1.0463  1.2703
  859MPD2     C12608   2.928   0.429  15.015 -0.7930 -0.4606  0.3679
  859MPD2    C112609   3.063   0.448  15.003 -0.2213 -0.1420  0.5405
  859MPD2    C212610   3.145   0.341  14.983  0.6528  0.2348  0.4472
  859MPD2    C312611   3.096   0.216  15.014 -0.1768  0.0093 -0.3571
  859MPD2    C412612   2.960   0.192  15.025 -0.3388 -0.0280  0.3754
  859MPD2    C512613   2.880   0.301  15.020 -0.0157  0.1803 -0.2305
  859MPD2     H12614   3.251   0.358  14.965 -0.0085  1.1161 -2.5261
  859MPD2    H112615   2.904   0.099  15.038  1.6154 -1.3780 -0.9006
  859MPD2    H212616   2.870   0.519  15.035  0.5231  0.3042  0.7245
  859MPD2    H312617   2.772   0.291  15.028 -0.2918  3.0243 -0.2353
  859MPD2     N12618   3.183   0.110  15.000 -0.3422 -0.2479  0.1280
  859MPD2    H512619   3.274   0.126  14.961  0.1289  0.6564  1.5891
  859MPD2    N112620   3.121   0.577  15.010  0.3409  0.4288  0.4233
  859MPD2    H712621   3.062   0.658  14.994 -1.6365 -0.6728  2.0762
  860MPD2     C12622   1.210   1.023  11.584  0.8341 -0.0303  0.4209
  860MPD2    C112623   1.206   1.151  11.639  0.0125 -0.1274 -0.1591
  860MPD2    C212624   1.121   1.163  11.749  0.0448  0.5937 -0.8983
  860MPD2    C312625   1.044   1.057  11.792  0.6412  0.3711  0.3504
  860MPD2    C412626   1.067   0.928  11.741 -0.4526 -0.2179  0.1137
  860MPD2    C512627   1.138   0.915  11.628 -0.3084  0.4198  0.2739
  860MPD2     H12628   1.096   1.260  11.791  0.0236 -0.1475  0.8001
  860MPD2    H112629   1.009   0.841  11.770 -0.0286 -0.6205 -0.2499
  860MPD2    H212630   1.269   1.004  11.495 -0.9014  1.8607 -1.1322
  860MPD2    H312631   1.144   0.819  11.577 -1.1569 -0.4578  1.8102
  860MPD2     N12632   0.958   1.079  11.903 -0.2078  0.8161  0.1535
  860MPD2    H512633   0.966   1.165  11.956 -1.4880  0.6600  0.6120
  860MPD2    N112634   1.288   1.259  11.597 -0.2847 -0.1225  0.0858
  860MPD2    H712635   1.283   1.348  11.645  0.0324  0.0431 -0.1938
  861MPD2     C12636   4.621   4.217  11.100 -0.8370  0.3341 -0.5186
  861MPD2    C112637   4.674   4.349  11.096  0.0956  0.0499 -0.0050
  861MPD2    C212638   4.614   4.447  11.024 -0.5659 -0.3894 -0.0274
  861MPD2    C312639   4.501   4.416  10.955  0.4770  0.0073 -0.3981
  861MPD2    C412640   4.451   4.289  10.952  0.3741  0.3919 -0.1114
  861MPD2    C512641   4.511   4.191  11.026  0.3456 -0.0024 -0.0600
  861MPD2     H12642   4.668   4.541  11.022  1.4067 -1.5298 -0.7558
  861MPD2    H112643   4.353   4.279  10.906 -0.0590 -0.1302  0.9391
  861MPD2    H212644   4.663   4.128  11.144 -4.1864  0.7390  3.4948
  861MPD2    H312645   4.453   4.099  11.027  0.1076  0.1701  2.1430
  861MPD2     N12646   4.429   4.516  10.887  0.1129  0.6516 -0.1372
  861MPD2    H512647   4.344   4.475  10.849  0.8553  0.3554 -1.4731
  861MPD2    N112648   0.064   4.393  11.167  0.3346  0.0828 -0.2425
  861MPD2    H712649   0.099   4.488  11.155 -0.0504  0.4196  1.2282
  862MPD2     C12650   4.334   4.549  10.285  0.5862  0.4327  0.3071
  862MPD2    C112651   4.390   4.534  10.407 -0.2528 -0.6185  0.3418
  862MPD2    C212652   4.467   4.420  10.436  0.0060 -0.8181  0.1507
  862MPD2    C312653   4.466   4.313  10.347 -0.0201 -0.0054  0.0781
  862MPD2    C412654   4.387   4.330  10.234  0.4329 -0.1130  0.0356
  862MPD2    C512655   4.329   4.444  10.196 -0.3672 -0.4016  0.0825
  862MPD2     H12656   4.525   4.415  10.527 -0.8570 -1.0571  0.6837
  862MPD2    H112657   4.369   4.246  10.168 -0.6083  0.8503 -0.9124
  862MPD2    H212658   4.270   4.634  10.264  1.0456  0.3012 -1.5501
  862MPD2    H312659   4.273   4.455  10.104  0.5621 -0.4719 -0.4890
  862MPD2     N12660   4.521   4.183  10.370 -0.3838 -1.0212  0.9285
  862MPD2    H512661   4.498   4.114  10.298  2.8333 -1.3105  0.1905
  862MPD2    N112662   4.388   4.620  10.516 -0.4642  0.5443  0.7343
  862MPD2    H712663   4.405   4.572  10.603  0.8739 -1.8431 -0.8381
  863MPD2     C12664   3.018   1.848  16.936  0.6446  0.2808 -0.5242
  863MPD2    C112665   3.109   1.947  16.970 -0.0229  0.0836 -0.7634
  863MPD2    C212666   3.187   1.927  17.077  0.2440  0.1543  0.1102
  863MPD2    C312667   3.175   1.810  17.154 -0.0056 -0.4697  0.2586
  863MPD2    C412668   3.086   1.712  17.110  0.1081 -0.0326 -0.1623
  863MPD2    C512669   3.000   1.735  17.006  0.7882 -0.1154 -0.0347
  863MPD2     H12670   3.267   1.997  17.099  1.7917 -1.1789 -1.3269
  863MPD2    H112671   3.076   1.623  17.171 -0.0678 -0.4813 -0.8479
  863MPD2    H212672   2.943   1.856  16.859  0.6763 -0.8822 -0.6720
  863MPD2    H312673   2.925   1.668  16.965  1.0625 -2.2244  2.8273
  863MPD2     N12674   3.264   1.785  17.262 -0.6317 -0.0802 -0.1152
  863MPD2    H512675   3.232   1.703  17.312 -1.4275  0.0682 -0.3905
  863MPD2    N112676   3.117   2.070  16.895  0.4503  0.2049 -0.3102
  863MPD2    H712677   3.179   2.142  16.931 -0.5877  0.3106  1.2656
  864MPD2     C12678   3.447   3.043  17.439  0.5742  0.5154  0.6710
  864MPD2    C112679   3.533   2.990  17.339  0.7415 -0.5179 -0.1953
  864MPD2    C212680   3.528   3.036  17.209  0.0616  0.0441  0.0313
  864MPD2    C312681   3.440   3.131  17.165  0.2021 -0.8326  0.3421
  864MPD2    C412682   3.359   3.190  17.258  0.3499 -0.1176 -0.6551
  864MPD2    C512683   3.358   3.139  17.387 -0.3120 -0.0707  0.1918
  864MPD2     H12684   3.591   2.986  17.137 -0.4559 -1.4520  0.6269
  864MPD2    H112685   3.275   3.251  17.224 -0.2761  0.8478  2.6547
  864MPD2    H212686   3.440   3.009  17.541  1.9354  0.0892  0.6214
  864MPD2    H312687   3.280   3.180  17.450  0.7517  3.0500 -0.5349
  864MPD2     N12688   3.438   3.186  17.032 -0.3515 -0.8301  0.1438
  864MPD2    H512689   3.379   3.265  17.010  1.0130  0.1845  0.0939
  864MPD2    N112690   3.642   2.900  17.373 -0.8209 -0.0910  0.1282
  864MPD2    H712691   3.718   2.869  17.313  0.8511  3.2494  0.5839
  865MPD2     C12692   3.343   3.109  16.162  0.4379  0.2448 -0.8469
  865MPD2    C112693   3.379   3.065  16.289  0.6773 -0.7061  0.2892
  865MPD2    C212694   3.316   3.114  16.400  0.5574 -0.1339  0.6020
  865MPD2    C312695   3.229   3.220  16.382 -0.5619  0.8038  1.0546
  865MPD2    C412696   3.186   3.259  16.254 -1.0849  0.3866 -0.4688
  865MPD2    C512697   3.246   3.199  16.146  0.0562  0.5069 -0.4482
  865MPD2     H12698   3.348   3.082  16.499 -1.4846 -0.6432  1.0925
  865MPD2    H112699   3.115   3.337  16.230  0.1208  1.5032 -0.4294
  865MPD2    H212700   3.393   3.061  16.078  0.2223 -0.2031 -0.7154
  865MPD2    H312701   3.220   3.229  16.045 -0.9845 -1.3349 -0.7329
  865MPD2     N12702   3.168   3.287  16.485  0.0701  0.2894  0.4303
  865MPD2    H512703   3.089   3.344  16.459 -0.4358 -0.4744  0.3074
  865MPD2    N112704   3.485   2.975  16.292 -0.5217  0.7401 -0.0181
  865MPD2    H712705   3.523   2.935  16.207  0.6616  1.6620  0.0906
  866MPD2     C12706   0.873   0.251  11.079 -0.3817 -0.4250 -0.0141
  866MPD2    C112707   0.800   0.223  10.968  0.1656 -0.0735  0.4965
  866MPD2    C212708   0.664   0.249  10.971 -0.0192  0.0358  0.6525
  866MPD2    C312709   0.604   0.293  11.088  0.0545  0.0292 -0.0733
  866MPD2    C412710   0.684   0.317  11.201  0.0489 -0.0045 -0.0839
  866MPD2    C512711   0.820   0.304  11.193  0.0150 -0.4824 -0.5593
  866MPD2     H12712   0.606   0.225  10.883 -0.0638 -0.4403  0.8108
  866MPD2    H112713   0.642   0.372  11.284 -1.4426  0.6021 -1.2631
  866MPD2    H212714   0.980   0.266  11.071 -0.2421  0.0107  2.6185
  866MPD2    H312715   0.878   0.344  11.275 -1.2932  1.2658 -0.4821
  866MPD2     N12716   0.466   0.320  11.103  0.3604 -0.8634  0.4970
  866MPD2    H512717   0.437   0.355  11.194  0.9646 -0.9058  0.7060
  866MPD2    N112718   0.867   0.159  10.862  0.1934  0.2101 -0.5039
  866MPD2    H712719   0.967   0.145  10.877  0.1211 -0.8233 -0.9609
  867MPD2     C12720   2.686   3.314  17.154  0.3948 -0.3347 -0.0670
  867MPD2    C112721   2.734   3.257  17.272  0.2988 -0.0444  0.6836
  867MPD2    C212722   2.661   3.266  17.391  0.2531  0.4470 -0.6994
  867MPD2    C312723   2.540   3.337  17.397 -0.5280  0.5891 -0.1509
  867MPD2    C412724   2.490   3.391  17.279  0.3998 -0.4731 -0.0378
  867MPD2    C512725   2.566   3.382  17.163  0.4601  0.2489  0.2763
  867MPD2     H12726   2.690   3.225  17.487 -4.1211  3.3628  1.8939
  867MPD2    H112727   2.398   3.448  17.283  1.0526  0.6700 -1.5169
  867MPD2    H212728   2.729   3.296  17.056  0.6564  3.1954 -0.5728
  867MPD2    H312729   2.527   3.431  17.075  1.2942 -0.1884 -0.3332
  867MPD2     N12730   2.470   3.330  17.522 -0.1966  0.2039 -0.6863
  867MPD2    H512731   2.526   3.296  17.600  0.2254 -0.6550 -1.3548
  867MPD2    N112732   2.852   3.174  17.256 -0.6609 -0.4196 -0.0408
  867MPD2    H712733   2.904   3.184  17.170  0.0448  2.4588  0.7150
  868MPD2     C12734   4.342   2.721  12.901 -0.4245 -1.0996  0.3981
  868MPD2    C112735   4.347   2.605  12.974 -0.3560 -0.1207 -0.4896
  868MPD2    C212736   4.278   2.599  13.093 -0.0680  0.0407  0.1586
  868MPD2    C312737   4.201   2.699  13.143  0.5426  0.1069 -0.5352
  868MPD2    C412738   4.187   2.813  13.062  0.4394 -0.6003 -0.1650
  868MPD2    C512739   4.263   2.828  12.947  0.6905 -0.2492 -0.1242
  868MPD2     H12740   4.280   2.508  13.151  1.4441 -0.0589 -0.0460
  868MPD2    H112741   4.134   2.901  13.096  1.8364 -0.3954  1.4793
  868MPD2    H212742   4.400   2.723  12.810  1.4222 -1.6251  1.5693
  868MPD2    H312743   4.262   2.919  12.889  1.6354  0.2248  0.5906
  868MPD2     N12744   4.161   2.681  13.279 -0.7928  0.6895  0.8676
  868MPD2    H512745   4.180   2.594  13.329  2.7407  0.3254 -1.1081
  868MPD2    N112746   4.420   2.490  12.926 -0.2784  0.3211 -0.3688
  868MPD2    H712747   4.474   2.515  12.844  2.9617  0.2785  1.7701
  869MPD2     C12748   0.698   0.259   1.792 -0.1014 -0.6188  0.1987
  869MPD2    C112749   0.638   0.179   1.705  0.2101 -0.4634  0.0332
  869MPD2    C212750   0.633   0.210   1.573  0.2466 -0.1704  0.4260
  869MPD2    C312751   0.685   0.331   1.536  0.1076 -0.0848 -0.3433
  869MPD2    C412752   0.755   0.419   1.617  0.2592 -0.1820 -0.3875
  869MPD2    C512753   0.759   0.373   1.746  0.5354  0.7425  0.2457
  869MPD2     H12754   0.560   0.169   1.506  1.3997 -0.2870 -0.7581
  869MPD2    H112755   0.794   0.514   1.583  0.0670 -0.1321 -0.4679
  869MPD2    H212756   0.703   0.229   1.896  0.1958 -0.7911  0.1344
  869MPD2    H312757   0.813   0.435   1.817  3.0912  0.3356 -1.3396
  869MPD2     N12758   0.664   0.378   1.403 -0.1818  0.0834 -0.0703
  869MPD2    H512759   0.704   0.469   1.383  1.6152 -1.0756 -1.7178
  869MPD2    N112760   0.580   0.062   1.752 -0.0866 -0.1030 -0.0781
  869MPD2    H712761   0.584   0.044   1.852  3.5045 -2.8961 -0.7157
  870MPD2     C12762   0.162   4.054   1.734  0.9648 -0.0510  0.8753
  870MPD2    C112763   0.209   3.939   1.684 -0.7445 -0.2456 -0.0292
  870MPD2    C212764   0.136   3.878   1.585  0.4704 -0.1999 -0.1151
  870MPD2    C312765   0.014   3.927   1.542 -0.5011 -0.1450  0.2608
  870MPD2    C412766   4.696   4.052   1.592 -0.0883  0.3801  0.3237
  870MPD2    C512767   0.055   4.112   1.680 -0.2040 -0.6645  0.4826
  870MPD2     H12768   0.166   3.785   1.538 -1.1250 -0.2363 -1.0751
  870MPD2    H112769   4.600   4.094   1.561 -0.2782 -1.1328 -1.1158
  870MPD2    H212770   0.220   4.104   1.811  3.0459  1.0149 -1.3921
  870MPD2    H312771   0.031   4.214   1.708  1.6072 -0.2641  0.5468
  870MPD2     N12772   4.666   3.853   1.447  0.1315  0.2857 -0.3733
  870MPD2    H512773   4.698   3.764   1.412 -0.7218 -0.4515  0.7338
  870MPD2    N112774   0.329   3.888   1.734  1.1542 -0.2588  0.7773
  870MPD2    H712775   0.388   3.949   1.790  2.2356 -2.1864  1.7251
  871MPD2     C12776   1.513   3.089  16.287  0.4042 -0.3791  0.1498
  871MPD2    C112777   1.509   3.042  16.420  0.1468 -0.4975  0.1590
  871MPD2    C212778   1.604   2.948  16.456 -0.2881 -0.0824 -0.3784
  871MPD2    C312779   1.701   2.904  16.368 -0.5062  0.0949 -0.7256
  871MPD2    C412780   1.712   2.959  16.240 -0.3809 -0.1390  0.1796
  871MPD2    C512781   1.612   3.041  16.199  0.1258 -0.4191  0.1364
  871MPD2     H12782   1.606   2.909  16.557 -3.3102 -0.5181 -0.5030
  871MPD2    H112783   1.794   2.939  16.172 -1.3265  0.7273 -1.2105
  871MPD2    H212784   1.437   3.157  16.249  1.4460  1.4712  1.3443
  871MPD2    H312785   1.618   3.095  16.105  0.9262 -0.7038  0.0268
  871MPD2     N12786   1.781   2.796  16.406  0.5415  0.0457  0.1788
  871MPD2    H512787   1.761   2.754  16.496 -1.1265 -0.7016 -0.5341
  871MPD2    N112788   1.407   3.089  16.510 -0.1296  0.5413 -0.3540
  871MPD2    H712789   1.347   3.161  16.470 -0.1781  0.6659 -0.0552
  872MPD2     C12790   2.237   1.712  13.684 -0.3209 -0.1050  1.4177
  872MPD2    C112791   2.277   1.583  13.707  0.2052 -0.0568  0.0400
  872MPD2    C212792   2.208   1.512  13.805 -0.8241  0.0880 -0.2067
  872MPD2    C312793   2.097   1.564  13.875  0.3749 -0.4012  0.0213
  872MPD2    C412794   2.056   1.696  13.843 -0.5885  0.3514  0.4495
  872MPD2    C512795   2.139   1.768  13.763  0.1804 -1.1059 -0.0020
  872MPD2     H12796   2.242   1.411  13.823  0.5532  0.7198  0.7499
  872MPD2    H112797   1.980   1.750  13.898  0.3625  2.8067 -0.6929
  872MPD2    H212798   2.300   1.785  13.634 -2.1209  0.4139 -0.0670
  872MPD2    H312799   2.118   1.874  13.755 -3.9282 -2.1475 -2.9901
  872MPD2     N12800   2.029   1.490  13.973 -0.1318  0.2449 -1.3474
  872MPD2    H512801   1.946   1.537  14.006 -0.0856 -0.2856 -0.4822
  872MPD2    N112802   2.386   1.526  13.638 -0.2768 -0.1829 -0.1195
  872MPD2    H712803   2.421   1.436  13.671  1.2421 -0.2192 -1.8694
  873MPD2     C12804   3.565   0.883   1.485 -0.6455 -0.3385 -0.3830
  873MPD2    C112805   3.696   0.879   1.527  0.3593 -0.0450 -0.3738
  873MPD2    C212806   3.782   0.776   1.486 -0.2922 -0.6301 -0.1284
  873MPD2    C312807   3.742   0.699   1.384 -0.5325  0.3856 -0.9998
  873MPD2    C412808   3.604   0.701   1.350 -0.0679  0.0865 -0.7356
  873MPD2    C512809   3.516   0.793   1.400  0.8558  0.1571 -0.1450
  873MPD2     H12810   3.883   0.764   1.524 -0.0301 -0.5451 -0.8078
  873MPD2    H112811   3.560   0.621   1.293  0.4046 -0.6473 -0.0661
  873MPD2    H212812   3.498   0.961   1.520 -0.2758  0.1176 -0.7063
  873MPD2    H312813   3.408   0.797   1.387  0.9756  0.7944 -0.9154
  873MPD2     N12814   3.827   0.600   1.337 -0.4259  0.3567  0.2457
  873MPD2    H512815   3.923   0.610   1.368 -1.0668  0.2377  2.2283
  873MPD2    N112816   3.736   0.985   1.614  0.1488 -0.2610  0.3210
  873MPD2    H712817   3.664   1.054   1.634 -0.8583 -0.8301 -1.3409
  874MPD2     C12818   3.561   1.400  16.624  0.0176  0.3156  0.2570
  874MPD2    C112819   3.593   1.280  16.669  0.2149 -0.1154  0.3287
  874MPD2    C212820   3.681   1.269  16.776 -0.2121  0.2496  0.9763
  874MPD2    C312821   3.743   1.381  16.823  0.1680  0.2823  0.2591
  874MPD2    C412822   3.710   1.507  16.771 -0.2896  0.4411 -0.7736
  874MPD2    C512823   3.620   1.510  16.671  0.3780  0.1783 -0.6726
  874MPD2     H12824   3.732   1.179  16.809 -0.0335  0.2781  0.7835
  874MPD2    H112825   3.754   1.599  16.808 -2.7192  0.6804  1.5282
  874MPD2    H212826   3.491   1.400  16.540  0.3897  1.6193 -0.0650
  874MPD2    H312827   3.591   1.606  16.630  1.7182  0.9133  0.0990
  874MPD2     N12828   3.830   1.364  16.933 -0.7445  0.6551 -0.2080
  874MPD2    H512829   3.826   1.278  16.988 -2.4043 -0.5855 -2.2539
  874MPD2    N112830   3.539   1.158  16.608 -0.2587  0.2974  0.8382
  874MPD2    H712831   3.503   1.161  16.513  1.0407  2.0027  0.4144
  875MPD2     C12832   0.229   4.122  14.627  0.3613 -0.2710  0.0653
  875MPD2    C112833   0.102   4.111  14.683  0.0398 -0.1315  0.1844
  875MPD2    C212834   0.078   4.145  14.816 -0.6254  0.6524  0.2565
  875MPD2    C312835   0.177   4.203  14.885  0.0889 -0.3183  1.1015
  875MPD2    C412836   0.308   4.216  14.831  0.1654 -0.5334  1.1152
  875MPD2    C512837   0.327   4.178  14.699  0.1199  0.1200  0.2617
  875MPD2     H12838   4.701   4.125  14.857  0.0858 -2.7358  0.2547
  875MPD2    H112839   0.389   4.263  14.885 -1.0671  1.3364  1.3799
  875MPD2    H212840   0.253   4.105  14.523  4.4276  2.0972  0.6396
  875MPD2    H312841   0.427   4.187  14.658  1.0011 -1.0849  2.1561
  875MPD2     N12842   0.156   4.242  15.018  0.1519 -0.2876  0.4669
  875MPD2    H512843   0.235   4.296  15.051 -0.1390  1.4636 -1.7173
  875MPD2    N112844   4.710   4.072  14.617  0.2759  0.1297  0.1336
  875MPD2    H712845   4.619   4.101  14.650 -0.3772 -2.4700  0.6119
  876MPD2     C12846   3.631   0.889  16.022 -0.0603  0.2423 -0.8991
  876MPD2    C112847   3.671   0.818  15.911  0.1115  0.9175  0.0432
  876MPD2    C212848   3.660   0.685  15.910  0.0482  0.5430  0.2747
  876MPD2    C312849   3.625   0.616  16.023  0.4100 -0.2945  0.2671
  876MPD2    C412850   3.585   0.679  16.144 -0.0668  0.0908  0.9600
  876MPD2    C512851   3.593   0.821  16.134  0.5665  0.5225 -0.8374
  876MPD2     H12852   3.694   0.637  15.819  1.0504 -1.2791  1.6221
  876MPD2    H112853   3.550   0.637  16.237  0.9201  0.7848  1.6465
  876MPD2    H212854   3.642   0.997  16.020 -2.2694  0.4532 -0.7176
  876MPD2    H312855   3.563   0.883  16.218 -0.5426 -0.7624 -0.2856
  876MPD2     N12856   3.623   0.477  16.017 -0.2262  0.3670  0.2802
  876MPD2    H512857   3.653   0.433  15.930 -0.7514 -1.2185  0.9101
  876MPD2    N112858   3.724   0.891  15.804 -0.0759 -0.0312 -0.7163
  876MPD2    H712859   3.734   0.991  15.822 -1.3818 -0.4351  2.3366
  877MPD2     C12860   3.413   1.201  15.205 -0.0950  0.0559 -0.1764
  877MPD2    C112861   3.536   1.243  15.187  0.0193  0.2454  0.4988
  877MPD2    C212862   3.575   1.302  15.073 -0.8753 -0.7498  0.0801
  877MPD2    C312863   3.485   1.325  14.974 -0.4647 -0.0052 -0.3590
  877MPD2    C412864   3.352   1.282  14.987  0.3291  0.4541 -0.4913
  877MPD2    C512865   3.314   1.228  15.109  0.1843 -0.2890  0.0637
  877MPD2     H12866   3.678   1.328  15.054 -0.2010 -0.4877  4.1649
  877MPD2    H112867   3.274   1.300  14.914 -1.4673  0.4035  1.3899
  877MPD2    H212868   3.382   1.136  15.286 -1.0716  0.2582 -0.3871
  877MPD2    H312869   3.214   1.192  15.128  1.7103 -4.4154  0.3203
  877MPD2     N12870   3.526   1.384  14.850 -1.0222  0.1413 -0.7948
  877MPD2    H512871   3.453   1.386  14.780 -1.6645 -0.8073 -0.1653
  877MPD2    N112872   3.639   1.216  15.273 -0.3139  0.0934 -1.0434
  877MPD2    H712873   3.733   1.246  15.249 -0.6186 -0.3399 -2.7839
  878MPD2     C12874   3.774   1.340  12.442 -0.0087  0.4831 -0.6728
  878MPD2    C112875   3.848   1.236  12.489 -0.2084 -0.7859  0.2742
  878MPD2    C212876   3.944   1.264  12.589  0.3708 -0.0523  0.3267
  878MPD2    C312877   3.975   1.401  12.622 -0.0080  0.7078  0.2437
  878MPD2    C412878   3.918   1.503  12.551  0.5291 -0.3389 -0.0874
  878MPD2    C512879   3.811   1.472  12.473 -0.8182  0.0563 -0.8137
  878MPD2     H12880   3.984   1.180  12.644 -0.0395 -0.1734  0.4403
  878MPD2    H112881   3.939   1.608  12.561  2.7362 -0.6563 -1.1502
  878MPD2    H212882   3.703   1.339  12.360  1.0538  0.1201 -1.5889
  878MPD2    H312883   3.755   1.553  12.427 -2.5113  0.5826  2.1531
  878MPD2     N12884   4.053   1.425  12.736  0.3285 -0.0227 -0.2619
  878MPD2    H512885   4.062   1.344  12.797 -1.4178  2.0014  2.6904
  878MPD2    N112886   3.838   1.108  12.432  0.2030 -0.3145  0.4026
  878MPD2    H712887   3.752   1.085  12.383  0.9286  2.1714 -2.0604
  879MPD2     C12888   3.540   1.789  16.992 -0.8689  0.2165  0.0148
  879MPD2    C112889   3.551   1.666  17.045 -0.2611 -0.2682  0.2828
  879MPD2    C212890   3.483   1.556  16.999 -0.7284 -0.4234  0.0659
  879MPD2    C312891   3.392   1.576  16.901 -0.2581  0.0704  0.1801
  879MPD2    C412892   3.368   1.704  16.856  0.3835 -0.2768 -0.4449
  879MPD2    C512893   3.455   1.807  16.889 -0.1023  0.2192 -0.1323
  879MPD2     H12894   3.513   1.459  17.037 -1.3307 -1.5506 -2.3339
  879MPD2    H112895   3.312   1.717  16.765  0.2445 -0.3080 -0.3644
  879MPD2    H212896   3.588   1.881  17.023  0.3107 -0.6736  0.8551
  879MPD2    H312897   3.435   1.902  16.841  1.0108  1.1044  1.1708
  879MPD2     N12898   3.313   1.475  16.850  0.0105 -0.0838 -0.2903
  879MPD2    H512899   3.263   1.503  16.766 -0.1688  1.3324  0.3073
  879MPD2    N112900   3.653   1.657  17.145  0.6378 -0.5011  0.3065
  879MPD2    H712901   3.719   1.732  17.164 -0.8240 -0.0164  3.3668
  880MPD2     C12902   0.916   3.206   0.181  0.4818 -0.4806  0.6426
  880MPD2    C112903   0.842   3.152   0.287 -0.1753 -0.1076  0.0548
  880MPD2    C212904   0.910   3.063   0.368 -0.0725 -0.1891 -0.4751
  880MPD2    C312905   1.039   3.027   0.346  0.5821  0.3098  0.8039
  880MPD2    C412906   1.108   3.083   0.241 -0.1013 -0.2281  0.0002
  880MPD2    C512907   1.047   3.166   0.159  1.0012  0.2123 -0.0644
  880MPD2     H12908   0.852   3.004   0.438  1.1144 -0.7041  0.0787
  880MPD2    H112909   1.206   3.048   0.210  0.7799  2.1207  0.1423
  880MPD2    H212910   0.858   3.264   0.109  1.7432  3.2409  2.6190
  880MPD2    H312911   1.110   3.202   0.078  0.6663 -0.6851 -0.7221
  880MPD2     N12912   1.089   2.930   0.434 -0.8367 -0.4425 -0.7625
  880MPD2    H512913   1.030   2.903   0.512  0.4060  0.6471  0.5585
  880MPD2    N112914   0.706   3.195   0.301 -0.3250 -0.0898 -0.1221
  880MPD2    H712915   0.667   3.253   0.228  2.6590 -0.2016 -1.8122
  881MPD2     C12916   0.435   3.896  17.622 -0.0543  0.2832 -0.2179
  881MPD2    C112917   0.425   3.770  17.569 -0.3171  0.2261  0.0566
  881MPD2    C212918   0.383   3.664  17.650  0.1017  0.1060  0.6756
  881MPD2    C312919   0.358   3.685   0.093 -0.2633 -0.8234  0.4050
  881MPD2    C412920   0.365   3.810   0.142 -0.4711 -0.2791  0.5676
  881MPD2    C512921   0.400   3.918   0.067 -0.2821  0.2381  0.0262
  881MPD2     H12922   0.367   3.564  17.610 -1.8321  0.6591  0.0519
  881MPD2    H112923   0.348   3.826   0.248  2.1562 -0.7435  1.0600
  881MPD2    H212924   0.454   3.982  17.559 -0.0855  0.5805  0.1809
  881MPD2    H312925   0.374   4.014   0.111  1.1939  1.6481 -2.1538
  881MPD2     N12926   0.341   3.584   0.192  0.0164  0.4455 -0.1137
  881MPD2    H512927   0.341   3.610   0.290  3.7676  1.7795 -0.4697
  881MPD2    N112928   0.422   3.763  17.428 -0.0618 -0.4008  0.5721
  881MPD2    H712929   0.447   3.854  17.391  0.3813 -1.0854 -0.8346
  882MPD2     C12930   3.523   1.221  14.138 -0.5865  0.3895  0.6553
  882MPD2    C112931   3.430   1.307  14.204  0.1084  0.0501 -0.5061
  882MPD2    C212932   3.296   1.280  14.197  0.8579  0.4016 -0.2939
  882MPD2    C312933   3.257   1.186  14.106 -0.3661 -0.1472  0.7103
  882MPD2    C412934   3.348   1.096  14.048 -0.6140 -1.0394 -0.8462
  882MPD2    C512935   3.481   1.110  14.063 -0.1178  0.5155 -0.5664
  882MPD2     H12936   3.227   1.342  14.255  0.3194 -2.9977  2.7125
  882MPD2    H112937   3.322   1.027  13.968  1.8843 -0.4857 -2.1193
  882MPD2    H212938   3.629   1.242  14.145 -0.3410 -1.0295  1.2294
  882MPD2    H312939   3.559   1.057  14.010  0.1514  0.0626  0.2914
  882MPD2     N12940   3.125   1.162  14.072  0.1211 -0.0287 -0.3187
  882MPD2    H512941   3.103   1.077  14.021 -2.7703  0.2787  0.4357
  882MPD2    N112942   3.502   1.415  14.273  0.4186 -0.9820 -0.4885
  882MPD2    H712943   3.600   1.431  14.253  0.0277  0.5673 -1.1832
  883MPD2     C12944   0.846   1.455  16.037  0.6832  0.3917  0.8638
  883MPD2    C112945   0.902   1.457  15.913  0.0076  0.0767 -0.5615
  883MPD2    C212946   1.035   1.502  15.892  0.4896  0.8133 -0.0167
  883MPD2    C312947   1.121   1.505  16.000 -0.2216  0.3134 -0.3317
  883MPD2    C412948   1.063   1.488  16.123 -0.5774 -0.0601 -0.7499
  883MPD2    C512949   0.928   1.468  16.145  0.4107 -0.0276 -0.2911
  883MPD2     H12950   1.077   1.529  15.796 -1.3723 -2.7455 -1.8205
  883MPD2    H112951   1.114   1.485  16.218 -2.1297  0.2704  0.0881
  883MPD2    H212952   0.740   1.438  16.052  0.1956  2.6045 -0.1500
  883MPD2    H312953   0.889   1.457  16.246  1.2315  1.0802  0.1463
  883MPD2     N12954   1.259   1.537  15.982  0.1247 -0.3685  0.1560
  883MPD2    H512955   1.295   1.535  15.887  1.0349  0.9558  0.4632
  883MPD2    N112956   0.821   1.445  15.791 -0.3033  0.2830 -0.1019
  883MPD2    H712957   0.870   1.429  15.704 -0.1801 -0.4852  0.1062
  884MPD2     C12958   2.579   1.433  15.085  0.1948  0.1384 -1.2960
  884MPD2    C112959   2.630   1.554  15.055 -0.7458 -0.0862 -0.5635
  884MPD2    C212960   2.558   1.671  15.092  0.0887  0.3588 -0.5097
  884MPD2    C312961   2.438   1.660  15.161 -0.1888 -0.2992  0.1992
  884MPD2    C412962   2.390   1.534  15.193 -0.1644 -0.2447  0.2943
  884MPD2    C512963   2.458   1.425  15.141  0.9905 -0.2521 -0.4356
  884MPD2     H12964   2.591   1.769  15.059 -3.1169  1.1064 -1.5073
  884MPD2    H112965   2.299   1.522  15.252 -1.4588  0.7840 -1.4755
  884MPD2    H212966   2.623   1.342  15.046  2.5276  0.2122  1.1522
  884MPD2    H312967   2.431   1.321  15.155  0.8272 -0.1107  0.3000
  884MPD2     N12968   2.372   1.776  15.204 -0.1924 -0.1340  0.5323
  884MPD2    H512969   2.390   1.860  15.151 -2.0454 -0.9569 -1.3828
  884MPD2    N112970   2.734   1.558  14.967 -0.3264 -0.8717  0.0294
  884MPD2    H712971   2.757   1.641  14.914 -0.3296  0.4601  2.0934
  885MPD2     C12972   1.394   2.164   0.000 -0.0915  0.1419  0.4121
  885MPD2    C112973   1.497   2.111  17.617 -0.0969 -0.0153 -0.2781
  885MPD2    C212974   1.496   2.108  17.484 -0.5949  0.6498  0.4152
  885MPD2    C312975   1.401   2.185  17.418  0.0007  0.3065  0.4865
  885MPD2    C412976   1.296   2.234  17.488 -0.0781  0.2460  0.3956
  885MPD2    C512977   1.286   2.213  17.626 -0.7554 -0.2795 -0.1924
  885MPD2     H12978   1.576   2.059  17.429 -0.3834  0.8190  0.5719
  885MPD2    H112979   1.211   2.278  17.437  0.0279 -0.3292 -0.2666
  885MPD2    H212980   1.386   2.156   0.108 -2.0259  1.1696  0.3609
  885MPD2    H312981   1.190   2.244  17.668 -0.2204  1.0587  0.0509
  885MPD2     N12982   1.421   2.209  17.273  0.3657  0.2255 -0.4571
  885MPD2    H512983   1.498   2.153  17.238 -1.8472 -2.9487 -0.2501
  885MPD2    N112984   1.583   2.025   0.005  1.3379 -0.9369  0.0165
  885MPD2    H712985   1.577   2.023   0.107 -1.4977 -0.0337 -0.1111
  886MPD2     C12986   2.057   0.716  15.287 -0.5588 -0.1153 -0.2440
  886MPD2    C112987   2.180   0.690  15.223  0.5351 -0.1566  0.2327
  886MPD2    C212988   2.245   0.791  15.158  0.0381  0.1636  0.2225
  886MPD2    C312989   2.185   0.911  15.140 -0.0165  0.8014 -0.0271
  886MPD2    C412990   2.063   0.936  15.211  0.2956  0.2004 -0.0652
  886MPD2    C512991   2.003   0.840  15.283  0.6908  0.1304  0.2723
  886MPD2     H12992   2.346   0.776  15.121 -1.7947 -0.9159 -4.3276
  886MPD2    H112993   2.000   1.023  15.197 -0.9987 -0.3098  2.5738
  886MPD2    H212994   2.013   0.644  15.355  0.4135 -1.1889 -0.7454
  886MPD2    H312995   1.913   0.864  15.338  0.2394  0.5334 -0.6378
  886MPD2     N12996   2.248   0.993  15.053  0.1711  0.2853  0.2355
  886MPD2    H512997   2.330   0.953  15.009 -0.5502  0.4578 -1.2744
  886MPD2    N112998   2.233   0.562  15.236 -0.4299  0.5107 -0.3050
  886MPD2    H712999   2.172   0.501  15.290  0.0441 -2.3305 -2.9551
  887MPD2     C13000   3.024   0.354  15.375 -0.8915 -0.0586  0.2306
  887MPD2    C113001   2.919   0.444  15.367 -0.4362 -0.0536  0.4450
  887MPD2    C213002   2.952   0.581  15.358 -0.0037  0.1492  0.3960
  887MPD2    C313003   3.083   0.622  15.378  0.0783 -0.3409  0.9461
  887MPD2    C413004   3.180   0.528  15.397 -0.5803  0.1847 -0.0876
  887MPD2    C513005   3.154   0.396  15.392 -0.5195 -0.5092  0.3083
  887MPD2     H13006   2.869   0.650  15.348  0.0430  0.1617  0.0942
  887MPD2    H113007   3.284   0.556  15.411 -0.3825 -0.9535  0.6741
  887MPD2    H213008   3.011   0.248  15.360  0.2281 -0.4667  2.1143
  887MPD2    H313009   3.242   0.336  15.411  0.1395  0.1996 -0.4765
  887MPD2     N13010   3.111   0.763  15.379 -0.6796  0.2288 -0.4845
  887MPD2    H513011   3.035   0.829  15.367  0.0379  0.7550 -2.2353
  887MPD2    N113012   2.790   0.409  15.341 -0.3523  0.3165 -0.9340
  887MPD2    H713013   2.721   0.484  15.332  0.3773  1.0736 -0.2291
  888MPD2     C13014   0.083   0.783  14.611 -0.8926  0.5441  0.2132
  888MPD2    C113015   0.118   0.820  14.742 -0.1256 -0.4301 -0.0723
  888MPD2    C213016   0.222   0.914  14.766  0.2160 -0.1060 -0.1923
  888MPD2    C313017   0.280   0.981  14.656  0.6218 -0.6888  0.3392
  888MPD2    C413018   0.245   0.941  14.534 -0.3855 -0.2229 -0.7870
  888MPD2    C513019   0.156   0.845  14.512  0.2174  0.7446  0.2113
  888MPD2     H13020   0.252   0.946  14.865 -1.4509 -0.7305  0.5211
  888MPD2    H113021   0.292   0.962  14.438 -2.0821  2.2396 -1.0839
  888MPD2    H213022   0.023   0.696  14.587 -1.8786  0.6061  2.4531
  888MPD2    H313023   0.123   0.839  14.409 -0.5825  0.6860  0.4663
  888MPD2     N13024   0.385   1.072  14.679  0.7425  0.1768  0.0133
  888MPD2    H513025   0.412   1.098  14.773  0.7273  0.5349 -0.0811
  888MPD2    N113026   0.044   0.766  14.853 -0.2805 -0.5800  0.0394
  888MPD2    H713027   0.079   0.784  14.946 -1.9640  0.5941  0.4285
  889MPD2     C13028   4.708   0.578  13.257  0.0186  0.2690  0.8523
  889MPD2    C113029   4.576   0.541  13.242 -0.1786 -0.0557  0.1673
  889MPD2    C213030   4.474   0.619  13.298 -0.1080 -0.6696 -0.0271
  889MPD2    C313031   4.501   0.742  13.354  0.4306  0.1808  0.2922
  889MPD2    C413032   4.633   0.785  13.346 -0.6571  0.0651  0.2232
  889MPD2    C513033   0.013   0.705  13.300  0.0684  0.1487  0.3251
  889MPD2     H13034   4.373   0.580  13.306 -0.0906 -0.2246  2.4255
  889MPD2    H113035   4.664   0.885  13.375 -0.2995  0.5833 -1.9459
  889MPD2    H213036   0.070   0.519  13.221 -0.7835  0.6210 -1.5776
  889MPD2    H313037   0.117   0.735  13.296  0.1751 -0.2822 -0.0584
  889MPD2     N13038   4.397   0.823  13.420  0.0877 -0.0227  1.1201
  889MPD2    H513039   4.318   0.773  13.459 -0.5460 -1.8593 -2.5739
  889MPD2    N113040   4.541   0.412  13.190  0.6858 -0.2228  0.0936
  889MPD2    H713041   4.621   0.360  13.155 -1.4149 -0.3434 -4.4614
  890MPD2     C13042   3.606   2.058  14.955 -1.2566 -0.4377  0.0912
  890MPD2    C113043   3.740   2.090  14.986  0.1856  0.2778 -0.0826
  890MPD2    C213044   3.778   2.101  15.118 -0.1558 -0.4220  0.1008
  890MPD2    C313045   3.694   2.062  15.220 -0.0169  0.2805  0.9013
  890MPD2    C413046   3.563   2.034  15.189 -0.4024  0.7103 -0.2724
  890MPD2    C513047   3.522   2.040  15.064 -0.4921 -0.4539  0.3564
  890MPD2     H13048   3.881   2.126  15.137 -0.3739  0.2658  0.3819
  890MPD2    H113049   3.492   2.012  15.268 -1.3397 -0.0583 -1.3206
  890MPD2    H213050   3.549   2.058  14.863 -1.5799  0.8725  0.2937
  890MPD2    H313051   3.416   2.022  15.050 -0.1733 -1.7335 -0.4076
  890MPD2     N13052   3.755   2.051  15.355 -0.2030  0.0372 -0.0657
  890MPD2    H513053   3.855   2.064  15.366 -0.2330  0.2599 -0.0646
  890MPD2    N113054   3.818   2.125  14.875  0.1359  0.4099 -0.1731
  890MPD2    H713055   3.779   2.099  14.785 -0.3342 -0.0369  0.1590
  891MPD2     C13056   1.873   1.116  16.629 -0.2618 -1.1178 -0.4769
  891MPD2    C113057   1.744   1.072  16.646  0.2960  0.2914 -0.2411
  891MPD2    C213058   1.728   0.946  16.697  0.2203 -0.4221  0.8591
  891MPD2    C313059   1.833   0.871  16.748 -0.7033 -0.3344  0.0122
  891MPD2    C413060   1.958   0.937  16.759 -0.2804  0.0010 -0.7077
  891MPD2    C513061   1.977   1.051  16.690 -0.2348 -0.8517  0.2803
  891MPD2     H13062   1.636   0.890  16.684 -0.8500  1.2735  1.0627
  891MPD2    H113063   2.041   0.883  16.801 -1.1278 -0.3137  0.5424
  891MPD2    H213064   1.899   1.208  16.578 -2.4324 -0.0822  0.3023
  891MPD2    H313065   2.077   1.091  16.677 -0.4184 -0.0890  1.1896
  891MPD2     N13066   1.813   0.736  16.794 -0.3915  0.4971  0.3043
  891MPD2    H513067   1.727   0.693  16.762  0.1331  0.6240 -1.2841
  891MPD2    N113068   1.640   1.141  16.583  0.0403  0.0497 -0.3287
  891MPD2    H713069   1.670   1.203  16.509  2.7344 -0.0982  0.6057
  892MPD2     C13070   2.695   1.832  14.488  0.2201  0.3414  0.0208
  892MPD2    C113071   2.634   1.720  14.543 -0.4697 -0.6234 -0.0079
  892MPD2    C213072   2.650   1.596  14.487  0.3895  0.1101 -0.3384
  892MPD2    C313073   2.729   1.576  14.369 -0.4073 -0.2987  0.5156
  892MPD2    C413074   2.780   1.694  14.324 -0.2903  0.0014  0.4240
  892MPD2    C513075   2.767   1.820  14.376 -0.5881 -0.5325  0.3818
  892MPD2     H13076   2.598   1.511  14.531  1.7718 -0.3127  0.4807
  892MPD2    H113077   2.845   1.688  14.238 -0.6607  0.8790  0.0789
  892MPD2    H213078   2.692   1.932  14.529  1.7338 -0.1761  1.3761
  892MPD2    H313079   2.810   1.903  14.321  0.5776 -1.6211 -0.3503
  892MPD2     N13080   2.741   1.458  14.291 -0.5235 -0.5244 -0.5684
  892MPD2    H513081   2.814   1.453  14.221 -0.1641  0.8869 -0.2950
  892MPD2    N113082   2.537   1.742  14.644  0.6282  0.2201  0.4057
  892MPD2    H713083   2.505   1.837  14.653 -1.6065 -0.3347 -1.8232
  893MPD2     C13084   3.644   4.281   1.168 -0.7602  0.0889  0.3701
  893MPD2    C113085   3.707   4.285   1.286  0.5209  0.2702 -0.9688
  893MPD2    C213086   3.633   4.285   1.399 -0.4226 -0.0683  0.6552
  893MPD2    C313087   3.492   4.274   1.393 -0.0040 -0.2643 -0.6319
  893MPD2    C413088   3.433   4.255   1.269 -0.4243  0.1394  0.5200
  893MPD2    C513089   3.513   4.276   1.156  0.1011  0.7226  0.3375
  893MPD2     H13090   3.686   4.280   1.493  0.4920 -0.0305  0.1462
  893MPD2    H113091   3.327   4.243   1.252 -0.0168 -1.0089 -1.2670
  893MPD2    H213092   3.706   4.288   1.079 -0.6374  1.7704  0.5829
  893MPD2    H313093   3.470   4.257   1.058  1.4089  0.0335 -0.1010
  893MPD2     N13094   3.405   4.276   1.499 -0.7826 -0.1220 -0.1587
  893MPD2    H513095   3.307   4.276   1.471 -0.4836  0.9187 -1.2059
  893MPD2    N113096   3.852   4.296   1.279 -0.2951  0.3320  0.2698
  893MPD2    H713097   3.885   4.292   1.183 -1.0631  0.9135 -0.0222
  894MPD2     C13098   2.279   1.438   1.483  0.1944 -0.4774 -0.3423
  894MPD2    C113099   2.170   1.503   1.549  0.9757 -0.4515 -0.5329
  894MPD2    C213100   2.199   1.619   1.621  0.0490 -0.4031  0.5698
  894MPD2    C313101   2.325   1.675   1.610  0.1439  0.2530  0.0358
  894MPD2    C413102   2.427   1.608   1.543  0.1768 -1.0825 -0.1254
  894MPD2    C513103   2.405   1.489   1.478 -0.2112  0.2320 -0.6321
  894MPD2     H13104   2.114   1.679   1.650  1.4074  1.4030  0.8068
  894MPD2    H113105   2.530   1.640   1.532 -0.3341 -0.1667 -2.2335
  894MPD2    H213106   2.257   1.347   1.427 -0.3332 -0.6485  0.1383
  894MPD2    H313107   2.479   1.434   1.421 -0.3673  0.6994 -1.2892
  894MPD2     N13108   2.348   1.794   1.676  0.0733 -0.0179 -0.0632
  894MPD2    H513109   2.271   1.829   1.731  0.2826  1.3427 -0.6385
  894MPD2    N113110   2.034   1.455   1.541  0.0716 -0.1974  0.1750
  894MPD2    H713111   1.971   1.496   1.610  1.9053 -1.3295  2.5470
  895MPD2     C13112   1.772   0.951  13.260  0.3483  0.1331 -0.3911
  895MPD2    C113113   1.656   0.930  13.194 -0.0231 -0.5472  0.7231
  895MPD2    C213114   1.627   0.793  13.166 -0.7004  0.0048  0.0147
  895MPD2    C313115   1.719   0.685  13.210 -0.2843  0.4599  0.2653
  895MPD2    C413116   1.840   0.725  13.267 -0.0606  0.2351 -0.1146
  895MPD2    C513117   1.859   0.857  13.301  0.1780  0.3409 -0.4326
  895MPD2     H13118   1.534   0.758  13.123 -0.2793 -0.8147 -0.2317
  895MPD2    H113119   1.912   0.654  13.306 -2.1917 -1.9802 -0.1677
  895MPD2    H213120   1.813   1.047  13.292 -1.0026  1.0729 -1.4920
  895MPD2    H313121   1.951   0.879  13.354 -0.7324  0.0800  1.2719
  895MPD2     N13122   1.697   0.550  13.199  0.7944  0.3675 -0.1602
  895MPD2    H513123   1.766   0.492  13.246  1.6313 -0.2865 -2.2008
  895MPD2    N113124   1.567   1.031  13.163  0.3659 -0.4936 -0.1940
  895MPD2    H713125   1.479   1.010  13.117  0.5246  0.6910 -1.0340
  896MPD2     C13126   0.101   2.551   1.952 -0.2491 -0.0662 -0.6751
  896MPD2    C113127   0.034   2.568   1.833 -0.4531  0.1513  0.3081
  896MPD2    C213128   4.612   2.548   1.825 -0.0831 -0.5164 -0.2701
  896MPD2    C313129   4.545   2.524   1.947 -0.7704 -0.1462  0.1653
  896MPD2    C413130   4.621   2.507   2.064  0.0734  0.2157  0.3152
  896MPD2    C513131   0.034   2.513   2.068  0.3610 -0.2232  0.8338
  896MPD2     H13132   4.558   2.559   1.732 -0.1634  0.4098 -0.1092
  896MPD2    H113133   4.570   2.495   2.159  0.5643 -1.6871  0.3320
  896MPD2    H213134   0.208   2.564   1.955 -0.0001 -1.8035 -1.8880
  896MPD2    H313135   0.086   2.503   2.163  1.0484 -0.9556  0.3758
  896MPD2     N13136   4.402   2.523   1.953  0.7688  0.5696 -0.2116
  896MPD2    H513137   4.361   2.506   1.862  2.5854 -1.0921 -0.7226
  896MPD2    N113138   0.112   2.608   1.724  0.1045 -0.2660  0.5374
  896MPD2    H713139   0.207   2.626   1.756 -0.0037  1.5884 -0.1712
  897MPD2     C13140   0.744   0.271  10.351 -0.9286  0.5485 -1.1483
  897MPD2    C113141   0.842   0.344  10.420  0.0149 -0.9691  0.0259
  897MPD2    C213142   0.804   0.393  10.547  0.3550  0.6729  0.9985
  897MPD2    C313143   0.672   0.423  10.566 -0.3284  0.5949  0.4764
  897MPD2    C413144   0.581   0.367  10.478 -0.2722  0.7638 -0.1279
  897MPD2    C513145   0.615   0.274  10.388 -0.7637 -0.3909 -0.2776
  897MPD2     H13146   0.875   0.437  10.617 -2.2788 -0.2402  4.2592
  897MPD2    H113147   0.473   0.373  10.481 -0.2155  0.4343  2.1188
  897MPD2    H213148   0.766   0.233  10.252 -0.5989  0.0509 -0.8817
  897MPD2    H313149   0.546   0.234  10.315  0.2679 -2.3099 -0.1984
  897MPD2     N13150   0.618   0.494  10.678  0.0389 -0.3078  0.7919
  897MPD2    H513151   0.523   0.530  10.675 -0.4110 -1.5115  0.9610
  897MPD2    N113152   0.969   0.349  10.362 -0.5379 -0.6605 -0.8487
  897MPD2    H713153   0.974   0.319  10.265 -1.9100  1.3212 -1.5395
  898MPD2     C13154   2.531   0.691   0.426 -0.3370  0.1049  0.7974
  898MPD2    C113155   2.670   0.694   0.402 -0.0633 -0.2935 -0.4200
  898MPD2    C213156   2.716   0.790   0.309  0.0905 -0.4334 -1.0370
  898MPD2    C313157   2.634   0.874   0.240  0.0905 -0.4396  0.0908
  898MPD2    C413158   2.498   0.876   0.269  0.1660  0.4175 -0.2859
  898MPD2    C513159   2.450   0.780   0.356  0.9501 -0.4129  0.3757
  898MPD2     H13160   2.822   0.810   0.301 -0.1021  2.0410  2.6984
  898MPD2    H113161   2.431   0.935   0.208 -0.3952  0.0277 -0.0525
  898MPD2    H213162   2.491   0.618   0.494 -1.1508 -1.6467 -1.5434
  898MPD2    H313163   2.342   0.767   0.353  1.0677 -0.8331 -1.9695
  898MPD2     N13164   2.692   0.977   0.166 -0.4152  1.0549  0.6569
  898MPD2    H513165   2.792   0.978   0.150 -0.6656 -1.5133 -1.1286
  898MPD2    N113166   2.766   0.603   0.462  0.1515  0.4317  0.0272
  898MPD2    H713167   2.862   0.618   0.433  0.3718  0.0046  0.5305
  899MPD2     C13168   3.428   1.309   0.224  0.1360  0.0274 -0.0416
  899MPD2    C113169   3.370   1.425   0.193 -0.4794 -0.7037 -0.1839
  899MPD2    C213170   3.268   1.474   0.260  0.2100 -0.0445 -0.5146
  899MPD2    C313171   3.194   1.390   0.341 -0.1851  1.0342  0.3571
  899MPD2    C413172   3.242   1.261   0.359  0.5654  0.7118  0.1961
  899MPD2    C513173   3.362   1.230   0.312 -0.5118 -0.0533  0.0574
  899MPD2     H13174   3.235   1.573   0.231  1.9479  1.1470  1.5720
  899MPD2    H113175   3.182   1.183   0.404  0.7085  0.7443  0.4490
  899MPD2    H213176   3.516   1.265   0.179  0.0143 -0.3915  0.1314
  899MPD2    H313177   3.409   1.133   0.324  1.2295  0.9150  1.0216
  899MPD2     N13178   3.079   1.421   0.412  0.3021 -0.2420  0.4325
  899MPD2    H513179   3.046   1.354   0.480  0.8895 -1.2460 -0.2806
  899MPD2    N113180   3.439   1.501   0.093  0.2039  0.4167 -0.0223
  899MPD2    H713181   3.531   1.476   0.059 -0.1343 -0.6218 -0.1970
  900MPD2     C13182   3.407   3.173  12.691  0.1851 -0.0684  0.1106
  900MPD2    C113183   3.281   3.114  12.699  0.3159  0.0819 -0.2072
  900MPD2    C213184   3.168   3.193  12.664  1.0478 -0.5089  0.1426
  900MPD2    C313185   3.189   3.320  12.611 -0.7405 -0.3072  0.8731
  900MPD2    C413186   3.319   3.374  12.598  0.0140 -0.6369  0.1695
  900MPD2    C513187   3.422   3.300  12.644  0.0163 -0.3489 -0.6510
  900MPD2     H13188   3.065   3.158  12.674  1.2293 -0.7019  1.3511
  900MPD2    H113189   3.334   3.472  12.554  0.9058 -1.4992 -1.4453
  900MPD2    H213190   3.499   3.122  12.714  0.3179 -0.4840 -1.3333
  900MPD2    H313191   3.525   3.330  12.629  0.6016 -1.8739  0.3976
  900MPD2     N13192   3.074   3.390  12.569 -0.3080  0.4074 -0.0492
  900MPD2    H513193   2.986   3.355  12.605 -1.0071  1.0478 -1.1029
  900MPD2    N113194   3.268   2.978  12.736  0.4819  0.3026  0.3591
  900MPD2    H713195   3.359   2.938  12.756  0.2544 -1.1541 -1.5321
  901MPD2     C13196   2.789   1.978  12.677  0.0159 -0.4099 -0.2590
  901MPD2    C113197   2.888   1.981  12.585 -0.3700 -0.7524 -0.1896
  901MPD2    C213198   2.953   2.099  12.565  0.1968  0.5031  0.2937
  901MPD2    C313199   2.922   2.216  12.642 -0.0670  0.3055 -0.2568
  901MPD2    C413200   2.829   2.200  12.743 -0.3342  0.5928 -0.0350
  901MPD2    C513201   2.764   2.082  12.758 -0.1855  0.2033  0.2114
  901MPD2     H13202   3.035   2.107  12.494  1.8596  1.2556  2.3018
  901MPD2    H113203   2.810   2.282  12.812 -0.0690  1.4074 -0.9228
  901MPD2    H213204   2.724   1.892  12.691 -2.3585  1.5302  0.6901
  901MPD2    H313205   2.699   2.060  12.842 -0.0687 -0.4187  0.1378
  901MPD2     N13206   3.008   2.328  12.639 -0.4949 -0.4157  0.1486
  901MPD2    H513207   3.089   2.327  12.577 -0.6282 -0.9047 -0.0187
  901MPD2    N113208   2.915   1.866  12.502 -0.1890 -0.2441 -0.1727
  901MPD2    H713209   2.855   1.787  12.525 -1.8839  1.2998  0.8312
  902MPD2     C13210   1.902   1.191  12.953 -0.0948 -0.4124  0.5010
  902MPD2    C113211   1.905   1.283  12.849  0.4800  0.6434 -0.0974
  902MPD2    C213212   1.924   1.239  12.720 -0.0105 -0.3141  0.1213
  902MPD2    C313213   1.947   1.100  12.699  0.0083  0.2391  0.2958
  902MPD2    C413214   1.942   1.016  12.808 -0.0221  0.5386 -0.7534
  902MPD2    C513215   1.925   1.058  12.931  0.2537 -0.1574  0.4375
  902MPD2     H13216   1.919   1.313  12.642 -0.4517  1.0853  1.4757
  902MPD2    H113217   1.954   0.909  12.793 -1.1292  0.1863  0.8949
  902MPD2    H213218   1.899   1.217  13.058 -1.0508 -0.2276  0.4326
  902MPD2    H313219   1.928   0.992  13.017  0.0723 -0.9655 -0.1736
  902MPD2     N13220   1.966   1.038  12.573  0.1097  0.2854 -0.2838
  902MPD2    H513221   1.979   0.937  12.581 -0.2455  0.2400 -0.2992
  902MPD2    N113222   1.859   1.419  12.871 -0.0809  0.3941 -0.7051
  902MPD2    H713223   1.837   1.466  12.784 -0.3012  1.4396 -0.0799
  903MPD2     C13224   2.101   1.090  11.661 -0.1395  0.2687 -0.0109
  903MPD2    C113225   1.997   1.122  11.748 -1.0574 -0.2558  1.0395
  903MPD2    C213226   1.894   1.202  11.706  0.1294  0.4261 -0.5142
  903MPD2    C313227   1.890   1.256  11.580  0.7157  0.3521  1.1750
  903MPD2    C413228   1.998   1.228  11.493 -0.6524  0.9260 -0.2359
  903MPD2    C513229   2.096   1.138  11.530  0.1469 -0.0123  0.0053
  903MPD2     H13230   1.809   1.228  11.769  0.8551  0.8065  0.3083
  903MPD2    H113231   2.010   1.268  11.393 -2.5838  2.6124  0.2254
  903MPD2    H213232   2.190   1.035  11.689 -1.6714 -3.2487 -1.9484
  903MPD2    H313233   2.165   1.114  11.450 -0.9759 -3.1826 -0.0007
  903MPD2     N13234   1.778   1.334  11.543  0.8015  0.2319 -0.1979
  903MPD2    H513235   1.696   1.338  11.602  1.7373 -1.0066  1.1641
  903MPD2    N113236   2.015   1.066  11.876  0.0802  0.3537 -0.4674
  903MPD2    H713237   2.097   1.007  11.889 -2.0881 -2.6708 -0.6627
  904MPD2     C13238   1.759   4.636  14.236  0.3764 -0.0906 -0.3944
  904MPD2    C113239   1.745   0.032  14.157 -0.1898 -0.0798 -0.3664
  904MPD2    C213240   1.835   0.072  14.063  0.4242 -0.0735  0.0319
  904MPD2    C313241   1.951   0.003  14.056  0.2492 -0.7153  0.3196
  904MPD2    C413242   1.977   4.615  14.141 -0.0943  0.2067  0.2452
  904MPD2    C513243   1.877   4.572  14.224  0.3929  0.0717  0.1800
  904MPD2     H13244   1.806   0.146  13.990  1.1321  0.6342  0.4638
  904MPD2    H113245   2.070   4.560  14.141  0.2682  0.8324 -1.2810
  904MPD2    H213246   1.687   4.593  14.305  1.5476  1.4706  1.7965
  904MPD2    H313247   1.894   4.496  14.300 -1.6835 -0.7232 -0.1755
  904MPD2     N13248   2.045   0.038  13.954  0.3727 -0.5517  0.2182
  904MPD2    H513249   2.023   0.116  13.892  0.2757 -0.2275  0.6570
  904MPD2    N113250   1.624   0.103  14.149  0.0067 -0.2751  0.2786
  904MPD2    H713251   1.606   0.178  14.083  0.3874  2.3340  3.1083
  905MPD2     C13252   1.041   0.443  13.637 -0.4044  0.3414 -0.1504
  905MPD2    C113253   1.155   0.368  13.681  0.5811 -0.0531  0.0492
  905MPD2    C213254   1.231   0.309  13.579 -0.7284 -0.3365  0.1810
  905MPD2    C313255   1.188   0.310  13.450  0.0714 -0.8465 -0.0658
  905MPD2    C413256   1.072   0.389  13.414 -0.4190 -0.0556  0.0833
  905MPD2    C513257   1.004   0.462  13.506  1.3755 -0.0734 -0.5518
  905MPD2     H13258   1.317   0.247  13.604 -0.1416  0.1577 -0.6359
  905MPD2    H113259   1.027   0.391  13.315  3.1319 -0.4832 -1.5448
  905MPD2    H213260   0.972   0.486  13.709  0.9504 -2.3654  2.7963
  905MPD2    H313261   0.917   0.522  13.485  1.6502  0.5128 -0.0028
  905MPD2     N13262   1.258   0.248  13.342 -0.1486  0.0218 -0.3543
  905MPD2    H513263   1.231   0.275  13.248 -0.1466  1.1543 -0.0350
  905MPD2    N113264   1.188   0.356  13.825 -0.5939  0.4679  0.3122
  905MPD2    H713265   1.136   0.414  13.890 -0.7128  0.6154  0.0869
  906MPD2     C13266   4.431   0.907  11.279  0.4441  0.9285 -0.9007
  906MPD2    C113267   4.404   0.856  11.148 -0.1362  0.4511 -0.3035
  906MPD2    C213268   4.352   0.727  11.146  0.5357 -0.0088 -0.2829
  906MPD2    C313269   4.345   0.656  11.268  0.2379 -0.9673 -0.6807
  906MPD2    C413270   4.384   0.704  11.389 -0.2814 -0.3633 -0.6045
  906MPD2    C513271   4.430   0.831  11.393  0.2969  0.0108 -0.3810
  906MPD2     H13272   4.324   0.681  11.052  2.5028  1.2532 -1.4762
  906MPD2    H113273   4.381   0.650  11.482  2.5329  0.9356  0.2544
  906MPD2    H213274   4.435   1.014  11.293  2.8619  0.7345 -0.1571
  906MPD2    H313275   4.443   0.879  11.489  0.7289  2.4876 -1.6595
  906MPD2     N13276   4.274   0.529  11.263  0.2939 -0.4624 -0.1418
  906MPD2    H513277   4.231   0.503  11.175 -0.0028  1.3478 -0.5349
  906MPD2    N113278   4.401   0.935  11.029  0.3725  0.0826 -0.3411
  906MPD2    H713279   4.352   0.897  10.948  0.6463 -1.0679  0.0306
  907MPD2     C13280   2.238   4.160  15.839  0.5400  0.1650 -0.1498
  907MPD2    C113281   2.334   4.062  15.814  1.4313 -0.1815  0.0677
  907MPD2    C213282   2.454   4.090  15.869  0.0139  0.4769  0.0948
  907MPD2    C313283   2.483   4.195  15.962  0.4880  0.5918  0.2460
  907MPD2    C413284   2.375   4.277  15.987 -0.1731  0.5329  0.8701
  907MPD2    C513285   2.262   4.274  15.911  0.4674  0.6470 -0.2522
  907MPD2     H13286   2.537   4.023  15.852 -0.4084  0.1954 -0.8338
  907MPD2    H113287   2.389   4.351  16.066  1.8338  0.7129  0.3465
  907MPD2    H213288   2.140   4.158  15.794  0.3897  0.2214  0.1786
  907MPD2    H313289   2.191   4.356  15.922 -2.8110 -2.1676 -0.4307
  907MPD2     N13290   2.618   4.208  16.013 -0.9056 -0.5060  0.4345
  907MPD2    H513291   2.687   4.155  15.961  1.5918  0.5606  2.6664
  907MPD2    N113292   2.329   3.964  15.708  0.3295 -0.3918  0.0588
  907MPD2    H713293   2.404   3.898  15.694  0.4495 -0.0998 -0.6565
  908MPD2     C13294   1.232   4.696   9.672 -1.3700  0.9483  0.3541
  908MPD2    C113295   1.110   4.716   9.736  0.3056 -0.4375 -0.4342
  908MPD2    C213296   1.112   0.094   9.828 -0.0738  0.6555  0.2685
  908MPD2    C313297   1.218   0.177   9.838  0.3712  0.0226  0.5335
  908MPD2    C413298   1.330   0.164   9.762  0.2465  0.3301  0.4126
  908MPD2    C513299   1.334   0.056   9.679  0.3900 -0.2121  0.0310
  908MPD2     H13300   1.025   0.116   9.889  0.0828  2.3787 -0.1515
  908MPD2    H113301   1.424   0.218   9.768  0.3963  0.2861 -1.6758
  908MPD2    H213302   1.247   4.609   9.609 -0.3208 -0.2246  2.2679
  908MPD2    H313303   1.417   0.033   9.613  0.6054 -2.7082  1.1801
  908MPD2     N13304   1.203   0.275   9.943  0.3721 -0.0744  0.3007
  908MPD2    H513305   1.126   0.267  10.008  0.3462 -0.8936  0.1598
  908MPD2    N113306   0.988   4.646   9.705  0.1599 -0.0795 -0.7192
  908MPD2    H713307   0.905   4.669   9.759  1.1108  1.5817  0.0245
  909MPD2     C13308   1.043   3.148  11.697 -0.5262 -0.8286 -0.1894
  909MPD2    C113309   1.091   3.275  11.724 -0.6750 -0.5764 -0.0095
  909MPD2    C213310   1.024   3.364  11.797 -0.0266  0.4900  0.3267
  909MPD2    C313311   0.906   3.326  11.849  0.1036  0.3615  0.2633
  909MPD2    C413312   0.855   3.196  11.831  0.3865 -0.2184 -0.0795
  909MPD2    C513313   0.925   3.113  11.755 -1.1305 -0.2992  0.0789
  909MPD2     H13314   1.059   3.466  11.805 -0.6593  0.7062  0.3319
  909MPD2    H113315   0.766   3.154  11.877  0.4397 -0.4870 -0.2272
  909MPD2    H213316   1.104   3.085  11.633  0.3672  0.4367 -0.5875
  909MPD2    H313317   0.897   3.010  11.741 -0.9365 -0.5866  1.8773
  909MPD2     N13318   0.822   3.425  11.912  0.1135 -0.2008  0.0819
  909MPD2    H513319   0.850   3.523  11.906 -0.4182 -0.1452 -1.5096
  909MPD2    N113320   1.216   3.316  11.669  0.0891  0.1981  0.5426
  909MPD2    H713321   1.240   3.413  11.686  2.9902 -0.1389 -1.6504
  910MPD2     C13322   1.861   4.600  16.235  0.7406 -0.0022 -0.3982
  910MPD2    C113323   1.904   4.501  16.160  0.0977  0.8193  0.6711
  910MPD2    C213324   1.864   4.503  16.033  0.0841  0.0574  0.4172
  910MPD2    C313325   1.784   4.603  15.981 -0.3371  0.5286  0.2658
  910MPD2    C413326   1.733   4.701  16.065 -0.4014  0.0217  0.1036
  910MPD2    C513327   1.778   4.697  16.195 -0.2243 -0.1646  0.3978
  910MPD2     H13328   1.902   4.430  15.962  0.0090 -1.5689  2.0419
  910MPD2    H113329   1.667   0.055  16.024  2.5469  2.2135 -0.5925
  910MPD2    H213330   1.890   4.610  16.339  1.5898 -0.8111 -0.5540
  910MPD2    H313331   1.740   0.045  16.269 -0.3858 -0.1778  0.3276
  910MPD2     N13332   1.739   4.622  15.845 -0.1598  0.5928  0.4843
  910MPD2    H513333   1.681   4.702  15.821 -1.2510 -0.0800  0.8855
  910MPD2    N113334   2.002   4.405  16.199  0.1700  0.0735  0.5211
  910MPD2    H713335   2.025   4.324  16.142 -0.0822 -0.0238  0.5575
  911MPD2     C13336   0.136   0.785  16.828  0.3502 -0.1098  0.4115
  911MPD2    C113337   0.166   0.662  16.781 -0.1784  0.0304 -0.6829
  911MPD2    C213338   0.090   0.594  16.688 -0.1909 -0.0628 -0.2040
  911MPD2    C313339   4.707   0.658  16.625  0.3049 -0.5326  0.0941
  911MPD2    C413340   4.673   0.783  16.676 -0.1777  0.3728  0.2253
  911MPD2    C513341   0.020   0.844  16.775  0.2833 -0.1120  0.1787
  911MPD2     H13342   0.126   0.501  16.645 -1.1304  0.0056 -1.1667
  911MPD2    H113343   4.598   0.849  16.634 -0.4008 -0.7030 -1.0721
  911MPD2    H213344   0.205   0.836  16.894  0.9656 -1.1340  0.5574
  911MPD2    H313345   4.708   0.941  16.808  0.3251  0.0899 -0.3767
  911MPD2     N13346   4.641   0.603  16.517  0.0019  0.3086 -0.3363
  911MPD2    H513347   4.565   0.659  16.480  0.3711  0.5471 -0.7463
  911MPD2    N113348   0.285   0.604  16.828 -0.5920  0.1436  0.5350
  911MPD2    H713349   0.355   0.667  16.864 -1.4920  0.7166  1.2755
  912MPD2     C13350   4.397   4.676  15.896  0.1112 -0.5791  0.3798
  912MPD2    C113351   4.390   4.713  16.024  0.5880  0.8818 -0.3388
  912MPD2    C213352   4.326   4.631  16.111  0.0051  0.1310  0.0510
  912MPD2    C313353   4.264   4.518  16.065  0.0278 -0.8472  0.3512
  912MPD2    C413354   4.257   4.488  15.933 -0.8124 -0.1320 -1.1581
  912MPD2    C513355   4.326   4.570  15.843  0.1424 -0.0710 -0.3586
  912MPD2     H13356   4.320   4.667  16.213 -1.6337  1.4661 -0.5017
  912MPD2    H113357   4.214   4.395  15.899  1.9814 -1.8347 -0.0902
  912MPD2    H213358   4.436   0.031  15.829 -0.1642  1.3680  2.4603
  912MPD2    H313359   4.332   4.548  15.737  1.4266  1.4359 -0.6007
  912MPD2     N13360   4.198   4.426  16.149  0.8330  0.3787 -0.8074
  912MPD2    H513361   4.156   4.343  16.107 -2.2886  1.2137  0.6241
  912MPD2    N113362   4.475   0.104  16.055  0.1298  0.7250  0.3331
  912MPD2    H713363   4.523   0.155  15.982 -0.8096  1.0219 -0.0665
  913MPD2     C13364   1.017   1.390  10.883 -0.4050 -0.0278 -0.3766
  913MPD2    C113365   1.037   1.525  10.865 -0.2222 -0.3676 -0.4777
  913MPD2    C213366   1.047   1.574  10.736 -0.0958 -0.0153  0.1785
  913MPD2    C313367   1.033   1.491  10.630 -0.4024  0.2511 -0.5297
  913MPD2    C413368   1.017   1.358  10.651 -0.0493  0.3154  0.2380
  913MPD2    C513369   1.001   1.307  10.773  0.1520  0.0666 -0.2919
  913MPD2     H13370   1.056   1.682  10.733 -0.9670 -0.0128 -2.1610
  913MPD2    H113371   0.990   1.296  10.566  2.8483  0.6247 -0.8912
  913MPD2    H213372   0.996   1.349  10.981 -3.6061  0.3800 -0.8848
  913MPD2    H313373   0.985   1.202  10.792 -2.3162 -0.0499 -3.0521
  913MPD2     N13374   1.019   1.542  10.501  0.0560  0.4564  0.1662
  913MPD2    H513375   1.018   1.469  10.431 -1.8739  1.6781 -1.0642
  913MPD2    N113376   1.030   1.608  10.981 -0.5907 -0.2717 -0.6130
  913MPD2    H713377   1.004   1.567  11.070  2.3494  0.5745  0.6381
  914MPD2     C13378   3.675   1.966  12.094 -0.4001  0.6949 -0.4980
  914MPD2    C113379   3.564   2.042  12.137  0.3126  0.3288  0.4364
  914MPD2    C213380   3.438   1.973  12.156  0.7550  0.0123  0.1437
  914MPD2    C313381   3.421   1.847  12.111  0.1392  0.2071  0.4142
  914MPD2    C413382   3.529   1.779  12.050 -0.1432  0.0364  0.0122
  914MPD2    C513383   3.653   1.840  12.051 -0.4350 -0.4326  0.6153
  914MPD2     H13384   3.355   2.021  12.207  0.0089 -2.5329  1.2906
  914MPD2    H113385   3.525   1.675  12.021 -0.4612  0.1892 -0.4921
  914MPD2    H213386   3.769   2.017  12.077  0.1604  0.1785  1.1159
  914MPD2    H313387   3.728   1.780  12.002 -0.5761 -1.0204  1.1097
  914MPD2     N13388   3.298   1.782  12.132  0.0236 -1.2206  0.2643
  914MPD2    H513389   3.228   1.834  12.184  1.5136 -0.4186  1.4613
  914MPD2    N113390   3.602   2.167  12.192 -0.4039 -0.7626  0.0412
  914MPD2    H713391   3.698   2.201  12.190 -0.2339 -1.4393 -2.8054
  915MPD2     C13392   1.309   1.834  15.363  0.3466 -0.8235 -0.2750
  915MPD2    C113393   1.196   1.896  15.406  0.2895  0.1711 -0.3472
  915MPD2    C213394   1.182   1.930  15.538  0.6107 -0.0939 -0.1429
  915MPD2    C313395   1.291   1.914  15.623  0.3588  0.1273  0.2714
  915MPD2    C413396   1.402   1.858  15.577 -0.7082  0.3842  0.9539
  915MPD2    C513397   1.411   1.818  15.452  0.3721  0.1219  0.2813
  915MPD2     H13398   1.089   1.975  15.571  0.9545  1.3296 -1.1021
  915MPD2    H113399   1.494   1.860  15.634 -0.4025  2.7469  0.3871
  915MPD2    H213400   1.327   1.787  15.266  2.5509  0.0155 -0.2772
  915MPD2    H313401   1.502   1.784  15.405 -0.3274 -0.4296 -0.6527
  915MPD2     N13402   1.270   1.940  15.758  0.4479 -0.2216 -0.0108
  915MPD2    H513403   1.183   1.982  15.790  0.6510  0.8751 -0.9048
  915MPD2    N113404   1.090   1.918  15.312  0.2314  0.2875  0.0632
  915MPD2    H713405   1.099   1.854  15.234 -4.4352 -0.2332 -0.0450
  916MPD2     C13406   4.089   0.195  15.727 -0.0939 -0.3514 -0.0415
  916MPD2    C113407   4.019   0.088  15.784 -0.3461  0.9052 -0.3222
  916MPD2    C213408   4.037   4.676  15.738  0.2879  0.2926  0.9068
  916MPD2    C313409   4.120   4.655  15.627  0.2467 -0.7077 -0.0821
  916MPD2    C413410   4.188   0.042  15.573 -0.0489  0.0443  0.2990
  916MPD2    C513411   4.176   0.168  15.628 -0.3337 -0.1030 -0.3578
  916MPD2     H13412   3.977   4.597  15.780  0.4744 -0.4288 -0.1845
  916MPD2    H113413   4.261   0.022  15.496  0.3686  2.1553  0.1331
  916MPD2    H213414   4.079   0.297  15.761  3.2280 -0.2415  0.5906
  916MPD2    H313415   4.251   0.241  15.599  0.3595 -0.7766 -0.2716
  916MPD2     N13416   4.139   4.514  15.586  0.1658 -0.0581  0.3548
  916MPD2    H513417   4.077   4.456  15.641 -1.5981 -0.6382 -2.2213
  916MPD2    N113418   3.933   0.120  15.895 -0.2395  0.6886 -0.6483
  916MPD2    H713419   3.916   0.219  15.910  0.2843  0.8037 -0.8054
  917MPD2     C13420   0.344   2.661  11.105 -0.0266  0.4988  0.6785
  917MPD2    C113421   0.323   2.770  11.190 -0.7127 -0.0478  0.4780
  917MPD2    C213422   0.394   2.886  11.169 -0.3971  0.5287 -0.3514
  917MPD2    C313423   0.490   2.892  11.069  0.1606 -0.0368  0.3168
  917MPD2    C413424   0.512   2.784  10.984 -0.1095  0.6205  0.8695
  917MPD2    C513425   0.434   2.674  11.002  0.0589  0.8218  0.2997
  917MPD2     H13426   0.371   2.972  11.231  0.1524  1.6712 -1.7296
  917MPD2    H113427   0.581   2.789  10.900 -0.8691 -2.9313  0.0048
  917MPD2    H213428   0.295   2.564  11.105 -2.6993  1.8427  1.2450
  917MPD2    H313429   0.449   2.594  10.929 -0.5938  1.2610 -0.3186
  917MPD2     N13430   0.579   3.008  11.052 -0.0492 -0.7039  0.2959
  917MPD2    H513431   0.661   3.001  10.993 -0.9256  2.0370 -1.3073
  917MPD2    N113432   0.224   2.773  11.288  0.1723 -1.0504  0.5924
  917MPD2    H713433   0.157   2.697  11.285  0.8106 -1.5916  0.0290
  918MPD2     C13434   0.053   3.230  12.190 -0.7344 -0.8357  0.2774
  918MPD2    C113435   0.159   3.150  12.158 -0.2928  0.1317 -0.0327
  918MPD2    C213436   0.155   3.084  12.036  0.1916 -0.0639 -0.1172
  918MPD2    C313437   0.045   3.084  11.949 -0.4796  0.0507  0.4751
  918MPD2    C413438   4.652   3.157  11.984  0.6633  0.0954 -0.2888
  918MPD2    C513439   4.667   3.232  12.098  0.2702  0.5540  0.0790
  918MPD2     H13440   0.237   3.021  12.003 -0.0240 -0.1026 -0.5809
  918MPD2    H113441   4.567   3.167  11.918  1.1576  1.3625 -0.7160
  918MPD2    H213442   0.049   3.305  12.268 -0.4542  0.6941 -1.1810
  918MPD2    H313443   4.582   3.294  12.123  0.8182  0.7443  1.4966
  918MPD2     N13444   0.042   2.999  11.837 -0.0721 -0.5300 -0.1857
  918MPD2    H513445   0.136   2.964  11.819 -0.9154 -2.8941  0.0566
  918MPD2    N113446   0.265   3.144  12.251  0.4791 -0.9283  0.5390
  918MPD2    H713447   0.248   3.194  12.338  0.5498  1.7024 -0.9604
  919MPD2     C13448   0.770   1.936  11.376 -0.1847 -0.5119 -0.3176
  919MPD2    C113449   0.706   1.811  11.360 -0.1471  0.1065 -1.2126
  919MPD2    C213450   0.679   1.766  11.235 -0.5416  0.4637 -0.3183
  919MPD2    C313451   0.725   1.841  11.130 -0.0925  0.1762 -0.5866
  919MPD2    C413452   0.795   1.961  11.142 -0.2368  1.2648 -0.0622
  919MPD2    C513453   0.806   2.007  11.265 -0.5414 -0.7840 -0.2019
  919MPD2     H13454   0.631   1.670  11.220 -0.4312  1.0217 -4.0526
  919MPD2    H113455   0.823   2.021  11.056  1.0432  1.3609  0.4193
  919MPD2    H213456   0.807   1.974  11.470 -1.0574 -0.0448 -0.1685
  919MPD2    H313457   0.861   2.098  11.288  0.8264 -1.6268 -0.1731
  919MPD2     N13458   0.711   1.792  10.998 -0.0820  0.5225 -0.4191
  919MPD2    H513459   0.727   1.856  10.921 -1.0097  1.6817  0.3602
  919MPD2    N113460   0.668   1.733  11.466  0.2132 -0.6293 -0.5952
  919MPD2    H713461   0.631   1.639  11.455  0.3153 -0.5382 -1.6535
  920MPD2     C13462   0.393   2.034  10.117  0.6782 -0.3823  0.4366
  920MPD2    C113463   0.311   1.938  10.169  0.5458  0.0706 -0.3337
  920MPD2    C213464   0.360   1.875  10.280 -0.4606  0.0771  0.1346
  920MPD2    C313465   0.481   1.899  10.338 -0.1805 -0.0986  0.3038
  920MPD2    C413466   0.556   2.005  10.289  0.7632  0.1197 -0.2515
  920MPD2    C513467   0.507   2.072  10.181 -0.1631  0.2356  0.3976
  920MPD2     H13468   0.307   1.795  10.331  0.4433 -0.2660  0.5353
  920MPD2    H113469   0.654   2.032  10.326  1.7148 -0.6607 -2.1753
  920MPD2    H213470   0.375   2.093  10.028 -2.1966 -2.0558 -0.1037
  920MPD2    H313471   0.576   2.139  10.131 -1.0174  2.3530  2.0953
  920MPD2     N13472   0.517   1.809  10.447  0.3480 -0.2071  0.1213
  920MPD2    H513473   0.453   1.737  10.478  0.8407 -0.4487  0.5639
  920MPD2    N113474   0.196   1.891  10.104 -0.5642 -0.2721 -0.0840
  920MPD2    H713475   0.156   1.807  10.143  3.6817 -1.8099  1.0018
  921MPD2     C13476   0.796   1.192  16.682 -0.1460  0.3824 -0.3605
  921MPD2    C113477   0.896   1.096  16.687  0.4762  0.1021  0.4708
  921MPD2    C213478   0.869   0.977  16.743  0.5564 -0.0400 -0.4560
  921MPD2    C313479   0.742   0.956  16.790 -0.0814  0.0591  0.2413
  921MPD2    C413480   0.637   1.044  16.781  0.0090  0.3106  0.0252
  921MPD2    C513481   0.666   1.164  16.725 -0.0702  0.0453 -0.0703
  921MPD2     H13482   0.951   0.908  16.764  1.7670  1.1718 -1.1923
  921MPD2    H113483   0.533   1.023  16.803  0.1269 -0.2544  0.0467
  921MPD2    H213484   0.813   1.294  16.649 -0.7526  0.1208 -1.5126
  921MPD2    H313485   0.590   1.241  16.723  0.8992  1.0367  0.9822
  921MPD2     N13486   0.697   0.832  16.840  0.0353 -0.3733 -0.4426
  921MPD2    H513487   0.601   0.825  16.871  0.1143  0.0626 -0.1007
  921MPD2    N113488   1.021   1.119  16.622 -0.1950 -0.3665 -0.2240
  921MPD2    H713489   1.101   1.059  16.635  0.6398  0.5595 -1.1533
  922MPD2     C13490   1.470   3.317   0.100  0.1506 -0.2320  0.3074
  922MPD2    C113491   1.464   3.209   0.184 -0.1728  0.5805  0.3161
  922MPD2    C213492   1.511   3.083   0.148 -0.5277 -0.4587 -0.7510
  922MPD2    C313493   1.559   3.069   0.014  0.1971  0.5278 -0.6222
  922MPD2    C413494   1.575   3.179  17.615  0.8644 -0.5302  0.0040
  922MPD2    C513495   1.527   3.301  17.665 -0.3165  0.0802  0.2367
  922MPD2     H13496   1.498   3.000   0.217 -1.0288 -0.2467 -0.5923
  922MPD2    H113497   1.628   3.176  17.521  1.8891 -1.6188  0.6200
  922MPD2    H213498   1.415   3.407   0.122  0.8736 -0.0004  1.1794
  922MPD2    H313499   1.539   3.389  17.603  0.4076  0.5390  1.0366
  922MPD2     N13500   1.594   2.934  17.654  0.3512 -0.6799 -0.1898
  922MPD2    H513501   1.544   2.862   0.016 -0.5913  0.1449  0.0495
  922MPD2    N113502   1.402   3.215   0.309 -0.8292  0.2617  0.5950
  922MPD2    H713503   1.425   3.144   0.379  0.2511  0.6962  0.6864
  923MPD2     C13504   3.015   1.108   8.665  0.1669 -0.9178 -0.1806
  923MPD2    C113505   3.026   1.176   8.787  0.0781  0.1597  0.0940
  923MPD2    C213506   3.148   1.146   8.861 -0.4420  0.6500  0.0184
  923MPD2    C313507   3.245   1.055   8.817 -0.0630 -0.3121 -0.1938
  923MPD2    C413508   3.231   0.998   8.688  0.6600  0.1077  0.2851
  923MPD2    C513509   3.115   1.028   8.613  0.5739  0.0226  0.1880
  923MPD2     H13510   3.168   1.198   8.953 -0.6385  3.4078 -1.4958
  923MPD2    H113511   3.309   0.943   8.637  1.0909 -0.0617  1.1336
  923MPD2    H213512   2.932   1.135   8.601  0.9177  2.1217  0.1315
  923MPD2    H313513   3.092   0.998   8.511  1.0095 -0.1694  0.1465
  923MPD2     N13514   3.358   1.021   8.887  0.3567 -0.5834 -0.0742
  923MPD2    H513515   3.425   0.960   8.841 -0.2525 -1.3285  0.0233
  923MPD2    N113516   2.924   1.270   8.810  0.0146  0.0192  0.3785
  923MPD2    H713517   2.853   1.287   8.740  1.4852  0.8898 -0.9203
  924MPD2     C13518   3.056   3.874  15.536 -0.4352  0.1239  0.4588
  924MPD2    C113519   3.095   3.861  15.666 -0.3162 -0.5123 -0.2523
  924MPD2    C213520   3.075   3.968  15.751  0.5329 -0.2170  0.1034
  924MPD2    C313521   3.032   4.097  15.706 -0.3237 -0.3109 -0.2848
  924MPD2    C413522   3.010   4.115  15.575  0.0382 -0.3691  0.5672
  924MPD2    C513523   3.018   4.001  15.496  0.1069 -0.2111  0.2617
  924MPD2     H13524   3.091   3.953  15.857 -1.3507  1.1833  0.5915
  924MPD2    H113525   2.972   4.207  15.532 -1.5591 -1.1622  0.2676
  924MPD2    H213526   3.064   3.790  15.467  2.5672  0.3549  0.5383
  924MPD2    H313527   2.987   4.021  15.395  0.9608  0.3905  0.1168
  924MPD2     N13528   3.021   4.212  15.784 -0.0327  0.9149  0.5110
  924MPD2    H513529   2.983   4.297  15.744 -0.3720  0.0901 -0.9364
  924MPD2    N113530   3.143   3.745  15.717 -0.0675 -0.5833 -0.8431
  924MPD2    H713531   3.118   3.662  15.664 -0.0631  0.0203 -1.7999
  925MPD2     C13532   2.062   0.978  14.670 -0.3031 -0.1907  0.7789
  925MPD2    C113533   1.949   1.053  14.665  0.7295  0.9326  0.2675
  925MPD2    C213534   1.846   1.020  14.755 -0.2303 -0.1648 -0.3953
  925MPD2    C313535   1.867   0.948  14.870 -0.0207 -0.4236 -0.1038
  925MPD2    C413536   1.977   0.872  14.877 -0.5858  0.3000 -0.2081
  925MPD2    C513537   2.070   0.885  14.776 -0.8113  0.1547  0.6357
  925MPD2     H13538   1.754   1.072  14.732 -0.2651 -0.6356 -1.3198
  925MPD2    H113539   2.000   0.813  14.964 -0.4815  1.5507  0.6119
  925MPD2    H213540   2.148   0.986  14.606 -0.9480 -0.0688 -0.0659
  925MPD2    H313541   2.166   0.835  14.784 -2.4823 -3.2443 -0.7918
  925MPD2     N13542   1.773   0.930  14.968 -0.0062 -0.6513 -0.0639
  925MPD2    H513543   1.792   0.857  15.035 -2.4219 -1.7383 -0.5850
  925MPD2    N113544   1.922   1.133  14.553  0.1091 -0.1205  0.2790
  925MPD2    H713545   1.835   1.186  14.561 -0.0942 -0.3351 -0.4723
  926MPD2     C13546   0.586   4.130  13.697  0.3079  0.3978 -0.2421
  926MPD2    C113547   0.499   4.173  13.597  0.0298 -1.2959  0.3194
  926MPD2    C213548   0.548   4.219  13.473  0.0238 -0.2120 -0.0824
  926MPD2    C313549   0.681   4.220  13.453 -0.0976  0.5404  0.3654
  926MPD2    C413550   0.765   4.175  13.548 -0.0562 -0.7142 -0.1109
  926MPD2    C513551   0.716   4.143  13.673 -0.1626  1.0351  0.5347
  926MPD2     H13552   0.471   4.236  13.399  0.1854  0.3113 -0.1329
  926MPD2    H113553   0.872   4.172  13.533  0.0811  1.0206  0.4160
  926MPD2    H213554   0.563   4.101  13.799  1.8382 -2.0202 -0.5805
  926MPD2    H313555   0.783   4.109  13.751  0.1182 -0.0265 -0.1781
  926MPD2     N13556   0.748   4.258  13.333  0.6201  0.1244 -0.2942
  926MPD2    H513557   0.847   4.244  13.316  1.1117  2.8634  0.2993
  926MPD2    N113558   0.356   4.158  13.617 -0.0077 -0.7569 -0.1452
  926MPD2    H713559   0.298   4.167  13.534 -2.7532 -2.0710  1.6191
  927MPD2     C13560   1.162   1.914   0.134  0.5954  0.2569 -0.2326
  927MPD2    C113561   1.036   1.864   0.141 -0.1235 -0.2595 -0.4861
  927MPD2    C213562   1.022   1.730   0.094 -0.1386  0.6068  0.0693
  927MPD2    C313563   1.119   1.661   0.016  0.9095  0.4591 -0.3330
  927MPD2    C413564   1.241   1.720   0.010 -0.8433 -0.6870 -0.2056
  927MPD2    C513565   1.259   1.846   0.069  0.5287 -0.4709 -0.3530
  927MPD2     H13566   0.929   1.675   0.103 -0.9458  1.9882  0.0499
  927MPD2    H113567   1.326   1.675  17.647  0.5982  0.7103  0.9352
  927MPD2    H213568   1.190   1.997   0.198 -0.9850  1.4295 -1.0730
  927MPD2    H313569   1.361   1.884   0.068  0.8219 -1.1958  0.8778
  927MPD2     N13570   1.085   1.532  17.653  0.9042 -0.4698 -0.7591
  927MPD2    H513571   0.988   1.502  17.664  0.7561  0.2976 -0.0203
  927MPD2    N113572   0.939   1.945   0.215 -0.4140  0.4330  0.5005
  927MPD2    H713573   0.970   2.029   0.262 -3.2130  1.3475  0.7018
  928MPD2     C13574   2.844   4.695   0.637  0.7884  0.1273  0.1710
  928MPD2    C113575   2.919   4.710   0.749  0.4664  0.1500  0.4208
  928MPD2    C213576   3.054   0.026   0.734  0.2035 -0.0448  0.5512
  928MPD2    C313577   3.112   0.040   0.610  0.3733 -0.6149 -0.0660
  928MPD2    C413578   3.037   0.003   0.497  0.2401 -0.3577  0.2370
  928MPD2    C513579   2.908   4.699   0.514 -0.3552 -0.3242 -0.2462
  928MPD2     H13580   3.111   0.025   0.827 -0.1008 -0.8664  0.7361
  928MPD2    H113581   3.072   0.003   0.395  0.5673  0.8052  0.3476
  928MPD2    H213582   2.740   4.670   0.653  0.1410  2.2113 -0.8562
  928MPD2    H313583   2.846   4.674   0.428  0.5308 -1.2355 -0.6186
  928MPD2     N13584   3.246   0.069   0.592  0.2218 -0.1408  0.9512
  928MPD2    H513585   3.281   0.058   0.497 -0.4229  0.7229  0.6207
  928MPD2    N113586   2.866   4.709   0.877  0.4506 -0.0347 -0.3666
  928MPD2    H713587   2.766   0.006   0.879 -0.2896 -3.9535 -1.0321
  929MPD2     C13588   3.380   0.901   9.927  0.2837  0.3061 -0.2505
  929MPD2    C113589   3.260   0.846   9.934 -0.0725  0.8697 -0.2112
  929MPD2    C213590   3.170   0.863   9.830  0.2558 -0.0262  0.1179
  929MPD2    C313591   3.194   0.962   9.731 -0.1691 -0.4525 -0.0549
  929MPD2    C413592   3.321   1.014   9.728 -0.3134  0.5606  0.4425
  929MPD2    C513593   3.416   0.981   9.823 -0.0464  0.2593 -0.0568
  929MPD2     H13594   3.070   0.822   9.835 -0.1309  0.9225  0.3220
  929MPD2    H113595   3.340   1.091   9.654 -2.2211  1.3185  0.7417
  929MPD2    H213596   3.444   0.891  10.014  0.5879  0.3356 -0.4709
  929MPD2    H313597   3.519   1.013   9.813 -0.4690  2.1275  1.5623
  929MPD2     N13598   3.095   1.013   9.640  0.0237  0.2716  0.4429
  929MPD2    H513599   3.125   1.083   9.573  0.3276 -0.0094  0.2823
  929MPD2    N113600   3.241   0.760  10.045 -0.1784  0.1264 -0.3828
  929MPD2    H713601   3.320   0.736  10.105 -0.2451 -1.1279 -0.7904
  930MPD2     C13602   0.185   2.333  13.787 -1.2117  0.1792  0.3662
  930MPD2    C113603   0.112   2.416  13.710 -0.3703  0.8289  0.6404
  930MPD2    C213604   0.003   2.361  13.640 -0.0816  0.5593  0.3233
  930MPD2    C313605   4.694   2.230  13.638  0.6217 -0.4145 -0.4335
  930MPD2    C413606   0.033   2.152  13.738 -0.2371  0.2500 -0.2130
  930MPD2    C513607   0.147   2.200  13.804  0.3256  0.3663  0.1680
  930MPD2     H13608   4.665   2.433  13.585  1.1472  0.7001 -0.8155
  930MPD2    H113609   0.000   2.049  13.738 -1.7747  0.7547  1.6494
  930MPD2    H213610   0.268   2.377  13.842 -2.0218  0.1531  1.6040
  930MPD2    H313611   0.207   2.127  13.857 -0.5243 -0.5614 -0.1380
  930MPD2     N13612   4.601   2.174  13.552  0.1335  0.0009 -0.4370
  930MPD2    H513613   4.558   2.090  13.587  1.9079 -1.2154 -1.1613
  930MPD2    N113614   0.161   2.547  13.696 -0.1009 -0.1570 -0.0346
  930MPD2    H713615   0.248   2.565  13.745 -0.4122 -0.8578  0.7708
  931MPD2     C13616   0.406   2.101   0.915  0.5859  0.1929 -0.6698
  931MPD2    C113617   0.394   2.005   0.816 -0.0096  0.2306  0.2215
  931MPD2    C213618   0.308   1.900   0.839  0.0907  0.2115  0.4752
  931MPD2    C313619   0.243   1.881   0.958  0.0679 -0.6430  0.1743
  931MPD2    C413620   0.251   1.975   1.055  0.0413 -0.7592 -0.1872
  931MPD2    C513621   0.329   2.087   1.027  0.4522 -0.4384 -0.3260
  931MPD2     H13622   0.302   1.822   0.764  0.9106 -0.5151  1.1628
  931MPD2    H113623   0.204   1.964   1.152 -0.1238  2.9647  0.1517
  931MPD2    H213624   0.471   2.187   0.901 -1.4028  1.8128  0.0165
  931MPD2    H313625   0.347   2.166   1.098 -0.3503  2.3296 -3.1904
  931MPD2     N13626   0.179   1.762   0.992  0.5172  0.0567 -0.2652
  931MPD2    H513627   0.132   1.755   1.082 -1.5217 -0.9779 -1.4187
  931MPD2    N113628   0.478   2.026   0.708  0.3866  0.5986  0.3430
  931MPD2    H713629   0.535   2.110   0.709 -0.5344  1.2078  0.8338
  932MPD2     C13630   2.335   1.173  11.087  0.4243 -0.2640 -0.3787
  932MPD2    C113631   2.455   1.187  11.154  0.5449  0.8145  0.2873
  932MPD2    C213632   2.524   1.075  11.199 -0.2764  0.8098  0.1404
  932MPD2    C313633   2.475   0.946  11.171  0.1106 -0.0002 -0.3086
  932MPD2    C413634   2.350   0.936  11.114 -0.5693 -0.2121 -0.5117
  932MPD2    C513635   2.282   1.048  11.074  0.0937 -0.2510  0.2930
  932MPD2     H13636   2.613   1.087  11.259 -0.8298 -2.0716  1.5051
  932MPD2    H113637   2.300   0.841  11.097  0.9063 -1.3383  1.4937
  932MPD2    H213638   2.275   1.259  11.059 -0.1240 -0.4294  0.2784
  932MPD2    H313639   2.180   1.037  11.040  0.2829 -0.0521 -0.3411
  932MPD2     N13640   2.533   0.827  11.234  0.2212  0.1611  0.5714
  932MPD2    H513641   2.472   0.748  11.250 -0.1806  0.4255  0.3718
  932MPD2    N113642   2.506   1.315  11.160  0.7002 -0.0785 -0.4952
  932MPD2    H713643   2.464   1.389  11.104 -0.7041  0.4760  1.3020
  933MPD2     C13644   2.225   4.654   1.071  0.2117  0.0804 -0.3880
  933MPD2    C113645   2.299   0.018   1.155 -0.0447  0.3664 -0.2535
  933MPD2    C213646   2.215   0.101   1.225 -1.0298 -0.5653  0.2579
  933MPD2    C313647   2.079   0.109   1.206 -0.5127 -0.3177  0.3106
  933MPD2    C413648   2.010   0.018   1.131  0.1714  0.8083  0.1458
  933MPD2    C513649   2.087   4.649   1.063  0.8956  0.2643  0.0681
  933MPD2     H13650   2.258   0.179   1.287 -0.8447  1.3513 -2.2646
  933MPD2    H113651   1.902   0.011   1.122  0.1163  0.4442  1.1333
  933MPD2    H213652   2.271   4.586   1.001 -1.1642 -1.8249  0.5417
  933MPD2    H313653   2.043   4.571   1.002  0.0689 -0.9942  2.2860
  933MPD2     N13654   2.004   0.202   1.282 -0.3177  0.1001 -0.4421
  933MPD2    H513655   2.065   0.261   1.337 -2.0092  1.5815 -0.1703
  933MPD2    N113656   2.441   0.012   1.159  0.1261  0.1121  0.0635
  933MPD2    H713657   2.479   4.665   1.095  0.1243  0.5189 -0.3692
  934MPD2     C13658   4.006   2.275   2.384  0.2094  0.7786 -0.2083
  934MPD2    C113659   4.050   2.189   2.289  0.4604  0.4303  0.5613
  934MPD2    C213660   3.967   2.111   2.212 -0.2112  0.1631  0.1152
  934MPD2    C313661   3.832   2.118   2.230  0.3093  0.6067 -0.2963
  934MPD2    C413662   3.791   2.194   2.337 -0.1371 -0.2108 -0.5652
  934MPD2    C513663   3.876   2.277   2.407 -0.9609 -0.2741  0.7057
  934MPD2     H13664   4.008   2.055   2.129  1.2296  0.8227  0.3812
  934MPD2    H113665   3.684   2.198   2.356 -0.1924  0.9333 -1.0866
  934MPD2    H213666   4.068   2.328   2.455  1.2634 -1.2436  0.3837
  934MPD2    H313667   3.831   2.352   2.472 -1.7245  1.1128 -1.4385
  934MPD2     N13668   3.735   2.058   2.143  0.0109 -0.2353 -0.0434
  934MPD2    H513669   3.635   2.075   2.151  0.1349  0.5105 -0.0930
  934MPD2    N113670   4.185   2.183   2.246 -0.2052  0.5949  0.0429
  934MPD2    H713671   4.217   2.120   2.173  0.5899  1.3495 -0.2677
  935MPD2     C13672   3.890   1.415   1.394  0.5062 -0.3883  0.7268
  935MPD2    C113673   3.756   1.392   1.406  0.6618  0.8695  0.2772
  935MPD2    C213674   3.703   1.473   1.506 -0.5789  0.3765 -0.7753
  935MPD2    C313675   3.771   1.569   1.575  0.9211 -0.1361 -0.0316
  935MPD2    C413676   3.907   1.580   1.552 -0.1936 -0.0576  0.7751
  935MPD2    C513677   3.970   1.501   1.464  0.7290  0.8360 -0.1472
  935MPD2     H13678   3.605   1.447   1.544  0.6801  0.0575  2.3203
  935MPD2    H113679   3.967   1.649   1.612 -1.1043  1.1545  0.3010
  935MPD2    H213680   3.940   1.345   1.327  0.8945 -0.1093  0.7248
  935MPD2    H313681   4.072   1.530   1.444  1.7076 -2.5123 -0.1609
  935MPD2     N13682   3.712   1.642   1.683  0.5582 -0.0977 -0.3205
  935MPD2    H513683   3.776   1.701   1.735  0.4428  0.6278 -0.9962
  935MPD2    N113684   3.676   1.293   1.338  0.3729  0.2069  0.9240
  935MPD2    H713685   3.576   1.301   1.354 -0.4111 -1.0976 -3.2852
  936MPD2     C13686   2.754   0.242  12.350  0.3745 -0.0168  0.8476
  936MPD2    C113687   2.799   0.178  12.463 -0.7755 -0.3816  0.1878
  936MPD2    C213688   2.918   0.215  12.522  0.2443  0.0220  0.0286
  936MPD2    C313689   2.994   0.316  12.472 -0.3424 -0.1621 -0.5131
  936MPD2    C413690   2.947   0.378  12.366 -0.4743 -0.7206  0.4425
  936MPD2    C513691   2.826   0.351  12.304  0.3011  0.8824 -0.3806
  936MPD2     H13692   2.941   0.167  12.616  0.8269 -1.0283 -0.6397
  936MPD2    H113693   3.006   0.459  12.323  1.1482 -2.1708 -0.0647
  936MPD2    H213694   2.661   0.221  12.298 -0.1393  1.3355  1.2413
  936MPD2    H313695   2.801   0.395  12.208 -1.2415  0.6333 -0.0887
  936MPD2     N13696   3.112   0.344  12.540  0.2146  0.4812 -0.0773
  936MPD2    H513697   3.130   0.283  12.619 -3.0288  0.2520  0.4547
  936MPD2    N113698   2.735   0.061  12.520  0.4151 -0.7216  0.3256
  936MPD2    H713699   2.787   0.022  12.598  1.5231  1.3253  0.6114
  937MPD2     C13700   0.785   1.089  11.530  0.2887  0.2063  0.1438
  937MPD2    C113701   0.843   1.212  11.549 -0.2690  0.2813 -0.3612
  937MPD2    C213702   0.930   1.249  11.453  0.5029 -0.4467  0.7719
  937MPD2    C313703   0.989   1.154  11.366 -0.0444 -0.1166  0.6721
  937MPD2    C413704   0.951   1.020  11.363 -0.3359 -0.0400  0.0390
  937MPD2    C513705   0.842   0.994  11.452 -0.6037  0.0783 -0.0023
  937MPD2     H13706   0.975   1.347  11.461  1.5126 -0.7045 -1.7033
  937MPD2    H113707   0.991   0.934  11.309 -2.2595 -1.3300  0.6671
  937MPD2    H213708   0.697   1.057  11.585  0.6003 -0.2757  0.3551
  937MPD2    H313709   0.791   0.899  11.444 -0.9874  0.1896  1.0573
  937MPD2     N13710   1.080   1.207  11.275 -0.3603 -0.3265 -0.2406
  937MPD2    H513711   1.101   1.305  11.285 -3.8973  0.3659  0.3376
  937MPD2    N113712   0.776   1.320  11.613  0.2841 -0.6301  0.3610
  937MPD2    H713713   0.815   1.413  11.604  1.1134 -0.7114  3.2918
  938MPD2     C13714   3.076   1.580   1.332 -0.2444 -1.1640 -0.2693
  938MPD2    C113715   3.007   1.651   1.434 -0.7381 -0.6943  0.7686
  938MPD2    C213716   2.917   1.576   1.517 -0.1854  0.1953 -0.4734
  938MPD2    C313717   2.905   1.438   1.507  0.3492 -0.5386  0.8497
  938MPD2    C413718   2.974   1.376   1.404  0.8649  0.2679 -0.0027
  938MPD2    C513719   3.052   1.449   1.314 -0.4767  0.0179  0.5631
  938MPD2     H13720   2.857   1.628   1.590  0.7195  1.3193 -0.5207
  938MPD2    H113721   2.955   1.273   1.375  1.0087  0.5994 -1.2622
  938MPD2    H213722   3.151   1.626   1.270 -0.6768  0.0578  0.1186
  938MPD2    H313723   3.096   1.393   1.233  1.0236  0.8125  0.8419
  938MPD2     N13724   2.826   1.358   1.590  0.1074 -0.1512 -0.4633
  938MPD2    H513725   2.836   1.259   1.571  0.7300  0.2626 -2.3923
  938MPD2    N113726   3.020   1.788   1.463  0.3371 -0.2752 -0.6087
  938MPD2    H713727   2.964   1.839   1.530  0.6332  1.3463 -1.5808
  939MPD2     C13728   4.469   2.776   1.279  0.0904 -0.1303  0.0939
  939MPD2    C113729   4.505   2.899   1.229 -0.0641  0.7935 -0.2501
  939MPD2    C213730   4.538   2.907   1.089 -0.4397  0.0107 -0.5836
  939MPD2    C313731   4.503   2.804   1.006 -0.2680  0.2943  0.1916
  939MPD2    C413732   4.444   2.683   1.051  0.0386  0.4333 -0.2050
  939MPD2    C513733   4.428   2.669   1.191  0.1698 -0.1231 -0.0425
  939MPD2     H13734   4.591   2.993   1.051 -0.7728 -0.0794 -1.2463
  939MPD2    H113735   4.424   2.601   0.983  0.1940 -0.3768  0.7139
  939MPD2    H213736   4.447   2.761   1.384  2.0118 -0.8178  0.3978
  939MPD2    H313737   4.384   2.582   1.239 -1.3940  0.2486 -0.7905
  939MPD2     N13738   4.554   2.815   0.872  0.2399  0.4524  0.3213
  939MPD2    H513739   4.585   2.910   0.850  1.6672 -0.1482 -0.2829
  939MPD2    N113740   4.538   2.998   1.318 -0.4772  0.1314 -0.2438
  939MPD2    H713741   4.524   2.990   1.419 -1.2646  0.0521 -0.3604
  940MPD2     C13742   3.173   3.924  13.102  0.4938 -0.3913 -0.2589
  940MPD2    C113743   3.311   3.925  13.106 -0.1313  0.6919 -0.4803
  940MPD2    C213744   3.389   3.964  13.001  0.2524 -0.1049  0.1711
  940MPD2    C313745   3.328   3.988  12.884  0.4077  0.4536 -0.3358
  940MPD2    C413746   3.193   3.986  12.871  0.7480 -0.0164  0.2945
  940MPD2    C513747   3.114   3.960  12.986 -0.4796  1.4774 -0.5251
  940MPD2     H13748   3.496   3.975  13.019  0.6037  0.1936 -2.0857
  940MPD2    H113749   3.150   4.007  12.774 -0.3431 -1.0339  0.5573
  940MPD2    H213750   3.101   3.910  13.182  1.3685 -1.1777  0.3929
  940MPD2    H313751   3.006   3.959  12.982 -0.3992 -2.1909 -1.3551
  940MPD2     N13752   3.405   4.029  12.775 -0.3431  0.1881 -0.8668
  940MPD2    H513753   3.343   4.026  12.695 -0.2768  1.9227 -0.9693
  940MPD2    N113754   3.366   3.914  13.237  0.3988  0.2442 -0.5918
  940MPD2    H713755   3.461   3.947  13.253  0.3236 -0.3304  0.9731
  941MPD2     C13756   2.597   4.373  10.350  0.2669  0.3186  0.1593
  941MPD2    C113757   2.718   4.322  10.399 -0.3062 -0.3539  0.4496
  941MPD2    C213758   2.715   4.190  10.442 -0.4182  0.3052  0.2794
  941MPD2    C313759   2.598   4.115  10.412  0.0812  0.0342  0.8451
  941MPD2    C413760   2.475   4.173  10.373 -0.1148 -0.0161  0.3352
  941MPD2    C513761   2.477   4.310  10.361  0.0328  0.8437 -0.0351
  941MPD2     H13762   2.803   4.145  10.486 -1.6810 -1.5253  0.9531
  941MPD2    H113763   2.380   4.124  10.357  0.8759 -0.7079 -3.3203
  941MPD2    H213764   2.591   4.476  10.316  1.2598 -0.4643 -2.3662
  941MPD2    H313765   2.387   4.366  10.338 -0.8796 -0.6661 -0.0923
  941MPD2     N13766   2.588   3.976  10.435  0.0872  0.6839 -0.4844
  941MPD2    H513767   2.500   3.930  10.413  1.2019 -1.6501  0.0224
  941MPD2    N113768   2.838   4.398  10.416  0.2421  0.8363  0.5327
  941MPD2    H713769   2.920   4.361  10.464  1.0953  0.8864 -0.9038
  942MPD2     C13770   2.378   1.331   8.947  0.2311  0.6076  0.1309
  942MPD2    C113771   2.460   1.303   8.837  0.8553 -1.0645  0.2295
  942MPD2    C213772   2.566   1.214   8.857  0.6917  0.2451 -0.5332
  942MPD2    C313773   2.591   1.152   8.979  0.1689 -0.2561  0.2340
  942MPD2    C413774   2.507   1.186   9.087 -0.3391  0.6692 -0.0289
  942MPD2    C513775   2.406   1.275   9.069  0.6400 -0.8637  0.2414
  942MPD2     H13776   2.625   1.182   8.771  0.9566 -0.3513 -0.1311
  942MPD2    H113777   2.524   1.137   9.182  0.6231 -0.9323 -1.0317
  942MPD2    H213778   2.306   1.413   8.945 -0.4892 -0.0150  0.8107
  942MPD2    H313779   2.347   1.295   9.157 -0.4385 -3.1941  0.0672
  942MPD2     N13780   2.691   1.055   9.000 -0.7600 -0.2038 -0.2407
  942MPD2    H513781   2.699   1.020   9.095  1.6538 -0.8956 -0.6987
  942MPD2    N113782   2.436   1.353   8.705  0.1938  0.1127  0.2913
  942MPD2    H713783   2.496   1.327   8.627 -0.6215 -1.6278  0.2382
  943MPD2     C13784   0.755   3.249   9.745 -0.8385 -0.6333 -0.4066
  943MPD2    C113785   0.871   3.187   9.795  0.1706  0.1139  0.4028
  943MPD2    C213786   0.962   3.261   9.867 -0.2497 -0.2203 -0.0834
  943MPD2    C313787   0.955   3.403   9.872  0.2147  0.2325 -0.5538
  943MPD2    C413788   0.841   3.463   9.820 -0.8535 -0.1616  0.5520
  943MPD2    C513789   0.749   3.387   9.758  0.0269 -0.3820 -0.1255
  943MPD2     H13790   1.049   3.215   9.912  1.4417  2.9696 -0.1570
  943MPD2    H113791   0.820   3.569   9.813 -1.6278 -0.2194  1.9958
  943MPD2    H213792   0.676   3.198   9.692 -1.2230  0.7503 -1.1612
  943MPD2    H313793   0.665   3.438   9.713  1.2463  0.7943 -1.0498
  943MPD2     N13794   1.050   3.494   9.922 -0.0705  0.0420  0.3284
  943MPD2    H513795   1.026   3.591   9.906 -1.9454 -0.6913 -1.2712
  943MPD2    N113796   0.885   3.047   9.762 -0.7997 -0.4771 -0.1854
  943MPD2    H713797   0.808   3.011   9.706 -1.8580  1.9486 -0.2848
  944MPD2     C13798   1.025   2.289  10.821  0.2782 -1.5249 -0.0330
  944MPD2    C113799   1.099   2.397  10.841 -0.1360  0.1226  0.2159
  944MPD2    C213800   1.114   2.448  10.973 -0.1388 -0.0548  0.7208
  944MPD2    C313801   1.046   2.387  11.079  0.1861 -0.4515  0.2429
  944MPD2    C413802   0.964   2.280  11.053  0.2296 -0.2283  0.2534
  944MPD2    C513803   0.961   2.225  10.926  0.6892  0.1773 -0.1851
  944MPD2     H13804   1.178   2.532  10.998 -0.4226  0.3805 -0.0114
  944MPD2    H113805   0.905   2.234  11.131 -1.2879 -0.4999 -1.0672
  944MPD2    H213806   1.020   2.235  10.727 -2.2270 -0.1257 -0.7219
  944MPD2    H313807   0.900   2.141  10.896 -0.2698  0.9797 -0.4682
  944MPD2     N13808   1.059   2.441  11.207 -0.8078  0.5918  0.3012
  944MPD2    H513809   1.133   2.507  11.227 -0.2257 -0.2371  0.8927
  944MPD2    N113810   1.153   2.457  10.723  0.2149  0.2249  0.0906
  944MPD2    H713811   1.155   2.400  10.639 -3.0323  0.2970 -0.0476
    1TCq1    O113812   2.668   3.295  15.710  0.4080  0.6655 -0.3135
    1TCq1    C113813   2.709   3.264  15.581  0.4290 -0.2356  0.2166
    1TCq1    O213814   2.713   3.150  15.533  0.3503  0.0411  0.2160
    1TCq1    C213815   2.758   3.381  15.512 -0.3063 -0.2223 -0.4796
    1TCq1    C313816   2.834   3.365  15.404 -0.5702  0.6693  0.0058
    1TCq1    C413817   2.866   3.470  15.318  0.0948 -0.0385 -0.3163
    1TCq1    C513818   2.817   3.598  15.354 -0.3682 -0.0754  0.2215
    1TCq1    C613819   2.728   3.615  15.456 -0.1256  0.1006 -0.7256
    1TCq1    C713820   2.698   3.504  15.539 -0.5575  0.2517  0.1536
    1TCq1    C813821   2.668   3.743  15.491  0.1172  0.2836 -0.7769
    1TCq1    O413822   2.612   3.736  15.599 -0.4186 -0.4764  0.0108
    1TCq1    C913823   2.951   3.447  15.210 -0.3451  0.7138  0.0307
    1TCq1    O513824   2.999   3.332  15.198 -0.1588  0.5953  0.0226
    1TCq1    O613825   2.963   3.541  15.126 -0.2167 -0.5093 -0.3246
    1TCq1    H113826   2.686   3.387  15.739  0.8248  0.8570 -1.2012
    1TCq1    H213827   2.866   3.266  15.374 -1.1617  0.0920  1.2740
    1TCq1    H313828   2.844   3.676  15.284  1.3396  2.2185  3.4601
    1TCq1    H413829   2.626   3.513  15.620 -0.1731 -0.6615  0.5949
    2MPD2     C13830   2.649   4.265  15.452  0.1129  0.2705  0.4448
    2MPD2    C113831   2.685   4.211  15.333 -0.3273 -0.3883 -0.2120
    2MPD2    C213832   2.706   4.069  15.327  0.3676  0.2591 -0.6564
    2MPD2    C313833   2.680   3.986  15.433 -0.2315 -0.2818  0.3061
    2MPD2    C413834   2.642   4.044  15.554 -0.1863 -0.1943 -0.3960
    2MPD2    C513835   2.633   4.180  15.564  0.0602 -0.4018  0.2333
    2MPD2     H13836   2.737   4.025  15.233  0.2294  0.5362 -0.8298
    2MPD2    H113837   2.621   3.987  15.644 -0.4309 -0.9969 -0.9591
    2MPD2    H213838   2.638   4.371  15.474 -1.0443  0.6879 -2.1353
    2MPD2    H313839   2.622   4.232  15.659 -0.0353  0.1694 -0.0868
    2MPD2     N13840   2.696   3.848  15.403 -0.3554  0.2801  0.1287
    2MPD2    H513841   2.728   3.830  15.309 -1.3047 -1.2276  0.0871
    2MPD2    N113842   2.703   4.294  15.222 -0.2589 -0.3137 -0.3975
    2MPD2    H713843   2.670   4.390  15.231 -0.3387 -0.4264  0.4510
    3TMC2    C113844   2.764   4.373  15.004 -0.1170 -0.3174 -0.5364
    3TMC2    C213845   2.682   4.481  15.018  0.4064 -0.1645  0.0924
    3TMC2    C313846   2.705   4.592  14.946 -0.1928 -0.5098  0.2048
    3TMC2    C413847   2.873   4.374  14.916  0.3921  0.4774  0.3972
    3TMC2    C513848   2.896   4.494  14.848  0.8351  0.1600  0.2339
    3TMC2    C613849   2.814   4.607  14.869 -0.1140  0.4261  0.0659
    3TMC2     C13850   2.768   4.264  15.104  0.7347 -0.1645 -0.1628
    3TMC2     O13851   2.833   4.165  15.077  0.0402 -0.3682  0.9061
    3TMC2     H13852   2.596   4.475  15.083 -0.4729 -1.2211 -1.1477
    3TMC2    H113853   2.949   4.297  14.917 -1.5891 -1.4702  1.4356
    3TMC2    H213854   2.831   4.696  14.810 -1.8379  0.4286 -0.4263
    3TMC2    C713855   2.993   4.495  14.734  0.6209 -0.5814 -0.8372
    3TMC2    C813856   2.619   4.702  14.964  0.5014 -0.0816 -0.5749
    3TMC2    O113857   2.996   4.608  14.686 -0.2524  0.2825  0.2259
    3TMC2    O213858   2.608   0.065  14.879  0.4591 -0.3732  0.2021
    3TMC2    O513859   2.625   0.009  15.097 -0.5025 -0.0584  0.2126
    3TMC2    H513860   2.667   4.663  15.154 -1.3581 -1.0235 -0.3009
    4MPD2     C13861   2.492   4.607  13.449  0.2599 -0.7682  0.1228
    4MPD2    C113862   2.596   4.684  13.405  0.4346  1.0642 -0.7461
    4MPD2    C213863   2.716   4.676  13.477  0.5882  0.1441 -0.0038
    4MPD2    C313864   2.730   4.593  13.587  0.3366 -0.2871  0.0511
    4MPD2    C413865   2.622   4.522  13.629  0.6163  0.8640 -0.0957
    4MPD2    C513866   2.504   4.522  13.556  0.8921  0.7029  0.7544
    4MPD2     H13867   2.796   0.023  13.452  1.0716 -0.4560 -0.0941
    4MPD2    H113868   2.609   4.461  13.718  2.3348 -1.7507 -1.6084
    4MPD2    H213869   2.397   4.613  13.397  0.1948 -1.1780  0.1938
    4MPD2    H313870   2.416   4.467  13.590  0.8557  0.1281 -0.2614
    4MPD2     N13871   2.847   4.589  13.663  0.0384 -0.3526 -0.0829
    4MPD2    H513872   2.930   4.639  13.632 -0.8739  0.4751 -1.2072
    4MPD2    N113873   2.571   0.062  13.305  0.3412  0.3613  0.4872
    4MPD2    H713874   2.485   0.053  13.251  0.9299 -0.2209 -0.3434
    5TCq2    C113875   2.862   4.536  13.791  0.4288 -0.5204  0.3458
    5TCq2    O213876   2.778   4.492  13.869 -0.4528  0.1709  0.4177
    5TCq2    C213877   2.994   4.558  13.847 -0.6194  0.6766  0.2623
    5TCq2    C313878   3.102   4.574  13.763  0.7998 -0.4299  0.1768
    5TCq2    C413879   3.221   4.569  13.831  0.4371  0.2599 -0.3629
    5TCq2    C513880   3.236   4.548  13.961 -0.4869  0.8829  1.2130
    5TCq2    C613881   3.120   4.547  14.040 -0.7142  0.5357 -0.2485
    5TCq2    C713882   3.003   4.558  13.984 -0.3529 -0.5092  0.4848
    5TCq2    C813883   3.129   4.531  14.181 -0.4168  0.0410  0.2020
    5TCq2    O413884   3.028   4.554  14.243 -0.4977  0.3994 -0.4109
    5TCq2    C913885   3.345   4.591  13.755  0.1314  0.1869  0.5981
    5TCq2    O513886   3.339   4.569  13.632  0.0556  0.1794 -0.5234
    5TCq2    O613887   3.451   4.597  13.822 -0.2271 -0.3968 -0.0501
    5TCq2    H213888   3.095   4.586  13.656  1.4242 -0.7178  0.1058
    5TCq2    H313889   3.333   4.566  14.006 -0.0639  1.4632  0.0734
    5TCq2    H413890   2.911   4.551  14.042 -0.9552 -0.5105 -0.4664
    6MPD1     C13891   2.007   1.855  12.574 -0.1129  0.4213  0.3754
    6MPD1    C113892   2.102   1.853  12.674 -0.6403 -0.2885 -0.0818
    6MPD1    C213893   2.161   1.738  12.718  0.3832 -0.5325  0.4255
    6MPD1    C313894   2.119   1.613  12.674 -0.9715  0.6147  0.4484
    6MPD1    C413895   2.025   1.613  12.576  0.3787  0.6552  0.0139
    6MPD1    C513896   1.976   1.731  12.522 -0.8172  0.4998 -0.0571
    6MPD1     H13897   2.243   1.742  12.788  0.0952  0.4852  0.7125
    6MPD1    H113898   1.986   1.520  12.537  1.1350  0.7338 -0.9494
    6MPD1    H213899   1.967   1.947  12.533 -2.5122  0.2772  2.4062
    6MPD1    H313900   1.911   1.724  12.436 -1.3449  2.3392  0.2089
    6MPD1     N13901   2.172   1.490  12.723 -0.2598 -0.0648 -0.6557
    6MPD1    H513902   2.172   1.409  12.662 -0.8028 -1.4605  1.1973
    6MPD1    N113903   2.161   1.977  12.698 -0.3461  0.5014 -0.5887
    6MPD1    H613904   2.107   2.061  12.675 -0.9723  0.7370  1.6947
    6MPD1    H713905   2.191   1.983  12.795  0.2379 -3.4070 -0.5360
    7MPD2     C13906   2.251   0.888  13.351  0.5297 -0.0906  0.8079
    7MPD2    C113907   2.240   0.847  13.220 -0.5000  0.1379  0.1971
    7MPD2    C213908   2.255   0.715  13.191  0.2674  0.1309 -0.1545
    7MPD2    C313909   2.289   0.618  13.282 -0.0130 -0.9878 -0.1667
    7MPD2    C413910   2.284   0.658  13.418  0.8359  0.8196 -0.4759
    7MPD2    C513911   2.273   0.790  13.451  0.8698 -0.3283 -0.8371
    7MPD2     H13912   2.242   0.697  13.084  0.2811  2.0710 -0.4713
    7MPD2    H113913   2.319   0.592  13.496 -0.0291 -0.9694 -1.6046
    7MPD2    H213914   2.239   0.989  13.390 -1.4054  0.1187 -0.3231
    7MPD2    H313915   2.282   0.822  13.554  0.6654 -1.2042 -0.5459
    7MPD2     N13916   2.311   0.483  13.244  0.6750 -0.2927 -0.2231
    7MPD2    H513917   2.335   0.418  13.318 -1.7702  0.7617  1.5111
    7MPD2    N113918   2.219   0.933  13.110 -0.3507 -0.3909  0.0794
    7MPD2    H713919   2.209   0.893  13.017 -1.7517  0.7110 -0.2451
    8TMC3    C113920   2.364   0.314  13.084 -0.5163  0.1527  0.3143
    8TMC3    C213921   2.449   0.263  13.181 -0.0809  0.1050 -0.6670
    8TMC3    C313922   2.578   0.230  13.154  0.4943  0.0426  0.7046
    8TMC3    C413923   2.418   0.327  12.958  0.0095  0.4886  0.2948
    8TMC3    C513924   2.556   0.328  12.941  0.1178 -0.1466 -0.1677
    8TMC3    C613925   2.635   0.273  13.038  0.7468 -0.8218  0.2022
    8TMC3     C13926   2.284   0.434  13.115 -0.1433 -0.3299  0.3882
    8TMC3     O13927   2.241   0.491  13.018 -0.7937 -0.5209  0.3258
    8TMC3     H13928   2.414   0.244  13.282 -0.6980  0.7713 -0.7554
    8TMC3    H113929   2.365   0.365  12.872  1.0746  0.2960 -0.4487
    8TMC3    H213930   2.741   0.273  13.014  1.0853  0.3325  1.7287
    8TMC3    C713931   2.599   0.457  12.885  0.3397  0.7197 -0.0712
    8TMC3    C813932   2.655   0.157  13.258 -0.2754 -0.1922  0.1012
    8TMC3    O113933   2.661   0.536  12.950 -1.2628 -0.7046  0.1118
    8TMC3    O213934   2.772   0.184  13.283  0.1813  0.5235  0.6163
    9TMC3    C113935   2.257   1.325  12.867 -0.4980 -0.2356 -0.3411
    9TMC3    C213936   2.310   1.255  12.764  0.0433  0.2586  0.5262
    9TMC3    C313937   2.321   1.120  12.780 -0.1100 -0.0325 -0.0768
    9TMC3    C413938   2.221   1.270  12.987 -0.4541 -0.6355  0.2188
    9TMC3    C513939   2.221   1.132  12.988 -0.2387 -0.2606 -0.4917
    9TMC3    C613940   2.281   1.055  12.892 -0.1820 -0.2369  0.5941
    9TMC3     C13941   2.215   1.465  12.850 -0.1779 -0.2399  0.6084
    9TMC3     O13942   2.211   1.537  12.946  0.3873  0.5412  0.3071
    9TMC3     H13943   2.328   1.306  12.669  2.0021 -1.3767  0.0261
    9TMC3    H113944   2.184   1.322  13.074 -1.4777  1.1268 -1.2775
    9TMC3    H213945   2.277   0.947  12.883 -0.2344 -0.2673  0.9726
    9TMC3    C713946   2.199   1.073  13.123 -0.1382  0.5841  0.2966
    9TMC3    C813947   2.403   1.051  12.681 -0.5652 -0.2589 -0.1451
    9TMC3    O113948   2.203   1.151  13.216  0.0038  0.0369 -0.4278
    9TMC3    O213949   2.385   1.078  12.565  0.2608  0.2111 -0.1159
   10MPD2     C13950   2.550   0.588  12.545 -0.3218 -0.2699 -0.5170
   10MPD2    C113951   2.555   0.598  12.685 -0.0916  0.3736 -1.1062
   10MPD2    C213952   2.543   0.722  12.749 -0.2366 -0.5552 -0.0977
   10MPD2    C313953   2.510   0.829  12.671  0.0907 -0.2743 -0.0128
   10MPD2    C413954   2.507   0.819  12.535  0.0063 -0.3780 -0.5401
   10MPD2    C513955   2.532   0.695  12.471  0.2414 -0.2002  0.5272
   10MPD2     H13956   2.554   0.737  12.856  0.4954 -1.1486 -0.0880
   10MPD2    H113957   2.489   0.904  12.471 -1.2887 -0.5957 -0.4711
   10MPD2    H213958   2.548   0.496  12.487  0.8315 -1.6477  1.6160
   10MPD2    H313959   2.524   0.688  12.363 -1.4774  4.5480  0.3184
   10MPD2     N13960   2.457   0.939  12.735 -0.7395  0.2988  0.4516
   10MPD2    H513961   2.467   0.953  12.835  1.0753 -0.8539  0.4310
   10MPD2    N113962   2.562   0.475  12.756 -0.2125 -0.3071 -0.4204
   10MPD2    H713963   2.533   0.392  12.704 -1.0156 -1.3459  1.6915
   11MPD2     C13964   3.259   4.278  14.608  0.1343  0.2086 -0.5117
   11MPD2    C113965   3.166   4.376  14.597 -0.2955  0.0868  0.1415
   11MPD2    C213966   3.154   4.441  14.475 -0.2812  1.0423 -0.0741
   11MPD2    C313967   3.235   4.402  14.363  0.1492  0.2911  0.4362
   11MPD2    C413968   3.325   4.309  14.384 -0.3072  0.9409 -0.3412
   11MPD2    C513969   3.338   4.240  14.502  0.2131 -0.3232 -0.7473
   11MPD2     H13970   3.080   4.519  14.467 -1.9031 -0.3862  1.1854
   11MPD2    H113971   3.376   4.261  14.301  0.2726  2.9179 -1.1229
   11MPD2    H213972   3.274   4.225  14.702  1.5286  3.5020  1.1155
   11MPD2    H313973   3.404   4.154  14.510  1.0333  0.5609  1.9692
   11MPD2     N13974   3.231   4.453  14.229  0.1772 -0.4239 -0.6063
   11MPD2    H513975   3.303   4.428  14.163 -0.0640 -0.0313 -1.0214
   11MPD2    N113976   3.073   4.387  14.708  0.1701  0.5236 -0.7272
   11MPD2    H713977   3.070   4.311  14.776  2.2721 -0.7253 -2.0474
    1MPD1     C13978   2.444   0.534  17.645 -0.3435 -0.1468  0.0950
    1MPD1    C113979   2.539   0.566   0.049  0.6781  0.1005 -0.7101
    1MPD1    C213980   2.661   0.624   0.008 -0.2676 -0.1664  0.1731
    1MPD1    C313981   2.681   0.664  17.564 -0.1146 -0.0270  0.5118
    1MPD1    C413982   2.585   0.628  17.466 -0.4085  0.7858 -0.5758
    1MPD1    C513983   2.470   0.563  17.514  0.5493 -0.4484 -0.6146
    1MPD1     H13984   2.747   0.625   0.073 -0.7845  1.3795  0.8320
    1MPD1    H113985   2.593   0.650  17.360 -0.9907  3.3773 -0.0738
    1MPD1    H213986   2.353   0.480  17.670 -1.6189  2.7339  1.7136
    1MPD1    H313987   2.393   0.535  17.443  1.9296 -1.9451 -1.5080
    1MPD1     N13988   2.795   0.725  17.523 -0.6508  0.6459  0.0885
    1MPD1    H513989   2.800   0.750  17.425 -0.9071  0.6645  0.0794
    1MPD1    N113990   2.526   0.509   0.177  0.4386 -0.3829 -0.0936
    1MPD1    H613991   2.554   0.580   0.245 -2.8714 -0.8308  1.7155
    1MPD1    H713992   2.430   0.483   0.195  0.4548 -0.4578 -0.1147
    2MPD1     C13993   3.860   0.702  17.372 -0.2440 -0.1526  0.5609
    2MPD1    C113994   3.812   0.798  17.284 -0.2198 -0.2508 -0.0939
    2MPD1    C213995   3.678   0.827  17.281  0.5783 -0.5263  0.4929
    2MPD1    C313996   3.591   0.763  17.365  0.2239 -0.5057 -0.2421
    2MPD1    C413997   3.640   0.655  17.438 -0.4118  0.0545 -0.5382
    2MPD1    C513998   3.773   0.621  17.444 -0.0106  0.1210  0.3552
    2MPD1     H13999   3.652   0.899  17.204  0.2329 -0.3497  0.7761
    2MPD1    H114000   3.576   0.588  17.495 -0.9917  0.0060 -1.2363
    2MPD1    H214001   3.967   0.686  17.377 -0.3393 -0.6476  1.0815
    2MPD1    H314002   3.811   0.538  17.503 -4.7846 -1.9479  0.5774
    2MPD1     N14003   3.458   0.806  17.370 -0.1256  0.1607  0.0085
    2MPD1    H514004   3.425   0.882  17.311 -0.4358 -2.0309 -2.6349
    2MPD1    N114005   3.902   0.881  17.220  0.5644 -0.0305  0.6328
    2MPD1    H614006   3.998   0.850  17.216  0.9155  1.1442 -0.3136
    2MPD1    H714007   3.882   0.905  17.122  1.2922 -2.3722 -0.0760
    3TMC3    C114008   3.238   0.827  17.452 -0.0039 -0.1665  0.7153
    3TMC3    C214009   3.216   0.918  17.350  0.4432 -0.1848  0.3371
    3TMC3    C314010   3.088   0.960  17.344  0.2162  0.0405 -1.1305
    3TMC3    C414011   3.143   0.768  17.532 -0.2744  0.0832  0.2127
    3TMC3    C514012   3.016   0.805  17.511 -0.3368 -0.4313  0.0416
    3TMC3    C614013   2.986   0.895  17.409 -0.9403  0.0855  0.6614
    3TMC3     C14014   3.362   0.758  17.455 -0.5752  0.0787  0.3321
    3TMC3     O14015   3.371   0.659  17.529 -0.3138  0.3141  0.3995
    3TMC3     H14016   3.289   0.972  17.291  0.0425  2.3924  2.2100
    3TMC3    H114017   3.167   0.702  17.614  2.2702  0.5085 -0.1753
    3TMC3    H214018   2.889   0.941  17.395 -0.4577  0.8369 -0.2100
    3TMC3    C714019   2.913   0.741  17.592  0.2665  0.1534 -0.2449
    3TMC3    C814020   3.077   1.087  17.266  0.0725 -0.1712  0.7609
    3TMC3    O114021   2.948   0.699   0.013 -0.0838  0.0919  0.5939
    3TMC3    O214022   3.168   1.161  17.238 -0.2402 -0.0191 -0.1327
    4MPD1     C14023   2.813   1.363  16.911  0.1232 -0.3207 -0.4723
    4MPD1    C114024   2.729   1.269  16.967 -0.1224  0.6854 -0.5658
    4MPD1    C214025   2.786   1.190  17.074 -0.3633 -0.0495  0.4231
    4MPD1    C314026   2.916   1.200  17.119 -0.5524 -0.1576 -0.4263
    4MPD1    C414027   2.998   1.304  17.066  0.0959 -0.4628 -0.3334
    4MPD1    C514028   2.946   1.369  16.956 -1.0085 -0.3691  0.2126
    4MPD1     H14029   2.722   1.116  17.120 -0.2489 -0.9887 -0.9390
    4MPD1    H114030   3.100   1.325  17.097  0.9269 -3.3874 -1.0837
    4MPD1    H214031   2.804   1.422  16.820  1.6396  0.7197  0.0584
    4MPD1    H314032   3.017   1.435  16.908  0.1156 -0.8755  1.2014
    4MPD1     N14033   2.950   1.101  17.214  0.5648  0.3834  0.2913
    4MPD1    H514034   2.873   1.039  17.236  3.0424 -2.5969  0.6961
    4MPD1    N114035   2.592   1.254  16.947  0.5239 -0.0024  0.2685
    4MPD1    H614036   2.554   1.163  16.974 -1.3579  1.3254  2.1045
    4MPD1    H714037   2.548   1.269  16.856 -0.7271  0.4286  0.9456
    1TCq1    O114038   3.146   0.420  11.813 -0.0422 -0.6472 -0.3716
    1TCq1    C114039   3.113   0.473  11.935 -0.4006  0.2350  0.1404
    1TCq1    O214040   3.124   0.416  12.042  0.2488 -0.4283  0.2534
    1TCq1    C214041   3.060   0.610  11.919  0.5975 -0.7670  0.6211
    1TCq1    C314042   3.106   0.688  11.815 -0.0952 -0.2220  0.2142
    1TCq1    C414043   3.048   0.807  11.792 -0.3528 -0.4895  0.1029
    1TCq1    C514044   2.932   0.837  11.869 -0.6296 -1.1961  0.6106
    1TCq1    C614045   2.903   0.767  11.978  0.5463 -0.0683 -0.1811
    1TCq1    C714046   2.962   0.652  12.005 -0.1935  0.0418  0.4754
    1TCq1    C814047   2.788   0.808  12.059 -0.5766  0.1435 -0.3403
    1TCq1    O414048   2.758   0.757  12.165  0.0801 -0.4685  0.2451
    1TCq1    C914049   3.058   0.869  11.664 -0.6402 -0.0692  0.0835
    1TCq1    O514050   2.985   0.968  11.640 -0.4175  0.8246  0.3228
    1TCq1    O614051   3.148   0.827  11.580 -0.2118  0.2498  0.2900
    1TCq1    H114052   3.106   0.465  11.736  2.6289  0.7433 -0.9676
    1TCq1    H214053   3.158   0.646  11.730  1.9377 -1.9552  2.2985
    1TCq1    H314054   2.885   0.932  11.844 -1.0544 -1.9517 -1.4255
    1TCq1    H414055   2.932   0.586  12.086 -0.1276 -1.0270 -0.3822
    2MPD1     C14056   2.361   1.098  12.095  0.5018  0.1651  0.7216
    2MPD1    C114057   2.416   1.109  11.969 -0.3480  0.2437  0.3497
    2MPD1    C214058   2.530   1.041  11.936 -0.0948 -0.0493 -0.2634
    2MPD1    C314059   2.591   0.966  12.029 -0.1894 -0.2116 -0.5431
    2MPD1    C414060   2.536   0.950  12.152 -0.4341  0.0406  0.5970
    2MPD1    C514061   2.425   1.019  12.189  0.0004  0.2833 -0.0661
    2MPD1     H14062   2.565   1.034  11.833 -2.6911  2.3453 -1.3315
    2MPD1    H114063   2.577   0.890  12.233  0.1213 -0.8156 -0.3226
    2MPD1    H214064   2.269   1.147  12.123  0.0855 -0.0572 -0.2729
    2MPD1    H314065   2.381   1.006  12.287  1.5732 -0.9691  0.4662
    2MPD1     N14066   2.706   0.892  11.981 -0.4118  0.7435  0.1349
    2MPD1    H514067   2.724   0.907  11.882 -0.9601 -2.5198 -0.4588
    2MPD1    N114068   2.336   1.164  11.866 -0.5898  0.1688  0.4943
    2MPD1    H614069   2.274   1.239  11.897  0.2832  0.5448  1.3346
    2MPD1    H714070   2.376   1.180  11.774 -1.3178 -0.1519  0.1248
    1TCq1    O114071   4.721   4.230   0.672  0.6866  0.5305 -0.0862
    1TCq1    C114072   4.652   4.160   0.582 -0.1300  0.1157 -0.0097
    1TCq1    O214073   4.706   4.070   0.516  0.0720 -0.2114 -0.5038
    1TCq1    C214074   4.515   4.154   0.625 -0.3011 -0.2784 -1.0779
    1TCq1    C314075   4.452   4.243   0.709  0.1914  0.2551  0.6800
    1TCq1    C414076   4.326   4.221   0.752 -0.0726 -0.0118 -0.3635
    1TCq1    C514077   4.246   4.126   0.696 -0.4760 -0.0547 -0.1545
    1TCq1    C614078   4.313   4.035   0.618  1.2194  0.2050 -0.2442
    1TCq1    C714079   4.448   4.046   0.582 -0.2073  0.4969  0.3802
    1TCq1    C814080   4.246   3.937   0.546 -0.2234  0.1345  0.0549
    1TCq1    O414081   4.302   3.881   0.455  0.1015 -0.0713 -0.4089
    1TCq1    C914082   4.274   4.331   0.824 -0.1196 -0.5699  0.4191
    1TCq1    O514083   4.152   4.358   0.816  0.5577 -0.0242  0.2876
    1TCq1    O614084   4.354   4.404   0.894  0.0159  0.1265  0.5567
    1TCq1    H114085   4.679   4.267   0.752  1.4323  2.9482 -0.8100
    1TCq1    H214086   4.499   4.337   0.735 -1.4973  0.9042  1.4073
    1TCq1    H314087   4.137   4.129   0.702 -0.6439  0.2400 -3.0141
    1TCq1    H414088   4.498   3.975   0.518 -0.3143  0.5523  0.2336
    2MPD1     C14089   3.832   3.645   0.445  0.3761  1.1806  0.1211
    2MPD1    C114090   3.802   3.725   0.555  0.5679 -0.5102  0.5068
    2MPD1    C214091   3.892   3.816   0.601  0.1963 -0.2032  0.1754
    2MPD1    C314092   4.021   3.820   0.542 -0.2242 -0.0188  0.1968
    2MPD1    C414093   4.057   3.733   0.438 -0.3326 -0.5100 -0.7040
    2MPD1    C514094   3.962   3.644   0.398 -0.1037 -0.3825 -0.6760
    2MPD1     H14095   3.878   3.870   0.695 -1.2337 -0.7714  0.2902
    2MPD1    H114096   4.150   3.730   0.382  0.8051  0.8889  1.0742
    2MPD1    H214097   3.757   3.576   0.408  0.5649  0.2752  1.3937
    2MPD1    H314098   3.991   3.590   0.309  1.3504 -0.6851 -0.0164
    2MPD1     N14099   4.116   3.914   0.592 -1.0289 -0.4499 -0.9117
    2MPD1    H514100   4.091   3.958   0.680 -2.0694 -0.4582 -1.1937
    2MPD1    N114101   3.676   3.701   0.626 -0.3862  0.4670 -0.2318
    2MPD1    H614102   3.655   3.774   0.694 -2.3894  0.7020 -1.0958
    2MPD1    H714103   3.602   3.679   0.559  2.6880 -2.9549 -2.5234
    1MPD1     C14104   4.657   4.602  12.387  0.3478  1.0664  0.0290
    1MPD1    C114105   4.574   4.606  12.493 -0.4732 -0.2054  0.1112
    1MPD1    C214106   4.512   0.008  12.519 -0.4468  0.0071  0.2757
    1MPD1    C314107   4.543   0.117  12.436  0.4460  0.3492 -0.3094
    1MPD1    C414108   4.637   0.113  12.338  0.0785  0.6924  0.0385
    1MPD1    C514109   4.681   4.711  12.300 -0.5780  0.1986  0.1130
    1MPD1     H14110   4.436   0.027  12.595  2.8512  1.6545  3.1690
    1MPD1    H114111   4.656   0.192  12.267 -0.6667  2.3056  1.6266
    1MPD1    H214112   4.694   4.502  12.367 -1.1123  0.5165  0.1127
    1MPD1    H314113   0.018   4.707  12.209 -1.8012  0.2030 -0.6605
    1MPD1     N14114   4.486   0.244  12.460 -0.7750  0.1643  1.1963
    1MPD1    H514115   4.417   0.246  12.535  0.7110 -0.7898  2.5756
    1MPD1    N114116   4.533   4.494  12.561 -0.1755  0.6947  0.7147
    1MPD1    H614117   4.587   4.408  12.562  1.1027  1.4972  0.5871
    1MPD1    H714118   4.507   4.516  12.657 -0.3684  1.0547  0.5792
    2MPD1     C14119   0.137   2.705  11.981  0.2764 -0.7431 -0.4428
    2MPD1    C114120   0.214   2.721  11.865  0.5062  0.2078 -0.3033
    2MPD1    C214121   0.208   2.621  11.770 -0.1138  0.2701 -0.8797
    2MPD1    C314122   0.118   2.517  11.790  0.5386  0.5196  0.0283
    2MPD1    C414123   0.044   2.505  11.905 -0.2607  0.1885 -0.4187
    2MPD1    C514124   0.052   2.608  11.996 -0.2418  0.5430 -0.1263
    2MPD1     H14125   0.266   2.616  11.678  2.3680  1.0986  0.6409
    2MPD1    H114126   4.698   2.428  11.939  0.8131 -0.2166  0.7658
    2MPD1    H214127   0.145   2.776  12.063 -1.4056 -1.8085  0.6517
    2MPD1    H314128   4.708   2.608  12.083  0.2185 -1.4988  0.2210
    2MPD1     N14129   0.104   2.407  11.700 -0.3202  0.4126 -0.5114
    2MPD1    H514130   0.039   2.340  11.739  1.2155  0.9326  2.9124
    2MPD1    N114131   0.300   2.829  11.851  0.3155  0.0551 -0.3072
    2MPD1    H614132   0.303   2.881  11.938  2.1252  0.6531 -0.7302
    2MPD1    H714133   0.390   2.816  11.805  1.2486  1.1927  1.1987
    3MPD1     C14134   4.651   2.164  10.659  0.2135  0.3742  0.6601
    3MPD1    C114135   4.625   2.049  10.730  0.2482  0.0087 -0.9021
    3MPD1    C214136   4.670   2.039  10.864 -1.0107 -0.3728 -0.5755
    3MPD1    C314137   4.717   2.150  10.929 -0.0454 -0.2097  0.5207
    3MPD1    C414138   0.009   2.271  10.856  0.2020  0.1331  0.2208
    3MPD1    C514139   4.716   2.265  10.719  0.4445 -0.5916 -0.2576
    3MPD1     H14140   4.660   1.944  10.915 -2.3077 -0.1454 -0.4184
    3MPD1    H114141   0.041   2.360  10.909  2.4309  0.1321 -1.1429
    3MPD1    H214142   4.621   2.176  10.556  2.7897 -0.5493 -0.1978
    3MPD1    H314143   0.002   2.358  10.665 -0.8612 -1.8556 -2.6104
    3MPD1     N14144   0.032   2.133  11.067 -0.3733  0.0728  0.1266
    3MPD1    H514145   0.010   2.043  11.109 -0.3466 -0.1784 -0.3898
    3MPD1    N114146   4.575   1.934  10.670 -0.1700  0.7469  0.5406
    3MPD1    H614147   4.507   1.887  10.730  0.3663  0.4648  0.9295
    3MPD1    H714148   4.518   1.966  10.592  0.2457  1.2664  0.4467
    4MPD2     C14149   4.011   0.673  12.145 -0.1815 -0.4144 -0.1894
    4MPD2    C114150   4.139   0.721  12.172  0.5709  0.5717 -0.4555
    4MPD2    C214151   4.201   0.816  12.088  0.0239 -0.0134 -0.0285
    4MPD2    C314152   4.137   0.846  11.969  0.1065  0.0297  0.0360
    4MPD2    C414153   4.018   0.790  11.937 -0.9795 -0.4951 -0.0714
    4MPD2    C514154   3.947   0.721  12.033 -0.0661 -0.6757  0.1237
    4MPD2     H14155   4.292   0.866  12.118  0.5343 -0.9765  0.0538
    4MPD2    H114156   3.970   0.814  11.843 -3.8779 -0.1363  1.4850
    4MPD2    H214157   3.950   0.613  12.210 -0.2270 -1.9617 -1.6608
    4MPD2    H314158   3.843   0.696  12.021 -0.3374  0.3003  0.4360
    4MPD2     N14159   4.196   0.939  11.884  0.0331  0.5157 -0.0237
    4MPD2    H514160   4.149   0.982  11.805 -0.7779  0.5312  0.4703
    4MPD2    N114161   4.205   0.697  12.292 -0.0345 -0.2810  0.1476
    4MPD2    H714162   4.285   0.758  12.306 -1.1933  1.4980 -1.0307
    5TMC3    C114163   4.270   0.585  12.479  0.7473 -0.1021  0.5268
    5TMC3    C214164   4.336   0.472  12.480 -0.0649  0.0344 -0.2340
    5TMC3    C314165   4.476   0.478  12.492  1.0126 -0.0757  0.1180
    5TMC3    C414166   4.340   0.704  12.499  0.3630  0.1742 -0.0229
    5TMC3    C514167   4.473   0.711  12.495  0.5352 -0.4732 -0.7813
    5TMC3    C614168   4.546   0.595  12.488 -0.3196 -0.5978  0.0657
    5TMC3     C14169   4.166   0.605  12.383 -0.3724 -0.3512 -1.0248
    5TMC3     O14170   4.067   0.532  12.377  0.2681 -0.3698 -0.1633
    5TMC3     H14171   4.281   0.380  12.461  1.3563 -1.2581  1.9235
    5TMC3    H114172   4.285   0.797  12.504 -0.0611 -0.2001  2.3674
    5TMC3    H214173   4.651   0.600  12.462 -1.1231 -1.3396 -3.2150
    5TMC3    C714174   4.511   0.820  12.412 -0.0332  0.0707 -0.7654
    5TMC3    C814175   4.539   0.368  12.425  0.7122 -0.2376 -1.3411
    5TMC3    O114176   4.421   0.872  12.349  0.0381  0.3350  0.1338
    5TMC3    O214177   4.652   0.383  12.378 -0.3055  0.6578  0.3972
    6TMC3    C114178   0.113   2.272  11.505 -0.2673 -0.9417  0.0023
    6TMC3    C214179   0.134   2.275  11.369  0.3993 -0.4780  0.5177
    6TMC3    C314180   0.080   2.182  11.290 -0.5292  0.1405  0.2950
    6TMC3    C414181   0.020   2.173  11.553 -0.2537  0.3408  0.5880
    6TMC3    C514182   4.681   2.089  11.462  0.4322 -0.2497  0.4958
    6TMC3    C614183   4.714   2.086  11.330  0.2324  0.2392  0.9672
    6TMC3     C14184   0.167   2.383  11.585  0.0304 -0.0595  0.6902
    6TMC3     O14185   0.245   2.455  11.522 -0.1061  0.4045  0.3662
    6TMC3     H14186   0.173   2.363  11.319 -1.4310  0.3450  0.5532
    6TMC3    H114187   4.716   2.164  11.658 -1.8040 -1.5895  0.0557
    6TMC3    H214188   4.651   2.028  11.263  0.3920 -1.8187  2.5940
    6TMC3    C714189   4.603   1.972  11.514  0.2805  0.0907 -0.0256
    6TMC3    C814190   0.073   2.231  11.152  0.0427 -0.0552  0.3861
    6TMC3    O114191   4.603   1.876  11.440  0.3274 -0.4995  0.0914
    6TMC3    O214192   0.080   2.349  11.129  0.4779 -0.1203  0.1158
    7MPD2     C14193   0.130   1.080  12.146 -0.5669 -0.3580 -0.4997
    7MPD2    C114194   0.002   1.042  12.108 -0.1390 -0.0941  0.5180
    7MPD2    C214195   4.653   0.964  12.201 -0.0233  0.1077  0.2914
    7MPD2    C314196   4.716   0.909  12.308 -0.0426  0.4144  0.8552
    7MPD2    C414197   0.128   0.924  12.328 -1.1723 -0.4109 -0.3908
    7MPD2    C514198   0.188   1.013  12.249  0.1573  0.6889  0.2749
    7MPD2     H14199   4.552   0.937  12.170 -0.8006  1.7935  1.3065
    7MPD2    H114200   0.187   0.889  12.411  0.9144 -1.5646 -2.3430
    7MPD2    H214201   0.189   1.148  12.087  3.7005 -1.2166  2.7832
    7MPD2    H314202   0.294   1.030  12.257  0.3294  0.5775 -1.7398
    7MPD2     N14203   4.647   0.833  12.400 -0.3111  0.5119  0.2954
    7MPD2    H514204   4.699   0.795  12.478 -0.9579 -0.9984  0.0030
    7MPD2    N114205   4.652   1.079  11.997 -0.8202 -0.5688  0.6499
    7MPD2    H714206   4.562   1.034  11.981 -0.2840 -1.0417 -1.0385
    8TMC3    C114207   4.585   1.176  11.802  0.3775 -0.1446  0.5840
    8TMC3    C214208   4.521   1.301  11.801  0.4491 -0.0653  0.1337
    8TMC3    C314209   4.390   1.310  11.782 -0.6258  0.5870 -1.1714
    8TMC3    C414210   4.504   1.065  11.796  0.0606 -0.2013 -0.5137
    8TMC3    C514211   4.369   1.070  11.792 -0.2431 -0.1226 -0.0399
    8TMC3    C614212   4.310   1.193  11.789  0.6742  0.1039 -0.1626
    8TMC3     C14213   4.694   1.168  11.902  0.0892  0.2600  0.2369
    8TMC3     O14214   0.053   1.257  11.925  0.7451 -0.2937 -0.0140
    8TMC3     H14215   4.587   1.387  11.806  0.0412  0.3122 -1.1196
    8TMC3    H114216   4.554   0.970  11.785  1.6713  0.3837  1.7565
    8TMC3    H214217   4.208   1.196  11.754  0.5478 -0.3317  0.1621
    8TMC3    C714218   4.325   0.983  11.895 -0.0749 -0.3132 -0.8350
    8TMC3    C814219   4.315   1.430  11.775 -0.3732  1.2774  0.4589
    8TMC3    O114220   4.424   0.938  11.958 -0.3889  0.0182  0.1814
    8TMC3    O214221   4.198   1.430  11.819  0.0536  0.3756  0.5427
    9MPD2     C14222   4.302   1.709  11.842 -1.0728 -0.0605 -0.1601
    9MPD2    C114223   4.373   1.669  11.731  1.1431 -0.1525  0.0926
    9MPD2    C214224   4.438   1.763  11.655 -0.0832 -0.4922 -0.5617
    9MPD2    C314225   4.446   1.899  11.690  0.2363  0.2289  0.8687
    9MPD2    C414226   4.372   1.939  11.800  0.1433  0.3827  0.1375
    9MPD2    C514227   4.304   1.842  11.878 -0.1412  0.2546  0.4227
    9MPD2     H14228   4.499   1.738  11.569  0.9413 -0.7660  0.2489
    9MPD2    H114229   4.379   2.034  11.851  1.4303 -0.0948  0.8416
    9MPD2    H214230   4.256   1.642  11.914 -1.8633  0.0680 -0.5479
    9MPD2    H314231   4.275   1.861  11.981  0.2009  1.2285  0.3352
    9MPD2     N14232   4.534   1.994  11.631 -0.1003  0.1866 -0.1960
    9MPD2    H514233   4.537   2.086  11.675  0.6666 -0.5762  1.3209
    9MPD2    N114234   4.387   1.531  11.702  0.2612  0.4761 -0.1764
    9MPD2    H714235   4.467   1.503  11.646  0.5267  0.4622  0.2071
    1MPD1     C14236   2.692   0.508  16.414 -0.8145  0.3406 -0.6045
    1MPD1    C114237   2.821   0.534  16.349  0.3557 -0.1176 -0.7374
    1MPD1    C214238   2.930   0.465  16.391  0.0428  0.2396 -0.9231
    1MPD1    C314239   2.914   0.356  16.479  0.0559 -0.2298 -0.3976
    1MPD1    C414240   2.795   0.335  16.540  0.1174 -0.1077  0.6024
    1MPD1    C514241   2.679   0.408  16.506 -0.3526 -0.0511 -0.4085
    1MPD1     H14242   3.033   0.490  16.372 -0.1397  1.7322  0.0201
    1MPD1    H114243   2.795   0.259  16.618  1.5528 -0.5614  0.1707
    1MPD1    H214244   2.608   0.571  16.388 -0.5664  0.7007 -0.5420
    1MPD1    H314245   2.587   0.372  16.550 -0.5056 -1.3503 -1.7945
    1MPD1     N14246   3.017   0.271  16.521  0.1611  0.0794  0.0140
    1MPD1    H514247   2.997   0.196  16.587  0.4896 -1.4590 -1.6438
    1MPD1    N114248   2.840   0.648  16.280 -0.2654  0.2989 -0.1318
    1MPD1    H614249   2.764   0.677  16.218  2.1899 -1.4460 -3.9350
    1MPD1    H714250   2.924   0.646  16.223  0.0304 -1.2322  0.3492
    2MPD1     C14251   3.977   0.218  16.267 -0.3133  0.4339  0.7435
    2MPD1    C114252   3.908   0.331  16.292  0.6671  0.6764  0.1757
    2MPD1    C214253   3.793   0.317  16.361 -0.0154 -0.1318  0.6733
    2MPD1    C314254   3.749   0.193  16.416  0.3078  0.9048  0.1478
    2MPD1    C414255   3.835   0.084  16.406  0.5976 -0.2174  1.2624
    2MPD1    C514256   3.945   0.095  16.323  0.5508  0.0764 -0.1024
    2MPD1     H14257   3.731   0.406  16.374  0.3577  0.3162 -0.5967
    2MPD1    H114258   3.821   4.705  16.444 -1.8300 -0.1503  0.5338
    2MPD1    H214259   4.051   0.223  16.187  0.6625 -0.8041  1.5621
    2MPD1    H314260   4.012   0.013  16.302  1.0368  0.2831  0.6088
    2MPD1     N14261   3.625   0.190  16.487 -0.4892  0.3095 -0.4540
    2MPD1    H514262   3.562   0.268  16.473 -0.5181  0.2885 -0.4399
    2MPD1    N114263   3.924   0.448  16.216  0.0641  0.4293 -0.4767
    2MPD1    H614264   4.022   0.467  16.195 -0.3116  0.8327 -1.8674
    2MPD1    H714265   3.872   0.524  16.260  1.3150  1.4521 -0.7674
    3TCq2    C114266   3.573   0.078  16.554 -0.7483 -0.8082 -0.0940
    3TCq2    O214267   3.617   4.684  16.568 -0.0850 -0.1102 -0.8480
    3TCq2    C214268   3.447   0.113  16.611 -0.7039 -0.1366  0.4330
    3TCq2    C314269   3.398   0.043  16.714 -0.6684 -0.5104  0.0365
    3TCq2    C414270   3.262   0.047  16.745 -0.5405  0.4883 -0.2302
    3TCq2    C514271   3.177   0.121  16.663  0.0380  0.1215 -0.8249
    3TCq2    C614272   3.233   0.200  16.568 -0.1666  0.3873 -0.8134
    3TCq2    C714273   3.370   0.205  16.538  0.3386 -0.4497  0.9044
    3TCq2    C814274   3.149   0.287  16.487 -0.3497  0.6623 -0.0468
    3TCq2    O414275   3.200   0.333  16.381 -0.0841  1.1184  0.3748
    3TCq2    C914276   3.205   4.690  16.854  0.2158 -0.2974  0.3161
    3TCq2    O514277   3.084   4.716  16.881  0.2961  0.4063 -0.2657
    3TCq2    O614278   3.286   4.627  16.929 -0.1253 -0.4049  0.3919
    3TCq2    H214279   3.455   4.698  16.778  0.5323  0.9762  0.5300
    3TCq2    H314280   3.071   0.115  16.687 -0.3002  3.2393 -1.5993
    3TCq2    H414281   3.403   0.263  16.453  0.1986  0.4991  1.4974
    1TCq1    O114282   1.723   3.438  13.609  0.0807  0.1241  0.1013
    1TCq1    C114283   1.776   3.551  13.570  0.5306 -0.0223 -0.1478
    1TCq1    O214284   1.827   3.643  13.634 -1.1595  0.2798  0.2453
    1TCq1    C214285   1.799   3.528  13.422  0.3417 -0.3480  0.5688
    1TCq1    C314286   1.693   3.490  13.351  0.1045 -0.0171  0.0115
    1TCq1    C414287   1.690   3.506  13.218 -0.5932  0.2107 -0.5094
    1TCq1    C514288   1.795   3.559  13.151 -0.2400 -0.1223  0.4476
    1TCq1    C614289   1.903   3.600  13.223 -0.0267  0.9399 -0.3257
    1TCq1    C714290   1.909   3.580  13.359 -0.3093  0.3706  0.1280
    1TCq1    C814291   2.013   3.658  13.149  0.3166 -0.0892 -0.0397
    1TCq1    O414292   1.982   3.715  13.045 -0.1810  0.6063  0.0899
    1TCq1    C914293   1.575   3.467  13.146  0.7650  0.1852  0.1532
    1TCq1    O514294   1.575   3.504  13.026  0.3774 -0.0706 -0.2086
    1TCq1    O614295   1.488   3.402  13.209 -0.0792  0.2147  0.2329
    1TCq1    H114296   1.694   3.372  13.543 -1.2308  0.5307  0.2786
    1TCq1    H214297   1.604   3.446  13.394 -1.0499 -0.2247 -2.5942
    1TCq1    H314298   1.787   3.551  13.043  2.8773 -0.2282  0.2482
    1TCq1    H414299   1.985   3.616  13.429 -0.1176  1.1096 -0.4621
    2MPD2     C14300   2.266   3.744  13.029  0.5551  0.2080 -0.1689
    2MPD2    C114301   2.260   3.668  13.144 -0.5158  0.5395 -0.8011
    2MPD2    C214302   2.376   3.628  13.202 -0.2071  0.5266 -0.3269
    2MPD2    C314303   2.501   3.670  13.160  0.1421 -0.7259  0.3466
    2MPD2    C414304   2.512   3.724  13.035 -0.0469  0.3279 -1.0629
    2MPD2    C514305   2.391   3.751  12.974  0.0945  0.1445 -0.4525
    2MPD2     H14306   2.359   3.570  13.293 -1.1945  0.5908 -0.4639
    2MPD2    H114307   2.606   3.746  12.986  0.4291 -1.4616 -0.9402
    2MPD2    H214308   2.185   3.785  12.970  0.3323 -0.0311 -0.0271
    2MPD2    H314309   2.384   3.790  12.873 -0.2914 -2.8686 -1.5768
    2MPD2     N14310   2.615   3.640  13.241 -0.0816  0.5551 -0.0706
    2MPD2    H514311   2.598   3.571  13.313  1.0634  1.8517  1.4431
    2MPD2    N114312   2.136   3.632  13.201  0.2353 -0.0215 -0.3587
    2MPD2    H714313   2.140   3.572  13.283 -0.5965 -0.8343 -0.9244
    3TCq1    O114314   3.247   3.523  13.291  0.0786 -0.0963  0.7771
    3TCq1    C114315   3.158   3.418  13.289  0.2986 -0.5867 -0.7577
    3TCq1    O214316   3.180   3.302  13.315 -0.2272 -0.2576 -0.2558
    3TCq1    C214317   3.035   3.483  13.340  1.0886 -0.2309 -0.4843
    3TCq1    C314318   2.985   3.432  13.458 -0.4301  0.1173  0.3393
    3TCq1    C414319   2.867   3.474  13.502  0.0364 -0.6167 -0.1540
    3TCq1    C514320   2.794   3.565  13.433  1.1242 -0.7394  0.3976
    3TCq1    C614321   2.839   3.614  13.313 -0.8886  0.4304 -0.0848
    3TCq1    C714322   2.967   3.584  13.273  0.0743 -0.5183 -0.3907
    3TCq1    C814323   2.746   3.664  13.211  0.2293  0.0564  0.1092
    3TCq1    O414324   2.793   3.725  13.116 -0.4411 -0.2352  0.1573
    3TCq1    C914325   2.812   3.410  13.617  0.5437 -1.0047 -0.2729
    3TCq1    O514326   2.860   3.296  13.649  0.3928  0.2447  0.2025
    3TCq1    O614327   2.744   3.483  13.696 -0.0225 -0.3894 -0.0457
    3TCq1    H114328   3.206   3.611  13.284  0.8631  0.0654 -1.6182
    3TCq1    H214329   3.029   3.348  13.511  1.2390  0.0179 -1.2080
    3TCq1    H314330   2.696   3.595  13.466  0.5216 -1.0807 -1.0892
    3TCq1    H414331   2.992   3.612  13.172 -0.5106 -0.0606 -0.4052
    1MPD2     C14332   1.337   4.425  15.117  0.1436  0.4583  0.5423
    1MPD2    C114333   1.334   4.307  15.046  0.1839  0.0282  0.7074
    1MPD2    C214334   1.451   4.248  15.006  0.1842  0.1299  0.0104
    1MPD2    C314335   1.577   4.295  15.047  0.4525 -0.9000 -0.4422
    1MPD2    C414336   1.580   4.405  15.130 -0.0638  0.8049 -0.4311
    1MPD2    C514337   1.459   4.465  15.172  0.2861  0.2046  0.2114
    1MPD2     H14338   1.452   4.159  14.943 -1.2299  2.5480 -3.3866
    1MPD2    H114339   1.672   4.454  15.157  0.3801  1.3765 -2.9231
    1MPD2    H214340   1.244   4.475  15.141 -1.7067 -2.3897 -0.7100
    1MPD2    H314341   1.466   4.553  15.234 -2.8657 -0.9588  2.2226
    1MPD2     N14342   1.701   4.242  15.006 -0.4881  0.2901 -0.4774
    1MPD2    H514343   1.783   4.284  15.049 -1.5799 -0.1432  2.0497
    1MPD2    N114344   1.208   4.268  14.998 -0.4436  0.6154 -0.3052
    1MPD2    H714345   1.136   4.331  15.031  0.2625  0.7843  0.8939
    2TMC3    C114346   1.058   4.179  14.839 -0.2488  0.2378 -0.4160
    2TMC3    C214347   1.055   4.065  14.760  0.0586  0.2200 -0.2343
    2TMC3    C314348   1.009   4.067  14.628 -0.3876 -0.8019 -0.7991
    2TMC3    C414349   1.021   4.303  14.789  0.1377  0.2315 -0.2983
    2TMC3    C514350   0.981   4.300  14.658 -0.3771 -0.2876  0.3716
    2TMC3    C614351   0.979   4.191  14.577  0.3746  0.9227  0.6046
    2TMC3     C14352   1.187   4.179  14.903 -0.5930  0.1812  0.2830
    2TMC3     O14353   1.264   4.101  14.851 -0.1085  0.3503  0.5866
    2TMC3     H14354   1.092   3.972  14.802 -1.4333  0.1604  0.9594
    2TMC3    H114355   1.033   4.397  14.841 -2.3653  0.7439 -0.6257
    2TMC3    H214356   0.952   4.200  14.472 -0.0973 -1.1300  0.5449
    2TMC3    C714357   0.938   4.416  14.595  0.6747 -0.4068  0.3337
    2TMC3    C814358   1.091   3.997  14.539  0.0634 -0.1821  0.4690
    2TMC3    O114359   0.860   4.400  14.502  0.6653  0.1770  0.1985
    2TMC3    O214360   1.061   3.980  14.423  0.0009 -0.2988  0.0718
    3TCq1    O114361   1.337   0.682  15.116  0.2376  0.4001 -0.7686
    3TCq1    C114362   1.270   0.692  14.998 -0.3000  0.1016  0.0743
    3TCq1    O214363   1.208   0.786  14.952  0.3273  0.2282  0.4530
    3TCq1    C214364   1.302   0.570  14.919  0.1680 -0.7113  0.2645
    3TCq1    C314365   1.436   0.521  14.923  0.3256 -0.0573  0.5166
    3TCq1    C414366   1.470   0.431  14.831  0.4161 -0.5068  0.1214
    3TCq1    C514367   1.383   0.390  14.735  0.3985  0.7249  0.0936
    3TCq1    C614368   1.261   0.451  14.723  0.2246  1.1543 -0.0933
    3TCq1    C714369   1.215   0.540  14.821 -0.7653 -0.1131  0.0874
    3TCq1    C814370   1.152   0.384  14.649  0.6231 -1.1057 -0.4905
    3TCq1    O414371   1.052   0.446  14.616  0.0010  0.4383  0.0849
    3TCq1    C914372   1.602   0.369  14.833 -0.7301 -0.1752 -0.6299
    3TCq1    O514373   1.682   0.409  14.925 -0.2017 -0.0664  0.7974
    3TCq1    O614374   1.605   0.259  14.776 -0.2845  0.2302 -0.1858
    3TCq1    H114375   1.353   0.589  15.144 -0.9981  0.4173 -0.0060
    3TCq1    H214376   1.498   0.557  15.003  1.2738  1.4222 -0.8950
    3TCq1    H314377   1.419   0.324  14.656  0.4591  1.7107 -0.7003
    3TCq1    H414378   1.110   0.555  14.843 -0.5837 -0.9747  1.5888
    4MPD2     C14379   0.976   0.198  14.512  0.0412 -1.0253 -0.0195
    4MPD2    C114380   1.080   0.161  14.599 -0.0056  1.0099  0.6954
    4MPD2    C214381   1.093   0.026  14.644  0.4081  0.7824 -0.7858
    4MPD2    C314382   1.005   4.654  14.588  0.1519  0.1868 -0.6080
    4MPD2    C414383   0.902   4.692  14.502 -0.2365  0.6425 -0.3133
    4MPD2    C514384   0.894   0.104  14.461 -0.4837  0.7179  0.4476
    4MPD2     H14385   1.181   4.718  14.700 -0.4763  1.8432  1.1614
    4MPD2    H114386   0.833   4.624  14.453  0.7142 -1.2915  1.0577
    4MPD2    H214387   0.963   0.299  14.474 -2.1806 -1.6481 -0.9073
    4MPD2    H314388   0.824   0.143  14.389  0.5528  1.0681 -0.3647
    4MPD2     N14389   1.009   4.524  14.639  0.1278 -0.4878  0.6274
    4MPD2    H514390   1.090   4.509  14.698 -0.7513 -0.2333  1.9221
    4MPD2    N114391   1.176   0.247  14.651 -0.1183  0.3972  0.0579
    4MPD2    H714392   1.253   0.208  14.703  1.1302  1.1885 -1.2061
    5TMC2    C114393   1.899   3.950  14.706 -0.4975  0.0684  0.1865
    5TMC2    C214394   1.955   3.872  14.801 -0.1481  0.1669  0.0198
    5TMC2    C314395   1.945   3.914  14.928  0.5632  0.9783  0.0961
    5TMC2    C414396   1.857   4.077  14.734 -0.4807  0.1956 -0.3124
    5TMC2    C514397   1.847   4.117  14.866  0.1848  0.9740 -0.6542
    5TMC2    C614398   1.894   4.033  14.962  0.2025 -0.4120  0.3183
    5TMC2     C14399   1.809   3.882  14.619  0.0427 -0.3523  0.2574
    5TMC2     O14400   1.857   3.791  14.554 -1.0585  0.7971  0.3119
    5TMC2     H14401   1.984   3.770  14.780 -3.4435 -0.2387 -2.4023
    5TMC2    H114402   1.833   4.137  14.647 -1.3811  0.4487  0.1003
    5TMC2    H214403   1.884   4.068  15.064  2.1685  0.2306  0.2855
    5TMC2    C714404   1.711   4.165  14.892  0.4466 -0.6037  0.2678
    5TMC2    C814405   2.003   3.825  15.024 -0.1323  0.4710 -0.2503
    5TMC2    O114406   1.632   4.135  14.803 -0.1193  0.3564 -0.0634
    5TMC2    O214407   1.973   3.838  15.142 -0.4980  0.7511  0.8431
    5TMC2    O514408   2.133   3.812  14.975 -0.6663  0.5049  0.1411
    5TMC2    H514409   2.147   3.852  14.886  1.1601  1.1825  0.7498
    6MPD2     C14410   1.339   3.856  14.425 -0.4713  0.4316  0.0550
    6MPD2    C114411   1.332   3.914  14.549  0.0979  0.8072  0.1801
    6MPD2    C214412   1.444   3.930  14.626  0.0384 -0.3118 -0.2942
    6MPD2    C314413   1.567   3.894  14.568  0.0004  0.5286 -0.0373
    6MPD2    C414414   1.576   3.834  14.441  0.2518 -0.0502  0.6336
    6MPD2    C514415   1.457   3.815  14.369 -0.2306  0.4816 -0.2157
    6MPD2     H14416   1.441   3.959  14.731 -0.9379  0.5146 -0.5414
    6MPD2    H114417   1.669   3.807  14.392  0.8081  0.9423  1.1566
    6MPD2    H214418   1.253   3.844  14.360  0.6219  0.2345 -1.3698
    6MPD2    H314419   1.453   3.763  14.274 -0.0024  0.5494 -0.2622
    6MPD2     N14420   1.685   3.931  14.639  0.5266 -0.2227 -0.5130
    6MPD2    H514421   1.674   3.990  14.721  0.5686  0.4631 -0.9980
    6MPD2    N114422   1.211   3.966  14.605 -0.1640 -0.1784 -0.3254
    6MPD2    H714423   1.223   4.022  14.689  2.0392  0.4056 -1.0232
  945NH3     N114424   3.889   4.596  14.980 -0.0021  0.0115  0.8082
  945NH3     H214425   3.985   4.620  14.958 -0.5702  3.1720  1.8252
  945NH3     H314426   3.844   4.625  14.894  1.0461  1.9789  0.9337
  945NH3     H414427   3.870   4.665  15.052  0.6941 -0.4770  1.4551
  946SOD     NA14428   1.434   3.738  15.304  0.4852 -0.3357  0.1426
  947SOD     NA14429   0.391   3.153  11.365 -0.3650 -0.2778 -0.1864
  948SOD     NA14430   3.886   4.386  15.060 -0.0037 -0.1700  0.2958
  949SOD     NA14431   4.408   3.214   0.731 -0.0791  0.2082 -0.3653
  950SOD     NA14432   3.179   0.781  11.374  0.1572  0.8405 -0.4409
  951SOD     NA14433   2.025   2.992   1.605 -0.1519  0.4589  0.4312
  952SOD     NA14434   4.318   2.974  11.919  0.0334  0.0200  0.4349
  953SOD     NA14435   2.216   3.300  10.324 -0.0052 -0.3150  0.1668
  954SOD     NA14436   4.050   3.427   8.983  0.1820 -0.2726  0.2944
  955SOD     NA14437   2.898   3.140  15.155 -0.1616 -0.4989  0.2869
  956SOD     NA14438   3.710   2.441   0.379 -0.0730  0.0212  0.2555
  957SOD     NA14439   1.475   3.682  12.966  0.2533  0.3269 -0.0714
  958SOD     NA14440   2.155   3.538  10.157 -0.2696  0.7062  0.5343
  959SOD     NA14441   3.348   4.442  13.461  0.0541  0.0570  0.0031
  960SOD     NA14442   4.493   4.299  13.231  0.2235 -0.2671  0.1454
  961SOD     NA14443   4.588   1.952   3.601 -0.0689  0.2725  0.0464
  962SOD     NA14444   4.263   2.202  13.235  0.4321 -0.1690 -0.0788
  963SOD     NA14445   4.105   4.509   0.672  0.0862  0.3786 -0.0341
  964SOD     NA14446   1.513   3.128  10.321  0.0480 -0.8766 -0.0907
  965SOD     NA14447   3.390   0.061   7.753 -0.4000 -0.2552 -0.0392
  966SOD     NA14448   3.671   3.803  15.016 -0.2022 -0.4016  0.3474
  967SOD     NA14449   2.642   2.645   1.200  0.1184 -0.4005 -0.0485
  968SOD     NA14450   3.245   3.741  11.452 -0.4352  0.5938 -0.1854
  969SOD     NA14451   2.593   3.876  12.018 -0.9872  0.1052 -0.0865
  970SOD     NA14452   1.267   0.388  10.760  0.1903  0.0843  0.6090
  971SOD     NA14453   1.626   3.388  12.859 -0.4381 -0.2824 -0.0890
  972SOD     NA14454   1.803   0.644   9.292  0.0479 -0.4786 -0.4375
  973SOD     NA14455   1.157   3.714   8.623 -0.2055  0.1107  0.0439
  974SOD     NA14456   1.757   0.301  15.080 -0.2423 -0.2090 -0.1517
  975SOD     NA14457   1.301   3.089  10.655  0.0259  0.1484 -0.3144
  976SOD     NA14458   1.742   0.698  10.173 -0.0187  0.2674 -0.3088
  977SOD     NA14459   2.230   2.915  11.146  0.0246  0.1743 -0.1631
  978SOD     NA14460   0.432   1.478   0.800  0.3811 -0.1097  0.0551
  979SOD     NA14461   2.946   3.340  13.850  0.0734  0.0892  0.3505
  980SOD     NA14462   4.320   3.949   0.004 -0.7329  0.4847  0.0403
  981SOD     NA14463   1.733   4.319  10.564  0.4080 -0.4185 -0.0808
  982SOD     NA14464   3.793   1.026   2.960 -0.1692 -0.3903 -0.0243
  983SOD     NA14465   2.846   2.177   5.128  0.0467  0.0507  0.0097
  984SOD     NA14466   3.447   4.478  11.309  0.5485  0.1617 -0.1214
  985SOD     NA14467   1.416   2.946  10.046 -0.0556  0.0569  0.2850
  986SOD     NA14468   3.554   2.937  14.300 -0.0220  0.7368  0.1342
  987SOD     NA14469   1.128   0.532   1.757 -0.2641 -0.0073 -0.2104
  988SOD     NA14470   1.803   2.118  10.621  0.0738 -0.0680 -0.1097
  989SOD     NA14471   0.650   2.202   2.321 -0.7108 -0.0194 -0.2989
  990SOD     NA14472   1.852   3.603  10.233 -0.2893 -0.2813  0.3991
  991SOD     NA14473   3.904   4.505  13.845  0.5082  0.0280  0.1518
  992SOD     NA14474   1.480   0.085  14.799 -0.0435 -0.2457 -0.4768
  993SOD     NA14475   2.609   2.843  12.516  0.3746  0.0354  0.1509
  994SOD     NA14476   1.630   0.139   1.024 -0.2139 -0.0742 -0.2546
  995SOD     NA14477   3.100   3.382  15.011  0.3915  0.8839 -0.1242
  996SOD     NA14478   3.689   0.415   3.225  0.0025 -0.2343  0.1384
  997SOD     NA14479   2.377   3.651  11.817 -0.0261 -0.2230 -0.0741
  998SOD     NA14480   0.002   3.187   0.207 -0.1974  0.4813  0.2947
  999SOD     NA14481   1.600   2.931  16.888  0.0451  0.5369 -0.1332
 1000SOD     NA14482   1.153   0.336   5.857 -0.0508 -0.0727 -0.0619
 1001SOD     NA14483   2.919   1.286   2.172 -0.3125 -0.1892  0.3797
 1002SOD     NA14484   2.830   3.543  14.959 -0.7049 -0.0117 -0.0259
 1003SOD     NA14485   0.602   1.454   0.447 -0.1073 -0.2364 -0.5442
 1004SOD     NA14486   1.030   2.138   9.433  0.0335  0.0930  0.2173
 1005SOD     NA14487   0.994   2.275  14.303 -0.3163  0.0172 -0.4384
 1006SOD     NA14488   1.735   2.326   9.172 -0.2006 -0.2969  0.4569
 1007SOD     NA14489   1.194   4.067   7.120  0.1798  0.0851 -0.0677
 1008SOD     NA14490   4.303   1.936  14.967  0.2146 -0.1596 -0.0322
 1009SOD     NA14491   3.882   0.823   0.823 -0.0767 -0.3673  0.0774
 1010SOD     NA14492   3.621   0.018  11.309 -0.1816 -0.1495  0.1586
 1011SOD     NA14493   4.407   3.272   0.388 -0.0317  0.4141  0.0944
 1012SOL     OW14494   0.584   2.052   5.296  0.2992  0.2613  0.1314
 1012SOL    HW114495   0.630   2.113   5.239 -0.0249  1.0959  0.7636
 1012SOL    HW214496   0.508   2.104   5.319 -0.7127 -1.1123 -0.0763
 1013SOL     OW14497   0.293   3.766   3.227  0.8678 -0.0693 -0.4237
 1013SOL    HW114498   0.270   3.853   3.197 -0.6116  0.0022  0.9149
 1013SOL    HW214499   0.279   3.717   3.146  0.4177 -1.1261  0.2896
 1014SOL     OW14500   0.922   4.119   8.419 -0.2414 -0.1772 -0.3074
 1014SOL    HW114501   0.847   4.138   8.362 -0.5435  0.9604  0.4521
 1014SOL    HW214502   0.888   4.151   8.502 -1.6566  0.3927 -1.1020
 1015SOL     OW14503   0.942   2.464   7.225 -0.1716  0.0107 -0.0438
 1015SOL    HW114504   0.869   2.526   7.227 -2.3514 -2.5571 -0.1361
 1015SOL    HW214505   0.947   2.436   7.133 -2.0992 -2.0027  0.4509
 1016SOL     OW14506   2.939   0.245   3.847  0.5400 -0.0612 -0.0641
 1016SOL    HW114507   2.912   0.292   3.925 -0.0313 -0.2434 -0.1520
 1016SOL    HW214508   2.896   0.162   3.869 -2.0632  0.6778 -2.3238
 1017SOL     OW14509   4.202   3.928   5.129  0.0664 -0.5410  0.5332
 1017SOL    HW114510   4.126   3.928   5.187  0.5535 -2.4564  1.1763
 1017SOL    HW214511   4.216   4.022   5.127  0.6722 -0.6240  0.9130
 1018SOL     OW14512   0.775   0.632   2.029 -0.0712 -0.0107  0.2736
 1018SOL    HW114513   0.733   0.683   2.099  0.6260 -0.5578  1.0996
 1018SOL    HW214514   0.857   0.608   2.072  0.3061 -1.3713 -1.2348
 1019SOL     OW14515   3.895   3.546   8.312 -0.1347 -0.4013 -0.3708
 1019SOL    HW114516   3.932   3.462   8.288 -0.2582 -0.5257 -0.1285
 1019SOL    HW214517   3.808   3.533   8.274  0.0060 -0.0189 -0.8258
 1020SOL     OW14518   4.690   1.772   7.082  0.5477  0.3867 -0.8809
 1020SOL    HW114519   0.036   1.836   7.064  0.4065  1.1221  1.2181
 1020SOL    HW214520   4.640   1.814   7.152 -1.2983  0.2246 -2.0971
 1021SOL     OW14521   3.618   2.585   4.789 -0.1934 -0.0314 -0.5277
 1021SOL    HW114522   3.657   2.506   4.827 -1.3066 -0.7936 -0.9625
 1021SOL    HW214523   3.650   2.655   4.845  0.8347 -0.6676 -0.3269
 1022SOL     OW14524   2.154   0.446  10.969  0.4196 -0.0105  0.2784
 1022SOL    HW114525   2.170   0.413  11.057  0.9966 -0.2816  0.0736
 1022SOL    HW214526   2.081   0.403  10.926  0.0780  0.3567  0.4961
 1023SOL     OW14527   1.613   2.509   3.095  0.0364  0.6108  0.5148
 1023SOL    HW114528   1.678   2.505   3.166  1.7583 -2.2798 -1.2365
 1023SOL    HW214529   1.545   2.452   3.131  0.8336 -2.0063 -2.1618
 1024SOL     OW14530   2.295   1.158   6.928  0.0381 -0.1553  0.3526
 1024SOL    HW114531   2.261   1.220   6.863  0.1430 -1.2713 -0.7543
 1024SOL    HW214532   2.384   1.194   6.931 -0.8718  2.1115 -0.1811
 1025SOL     OW14533   4.099   2.599   7.584 -0.4600  0.3415  0.5109
 1025SOL    HW114534   4.139   2.685   7.569  0.5357 -0.2036  0.0095
 1025SOL    HW214535   4.008   2.626   7.577 -0.4120 -0.1334 -2.1874
 1026SOL     OW14536   3.986   1.998   4.159  0.8668 -0.0959 -0.6818
 1026SOL    HW114537   4.008   2.090   4.176  0.0721  0.9817 -5.3156
 1026SOL    HW214538   4.045   1.955   4.221  1.4849  2.1121  0.2558
 1027SOL     OW14539   2.238   0.976   2.757  0.1198  0.2602 -0.1035
 1027SOL    HW114540   2.269   1.057   2.797 -1.4991  1.4363 -1.2097
 1027SOL    HW214541   2.240   0.907   2.823  1.5049 -0.1814 -0.6104
 1028SOL     OW14542   4.139   2.881   5.109 -0.1569  0.2233 -0.4703
 1028SOL    HW114543   4.207   2.917   5.051  1.2759  0.2274  1.2016
 1028SOL    HW214544   4.106   2.815   5.048  0.5962  1.5904 -2.3903
 1029SOL     OW14545   2.765   4.387   1.038  0.5633 -0.0076 -0.2874
 1029SOL    HW114546   2.848   4.408   1.080  1.8745  0.3989 -3.0664
 1029SOL    HW214547   2.777   4.322   0.968  1.7307 -1.5021  1.2735
 1030SOL     OW14548   1.440   2.007   5.183 -0.3064 -0.2942  0.1340
 1030SOL    HW114549   1.515   1.950   5.167  1.3335  1.5798  1.0357
 1030SOL    HW214550   1.449   2.028   5.276  0.9595  2.4436 -0.6019
 1031SOL     OW14551   1.350   4.562   5.834  0.1766  0.0376 -0.1709
 1031SOL    HW114552   1.426   4.604   5.793 -1.2794  2.3933 -0.4521
 1031SOL    HW214553   1.370   4.477   5.794  0.3953  0.2876 -0.5906
 1032SOL     OW14554   0.734   4.563  15.972 -0.1124  0.0852 -0.6093
 1032SOL    HW114555   0.709   4.628  16.037  0.9175  0.3167 -0.4407
 1032SOL    HW214556   0.756   4.491  16.030  0.0135  0.7204  0.1295
 1033SOL     OW14557   2.672   4.167   3.747 -0.1391  0.2917  0.0319
 1033SOL    HW114558   2.722   4.128   3.675 -3.4801 -1.6821 -1.1931
 1033SOL    HW214559   2.598   4.202   3.697  0.6247  0.8686 -0.7088
 1034SOL     OW14560   0.036   0.616   3.326 -0.0568  1.1107  0.6139
 1034SOL    HW114561   0.112   0.558   3.321  0.4038  1.6942  0.8403
 1034SOL    HW214562   0.054   0.692   3.271 -1.1668  1.2015  0.3944
 1035SOL     OW14563   0.237   2.542   7.847 -0.0168  0.1218  0.0278
 1035SOL    HW114564   0.294   2.607   7.806 -0.9803  1.9323  1.5522
 1035SOL    HW214565   0.154   2.585   7.824  0.6515  0.9995 -0.7605
 1036SOL     OW14566   0.610   3.012   6.948  0.2684 -0.0848  0.5695
 1036SOL    HW114567   0.533   2.989   7.001  0.5159 -0.6564  0.6820
 1036SOL    HW214568   0.608   3.106   6.962 -1.0683 -0.1947  1.1650
 1037SOL     OW14569   0.457   2.975   4.741  0.1261 -0.1038  0.3536
 1037SOL    HW114570   0.549   2.974   4.767  0.4299  2.0954 -0.6320
 1037SOL    HW214571   0.426   3.026   4.816  0.5558  0.0013  0.4622
 1038SOL     OW14572   0.409   1.560   0.564  0.0955 -0.1874 -0.0989
 1038SOL    HW114573   0.313   1.559   0.567  0.1116  0.8109  0.9415
 1038SOL    HW214574   0.425   1.649   0.534  3.2029 -0.7938 -0.2454
 1039SOL     OW14575   3.345   0.347  12.161 -0.4148 -0.6272 -0.1510
 1039SOL    HW114576   3.321   0.267  12.207  0.5232 -0.8838 -0.0955
 1039SOL    HW214577   3.259   0.381  12.136  1.3338  1.4711 -3.3657
 1040SOL     OW14578   1.595   1.998   7.685 -0.2032  0.4918 -0.1663
 1040SOL    HW114579   1.581   2.012   7.591  1.5510 -2.6210 -0.8963
 1040SOL    HW214580   1.538   2.060   7.731  0.3952  2.5387 -2.1571
 1041SOL     OW14581   4.569   0.004   4.278  0.0673 -0.2828  0.2537
 1041SOL    HW114582   4.487   4.703   4.234  0.3294 -1.6448  0.4458
 1041SOL    HW214583   4.539   4.713   4.369  2.5737 -1.5761  0.8860
 1042SOL     OW14584   0.328   3.392   6.264 -0.0750  0.3721 -0.4252
 1042SOL    HW114585   0.408   3.438   6.237  0.8640 -1.8824 -1.5488
 1042SOL    HW214586   0.266   3.425   6.199  1.4140  1.9135 -1.0754
 1043SOL     OW14587   1.572   2.481   6.989 -0.1646  0.4213  0.1065
 1043SOL    HW114588   1.576   2.389   7.016  1.1469  0.2802 -0.5645
 1043SOL    HW214589   1.548   2.517   7.074 -1.5134  1.5311 -0.7296
 1044SOL     OW14590   0.832   1.092  10.325 -0.3590 -0.0403  0.2117
 1044SOL    HW114591   0.757   1.040  10.353 -0.7337 -0.3558 -1.4019
 1044SOL    HW214592   0.894   1.070  10.395  1.0796  2.1861 -0.3513
 1045SOL     OW14593   3.233   0.198  13.390 -0.0240  0.0173 -0.1656
 1045SOL    HW114594   3.242   0.180  13.296  0.1214 -1.3622  0.1044
 1045SOL    HW214595   3.255   0.291  13.391  0.0993 -0.0296  0.8925
 1046SOL     OW14596   1.936   3.143  12.027 -0.1085  0.2966  0.8309
 1046SOL    HW114597   1.998   3.070  12.030  1.3000  1.4674  0.0258
 1046SOL    HW214598   1.931   3.154  11.932 -0.6547 -2.5255  0.5353
 1047SOL     OW14599   1.914   3.534   1.205  0.3313 -0.4646 -0.4103
 1047SOL    HW114600   1.919   3.557   1.298 -1.0708 -2.9487  0.2742
 1047SOL    HW214601   1.825   3.566   1.190  0.3734 -0.4829 -0.6944
 1048SOL     OW14602   1.629   2.829  10.579  0.2516 -0.3835 -0.5439
 1048SOL    HW114603   1.621   2.900  10.516  0.7978  0.3238  0.1815
 1048SOL    HW214604   1.562   2.854  10.643  0.3944 -1.3383 -0.0162
 1049SOL     OW14605   2.204   2.329  17.523  0.3473 -0.6098 -0.0339
 1049SOL    HW114606   2.271   2.355  17.586 -0.1148  3.1465 -1.0916
 1049SOL    HW214607   2.127   2.345  17.577  0.2656 -2.7441  0.4880
 1050SOL     OW14608   0.448   4.562  10.479 -0.0458 -0.1355 -0.0096
 1050SOL    HW114609   0.360   4.544  10.512  0.4901 -0.4013  1.2548
 1050SOL    HW214610   0.467   4.644  10.525  0.6423  0.9697 -2.2572
 1051SOL     OW14611   1.500   2.903   4.761 -0.1796 -0.0694  0.4315
 1051SOL    HW114612   1.457   2.989   4.762  0.7937  0.4271 -0.2695
 1051SOL    HW214613   1.422   2.849   4.755 -0.2722  0.2798 -1.5532
 1052SOL     OW14614   3.384   0.733  11.525  0.0262 -0.5505 -0.5571
 1052SOL    HW114615   3.312   0.776  11.571 -0.5400  1.5821 -3.3987
 1052SOL    HW214616   3.430   0.688  11.596 -0.1261  0.3702  0.1269
 1053SOL     OW14617   0.701   0.923   3.350 -0.0106 -0.2409  0.0361
 1053SOL    HW114618   0.760   0.848   3.341 -2.1565 -1.9956  0.6370
 1053SOL    HW214619   0.673   0.931   3.258 -1.5833  0.4039  0.5650
 1054SOL     OW14620   1.812   3.302   2.749 -0.5843  0.0224 -0.1688
 1054SOL    HW114621   1.805   3.232   2.685 -0.1314 -0.8202  0.7059
 1054SOL    HW214622   1.902   3.332   2.737 -0.0650 -1.8831 -0.9991
 1055SOL     OW14623   3.620   3.169   3.804  0.1583  0.2652 -0.1473
 1055SOL    HW114624   3.524   3.172   3.807  0.0569 -1.4971 -1.3809
 1055SOL    HW214625   3.633   3.105   3.734 -0.3449  0.2668 -0.2445
 1056SOL     OW14626   1.832   3.555  14.012 -0.1442 -0.1939  0.8131
 1056SOL    HW114627   1.839   3.645  14.046  0.2455 -0.9277  2.6802
 1056SOL    HW214628   1.738   3.540  14.008  0.0008 -0.7550 -0.5522
 1057SOL     OW14629   0.985   1.776   8.975 -0.1553 -0.4652 -0.1086
 1057SOL    HW114630   0.974   1.734   8.890  0.9869 -1.6861  0.3399
 1057SOL    HW214631   0.901   1.816   8.997 -0.0143  0.2680 -0.9513
 1058SOL     OW14632   3.381   0.356   7.010  0.1720 -0.1708  0.3989
 1058SOL    HW114633   3.435   0.435   7.015 -0.6014  0.4434 -1.0809
 1058SOL    HW214634   3.404   0.319   7.096  5.7145  3.2718  0.4415
 1059SOL     OW14635   4.656   1.340   7.198  0.4912  0.0504 -0.0515
 1059SOL    HW114636   4.702   1.420   7.175  1.2733 -0.6895 -1.0623
 1059SOL    HW214637   4.684   1.283   7.126 -1.2515 -0.4862 -0.3131
 1060SOL     OW14638   4.360   4.421   8.364 -0.0466 -0.6668 -0.4368
 1060SOL    HW114639   4.326   4.346   8.413  0.4672  0.2843  1.3767
 1060SOL    HW214640   4.419   4.468   8.423  0.8942 -2.0430 -0.2925
 1061SOL     OW14641   0.734   0.010   2.126  0.2444  0.1842 -0.4868
 1061SOL    HW114642   0.683   4.652   2.111 -0.5130  0.7264 -0.8353
 1061SOL    HW214643   0.715   0.010   2.220  0.0247  0.2240 -0.5315
 1062SOL     OW14644   0.916   0.621   6.219  0.0584  0.5008 -0.4960
 1062SOL    HW114645   0.930   0.687   6.151  0.3448 -1.1865 -2.0898
 1062SOL    HW214646   0.851   0.663   6.275  0.1618 -2.3310  1.7503
 1063SOL     OW14647   3.061   4.549   3.977  0.0799  0.3590  0.2788
 1063SOL    HW114648   2.991   4.604   4.013 -1.9648 -3.2904  1.9865
 1063SOL    HW214649   3.086   4.487   4.046  0.5436  1.3226  0.9773
 1064SOL     OW14650   1.335   0.129   5.840  0.1923  0.0183  0.2184
 1064SOL    HW114651   1.325   0.052   5.895  4.1974  0.2736  1.3082
 1064SOL    HW214652   1.388   0.105   5.764  0.2740 -0.1644  0.3334
 1065SOL     OW14653   2.511   3.682   9.048 -0.3103  0.0296 -0.8248
 1065SOL    HW114654   2.548   3.725   9.126 -1.3728  0.3994 -0.5199
 1065SOL    HW214655   2.550   3.598   9.071  0.5975  0.7606  0.3851
 1066SOL     OW14656   2.231   1.626   3.645 -0.1240  0.7911 -0.0714
 1066SOL    HW114657   2.241   1.549   3.588 -0.1953  0.5521  0.2350
 1066SOL    HW214658   2.271   1.691   3.588  1.0075  1.1737  1.1523
 1067SOL     OW14659   1.220   2.271   2.951 -0.2566 -0.0357  0.2388
 1067SOL    HW114660   1.215   2.320   3.033 -1.7039 -0.4121  0.3735
 1067SOL    HW214661   1.270   2.194   2.978  0.5129  0.6744  0.8279
 1068SOL     OW14662   1.122   1.087   9.617  0.2087 -0.5173 -0.5462
 1068SOL    HW114663   1.158   1.174   9.635  0.1237 -0.2867 -1.4956
 1068SOL    HW214664   1.156   1.032   9.688  1.1650 -1.0728 -1.4288
 1069SOL     OW14665   3.037   0.809   8.325  0.5293  0.2598  0.3827
 1069SOL    HW114666   3.067   0.739   8.384  0.5749 -0.6680 -0.7311
 1069SOL    HW214667   2.989   0.857   8.392 -1.0590  0.5596 -0.9583
 1070SOL     OW14668   1.392   1.845   8.844  0.3599  0.0972  0.2002
 1070SOL    HW114669   1.372   1.918   8.786 -2.2461 -1.6072 -1.0439
 1070SOL    HW214670   1.345   1.779   8.794 -1.1513  1.1645  0.1973
 1071SOL     OW14671   3.324   3.931  14.751 -0.5936  0.1341 -0.0098
 1071SOL    HW114672   3.382   3.958  14.822  0.6260 -0.9727 -0.5714
 1071SOL    HW214673   3.250   3.986  14.773 -1.2864  0.4763 -3.1935
 1072SOL     OW14674   1.397   2.925  12.935  0.2654  0.0509  0.3295
 1072SOL    HW114675   1.366   3.000  12.884 -1.2147  1.2560  3.0102
 1072SOL    HW214676   1.412   2.855  12.871 -1.2886  1.2915 -1.4169
 1073SOL     OW14677   4.459   2.088   4.287  0.5001  0.5513  0.6445
 1073SOL    HW114678   4.515   2.019   4.324 -0.2620  1.1532  2.8959
 1073SOL    HW214679   4.400   2.109   4.359  0.4236 -0.3769  0.8516
 1074SOL     OW14680   2.361   1.614   0.701 -0.3366 -0.3673 -0.1195
 1074SOL    HW114681   2.430   1.669   0.663  1.5174 -2.0359  0.7911
 1074SOL    HW214682   2.378   1.522   0.679 -1.9006 -0.7618  0.3376
 1075SOL     OW14683   0.324   1.753  10.971 -0.3014 -0.1166  0.3099
 1075SOL    HW114684   0.273   1.719  10.898 -0.9889 -0.3340  0.8864
 1075SOL    HW214685   0.349   1.843  10.948  0.9562 -1.1240 -2.1711
 1076SOL     OW14686   0.005   2.209   1.024 -0.3231  0.1905  0.1067
 1076SOL    HW114687   0.025   2.296   0.989  0.6984 -0.4913 -1.0059
 1076SOL    HW214688   0.048   2.204   1.109 -2.1742  2.3285  1.1334
 1077SOL     OW14689   0.267   0.143   5.839 -0.1746 -0.0524 -0.2150
 1077SOL    HW114690   0.350   0.175   5.875 -1.2563  0.2471  2.0419
 1077SOL    HW214691   0.222   0.150   5.924  1.8864  0.5493  0.8346
 1078SOL     OW14692   0.545   1.311   5.325 -1.2493  0.4969 -0.3529
 1078SOL    HW114693   0.503   1.339   5.406  0.6775 -0.7566  1.0843
 1078SOL    HW214694   0.507   1.370   5.260 -1.0594  2.0252  0.9209
 1079SOL     OW14695   3.879   1.141   6.847 -0.0700  0.3691 -0.3696
 1079SOL    HW114696   3.853   1.052   6.823 -1.3837  0.4915  0.5735
 1079SOL    HW214697   3.807   1.161   6.907 -0.4995  0.4115 -0.9034
 1080SOL     OW14698   3.517   1.454   5.180 -0.6598 -0.0505  0.1965
 1080SOL    HW114699   3.522   1.365   5.217 -1.6074 -0.6457 -1.1066
 1080SOL    HW214700   3.498   1.434   5.088  0.2951  0.5578 -0.1217
 1081SOL     OW14701   4.538   1.205   4.291  0.1122  0.7398  0.1944
 1081SOL    HW114702   4.593   1.199   4.369 -0.6761  0.3750  0.7265
 1081SOL    HW214703   4.588   1.136   4.247 -1.4977 -1.2784  1.4837
 1082SOL     OW14704   0.844   0.868   8.313 -0.2405 -0.5756 -0.2576
 1082SOL    HW114705   0.791   0.873   8.393 -2.9315 -1.0282 -2.0438
 1082SOL    HW214706   0.849   0.774   8.333 -2.9628 -0.5408  0.6006
 1083SOL     OW14707   3.026   0.415   6.184 -0.1186 -0.1875 -0.4262
 1083SOL    HW114708   2.974   0.447   6.111  1.5476 -3.2141 -2.9659
 1083SOL    HW214709   3.091   0.362   6.138  1.6049  1.6308 -0.0920
 1084SOL     OW14710   3.996   0.133   3.537 -0.1390 -1.1133 -0.5127
 1084SOL    HW114711   4.007   0.211   3.591  1.2744 -0.2990 -1.9614
 1084SOL    HW214712   4.087   0.105   3.542  1.4907  4.4670  0.5749
 1085SOL     OW14713   0.883   1.079   4.311  0.2655  0.1302  0.2641
 1085SOL    HW114714   0.896   1.147   4.377  1.4345  1.6221 -1.4829
 1085SOL    HW214715   0.974   1.051   4.318 -0.1542 -1.5784 -0.9574
 1086SOL     OW14716   3.414   1.851   5.373 -0.0659 -0.1948 -0.6138
 1086SOL    HW114717   3.436   1.758   5.366  0.3850 -0.1633  0.2870
 1086SOL    HW214718   3.378   1.865   5.286 -0.4344  1.8369 -0.1171
 1087SOL     OW14719   4.648   4.400   4.073  0.5738 -0.1709  0.3557
 1087SOL    HW114720   0.010   4.436   4.102  0.2920 -0.7686  1.8664
 1087SOL    HW214721   4.587   4.403   4.146 -1.5976  0.7811 -1.4785
 1088SOL     OW14722   1.513   4.010   8.166 -0.6211  0.1797  0.0459
 1088SOL    HW114723   1.471   4.096   8.170 -0.9095  0.0462 -0.1274
 1088SOL    HW214724   1.596   4.031   8.122 -1.2432  1.4465 -0.5266
 1089SOL     OW14725   4.235   3.926   9.028  0.0808 -0.3329 -0.4988
 1089SOL    HW114726   4.175   4.000   9.013  2.0401  0.9299 -2.0895
 1089SOL    HW214727   4.182   3.878   9.092 -0.7141  0.6600 -0.4108
 1090SOL     OW14728   0.878   0.003   6.054 -0.5045  0.4281 -0.2968
 1090SOL    HW114729   0.796   0.014   6.103 -0.5521  0.8149 -0.4685
 1090SOL    HW214730   0.913   4.637   6.074 -0.1514  0.9569  1.3740
 1091SOL     OW14731   0.751   3.541   4.079  0.4071 -0.1812 -0.1809
 1091SOL    HW114732   0.782   3.497   4.159 -1.7623 -0.3188  0.5692
 1091SOL    HW214733   0.770   3.628   4.112  0.0779  0.4417 -1.6376
 1092SOL     OW14734   2.479   0.865  14.918  0.0618  0.4937 -0.3230
 1092SOL    HW114735   2.539   0.790  14.913 -1.1829 -0.4625 -0.8454
 1092SOL    HW214736   2.527   0.935  14.874  0.1426  0.9002  0.4172
 1093SOL     OW14737   3.708   3.377   9.617 -0.0627 -0.3351  0.1170
 1093SOL    HW114738   3.795   3.349   9.645  0.6849  1.0781 -0.8321
 1093SOL    HW214739   3.727   3.423   9.536 -1.8364  3.3607  1.7498
 1094SOL     OW14740   2.307   4.080   5.012 -0.4745  0.2345  0.0766
 1094SOL    HW114741   2.277   4.100   4.924  2.5767  0.2912 -0.9400
 1094SOL    HW214742   2.237   4.019   5.035 -2.4321  1.4986 -2.5222
 1095SOL     OW14743   1.958   3.402   8.956 -0.3538 -0.7995  0.1680
 1095SOL    HW114744   1.874   3.367   8.925 -1.7265  1.8802  0.7839
 1095SOL    HW214745   1.965   3.366   9.044 -4.1844 -1.5008  0.2015
 1096SOL     OW14746   1.397   1.864   3.305 -0.3095  0.2257 -0.1305
 1096SOL    HW114747   1.442   1.936   3.350  1.9294 -0.1145 -1.7839
 1096SOL    HW214748   1.468   1.841   3.245 -0.3502 -1.6131  0.5120
 1097SOL     OW14749   4.455   2.349  14.992 -0.6437 -0.1046  0.2196
 1097SOL    HW114750   4.383   2.407  15.016 -0.4480 -1.2640  3.5429
 1097SOL    HW214751   4.484   2.307  15.073  2.5681 -2.1577 -1.9838
 1098SOL     OW14752   0.399   3.996   6.665 -0.1422 -0.3042 -0.2967
 1098SOL    HW114753   0.374   3.915   6.710 -1.0516  1.1623  1.8137
 1098SOL    HW214754   0.341   3.986   6.589  2.1755 -0.8719 -1.9915
 1099SOL     OW14755   1.247   3.136   6.135 -0.2352  0.5359  0.3607
 1099SOL    HW114756   1.246   3.225   6.098 -0.4096 -0.3338 -1.7535
 1099SOL    HW214757   1.153   3.123   6.146  0.1315 -1.6422  0.7335
 1100SOL     OW14758   0.913   0.625   0.999 -0.2109  0.0984  0.2953
 1100SOL    HW114759   0.965   0.558   0.954  0.4342  0.2495  0.8101
 1100SOL    HW214760   0.900   0.588   1.086  0.4672 -0.0001  0.3547
 1101SOL     OW14761   1.620   4.184   8.682 -0.1804  0.0732  0.4700
 1101SOL    HW114762   1.529   4.209   8.696  0.0613  0.8211  0.6686
 1101SOL    HW214763   1.642   4.169   8.774 -0.3485 -1.3387  0.2859
 1102SOL     OW14764   4.560   1.375   3.229  0.6901 -0.2961 -0.1779
 1102SOL    HW114765   4.584   1.467   3.227  2.9974 -0.8532  1.7347
 1102SOL    HW214766   4.475   1.381   3.274  1.5222  1.5109  1.1447
 1103SOL     OW14767   1.307   3.542  11.785 -0.7770 -0.0155 -0.3094
 1103SOL    HW114768   1.389   3.493  11.788  0.0858  1.4006 -0.8751
 1103SOL    HW214769   1.339   3.629  11.808  0.9007 -0.7535  0.1474
 1104SOL     OW14770   4.402   1.404  16.508 -0.5450  0.3340 -0.4808
 1104SOL    HW114771   4.397   1.311  16.532 -0.1633  0.9493  1.9633
 1104SOL    HW214772   4.321   1.445  16.538  0.1716  0.1475  1.7439
 1105SOL     OW14773   3.931   0.370   7.486  0.2221 -0.1658  0.0088
 1105SOL    HW114774   3.894   0.284   7.506  0.9342 -0.4149  0.2670
 1105SOL    HW214775   4.003   0.372   7.549  0.6193  0.4540 -0.4633
 1106SOL     OW14776   0.045   1.618  11.230 -0.6860  0.2896  0.1158
 1106SOL    HW114777   0.009   1.546  11.283 -1.4164  0.0120 -0.7462
 1106SOL    HW214778   0.137   1.592  11.232 -0.8536 -0.3251 -0.2284
 1107SOL     OW14779   0.321   1.235  12.507 -0.4468 -0.2348 -0.5865
 1107SOL    HW114780   0.250   1.228  12.572 -2.6673 -0.9232 -3.0905
 1107SOL    HW214781   0.305   1.321  12.469 -1.7301 -0.2561 -0.0969
 1108SOL     OW14782   1.188   2.230   9.299  0.0932 -0.0208  0.2702
 1108SOL    HW114783   1.187   2.308   9.243  0.8249 -1.4741 -1.7922
 1108SOL    HW214784   1.277   2.202   9.277 -0.3480 -1.3284  0.1235
 1109SOL     OW14785   2.143   2.566   7.939  0.4699  0.1178 -0.0438
 1109SOL    HW114786   2.201   2.618   7.995 -0.9671  1.9783 -0.2821
 1109SOL    HW214787   2.207   2.514   7.891 -0.9182 -1.9461  0.3161
 1110SOL     OW14788   2.029   0.529  17.297  0.2236  0.3095 -0.1757
 1110SOL    HW114789   2.115   0.517  17.257  1.6462  0.4113  2.8487
 1110SOL    HW214790   2.026   0.622  17.275  0.1251  0.8496  2.0930
 1111SOL     OW14791   4.604   0.263  16.780  0.2550 -0.2043  0.2889
 1111SOL    HW114792   4.607   0.207  16.702  1.6376  0.8953 -0.4479
 1111SOL    HW214793   4.524   0.310  16.754 -0.2830 -1.6078 -0.5738
 1112SOL     OW14794   3.025   3.887   8.090 -0.4084  0.3883 -0.1303
 1112SOL    HW114795   2.941   3.886   8.043  0.8481  0.5964 -2.4014
 1112SOL    HW214796   3.003   3.832   8.165  0.9743 -0.5877 -0.4509
 1113SOL     OW14797   3.056   4.094   6.907 -0.2652  0.1346 -0.0868
 1113SOL    HW114798   2.970   4.090   6.865 -0.8136  2.2479  0.8208
 1113SOL    HW214799   3.047   4.036   6.982 -0.4734  0.2502 -0.0218
 1114SOL     OW14800   1.635   3.329   6.894  0.7651  0.5600 -0.3223
 1114SOL    HW114801   1.632   3.259   6.959 -1.4233  0.7330 -0.2207
 1114SOL    HW214802   1.723   3.366   6.900  1.0599  0.0084 -1.3279
 1115SOL     OW14803   3.746   1.361  12.952  0.1062 -0.4279  0.0070
 1115SOL    HW114804   3.727   1.383  13.044 -1.0106 -0.9019 -0.1106
 1115SOL    HW214805   3.737   1.448  12.914  0.2829 -0.4329 -0.0445
 1116SOL     OW14806   2.170   1.123  17.008 -0.4981  0.3296  0.2585
 1116SOL    HW114807   2.170   1.181  17.084  0.2712  1.2459 -0.4329
 1116SOL    HW214808   2.079   1.094  17.007 -0.3385 -0.1452 -0.2281
 1117SOL     OW14809   3.648   3.098  15.541  0.9106  0.2323  0.4461
 1117SOL    HW114810   3.725   3.073  15.591  1.2108  0.2587 -0.0097
 1117SOL    HW214811   3.668   3.173  15.486  2.3105 -0.4252  0.0603
 1118SOL     OW14812   0.100   1.825  14.684 -0.1192  0.0716  0.7324
 1118SOL    HW114813   0.058   1.902  14.723 -1.2540 -1.0278  1.6957
 1118SOL    HW214814   0.080   1.752  14.743  2.6210  0.9923  2.8053
 1119SOL     OW14815   3.986   3.318   9.671 -0.1496 -0.0634  0.4378
 1119SOL    HW114816   4.001   3.360   9.756  0.3366  0.1614  0.2355
 1119SOL    HW214817   3.994   3.224   9.689  1.7593  0.2101  1.0031
 1120SOL     OW14818   2.091   3.338   3.838 -0.2164  0.3276 -0.1655
 1120SOL    HW114819   2.118   3.256   3.797 -3.0260  0.0807 -1.5381
 1120SOL    HW214820   1.997   3.344   3.823 -0.4543  0.7220  1.4956
 1121SOL     OW14821   0.419   3.420   7.286 -0.1486  0.3328  0.6916
 1121SOL    HW114822   0.465   3.485   7.233 -2.3779 -0.5371 -2.3574
 1121SOL    HW214823   0.492   3.366   7.316  1.3482  0.7205 -2.2739
 1122SOL     OW14824   0.602   0.061   4.459 -0.2163  0.0027  0.1237
 1122SOL    HW114825   0.592   4.698   4.415  0.6227  0.1439 -0.3480
 1122SOL    HW214826   0.691   0.083   4.430 -0.6342  0.2456 -0.9521
 1123SOL     OW14827   0.554   0.771  12.024 -0.7391 -0.1084 -0.2676
 1123SOL    HW114828   0.515   0.715  12.091  1.6601 -1.7014 -0.1952
 1123SOL    HW214829   0.514   0.856  12.041  2.0031  1.0016  0.6883
 1124SOL     OW14830   1.066   4.247   7.096 -0.2182  0.0670  0.3100
 1124SOL    HW114831   0.975   4.237   7.125 -0.4207  1.1851  0.0923
 1124SOL    HW214832   1.086   4.325   7.148  0.2042  0.3413 -0.2652
 1125SOL     OW14833   1.355   4.372   3.378 -0.4575 -0.1465  0.2509
 1125SOL    HW114834   1.290   4.304   3.363  0.8932 -0.6917 -3.1506
 1125SOL    HW214835   1.284   4.429   3.410 -1.1630  0.2423 -2.0246
 1126SOL     OW14836   3.018   2.564   3.494 -0.2586  0.0134 -0.2244
 1126SOL    HW114837   3.042   2.475   3.466 -1.3635  0.1044 -1.4728
 1126SOL    HW214838   3.102   2.609   3.483 -0.5490  0.3819 -0.9872
 1127SOL     OW14839   2.231   2.428  11.248  0.0897  0.4422 -0.0466
 1127SOL    HW114840   2.180   2.376  11.187 -0.2431 -1.2328  1.6606
 1127SOL    HW214841   2.172   2.422  11.323 -0.1590  0.0810 -0.2708
 1128SOL     OW14842   3.528   2.460   9.488  0.3835 -0.2486  0.3768
 1128SOL    HW114843   3.441   2.496   9.474 -0.1629 -1.7731 -0.1785
 1128SOL    HW214844   3.578   2.515   9.428  0.2018 -0.0980  0.3654
 1129SOL     OW14845   3.541   1.716   8.905 -0.2655 -0.2378  0.1579
 1129SOL    HW114846   3.627   1.676   8.894  0.1596  1.2066 -1.9221
 1129SOL    HW214847   3.498   1.707   8.820 -0.1342  0.7785 -0.0231
 1130SOL     OW14848   3.610   0.094   4.822  0.1743 -0.2750 -0.0747
 1130SOL    HW114849   3.633   0.105   4.729  0.6066  1.6441  0.2656
 1130SOL    HW214850   3.599   0.184   4.851  1.2965 -0.6174  1.3669
 1131SOL     OW14851   0.239   0.454   5.757 -0.2517  0.3746 -0.9616
 1131SOL    HW114852   0.181   0.382   5.734 -0.4573 -0.4541  2.1700
 1131SOL    HW214853   0.229   0.510   5.681  0.9689 -0.2795 -1.6038
 1132SOL     OW14854   3.351   2.055   9.582 -0.3639  0.4441 -0.5785
 1132SOL    HW114855   3.341   1.987   9.515 -3.4889 -0.2572  0.6038
 1132SOL    HW214856   3.415   2.111   9.537 -0.7614  0.5020 -1.0692
 1133SOL     OW14857   1.750   2.428   2.668  0.5408  0.0715  0.0142
 1133SOL    HW114858   1.782   2.515   2.691 -0.4530  0.6098 -0.6540
 1133SOL    HW214859   1.656   2.435   2.654  0.2410 -1.9893  0.9555
 1134SOL     OW14860   3.172   0.661   5.468 -0.3394 -0.0663 -0.1843
 1134SOL    HW114861   3.180   0.757   5.465 -0.5698 -0.0555 -0.5116
 1134SOL    HW214862   3.161   0.647   5.374  0.5678  0.0097 -0.3003
 1135SOL     OW14863   4.003   0.639   8.698 -0.2219  0.0509 -0.3278
 1135SOL    HW114864   4.017   0.603   8.786  1.0101  0.5912 -0.3046
 1135SOL    HW214865   4.060   0.716   8.692  0.9479 -0.8170 -0.3532
 1136SOL     OW14866   0.087   3.085   7.933  0.1573  0.0680 -0.0226
 1136SOL    HW114867   0.033   3.162   7.948  1.7952  1.4752 -1.2882
 1136SOL    HW214868   0.031   3.018   7.971 -1.5879  1.6221  0.1331
 1137SOL     OW14869   2.025   3.089  17.247  0.9859  0.1364 -0.1135
 1137SOL    HW114870   2.051   3.120  17.160 -1.2126 -0.0714 -0.8211
 1137SOL    HW214871   2.074   3.007  17.251  0.1634 -0.2962  1.0074
 1138SOL     OW14872   0.323   4.668   7.873  0.1203  0.0689 -0.0742
 1138SOL    HW114873   0.373   0.011   7.823  1.1403 -0.5646  0.1335
 1138SOL    HW214874   0.286   4.718   7.946 -2.6568  1.0915 -2.1510
 1139SOL     OW14875   0.797   0.365   4.123  0.5600 -0.2047  0.4440
 1139SOL    HW114876   0.890   0.387   4.111  0.5166 -1.0198 -1.4139
 1139SOL    HW214877   0.753   0.402   4.047 -0.9677 -0.4956  1.2000
 1140SOL     OW14878   4.121   0.625   2.482  0.4166 -0.5421  0.0982
 1140SOL    HW114879   4.111   0.717   2.504 -1.0837 -1.1678  2.0756
 1140SOL    HW214880   4.196   0.607   2.539 -1.7940  0.1878  3.2882
 1141SOL     OW14881   3.235   3.726   3.424 -0.1222 -0.1597  0.4823
 1141SOL    HW114882   3.241   3.732   3.328  1.1372  2.8132  0.7570
 1141SOL    HW214883   3.237   3.817   3.451  1.0723 -0.0989  0.1897
 1142SOL     OW14884   0.416   0.909   0.455  0.5397 -0.5006  0.3798
 1142SOL    HW114885   0.328   0.893   0.421  0.6621  1.6108 -0.9815
 1142SOL    HW214886   0.447   0.821   0.477  0.6704 -0.4627  0.3458
 1143SOL     OW14887   3.152   4.115   7.971  0.2407  0.0539 -0.4044
 1143SOL    HW114888   3.154   4.097   7.877 -0.0013 -1.1991 -0.1658
 1143SOL    HW214889   3.085   4.051   7.996  2.2258 -1.8906 -0.0119
 1144SOL     OW14890   1.068   1.007   6.630 -0.5194  0.2221  0.2058
 1144SOL    HW114891   0.998   0.999   6.565 -0.4794 -4.6785  0.8031
 1144SOL    HW214892   1.027   1.068   6.692  2.5877  1.8208  0.7299
 1145SOL     OW14893   1.688   2.535   6.479  0.1262  0.2886  0.2704
 1145SOL    HW114894   1.621   2.603   6.472 -0.7087 -0.5765 -0.1705
 1145SOL    HW214895   1.713   2.550   6.570  0.6022  1.5469 -0.0568
 1146SOL     OW14896   1.465   3.831   6.155 -0.3332  0.0722 -0.5102
 1146SOL    HW114897   1.459   3.743   6.118 -0.6668  0.0545 -0.4149
 1146SOL    HW214898   1.404   3.823   6.228 -0.0700  0.8374 -0.2052
 1147SOL     OW14899   4.582   4.669   8.824  0.1544 -0.1702  0.3797
 1147SOL    HW114900   4.562   0.002   8.748  0.5712 -0.4075  0.1041
 1147SOL    HW214901   4.671   4.704   8.832 -0.5846  1.8560 -0.0836
 1148SOL     OW14902   1.683   2.037   8.897 -0.1267  0.0044 -0.4585
 1148SOL    HW114903   1.728   2.098   8.837 -0.1440  1.1338  0.6785
 1148SOL    HW214904   1.697   2.074   8.984  1.1066 -1.4199 -0.0518
 1149SOL     OW14905   3.806   3.965   9.821  0.0992  0.3165  0.2212
 1149SOL    HW114906   3.716   3.998   9.820 -0.7600 -2.1416 -1.8296
 1149SOL    HW214907   3.785   3.872   9.816  0.8496  0.0071  2.7359
 1150SOL     OW14908   2.491   2.376   2.804  0.2851  0.1245 -0.2738
 1150SOL    HW114909   2.522   2.467   2.796  2.8246 -0.8126 -1.0730
 1150SOL    HW214910   2.532   2.325   2.734  2.6146  0.5626  0.7464
 1151SOL     OW14911   0.442   2.627   1.826  0.0885  0.3705  0.0919
 1151SOL    HW114912   0.493   2.651   1.749  1.0800 -1.8979  0.0479
 1151SOL    HW214913   0.467   2.536   1.841  0.7393  0.3885 -0.9406
 1152SOL     OW14914   1.403   2.531   7.454  0.1166  0.0323  0.6906
 1152SOL    HW114915   1.316   2.493   7.450  0.1927 -0.1130  0.3942
 1152SOL    HW214916   1.387   2.593   7.383 -0.0336 -1.6160 -0.7090
 1153SOL     OW14917   2.920   3.221   8.316  0.0021 -0.3563  0.1096
 1153SOL    HW114918   2.895   3.179   8.398  2.1464  1.9504  1.9171
 1153SOL    HW214919   2.832   3.225   8.279 -0.4020 -0.2103  1.1058
 1154SOL     OW14920   4.511   4.034   3.385 -0.6514  0.0725  0.1415
 1154SOL    HW114921   4.548   4.001   3.467  4.0978  0.3517 -1.8931
 1154SOL    HW214922   4.480   3.947   3.360  0.1188 -0.1941  0.0899
 1155SOL     OW14923   2.627   1.005   5.001  0.0502  0.3365  0.6380
 1155SOL    HW114924   2.554   1.062   5.021 -0.3582  0.0296  0.0179
 1155SOL    HW214925   2.705   1.061   5.003 -0.6061  1.2820 -0.4637
 1156SOL     OW14926   0.666   4.403   5.147 -0.0849 -0.0449 -0.3222
 1156SOL    HW114927   0.596   4.453   5.188 -0.4250 -0.9759  0.2321
 1156SOL    HW214928   0.695   4.350   5.222 -1.5447  1.3286  1.2053
 1157SOL     OW14929   3.714   4.309   6.631 -0.1663 -0.3741 -0.3002
 1157SOL    HW114930   3.788   4.297   6.572 -0.8384 -0.1296 -1.1871
 1157SOL    HW214931   3.637   4.339   6.583 -0.0204 -1.7031 -1.3553
 1158SOL     OW14932   1.278   4.325   0.355 -1.0109  0.1393 -0.4095
 1158SOL    HW114933   1.279   4.264   0.282  0.2566  0.6714 -0.8264
 1158SOL    HW214934   1.200   4.378   0.336 -0.9348  1.0116  1.6774
 1159SOL     OW14935   1.211   2.238   4.363  0.4368  0.0861  0.5003
 1159SOL    HW114936   1.171   2.261   4.279  1.3031 -0.3245 -0.0229
 1159SOL    HW214937   1.296   2.282   4.366  0.2829  0.3643  0.7670
 1160SOL     OW14938   3.163   1.855  12.672  0.5671  0.3673 -0.0500
 1160SOL    HW114939   3.214   1.924  12.714 -1.0289  2.2448 -1.1782
 1160SOL    HW214940   3.097   1.911  12.631 -1.4353 -0.4584  2.0358
 1161SOL     OW14941   2.515   0.228  14.098  0.8613  0.4461  0.5251
 1161SOL    HW114942   2.530   0.151  14.043 -0.9613 -0.1032  0.8221
 1161SOL    HW214943   2.598   0.274  14.084  0.5588  1.4434  2.0829
 1162SOL     OW14944   2.202   2.426  13.530  0.1249 -0.3199 -0.0576
 1162SOL    HW114945   2.191   2.374  13.451  0.5348  0.9341 -0.9426
 1162SOL    HW214946   2.124   2.412  13.585  0.9480 -1.9795  0.6589
 1163SOL     OW14947   3.693   3.331   3.296  0.2080 -0.6740 -0.2494
 1163SOL    HW114948   3.752   3.323   3.221  0.5666 -1.2378  0.0929
 1163SOL    HW214949   3.615   3.374   3.261  0.4498 -0.6540 -0.7702
 1164SOL     OW14950   1.102   4.590   7.818  0.3240 -0.3656 -0.0825
 1164SOL    HW114951   1.185   4.607   7.775  0.4463  1.1571  0.7390
 1164SOL    HW214952   1.044   4.589   7.742 -1.0649 -1.7693  1.0033
 1165SOL     OW14953   1.631   2.876  14.495  0.3565 -0.2355 -0.0394
 1165SOL    HW114954   1.701   2.903  14.555  1.9361 -1.8198 -1.1566
 1165SOL    HW214955   1.564   2.941  14.517 -0.5478 -1.3920  0.6297
 1166SOL     OW14956   3.921   2.080   6.716  0.4245  0.0071  0.2007
 1166SOL    HW114957   3.956   2.009   6.770 -1.3971 -0.8720  0.2508
 1166SOL    HW214958   3.964   2.159   6.748  0.9007  0.2348 -0.9955
 1167SOL     OW14959   0.206   2.551   8.939  0.8896  0.0892  0.6077
 1167SOL    HW114960   0.225   2.644   8.935  0.7094  0.2197  2.8226
 1167SOL    HW214961   0.200   2.536   9.033  1.4345  0.1251  0.6454
 1168SOL     OW14962   3.641   4.169   5.794 -0.0631 -0.1107  0.1224
 1168SOL    HW114963   3.627   4.216   5.876  1.8760  0.9054 -0.1426
 1168SOL    HW214964   3.599   4.086   5.817 -0.6843  0.0695 -0.3804
 1169SOL     OW14965   4.276   0.620   7.699 -0.9359 -0.9018  0.0857
 1169SOL    HW114966   4.248   0.712   7.706 -0.4357 -0.5996 -1.7666
 1169SOL    HW214967   4.343   0.635   7.632 -0.5767 -0.0127  0.6275
 1170SOL     OW14968   4.660   2.606  17.220 -0.2952 -0.9535 -0.7648
 1170SOL    HW114969   4.608   2.556  17.157 -0.5835 -1.4948 -0.1052
 1170SOL    HW214970   0.003   2.536  17.234  1.3331  0.5898 -0.6509
 1171SOL     OW14971   1.514   1.806   8.517 -0.6033 -0.0457 -0.1759
 1171SOL    HW114972   1.561   1.838   8.441  0.7450  0.5529  0.9051
 1171SOL    HW214973   1.480   1.890   8.549  1.4089  0.2433  1.2135
 1172SOL     OW14974   4.595   2.849   6.743  0.0087 -0.5779  0.3180
 1172SOL    HW114975   4.586   2.840   6.838  1.9499 -0.7761  0.4657
 1172SOL    HW214976   4.596   2.943   6.729 -0.5079 -0.6971 -0.5561
 1173SOL     OW14977   3.710   0.399   4.481  0.7272  0.3565 -0.0374
 1173SOL    HW114978   3.751   0.440   4.405 -1.8487  1.1225 -1.0425
 1173SOL    HW214979   3.756   0.433   4.557  0.9246  2.4020 -1.0772
 1174SOL     OW14980   3.562   4.316   9.978  0.0898 -0.1441  0.0725
 1174SOL    HW114981   3.486   4.316  10.035  0.3484 -1.0861  0.4061
 1174SOL    HW214982   3.628   4.261  10.020  1.1501 -0.2075 -1.6462
 1175SOL     OW14983   4.397   1.219   2.949 -0.3941 -0.2873 -0.2594
 1175SOL    HW114984   4.471   1.173   2.988  0.3312  0.9888 -0.1317
 1175SOL    HW214985   4.418   1.312   2.960 -1.4866 -0.1143  0.4391
 1176SOL     OW14986   0.131   2.788  12.840 -0.2749 -0.0168  0.3386
 1176SOL    HW114987   0.147   2.751  12.926  1.1899  1.8655  0.8773
 1176SOL    HW214988   0.136   2.706  12.791  3.0372  0.1858  0.3804
 1177SOL     OW14989   4.459   3.304  10.557 -0.2514 -0.6372  0.0394
 1177SOL    HW114990   4.543   3.321  10.601 -0.2192 -1.4728  0.3022
 1177SOL    HW214991   4.413   3.239  10.611  0.4571 -2.0016 -0.9718
 1178SOL     OW14992   2.540   3.744   9.312 -0.3991  0.3968 -0.1214
 1178SOL    HW114993   2.526   3.675   9.377 -0.5840 -0.5307 -1.1542
 1178SOL    HW214994   2.455   3.788   9.307 -1.1364 -0.6592  2.8619
 1179SOL     OW14995   0.375   0.480   7.489  0.2850  0.1444  0.1962
 1179SOL    HW114996   0.423   0.543   7.543  0.6385  0.3708 -0.3918
 1179SOL    HW214997   0.392   0.509   7.400  3.9491  1.3224  1.3015
 1180SOL     OW14998   3.107   1.384   3.134 -0.3863  0.6295  0.6204
 1180SOL    HW114999   3.146   1.471   3.123 -1.7743  1.2150  0.2928
 1180SOL    HW215000   3.048   1.396   3.209  1.8669  1.1529  2.2994
 1181SOL     OW15001   3.970   1.229   3.014  0.1176 -0.6671  0.1854
 1181SOL    HW115002   4.041   1.293   3.025  0.3298 -0.7432 -0.7339
 1181SOL    HW215003   3.950   1.244   2.922  0.6466 -1.4624 -0.0692
 1182SOL     OW15004   1.375   2.215  14.635  0.2851  0.3877 -0.3215
 1182SOL    HW115005   1.398   2.128  14.603  1.2138  1.4048 -2.4055
 1182SOL    HW215006   1.457   2.231  14.682 -0.6158  1.6950  0.8271
 1183SOL     OW15007   1.319   0.586   5.102  0.2444 -0.1850  0.1834
 1183SOL    HW115008   1.283   0.660   5.152 -1.4384 -0.5637 -0.4648
 1183SOL    HW215009   1.305   0.508   5.155  1.1271 -0.2858  0.2603
 1184SOL     OW15010   2.214   2.295   6.866  0.2231  0.4473 -0.0049
 1184SOL    HW115011   2.278   2.307   6.796 -0.5837 -0.2479 -0.8588
 1184SOL    HW215012   2.261   2.241   6.929  2.1324  1.3179 -0.6975
 1185SOL     OW15013   3.529   2.454   5.144  0.1377  0.0997 -0.1677
 1185SOL    HW115014   3.601   2.410   5.099  0.2341  0.8321 -0.7280
 1185SOL    HW215015   3.576   2.492   5.217  2.3961 -0.4264 -1.3456
 1186SOL     OW15016   1.372   2.975   2.624  0.2001 -0.3701 -0.0921
 1186SOL    HW115017   1.433   3.048   2.636  2.0373 -2.0469  0.7005
 1186SOL    HW215018   1.419   2.913   2.568 -0.4531 -1.1598  0.2462
 1187SOL     OW15019   1.407   2.271   9.509 -0.0222  0.2433 -0.0882
 1187SOL    HW115020   1.331   2.219   9.536  0.3226 -0.7191 -0.9243
 1187SOL    HW215021   1.453   2.265   9.592  1.5245  0.2304 -0.9484
 1188SOL     OW15022   1.108   3.188  10.599 -0.0448 -0.4607  0.1420
 1188SOL    HW115023   1.082   3.242  10.673 -0.5921  0.1065 -0.4738
 1188SOL    HW215024   1.087   3.248  10.528  0.1466 -2.4728 -1.6080
 1189SOL     OW15025   3.720   0.804   4.450  0.5012 -0.3729  0.3049
 1189SOL    HW115026   3.670   0.759   4.382  1.0405  0.3303 -0.5525
 1189SOL    HW215027   3.800   0.754   4.431  0.5692  0.8722 -2.6583
 1190SOL     OW15028   3.129   1.144   7.769 -0.7587  0.3648  0.2771
 1190SOL    HW115029   3.217   1.111   7.752 -0.6149  0.9631 -0.1522
 1190SOL    HW215030   3.085   1.161   7.686 -0.1152  1.2683  0.1181
 1191SOL     OW15031   1.417   4.184  16.798  0.1783 -0.0686 -0.0210
 1191SOL    HW115032   1.503   4.141  16.793  0.7651  1.0197  0.5617
 1191SOL    HW215033   1.415   4.225  16.712 -2.7807  1.0187  0.5687
 1192SOL     OW15034   2.869   2.852  11.403 -0.1909 -0.1843  0.2173
 1192SOL    HW115035   2.841   2.905  11.478  3.3257  3.1414 -0.7942
 1192SOL    HW215036   2.798   2.872  11.343 -0.8240 -0.6774  0.7948
 1193SOL     OW15037   4.088   0.568   5.305 -0.6595 -0.5353  0.2564
 1193SOL    HW115038   4.071   0.527   5.220  0.8949  1.5083 -1.0312
 1193SOL    HW215039   4.107   0.652   5.264  0.3608 -0.0768  1.7191
 1194SOL     OW15040   1.812   0.422   9.959  0.1161  0.3345  0.1345
 1194SOL    HW115041   1.904   0.442   9.943  0.8811 -2.2295  1.2239
 1194SOL    HW215042   1.808   0.421  10.055 -0.3743  1.3475  0.1206
 1195SOL     OW15043   3.654   1.206   2.855  0.2760 -0.0342 -0.6400
 1195SOL    HW115044   3.658   1.302   2.848 -0.5300 -0.1081 -2.0825
 1195SOL    HW215045   3.641   1.166   2.769  0.2816 -0.8130 -0.2729
 1196SOL     OW15046   3.123   4.091  14.872 -0.2091 -0.4361  0.4339
 1196SOL    HW115047   3.176   4.141  14.934 -1.6653  2.1754 -0.4386
 1196SOL    HW215048   3.076   4.035  14.933 -1.4421 -0.3601 -0.4482
 1197SOL     OW15049   3.400   2.025   8.672 -0.1283  0.1500  0.0190
 1197SOL    HW115050   3.454   1.967   8.620  0.8151  0.4514  0.6560
 1197SOL    HW215051   3.457   2.056   8.743  0.0805  0.5492 -0.3259
 1198SOL     OW15052   0.876   0.800   3.033 -0.3150  0.0819  0.1417
 1198SOL    HW115053   0.942   0.830   3.095  0.2485  1.1194 -0.9629
 1198SOL    HW215054   0.909   0.711   3.020 -0.3841 -0.0636  0.9710
 1199SOL     OW15055   0.005   0.841   5.791 -0.4284  0.2889  0.3730
 1199SOL    HW115056   4.683   0.805   5.713 -2.7410  1.6750  1.0241
 1199SOL    HW215057   4.696   0.779   5.857  0.4839  0.5285  1.0140
 1200SOL     OW15058   3.591   4.708   2.385 -0.3746  0.6880 -0.3472
 1200SOL    HW115059   3.653   0.002   2.314  1.0551 -0.0686  0.7378
 1200SOL    HW215060   3.624   0.046   2.453  1.1582 -2.1791  1.4442
 1201SOL     OW15061   4.396   4.225   8.144  0.2822 -0.5086 -0.5676
 1201SOL    HW115062   4.365   4.158   8.205  1.1997  1.0597  1.6286
 1201SOL    HW215063   4.424   4.295   8.203 -1.8269  0.9995 -1.3656
 1202SOL     OW15064   4.353   2.331   8.331  0.2525  0.0061 -0.2195
 1202SOL    HW115065   4.348   2.410   8.385  0.5470 -0.0355 -0.1327
 1202SOL    HW215066   4.439   2.322   8.288  0.2868 -1.1560  0.1021
 1203SOL     OW15067   1.374   0.454  17.492  0.1146 -0.2844  0.2621
 1203SOL    HW115068   1.312   0.498  17.434  2.0661  4.4023  1.7254
 1203SOL    HW215069   1.372   0.368  17.450  1.4222 -0.1494 -0.0850
 1204SOL     OW15070   0.826   3.632   1.091  0.7480 -0.2772 -0.0761
 1204SOL    HW115071   0.774   3.604   1.166 -1.0080  0.8857 -0.8722
 1204SOL    HW215072   0.901   3.574   1.105  1.2019 -0.1529 -2.0131
 1205SOL     OW15073   3.682   0.452   6.282 -0.1375  0.4078 -0.0318
 1205SOL    HW115074   3.589   0.476   6.283  0.1569  1.6203 -1.3322
 1205SOL    HW215075   3.715   0.536   6.248 -1.6397  0.8687 -0.3945
 1206SOL     OW15076   2.432   1.397   9.599 -0.0841  0.2576 -0.7127
 1206SOL    HW115077   2.512   1.410   9.651 -0.9390  4.8112 -0.4748
 1206SOL    HW215078   2.447   1.315   9.553  1.0988  1.8822 -3.2401
 1207SOL     OW15079   3.823   0.426  15.486  0.1503  0.1285  0.1414
 1207SOL    HW115080   3.854   0.340  15.458  1.2382  0.6543 -0.3230
 1207SOL    HW215081   3.851   0.467  15.404  0.5978 -2.7917 -1.1597
 1208SOL     OW15082   3.606   3.053   8.425 -0.4381 -0.5744 -0.2424
 1208SOL    HW115083   3.639   3.095   8.504 -1.6757  0.1695 -0.1284
 1208SOL    HW215084   3.522   3.021   8.460 -0.2692 -0.9615 -0.1883
 1209SOL     OW15085   2.214   1.464   4.991  0.0751  0.0193 -0.2287
 1209SOL    HW115086   2.280   1.514   4.943  1.0193 -0.0150  1.0232
 1209SOL    HW215087   2.258   1.397   5.044 -0.8212  0.1103  0.6333
 1210SOL     OW15088   4.702   3.087   7.429  0.0116 -0.3608 -0.1269
 1210SOL    HW115089   4.646   3.133   7.492  0.1726 -0.5265  0.1383
 1210SOL    HW215090   0.034   3.031   7.485 -2.1991 -0.1226  2.2061
 1211SOL     OW15091   3.610   1.114  14.675  0.8319 -0.0333  0.1968
 1211SOL    HW115092   3.517   1.116  14.696  1.2873 -4.3845  2.4400
 1211SOL    HW215093   3.626   1.021  14.664  2.3082  0.2909 -0.5115
 1212SOL     OW15094   0.648   3.005   5.335 -0.1091 -0.5936 -0.2368
 1212SOL    HW115095   0.685   3.067   5.398 -2.3590  0.5634 -0.0296
 1212SOL    HW215096   0.557   3.004   5.364 -0.2278  2.4254 -0.4562
 1213SOL     OW15097   2.836   1.762   2.761  0.0174 -0.7226 -0.3154
 1213SOL    HW115098   2.841   1.857   2.759 -0.0780 -0.7543 -2.2515
 1213SOL    HW215099   2.929   1.750   2.777  0.1924 -1.1150 -1.5946
 1214SOL     OW15100   0.050   1.564   5.597  0.6422 -0.6303  0.3648
 1214SOL    HW115101   0.054   1.620   5.519  0.3093 -0.3522  0.5483
 1214SOL    HW215102   0.130   1.580   5.647 -0.4244  1.3943  1.4119
 1215SOL     OW15103   4.163   1.847   1.555 -0.0358 -0.1458  0.5941
 1215SOL    HW115104   4.212   1.929   1.562  2.5566 -1.5808 -0.6765
 1215SOL    HW215105   4.166   1.823   1.647  0.5659  1.8387  1.0950
 1216SOL     OW15106   3.539   1.894  12.818  0.3868 -0.4682 -0.2327
 1216SOL    HW115107   3.528   1.980  12.858  0.2412 -0.8720  0.5819
 1216SOL    HW215108   3.489   1.843  12.881 -2.1142 -1.9979 -3.4531
 1217SOL     OW15109   4.129   2.508   1.346  0.0599  0.1228  0.3350
 1217SOL    HW115110   4.158   2.505   1.437  0.1819 -0.9896  0.2659
 1217SOL    HW215111   4.092   2.596   1.336 -1.3028 -0.4164  0.6187
 1218SOL     OW15112   1.041   0.702  16.112  0.0799  0.1538 -0.2202
 1218SOL    HW115113   1.001   0.697  16.026  0.6103  1.3487 -0.5388
 1218SOL    HW215114   1.113   0.640  16.106 -1.6999 -2.0325  0.8973
 1219SOL     OW15115   3.243   3.229  15.010  0.7624 -0.3266 -0.0275
 1219SOL    HW115116   3.285   3.237  14.925 -0.6094 -0.5833 -0.7263
 1219SOL    HW215117   3.273   3.142  15.035  0.5282  0.0224  1.5177
 1220SOL     OW15118   0.638   0.838  11.782  0.4153  0.8656  0.4870
 1220SOL    HW115119   0.608   0.805  11.867 -0.3245  1.2463  0.3730
 1220SOL    HW215120   0.733   0.844  11.790  0.6315 -1.4019 -0.5680
 1221SOL     OW15121   0.178   3.153   1.261  0.0385  0.6545  0.3725
 1221SOL    HW115122   0.221   3.215   1.202 -2.8077 -0.2673 -2.6721
 1221SOL    HW215123   0.208   3.200   1.338  1.4690  0.6300 -0.1795
 1222SOL     OW15124   2.867   4.706   8.172  0.4926  0.4313  0.4560
 1222SOL    HW115125   2.825   0.046   8.233 -0.8814  1.4216 -1.4753
 1222SOL    HW215126   2.945   4.684   8.223  0.9605  0.3166 -0.3154
 1223SOL     OW15127   2.583   1.799  13.935 -0.6281 -0.2372 -0.2181
 1223SOL    HW115128   2.493   1.797  13.968  0.5545 -0.0716  2.9887
 1223SOL    HW215129   2.605   1.705  13.937  1.2029  0.2195  1.4668
 1224SOL     OW15130   3.121   4.155   5.572 -0.0408 -0.1375  0.1685
 1224SOL    HW115131   3.069   4.077   5.585  0.3399 -0.5701 -0.8883
 1224SOL    HW215132   3.106   4.171   5.479 -0.4453  1.7411  0.5386
 1225SOL     OW15133   4.524   1.365   4.646 -0.1534  0.2126  0.5061
 1225SOL    HW115134   4.568   1.289   4.685 -0.8578 -0.6591 -0.4007
 1225SOL    HW215135   4.594   1.429   4.636  0.5811 -0.7590 -0.5714
 1226SOL     OW15136   1.301   1.055   8.386 -0.2261 -0.1072 -0.3996
 1226SOL    HW115137   1.291   1.002   8.307 -0.8052  3.1667 -2.5431
 1226SOL    HW215138   1.307   0.992   8.458  1.5136  1.0205  0.4429
 1227SOL     OW15139   4.648   4.015   2.022 -0.6477  0.0355 -0.3530
 1227SOL    HW115140   4.679   4.035   1.934  1.7478 -0.5758  0.3397
 1227SOL    HW215141   4.689   3.929   2.030  0.3875  0.3885 -1.9948
 1228SOL     OW15142   3.069   4.294  12.110 -0.2806 -0.5902 -0.1382
 1228SOL    HW115143   3.125   4.234  12.159  0.4173 -0.0074 -0.2288
 1228SOL    HW215144   2.998   4.232  12.090  1.2756 -2.3197 -0.2282
 1229SOL     OW15145   0.519   3.638   8.838  0.2189 -0.0361  0.4256
 1229SOL    HW115146   0.433   3.662   8.804  0.8921  0.7240 -0.8003
 1229SOL    HW215147   0.502   3.547   8.861  0.7789 -0.4208 -0.6419
 1230SOL     OW15148   4.169   0.326   2.169 -0.3721 -0.2627  0.0387
 1230SOL    HW115149   4.247   0.284   2.133  0.7114 -0.1957  2.3457
 1230SOL    HW215150   4.146   0.255   2.228  0.4028  0.4559  1.1960
 1231SOL     OW15151   1.470   4.488   7.356 -0.3232 -0.1005 -0.5270
 1231SOL    HW115152   1.404   4.437   7.404  1.3165 -2.1553 -0.4819
 1231SOL    HW215153   1.519   4.543   7.418  1.8939 -1.7069 -0.8542
 1232SOL     OW15154   1.125   3.216   2.915  0.6600 -0.3671 -0.4425
 1232SOL    HW115155   1.149   3.279   2.847 -0.0385 -0.3896 -0.7145
 1232SOL    HW215156   1.155   3.131   2.883  0.2855 -0.4201 -0.6539
 1233SOL     OW15157   3.299   4.001  15.213 -0.1745 -0.0515 -0.2612
 1233SOL    HW115158   3.299   4.073  15.149 -0.8307 -1.8122 -2.2640
 1233SOL    HW215159   3.222   4.010  15.269  1.2195  0.2705  1.5794
 1234SOL     OW15160   3.434   4.312   7.306  0.2938  0.0840 -0.3591
 1234SOL    HW115161   3.451   4.329   7.399 -1.5269  2.3671 -0.4231
 1234SOL    HW215162   3.520   4.328   7.267  0.5128 -0.6823 -0.1813
 1235SOL     OW15163   2.639   3.897  17.607  0.7819 -0.7590  0.5990
 1235SOL    HW115164   2.624   3.935  17.521  1.5092  0.3257  0.9564
 1235SOL    HW215165   2.586   3.958  17.658  3.3562  1.1147  1.0406
 1236SOL     OW15166   4.569   2.959   8.765 -0.7198 -0.4384 -0.1026
 1236SOL    HW115167   4.507   3.032   8.762  0.1049  0.2388 -0.6412
 1236SOL    HW215168   4.655   2.996   8.785 -0.5691 -0.5202 -0.5915
 1237SOL     OW15169   1.655   3.520   4.609  0.0795 -0.9016 -0.3250
 1237SOL    HW115170   1.688   3.569   4.684  1.7474  1.7987 -2.8428
 1237SOL    HW215171   1.637   3.591   4.548  0.9648  1.5299  2.2689
 1238SOL     OW15172   0.684   1.012   9.766 -0.1821 -0.5251  0.3995
 1238SOL    HW115173   0.699   1.052   9.852  2.0302  0.9586 -0.6678
 1238SOL    HW215174   0.651   1.093   9.726 -0.6036 -0.3347  1.1216
 1239SOL     OW15175   2.941   4.648   5.764 -0.5237  0.1661  0.3684
 1239SOL    HW115176   2.855   4.674   5.732 -0.8773 -0.8436  0.4999
 1239SOL    HW215177   2.938   4.554   5.748 -1.5553 -0.2247  2.7594
 1240SOL     OW15178   2.648   2.189   2.621  0.3230  0.0284  0.8631
 1240SOL    HW115179   2.561   2.184   2.582  0.3198  2.6820  0.5557
 1240SOL    HW215180   2.694   2.217   2.542 -1.5496 -2.5729 -1.1283
 1241SOL     OW15181   0.295   0.222  10.601 -0.1866 -0.0830  0.1955
 1241SOL    HW115182   0.328   0.295  10.652  0.2699 -0.9528  1.1497
 1241SOL    HW215183   0.200   0.232  10.598  0.2864  4.2657  1.0669
 1242SOL     OW15184   2.960   4.496   5.485 -0.1982 -0.1929 -0.1161
 1242SOL    HW115185   2.984   4.424   5.427  0.5863  2.2165 -2.8111
 1242SOL    HW215186   2.940   4.453   5.568 -0.2438 -0.0644 -0.0597
 1243SOL     OW15187   4.629   1.363   2.231  0.2928 -0.1269 -0.0664
 1243SOL    HW115188   4.717   1.329   2.216  0.5845  0.7708 -0.3860
 1243SOL    HW215189   4.589   1.369   2.144 -0.5132 -0.6301  0.2661
 1244SOL     OW15190   2.490   3.660  13.999  0.1848  0.0782 -0.7332
 1244SOL    HW115191   2.549   3.584  14.003 -0.3347 -0.2892  0.0250
 1244SOL    HW215192   2.495   3.679  13.906  2.0551  1.4746 -0.3583
 1245SOL     OW15193   0.433   1.342   0.383  0.0942 -0.5631  0.1633
 1245SOL    HW115194   0.441   1.264   0.328 -0.6414 -0.2669 -0.3669
 1245SOL    HW215195   0.354   1.389   0.358 -0.1894 -0.3044  1.5269
 1246SOL     OW15196   1.996   1.486   6.497 -0.6214  0.4994  0.5641
 1246SOL    HW115197   2.079   1.488   6.449 -0.6254 -0.0438  0.5294
 1246SOL    HW215198   1.975   1.578   6.510 -0.6926  0.7493 -1.2985
 1247SOL     OW15199   3.077   1.841  16.377 -0.1777 -0.1206  0.0240
 1247SOL    HW115200   3.048   1.886  16.297 -1.7599 -0.1973  0.5495
 1247SOL    HW215201   3.015   1.769  16.387  1.7787 -1.7230  0.5117
 1248SOL     OW15202   3.345   3.107   8.273 -0.6358  0.1446  0.2411
 1248SOL    HW115203   3.288   3.108   8.196 -0.3773 -2.1265  0.0196
 1248SOL    HW215204   3.359   3.012   8.270 -1.0945  0.0894 -0.1152
 1249SOL     OW15205   1.179   1.184   0.698 -0.3129 -0.0022  0.0277
 1249SOL    HW115206   1.211   1.220   0.615 -1.3583  1.8967  0.4375
 1249SOL    HW215207   1.206   1.093   0.689  0.4691 -0.1221  3.6731
 1250SOL     OW15208   0.283   1.152   4.496 -0.1909 -0.2826 -0.2730
 1250SOL    HW115209   0.298   1.058   4.502 -2.4468 -0.6314 -0.1845
 1250SOL    HW215210   0.332   1.185   4.572  1.0633 -0.2464 -1.1020
 1251SOL     OW15211   2.887   0.808  14.980  0.1793  0.4747  0.5493
 1251SOL    HW115212   2.879   0.900  15.007  0.6218 -0.3326  3.3898
 1251SOL    HW215213   2.833   0.758  15.041 -0.1700 -1.3128 -1.2227
 1252SOL     OW15214   2.856   1.088   5.878  0.2975  0.3000 -0.2780
 1252SOL    HW115215   2.854   0.995   5.899  2.0456  0.5954  1.1937
 1252SOL    HW215216   2.874   1.082   5.784 -3.1203  1.3882 -1.0139
 1253SOL     OW15217   2.631   3.547  16.799 -0.6812  0.3436 -0.4375
 1253SOL    HW115218   2.623   3.561  16.705 -0.1671  1.9904 -0.2412
 1253SOL    HW215219   2.547   3.506  16.818 -0.0052 -1.9415 -2.4635
 1254SOL     OW15220   0.478   3.110   1.242  0.1722  0.1555  0.3410
 1254SOL    HW115221   0.539   3.184   1.249  2.3464 -1.5291 -0.7607
 1254SOL    HW215222   0.439   3.103   1.329  1.2426  0.1110  0.8131
 1255SOL     OW15223   0.526   1.209   3.907  0.0536  0.1481 -0.0838
 1255SOL    HW115224   0.517   1.210   3.811  0.4318  2.0246 -0.0905
 1255SOL    HW215225   0.559   1.299   3.916  0.5801  0.1844 -2.3572
 1256SOL     OW15226   0.979   3.580   8.679  0.3746  0.0914 -0.1728
 1256SOL    HW115227   0.953   3.575   8.771 -0.9886  0.5766 -0.5245
 1256SOL    HW215228   0.893   3.575   8.636  0.6535 -1.9990 -0.4749
 1257SOL     OW15229   3.401   0.881  16.913  0.0193  0.4412  0.4607
 1257SOL    HW115230   3.487   0.899  16.876  0.8750 -1.7618  1.3790
 1257SOL    HW215231   3.397   0.786  16.915  1.3508  0.3683 -0.2969
 1258SOL     OW15232   2.457   2.882   0.115 -0.3438 -0.0774 -0.1953
 1258SOL    HW115233   2.529   2.898   0.055  1.5346  1.6211  2.4912
 1258SOL    HW215234   2.495   2.903   0.200  0.2200  1.8211 -0.9191
 1259SOL     OW15235   1.461   4.524   5.235  0.4003 -0.5053  0.1599
 1259SOL    HW115236   1.386   4.580   5.255 -0.0987 -1.6943  1.5620
 1259SOL    HW215237   1.478   4.520   5.141  0.1407 -0.6990  0.1221
 1260SOL     OW15238   2.769   3.453  11.998 -0.0302 -0.1342  0.3798
 1260SOL    HW115239   2.838   3.517  12.013  0.3349 -0.0007 -1.7838
 1260SOL    HW215240   2.794   3.387  12.063 -2.6819  0.1955  1.7233
 1261SOL     OW15241   2.518   0.432  13.445 -0.4340  0.0316  0.1148
 1261SOL    HW115242   2.507   0.489  13.521  0.9903  2.6752 -1.6802
 1261SOL    HW215243   2.590   0.474  13.398 -1.7448  2.2481  0.1057
 1262SOL     OW15244   4.397   4.042   8.618 -0.2422  0.4796 -0.6219
 1262SOL    HW115245   4.474   3.986   8.630 -0.1529  0.6894 -0.1968
 1262SOL    HW215246   4.433   4.108   8.559 -2.3918  2.2436  0.0662
 1263SOL     OW15247   4.144   4.098   3.330  0.7654  0.1031 -0.4722
 1263SOL    HW115248   4.163   4.005   3.340 -0.7972 -0.2219 -0.5828
 1263SOL    HW215249   4.049   4.096   3.328  0.6469  5.0462 -0.0129
 1264SOL     OW15250   1.111   1.865   4.147  0.3890 -0.2901  0.0714
 1264SOL    HW115251   1.083   1.884   4.237 -2.4202  1.2359 -1.1426
 1264SOL    HW215252   1.058   1.790   4.120  1.0602 -1.4563  1.9958
 1265SOL     OW15253   2.493   3.244  10.162 -0.5415 -0.3806  0.3723
 1265SOL    HW115254   2.541   3.206  10.236 -0.7507  1.0920  1.2432
 1265SOL    HW215255   2.447   3.314  10.207  0.2450  1.3455 -1.5410
 1266SOL     OW15256   0.160   1.380   1.543  0.5025 -0.2708  0.1707
 1266SOL    HW115257   0.217   1.403   1.617  1.9456 -1.1606 -0.6553
 1266SOL    HW215258   0.210   1.414   1.469 -0.8039  0.4573 -0.3814
 1267SOL     OW15259   1.313   3.418   5.689  0.7598 -0.8185  0.1681
 1267SOL    HW115260   1.309   3.327   5.719  0.2107 -1.5446 -2.1204
 1267SOL    HW215261   1.264   3.417   5.607 -2.0879  1.3504  1.8573
 1268SOL     OW15262   3.040   2.294  15.618  0.0541  0.3287 -0.2102
 1268SOL    HW115263   3.042   2.388  15.637  1.9361  0.4266 -0.9687
 1268SOL    HW215264   3.033   2.297  15.523  0.4786 -3.5588 -0.3482
 1269SOL     OW15265   2.479   2.786   3.862 -0.1979 -0.1908  0.0382
 1269SOL    HW115266   2.485   2.733   3.782 -0.6754 -1.4872  0.8574
 1269SOL    HW215267   2.501   2.875   3.836 -0.7881  0.8618  3.1402
 1270SOL     OW15268   3.789   3.663   7.262  0.1284  0.3991 -0.4836
 1270SOL    HW115269   3.712   3.682   7.315  0.0446  2.8022 -1.4808
 1270SOL    HW215270   3.748   3.634   7.180 -3.1322 -1.8461  1.9819
 1271SOL     OW15271   3.267   2.305   7.639  0.0173 -0.5476 -0.3822
 1271SOL    HW115272   3.238   2.222   7.676 -0.2838  0.0770  0.7873
 1271SOL    HW215273   3.269   2.364   7.715  1.2327 -1.4315  0.2686
 1272SOL     OW15274   4.711   3.117   4.360 -0.2311 -0.0801  0.0062
 1272SOL    HW115275   4.644   3.052   4.341  1.1145 -2.2554  2.6524
 1272SOL    HW215276   4.672   3.170   4.430 -0.8171  0.5761 -0.8202
 1273SOL     OW15277   0.235   1.573   4.330  0.2607 -0.6227 -0.3337
 1273SOL    HW115278   0.303   1.615   4.277  0.1864  0.1564  0.1908
 1273SOL    HW215279   0.262   1.597   4.419 -1.6478  3.3740 -0.8238
 1274SOL     OW15280   1.021   0.767   2.112 -0.4594 -0.9427  0.1236
 1274SOL    HW115281   1.109   0.730   2.113  1.0000  2.5431  0.9162
 1274SOL    HW215282   1.022   0.808   2.199 -1.5599  1.6705 -1.0904
 1275SOL     OW15283   0.297   3.322   4.526 -0.4673 -0.5735 -0.3156
 1275SOL    HW115284   0.274   3.396   4.582  1.2144 -0.1795 -0.1587
 1275SOL    HW215285   0.392   3.316   4.535 -0.4208  2.3658  1.2174
 1276SOL     OW15286   1.753   3.275   3.029  0.3145  0.2662 -0.6668
 1276SOL    HW115287   1.823   3.228   3.074  1.5762  2.8690  0.0475
 1276SOL    HW215288   1.788   3.287   2.941  2.0327  1.7344  0.2119
 1277SOL     OW15289   2.410   1.923   7.029 -0.0930  0.1763  0.3755
 1277SOL    HW115290   2.450   1.850   7.076  0.2912 -0.6762 -1.2839
 1277SOL    HW215291   2.439   1.908   6.940 -0.6723 -2.7075  0.6565
 1278SOL     OW15292   3.599   3.471  10.469 -0.7875 -0.1074 -0.0379
 1278SOL    HW115293   3.569   3.399  10.523 -0.2850 -0.1433  0.1951
 1278SOL    HW215294   3.695   3.464  10.474 -0.7252  0.7680  0.1664
 1279SOL     OW15295   1.487   3.508  12.744  0.1433  0.2766 -0.5649
 1279SOL    HW115296   1.406   3.544  12.782  0.7013 -0.5028  1.3662
 1279SOL    HW215297   1.459   3.524  12.654 -1.1426 -3.5945 -0.8363
 1280SOL     OW15298   4.380   1.892  10.986 -0.1408 -0.0196 -0.3308
 1280SOL    HW115299   4.312   1.833  10.953 -0.8408  0.3925  0.3650
 1280SOL    HW215300   4.395   1.868  11.077 -0.1387 -0.6304 -0.4919
 1281SOL     OW15301   3.986   3.062   6.883  0.4772  0.4235  0.1809
 1281SOL    HW115302   3.950   3.000   6.821 -2.4171  2.6912 -0.4000
 1281SOL    HW215303   3.988   3.004   6.959 -1.3027 -1.8221 -1.4932
 1282SOL     OW15304   3.472   1.768   8.050 -0.5284 -0.1607 -0.2822
 1282SOL    HW115305   3.541   1.738   8.109  0.8166  3.6648  0.0891
 1282SOL    HW215306   3.484   1.711   7.974 -0.1188 -0.4423 -0.0030
 1283SOL     OW15307   4.409   3.137   5.699  0.3069  0.2811  0.2086
 1283SOL    HW115308   4.458   3.069   5.653 -0.2011  1.4396 -2.0221
 1283SOL    HW215309   4.319   3.119   5.671  0.4745  1.9063 -1.3339
 1284SOL     OW15310   3.597   4.517   0.581 -0.0886 -0.3185 -0.4007
 1284SOL    HW115311   3.595   4.422   0.589 -0.7685 -0.0971  1.9494
 1284SOL    HW215312   3.552   4.538   0.663 -2.0440 -0.9497 -1.3114
 1285SOL     OW15313   1.342   3.642  16.468 -0.0203  0.4035 -0.4653
 1285SOL    HW115314   1.315   3.575  16.531 -1.3129  1.6679  0.3236
 1285SOL    HW215315   1.281   3.716  16.474 -1.9102 -1.1490 -0.7284
 1286SOL     OW15316   1.012   4.317   7.869  0.0230 -0.2222 -0.1720
 1286SOL    HW115317   1.035   4.406   7.841  0.2284 -1.2791 -3.3440
 1286SOL    HW215318   0.999   4.342   7.961  1.7362  0.6334 -0.1726
 1287SOL     OW15319   3.693   2.124   2.993  0.7851  0.2126 -0.0141
 1287SOL    HW115320   3.751   2.157   3.062 -0.0920  0.7045  0.4841
 1287SOL    HW215321   3.692   2.031   3.017 -0.8257 -0.1499 -1.5199
 1288SOL     OW15322   4.099   3.744  10.384  0.3953  0.0799  0.0662
 1288SOL    HW115323   4.048   3.797  10.323  0.3846 -2.1306 -1.8287
 1288SOL    HW215324   4.186   3.784  10.371 -0.0332  0.8906 -0.2828
 1289SOL     OW15325   1.571   1.269  17.583  0.8369  0.0310  0.1882
 1289SOL    HW115326   1.595   1.322  17.659  1.0774  2.0644 -1.2963
 1289SOL    HW215327   1.513   1.335  17.542  0.6823  0.5488  1.2389
 1290SOL     OW15328   2.293   0.224   3.326 -0.5263 -0.4138 -0.0120
 1290SOL    HW115329   2.308   0.170   3.248  3.6333  1.7654 -0.7569
 1290SOL    HW215330   2.372   0.210   3.377  0.2011  2.1505 -0.4264
 1291SOL     OW15331   2.838   3.159  11.605 -0.2749  0.0998  0.4784
 1291SOL    HW115332   2.794   3.224  11.658 -0.5173 -0.4446  0.9444
 1291SOL    HW215333   2.896   3.113  11.666  1.8161  0.1880 -1.4275
 1292SOL     OW15334   0.285   2.144   9.030  0.1300 -1.0351  0.5364
 1292SOL    HW115335   0.347   2.210   8.998  0.4040 -1.5702 -0.0272
 1292SOL    HW215336   0.237   2.204   9.088  0.5757  0.5647 -0.7533
 1293SOL     OW15337   3.721   4.202   8.625  0.1903  0.0926 -0.1748
 1293SOL    HW115338   3.688   4.112   8.623  0.8804 -0.1896  1.3776
 1293SOL    HW215339   3.784   4.200   8.697 -1.6688 -0.5004  1.4349
 1294SOL     OW15340   2.023   3.910   6.605  0.0677 -0.3550 -0.7520
 1294SOL    HW115341   2.089   3.887   6.539 -0.5634 -1.7060 -0.9226
 1294SOL    HW215342   2.060   3.994   6.632 -1.2270 -0.3986  1.0943
 1295SOL     OW15343   2.935   2.161  13.691 -0.0150  0.0986  0.4353
 1295SOL    HW115344   2.980   2.216  13.627  1.0284  0.7707  1.7320
 1295SOL    HW215345   2.978   2.189  13.772  2.7542  1.7741 -1.6225
 1296SOL     OW15346   4.011   3.127   6.357  0.5862  0.3163 -0.5601
 1296SOL    HW115347   3.958   3.060   6.313  0.3291  0.6400 -0.7402
 1296SOL    HW215348   3.945   3.171   6.411 -2.3217 -0.6523 -3.3219
 1297SOL     OW15349   2.433   0.974   5.207 -0.5880 -0.2738  0.3406
 1297SOL    HW115350   2.489   0.977   5.284 -1.0378 -0.0428  0.6577
 1297SOL    HW215351   2.354   1.017   5.240 -1.3370 -1.0461 -0.4437
 1298SOL     OW15352   1.278   0.682   4.849  0.2232 -0.2923 -0.2368
 1298SOL    HW115353   1.312   0.639   4.927  1.3436  0.1675 -0.4733
 1298SOL    HW215354   1.213   0.739   4.890  0.4528  0.4734 -0.9525
 1299SOL     OW15355   0.566   1.275  10.278  0.6031  0.2184 -0.1974
 1299SOL    HW115356   0.576   1.278  10.373 -1.7500 -1.9470  0.1014
 1299SOL    HW215357   0.589   1.366  10.257 -0.3365 -0.4228 -3.9524
 1300SOL     OW15358   1.851   0.738  10.383 -0.2508 -0.0120 -0.4888
 1300SOL    HW115359   1.897   0.822  10.369  1.1673 -0.0485  3.7110
 1300SOL    HW215360   1.879   0.708  10.470 -1.5864 -3.0988 -1.1656
 1301SOL     OW15361   3.088   1.792   3.490  0.0253  0.3710  0.0807
 1301SOL    HW115362   3.029   1.801   3.415  1.2450  1.9969 -0.6713
 1301SOL    HW215363   3.070   1.699   3.507  2.4052 -0.1823 -0.4683
 1302SOL     OW15364   4.363   0.205   9.653  0.3034  0.8910  0.3078
 1302SOL    HW115365   4.308   0.155   9.714  0.2915  0.5050 -0.0231
 1302SOL    HW215366   4.433   0.247   9.703 -0.8868  2.5954  0.5534
 1303SOL     OW15367   2.920   1.877   6.100  0.5013 -0.3134  0.1171
 1303SOL    HW115368   3.003   1.833   6.116 -0.2578 -1.0386  2.1099
 1303SOL    HW215369   2.936   1.950   6.159  1.7325 -1.3628  1.0886
 1304SOL     OW15370   2.519   1.913  12.409  0.3909 -0.1486  0.0404
 1304SOL    HW115371   2.447   1.852  12.421 -0.6059  0.8998 -0.6451
 1304SOL    HW215372   2.513   1.939  12.317 -0.4994 -1.4586 -0.2742
 1305SOL     OW15373   3.521   4.677   5.608 -0.3048  0.0859  0.0140
 1305SOL    HW115374   3.589   0.014   5.574  1.5236 -0.8518  2.0279
 1305SOL    HW215375   3.488   4.633   5.530 -5.6072  1.9579  1.2540
 1306SOL     OW15376   3.097   1.219  10.098  0.1726 -0.0041  0.2198
 1306SOL    HW115377   3.006   1.197  10.078  0.2360  0.1230 -0.2175
 1306SOL    HW215378   3.111   1.173  10.181  0.1918  3.0597  1.9184
 1307SOL     OW15379   4.210   0.325   2.888 -0.4179 -0.2403  0.2172
 1307SOL    HW115380   4.130   0.318   2.941 -0.3650 -2.8501 -0.0445
 1307SOL    HW215381   4.162   0.365   2.816  0.6298  0.0776 -0.2953
 1308SOL     OW15382   3.400   2.515   4.640  1.0629 -0.0046 -0.2800
 1308SOL    HW115383   3.468   2.519   4.573  1.0169 -1.4071 -0.4179
 1308SOL    HW215384   3.450   2.524   4.721 -0.3791 -0.4181  0.6610
 1309SOL     OW15385   3.286   2.702  12.113  0.1130 -0.0465 -0.3544
 1309SOL    HW115386   3.267   2.665  12.027 -1.4480  1.7379 -0.7716
 1309SOL    HW215387   3.215   2.667  12.167 -0.0600 -0.2632 -0.7228
 1310SOL     OW15388   4.071   4.243  10.240 -0.0237  0.3558 -0.6434
 1310SOL    HW115389   4.032   4.327  10.214  0.9875  0.9979 -0.0548
 1310SOL    HW215390   4.115   4.212  10.161  0.9796 -0.0776  0.0891
 1311SOL     OW15391   3.790   1.123   2.496 -0.2190  0.0004  0.5477
 1311SOL    HW115392   3.838   1.188   2.445 -0.2794 -0.8008 -0.5514
 1311SOL    HW215393   3.744   1.076   2.426  2.2555  0.4643 -1.4103
 1312SOL     OW15394   4.591   0.407   5.462 -0.1090  0.0290  0.0703
 1312SOL    HW115395   4.496   0.397   5.467 -0.2903  2.2675  1.2851
 1312SOL    HW215396   4.611   0.321   5.425 -1.6240 -0.3882  0.2064
 1313SOL     OW15397   1.200   2.904   8.523 -0.4181 -0.2986 -0.5714
 1313SOL    HW115398   1.169   2.985   8.564  0.0228  0.5935 -2.0181
 1313SOL    HW215399   1.254   2.859   8.588  2.0297  1.2987 -1.5098
 1314SOL     OW15400   1.188   3.506   3.941  0.1781 -0.2790  0.5917
 1314SOL    HW115401   1.167   3.471   3.855 -1.1361 -0.6978  1.0810
 1314SOL    HW215402   1.164   3.597   3.923  2.5586 -0.0969 -1.7374
 1315SOL     OW15403   4.677   2.622  11.156  0.5714 -0.0418 -0.0596
 1315SOL    HW115404   4.638   2.673  11.085 -1.9587 -0.0928  1.2922
 1315SOL    HW215405   4.714   2.545  11.113 -2.3491 -1.3651 -0.2461
 1316SOL     OW15406   2.663   4.031  16.298 -0.0414  0.0573 -0.0111
 1316SOL    HW115407   2.708   3.949  16.320  0.0730 -0.0547 -0.6683
 1316SOL    HW215408   2.734   4.095  16.296 -1.6603  1.8261 -0.9156
 1317SOL     OW15409   4.460   0.081   5.652  0.5824 -0.0786  0.2816
 1317SOL    HW115410   4.423   0.168   5.668 -0.3939 -0.6055  0.9086
 1317SOL    HW215411   4.469   0.033   5.734  0.3714 -2.3071 -0.9907
 1318SOL     OW15412   1.981   3.122   2.511 -0.5205  0.1207  0.8003
 1318SOL    HW115413   2.056   3.090   2.562  1.5177  1.8866 -1.0727
 1318SOL    HW215414   2.023   3.183   2.451 -1.1362  1.6224  1.9164
 1319SOL     OW15415   2.172   2.515  13.999  0.2218  0.2011 -0.0376
 1319SOL    HW115416   2.112   2.482  14.066  0.9682  1.4708  1.2734
 1319SOL    HW215417   2.205   2.437  13.954 -0.4125 -0.1911  0.1832
 1320SOL     OW15418   1.959   0.056   2.576 -0.4266 -0.5658  0.1261
 1320SOL    HW115419   1.875   0.014   2.594  0.5107 -1.2868  2.8773
 1320SOL    HW215420   1.966   0.045   2.482  1.4248 -1.1502  0.3251
 1321SOL     OW15421   4.133   2.385   5.429  0.1684  0.3023  0.1768
 1321SOL    HW115422   4.104   2.375   5.520 -0.5775  0.5089 -0.0414
 1321SOL    HW215423   4.136   2.296   5.394  0.5567  0.4569 -0.1859
 1322SOL     OW15424   1.174   1.486   5.446 -0.3031 -0.0770  0.7739
 1322SOL    HW115425   1.247   1.497   5.385 -0.7926 -1.6066 -0.0881
 1322SOL    HW215426   1.143   1.576   5.447  2.2653  0.8066  0.1268
 1323SOL     OW15427   3.993   0.953   1.291  0.1797  0.5539  0.2374
 1323SOL    HW115428   3.952   1.037   1.275  0.3032  0.5123 -0.3050
 1323SOL    HW215429   3.990   0.952   1.387 -1.9476 -0.0490  0.1562
 1324SOL     OW15430   3.679   4.626  10.968 -0.6479 -0.6059  0.2634
 1324SOL    HW115431   3.683   4.544  10.919  1.9092  0.0891 -0.6773
 1324SOL    HW215432   3.595   4.665  10.943 -1.1887 -1.6644  0.4116
 1325SOL     OW15433   1.400   1.174   4.428 -0.3910  0.2106  0.2392
 1325SOL    HW115434   1.437   1.233   4.362  0.9262 -1.5527 -0.5916
 1325SOL    HW215435   1.407   1.224   4.510 -0.8020 -0.3997  0.6414
 1326SOL     OW15436   0.268   4.120   0.487 -0.1220  0.0325 -0.3383
 1326SOL    HW115437   0.173   4.116   0.483 -0.1931 -0.3436  1.5763
 1326SOL    HW215438   0.288   4.170   0.567 -2.4496 -0.9855  0.8745
 1327SOL     OW15439   0.758   3.304   2.814 -0.4838 -0.2784  0.1411
 1327SOL    HW115440   0.675   3.346   2.833 -1.3238 -0.7254 -2.5587
 1327SOL    HW215441   0.735   3.214   2.840 -2.6358  0.0538 -0.6635
 1328SOL     OW15442   2.327   1.885  13.954 -0.7624  0.2308  0.9792
 1328SOL    HW115443   2.255   1.832  13.922 -1.9384  1.1875  2.0348
 1328SOL    HW215444   2.339   1.948  13.882 -2.8297  0.6472  1.0131
 1329SOL     OW15445   3.407   3.484  16.255 -0.3894  0.1707 -0.4651
 1329SOL    HW115446   3.497   3.476  16.286 -0.1288 -1.3064 -1.6162
 1329SOL    HW215447   3.403   3.428  16.178 -0.6296  1.6089 -1.5031
 1330SOL     OW15448   2.644   1.207   3.417 -0.7654 -0.8037  0.3391
 1330SOL    HW115449   2.551   1.185   3.420 -1.2136  1.0945  0.0046
 1330SOL    HW215450   2.665   1.177   3.505 -1.1571  2.7340  1.6310
 1331SOL     OW15451   3.436   4.678  10.873 -0.3625 -0.2283 -0.3855
 1331SOL    HW115452   3.360   0.004  10.907 -1.2806 -0.4294 -2.1941
 1331SOL    HW215453   3.404   4.642  10.791  0.7826  3.3482 -2.4013
 1332SOL     OW15454   4.381   1.557   5.546  0.4462  0.0720  0.1248
 1332SOL    HW115455   4.427   1.532   5.466 -0.3542 -0.2314 -0.2399
 1332SOL    HW215456   4.451   1.601   5.593  0.0328  0.8150  0.0353
 1333SOL     OW15457   1.370   1.329   4.680 -0.5821 -0.0886  0.4507
 1333SOL    HW115458   1.407   1.312   4.766  3.0974  0.5456 -0.9981
 1333SOL    HW215459   1.415   1.409   4.654 -0.0537 -1.3013 -2.4406
 1334SOL     OW15460   3.850   3.462   2.711 -0.1549  0.2015 -0.2585
 1334SOL    HW115461   3.832   3.435   2.621 -0.2885  1.8353 -0.7194
 1334SOL    HW215462   3.844   3.379   2.759  1.6856 -0.7645 -1.7322
 1335SOL     OW15463   4.209   1.518  17.664 -0.1568 -0.5286 -0.0857
 1335SOL    HW115464   4.271   1.513   0.048 -0.9121  0.3673  0.6110
 1335SOL    HW215465   4.249   1.450  17.609 -2.0657 -2.7467  1.2865
 1336SOL     OW15466   3.731   4.306   9.609  0.5271 -0.3388 -0.3272
 1336SOL    HW115467   3.671   4.334   9.678 -0.8834 -0.7008 -1.4162
 1336SOL    HW215468   3.709   4.351   9.527  0.0013  0.1247  0.0717
 1337SOL     OW15469   3.447   1.785  12.433 -0.4875  0.0804  0.0754
 1337SOL    HW115470   3.431   1.697  12.399  0.5574 -0.4500  0.9641
 1337SOL    HW215471   3.538   1.781  12.462 -0.1328 -1.3142 -1.2387
 1338SOL     OW15472   3.341   3.529  10.191 -0.4765 -0.0090 -0.1204
 1338SOL    HW115473   3.389   3.445  10.190  0.0719  0.2926  0.5681
 1338SOL    HW215474   3.406   3.576  10.244 -1.0384 -1.2432  1.6671
 1339SOL     OW15475   0.812   0.119   7.486  0.8989 -0.2104  0.0514
 1339SOL    HW115476   0.777   0.205   7.508  1.9124 -0.9389  4.5334
 1339SOL    HW215477   0.772   0.087   7.405 -0.3472 -0.4798  0.7817
 1340SOL     OW15478   3.287   0.836  13.550 -0.1604  0.8991  0.0512
 1340SOL    HW115479   3.344   0.803  13.619  1.9478  0.3366 -1.9463
 1340SOL    HW215480   3.205   0.798  13.580 -0.7020  1.6644 -0.4354
 1341SOL     OW15481   2.937   3.015   9.537 -0.7134  0.0700  0.7592
 1341SOL    HW115482   2.868   3.000   9.601 -1.0209 -0.6039  0.2656
 1341SOL    HW215483   2.996   3.072   9.587  1.1908 -1.3620  0.1229
 1342SOL     OW15484   1.575   3.316   2.537 -0.1529  0.2093  0.8819
 1342SOL    HW115485   1.562   3.268   2.455 -0.5446  1.4323  0.2257
 1342SOL    HW215486   1.576   3.245   2.601 -2.7098 -1.5389 -1.0128
 1343SOL     OW15487   1.262   0.473   3.224  0.4293 -1.1576  0.3378
 1343SOL    HW115488   1.300   0.552   3.186 -0.4250 -1.7151 -1.6698
 1343SOL    HW215489   1.317   0.416   3.170 -2.8129 -1.9389 -2.1109
 1344SOL     OW15490   1.858   0.004   3.568  0.2619  0.2755 -0.2166
 1344SOL    HW115491   1.861   4.666   3.492 -0.9127  1.5033 -1.2279
 1344SOL    HW215492   1.763   4.720   3.577  0.2837 -0.8865 -0.6515
 1345SOL     OW15493   2.581   2.983  12.339 -0.1416 -0.5074  0.2663
 1345SOL    HW115494   2.602   3.075  12.354  2.4249 -0.8939 -0.8657
 1345SOL    HW215495   2.546   2.985  12.250 -2.4608 -0.9290  1.1618
 1346SOL     OW15496   3.951   2.432   4.511 -0.1746 -0.1620  0.2551
 1346SOL    HW115497   4.021   2.484   4.550 -0.5538  2.0247 -2.0452
 1346SOL    HW215498   3.876   2.471   4.557  0.0180 -0.6732  1.0141
 1347SOL     OW15499   3.258   0.294  14.661  0.0473 -0.5634  0.0535
 1347SOL    HW115500   3.185   0.234  14.650  0.0531 -0.9067  1.8297
 1347SOL    HW215501   3.225   0.348  14.589 -1.1198  0.5075  1.3805
 1348SOL     OW15502   0.059   4.576   4.245 -0.3398 -0.7321 -0.0254
 1348SOL    HW115503   4.711   4.642   4.240 -0.0991 -0.4511  0.3200
 1348SOL    HW215504   0.118   4.631   4.193  0.6191 -1.3946  0.3775
 1349SOL     OW15505   1.042   3.094   1.018  0.2487 -0.6260 -0.0812
 1349SOL    HW115506   1.043   3.186   1.044 -1.2933 -0.7465  0.3907
 1349SOL    HW215507   0.953   3.061   1.035 -0.4897  1.8017  0.6874
 1350SOL     OW15508   2.994   0.616   1.139  0.4645 -0.0627 -0.1543
 1350SOL    HW115509   2.974   0.677   1.210 -0.8689  0.4194 -0.9390
 1350SOL    HW215510   3.010   0.537   1.191 -0.1106  0.4858  0.8684
 1351SOL     OW15511   0.190   3.891   4.540  0.1009  0.2009  0.2652
 1351SOL    HW115512   0.236   3.943   4.606 -0.1708  0.9613 -0.1500
 1351SOL    HW215513   0.191   3.947   4.462  0.0316 -1.2207 -0.7538
 1352SOL     OW15514   2.133   1.773   2.523  0.1067  0.5523  0.3177
 1352SOL    HW115515   2.156   1.691   2.568 -1.7924  0.4844  1.1611
 1352SOL    HW215516   2.215   1.819   2.505  0.8211 -0.8547 -0.0498
 1353SOL     OW15517   4.514   1.194   2.621 -0.1678  0.2197 -0.5561
 1353SOL    HW115518   4.578   1.142   2.573 -1.8898  0.4090 -3.0037
 1353SOL    HW215519   4.574   1.242   2.679  1.5878 -0.2574 -1.9612
 1354SOL     OW15520   2.782   2.211  14.554  0.0801  0.3251 -0.2007
 1354SOL    HW115521   2.868   2.185  14.586 -0.8839 -0.3454  1.8614
 1354SOL    HW215522   2.794   2.180  14.464  1.5194  2.1948 -0.6543
 1355SOL     OW15523   3.371   1.345   1.465 -0.0100 -0.0575  0.1991
 1355SOL    HW115524   3.343   1.394   1.388 -1.9118  0.9800  1.5719
 1355SOL    HW215525   3.314   1.268   1.456 -0.3525  0.2378 -0.1272
 1356SOL     OW15526   3.006   1.146   2.536 -0.4299 -0.0529 -0.3472
 1356SOL    HW115527   2.949   1.210   2.579  1.5013  0.6347  1.1823
 1356SOL    HW215528   2.971   1.166   2.449  0.1671 -1.0245 -0.8119
 1357SOL     OW15529   1.825   3.090   1.565 -0.3581 -0.4441 -0.2373
 1357SOL    HW115530   1.792   3.170   1.524 -2.4928  0.2413  2.8639
 1357SOL    HW215531   1.742   3.061   1.602 -0.5598  1.6715  0.9515
 1358SOL     OW15532   2.425   2.871  11.003  0.0274 -0.3963  0.3914
 1358SOL    HW115533   2.442   2.782  10.974 -1.5115 -0.4764 -0.2675
 1358SOL    HW215534   2.457   2.927  10.932  0.6553 -0.8740  0.2937
 1359SOL     OW15535   3.841   4.374  15.742 -0.0017 -0.2283 -0.4774
 1359SOL    HW115536   3.823   4.289  15.782  2.8024  0.0574  1.4440
 1359SOL    HW215537   3.785   4.434  15.790  0.4777  0.4832 -0.7970
 1360SOL     OW15538   2.223   3.826   6.422  0.2647 -0.2946 -0.1495
 1360SOL    HW115539   2.258   3.737   6.428 -0.5409 -0.7202 -1.6590
 1360SOL    HW215540   2.298   3.884   6.434 -0.2952  0.2212  0.9619
 1361SOL     OW15541   3.888   4.199   9.918  0.4428 -0.1033 -0.3817
 1361SOL    HW115542   3.868   4.114   9.879  0.1480  0.3895 -1.3101
 1361SOL    HW215543   3.830   4.193   9.994 -0.6605  1.9307 -1.0564
 1362SOL     OW15544   1.731   1.164   7.688 -0.4164 -0.1762 -0.2318
 1362SOL    HW115545   1.658   1.206   7.643 -0.9923  0.6816  1.4641
 1362SOL    HW215546   1.791   1.149   7.616 -1.2313 -0.0899 -0.9280
 1363SOL     OW15547   2.402   1.801   5.863  0.0222 -0.1337 -0.0673
 1363SOL    HW115548   2.394   1.717   5.909  0.7479 -0.6097 -0.8248
 1363SOL    HW215549   2.490   1.812   5.828 -0.2116  1.4433 -0.1298
 1364SOL     OW15550   4.370   0.442   1.080  0.3745 -0.9236  0.1094
 1364SOL    HW115551   4.450   0.390   1.073  0.5275 -0.6270 -0.3611
 1364SOL    HW215552   4.340   0.432   1.170 -0.0960 -1.2647 -0.0835
 1365SOL     OW15553   1.615   1.439  11.780  0.6365  0.1858 -0.0113
 1365SOL    HW115554   1.602   1.454  11.874 -1.9840  3.4206 -0.9323
 1365SOL    HW215555   1.688   1.501  11.774 -1.6988  2.7583 -1.2427
 1366SOL     OW15556   3.910   0.914   3.794 -0.6035  1.3575  0.0462
 1366SOL    HW115557   3.877   0.933   3.706 -0.9366  2.3454  0.3798
 1366SOL    HW215558   3.880   0.985   3.851  1.0402  1.9725  0.1206
 1367SOL     OW15559   3.338   3.203   9.813  0.1930 -0.6337  0.4895
 1367SOL    HW115560   3.389   3.218   9.733  0.6110 -0.8952  0.7067
 1367SOL    HW215561   3.403   3.229   9.879 -0.7000  1.9038  0.3700
 1368SOL     OW15562   0.297   2.101   3.600  0.5819 -0.0596  0.0982
 1368SOL    HW115563   0.304   2.196   3.603 -1.4750 -0.0116  2.8906
 1368SOL    HW215564   0.324   2.075   3.512  2.5888  0.7018  0.4848
 1369SOL     OW15565   1.658   4.310   0.719 -0.1293  0.2458 -0.3457
 1369SOL    HW115566   1.739   4.288   0.765 -0.5745 -0.9430 -0.1294
 1369SOL    HW215567   1.686   4.343   0.633  2.1962 -3.5899 -1.1219
 1370SOL     OW15568   0.325   2.164  17.029  0.0996  0.0376  0.3172
 1370SOL    HW115569   0.304   2.198  16.942 -0.9819 -1.9641 -0.2043
 1370SOL    HW215570   0.382   2.233  17.065  2.2701 -1.1786 -0.7934
 1371SOL     OW15571   0.032   1.424   5.963 -0.0735  0.1229 -0.1216
 1371SOL    HW115572   0.052   1.407   6.055 -0.5402  2.1205  0.3604
 1371SOL    HW215573   0.104   1.381   5.917  0.4512  1.2627 -0.3783
 1372SOL     OW15574   1.260   1.497   7.269  0.0049  0.2405 -0.1579
 1372SOL    HW115575   1.224   1.584   7.278  2.1714  1.3614 -2.1953
 1372SOL    HW215576   1.196   1.459   7.209 -0.1290  0.4395 -0.1398
 1373SOL     OW15577   3.039   0.613  16.068  0.1861  0.4203  0.6309
 1373SOL    HW115578   3.102   0.577  16.131 -0.3767 -0.6226  0.6021
 1373SOL    HW215579   3.091   0.673  16.015 -0.4035 -1.6948 -2.3441
 1374SOL     OW15580   1.895   0.719   9.803  0.3963 -0.0899  0.0589
 1374SOL    HW115581   1.930   0.796   9.847  0.3271 -0.4618  0.7710
 1374SOL    HW215582   1.950   0.648   9.837 -0.5074  1.2105  4.2113
 1375SOL     OW15583   3.524   3.346   8.630  0.5060 -0.0915  0.4816
 1375SOL    HW115584   3.454   3.320   8.690 -0.1336 -1.5402 -0.8494
 1375SOL    HW215585   3.534   3.439   8.649 -1.9722  0.1659  0.5220
 1376SOL     OW15586   0.074   3.544   6.612  0.4310  0.2020 -0.3516
 1376SOL    HW115587   0.150   3.491   6.588 -2.1205 -2.5976 -2.2933
 1376SOL    HW215588   0.018   3.473   6.646  0.3040  0.1281 -0.7126
 1377SOL     OW15589   4.692   0.274   5.188 -0.3407  0.3801  0.2231
 1377SOL    HW115590   0.029   0.316   5.124 -0.6372 -1.8462 -1.4817
 1377SOL    HW215591   0.016   0.191   5.202  0.6304  1.1465  1.7239
 1378SOL     OW15592   2.014   1.909   2.769  0.4046 -0.6286  0.0301
 1378SOL    HW115593   1.973   1.924   2.684  0.7757 -0.9269 -0.2035
 1378SOL    HW215594   2.076   1.839   2.748  0.1581 -1.1449  1.0298
 1379SOL     OW15595   1.400   2.350   7.179 -0.3590  0.7085 -0.1423
 1379SOL    HW115596   1.310   2.360   7.148 -0.9286 -2.6920  0.4118
 1379SOL    HW215597   1.389   2.323   7.270 -0.3741 -2.3509 -1.0609
 1380SOL     OW15598   0.191   4.121  10.987  0.0809  0.1539  0.3248
 1380SOL    HW115599   0.108   4.115  10.940  1.5783 -1.5144 -2.0678
 1380SOL    HW215600   0.156   4.169  11.062 -0.5060  1.6229 -0.8963
 1381SOL     OW15601   0.478   1.007  11.660  0.4050 -0.3558  0.3877
 1381SOL    HW115602   0.541   0.951  11.704 -2.4383 -2.8924  1.2412
 1381SOL    HW215603   0.497   1.096  11.692  0.4462  0.7105 -2.5938
 1382SOL     OW15604   4.308   0.397   5.457 -0.1268  0.2961 -0.2451
 1382SOL    HW115605   4.292   0.457   5.384 -0.7340  2.0960  1.3836
 1382SOL    HW215606   4.220   0.363   5.473 -0.1339  0.8401  0.8161
 1383SOL     OW15607   2.785   2.594  14.892  0.2451  0.0658 -0.1568
 1383SOL    HW115608   2.814   2.680  14.924  2.1436 -0.3792 -0.6959
 1383SOL    HW215609   2.847   2.580  14.821  1.2514 -1.6869  1.0675
 1384SOL     OW15610   4.463   0.729   2.860  0.0532 -0.4628 -0.6474
 1384SOL    HW115611   4.375   0.697   2.877 -0.1268 -0.1217 -0.9345
 1384SOL    HW215612   4.454   0.718   2.765 -1.3376 -1.2708 -0.4127
 1385SOL     OW15613   1.341   1.139   7.548 -0.3651  0.3976  0.1083
 1385SOL    HW115614   1.299   1.060   7.581  1.4697 -0.3507  0.6766
 1385SOL    HW215615   1.420   1.104   7.506 -1.1382  1.4468 -2.2280
 1386SOL     OW15616   3.963   3.199   1.917  0.1282 -0.2401 -0.1677
 1386SOL    HW115617   3.910   3.235   1.846 -0.6014 -1.1502 -0.0749
 1386SOL    HW215618   4.042   3.169   1.873  2.3994  3.3470  1.4268
 1387SOL     OW15619   0.363   1.965  12.096  0.2819 -0.0936  0.5468
 1387SOL    HW115620   0.354   1.957  12.191 -0.0602 -0.3661  0.4912
 1387SOL    HW215621   0.402   1.881  12.072  3.4940  1.0686  1.7859
 1388SOL     OW15622   4.270   1.742   6.306  0.3703 -0.0440 -0.3225
 1388SOL    HW115623   4.282   1.663   6.253  1.7257  0.3325 -0.5851
 1388SOL    HW215624   4.175   1.739   6.318  0.5163  3.7838  1.6640
 1389SOL     OW15625   2.430   4.223   1.068  0.5827  0.3038 -0.1381
 1389SOL    HW115626   2.348   4.229   1.119  0.9340 -1.1108  0.5919
 1389SOL    HW215627   2.449   4.131   1.088  1.1696  0.6235  0.7757
 1390SOL     OW15628   3.619   2.951   8.175 -0.6404 -0.7208  0.1887
 1390SOL    HW115629   3.600   2.995   8.258  1.3695  0.2224  0.1659
 1390SOL    HW215630   3.641   2.864   8.208 -3.6592 -0.7204  2.1641
 1391SOL     OW15631   2.989   3.916   7.118 -0.5893  0.1318  0.0702
 1391SOL    HW115632   2.957   3.932   7.206  3.1528  1.4799  1.1988
 1391SOL    HW215633   2.957   3.827   7.099  1.2892 -0.3656 -0.8671
 1392SOL     OW15634   4.282   0.286   8.632 -0.2169  0.7151 -0.2267
 1392SOL    HW115635   4.218   0.218   8.653 -0.0551  0.3259 -0.9891
 1392SOL    HW215636   4.278   0.340   8.711 -2.0215  0.1262  0.0927
 1393SOL     OW15637   0.628   2.512  15.477 -1.0607 -0.2798 -0.3181
 1393SOL    HW115638   0.683   2.590  15.475 -0.1751 -0.9374 -1.6404
 1393SOL    HW215639   0.541   2.548  15.462 -1.2611 -0.1458  1.1522
 1394SOL     OW15640   2.801   2.876   2.880  0.3902 -0.3218  0.1448
 1394SOL    HW115641   2.840   2.794   2.908  1.4598  0.5702  1.2449
 1394SOL    HW215642   2.709   2.854   2.866 -0.0899  1.0713  1.1328
 1395SOL     OW15643   2.415   2.537   2.096 -0.1994  0.0592 -0.2871
 1395SOL    HW115644   2.406   2.541   2.001  1.5648 -0.9862 -0.4977
 1395SOL    HW215645   2.371   2.621   2.107  2.2428  1.2854  0.2917
 1396SOL     OW15646   4.320   3.039   0.824  0.1353  0.0169 -0.1812
 1396SOL    HW115647   4.277   2.955   0.807 -1.1262  0.1912  2.1578
 1396SOL    HW215648   4.321   3.048   0.919  2.3888 -1.4376 -0.0623
 1397SOL     OW15649   3.623   1.194   5.640 -0.1185  0.1413 -0.6875
 1397SOL    HW115650   3.627   1.147   5.723  2.3882 -0.1379 -0.9722
 1397SOL    HW215651   3.688   1.150   5.585  1.7048  0.8673  0.8978
 1398SOL     OW15652   2.884   0.227   2.933 -0.6671  0.0045 -0.5751
 1398SOL    HW115653   2.951   0.172   2.972 -0.5207 -0.3483 -1.3280
 1398SOL    HW215654   2.810   0.168   2.923 -0.0755 -0.9160  0.5592
 1399SOL     OW15655   1.645   1.733   5.580 -0.9120  0.3461 -0.0491
 1399SOL    HW115656   1.570   1.748   5.521  1.2877  0.3893 -2.8271
 1399SOL    HW215657   1.617   1.766   5.666 -1.2696 -2.2483  0.8401
 1400SOL     OW15658   2.061   3.720   7.723 -0.6397  0.5320 -0.4230
 1400SOL    HW115659   1.977   3.705   7.766 -0.0454 -3.2230 -0.5253
 1400SOL    HW215660   2.015   3.767   7.653 -3.4534 -0.1930  0.9509
 1401SOL     OW15661   1.846   1.884   1.817  0.7047 -0.5742 -0.1925
 1401SOL    HW115662   1.785   1.909   1.886 -0.6007 -0.3005 -1.4541
 1401SOL    HW215663   1.803   1.915   1.738  0.8628 -1.2041 -0.5264
 1402SOL     OW15664   1.708   1.955   2.667 -0.0875 -0.0876 -0.3832
 1402SOL    HW115665   1.789   1.958   2.617  0.3307  3.0931  0.5024
 1402SOL    HW215666   1.641   1.918   2.610 -0.0735 -0.0159 -0.4463
 1403SOL     OW15667   2.716   3.795   0.944 -0.3177 -0.1524 -0.2095
 1403SOL    HW115668   2.749   3.711   0.913 -1.8471 -1.3013  1.3171
 1403SOL    HW215669   2.679   3.833   0.865 -0.1739  1.0258  0.2903
 1404SOL     OW15670   2.182   3.217   6.429 -0.1279  0.2227 -0.4827
 1404SOL    HW115671   2.134   3.215   6.511  0.4998 -0.9903 -0.1321
 1404SOL    HW215672   2.176   3.124   6.405 -0.6653 -0.2550  1.5810
 1405SOL     OW15673   0.799   1.836   7.606 -0.2012 -0.0761 -0.0523
 1405SOL    HW115674   0.775   1.810   7.695  1.4995 -1.0758  0.1306
 1405SOL    HW215675   0.820   1.749   7.571  0.8263  1.1146 -2.3653
 1406SOL     OW15676   1.680   2.089   3.982  0.1976  0.0349 -0.0181
 1406SOL    HW115677   1.747   2.157   3.988  0.0962  0.1861 -0.6214
 1406SOL    HW215678   1.599   2.137   3.968 -0.8279 -0.5475  4.0073
 1407SOL     OW15679   1.269   3.106  12.787  0.1407  0.0889 -0.0217
 1407SOL    HW115680   1.303   3.094  12.698  2.6589  3.6157  0.4569
 1407SOL    HW215681   1.214   3.184  12.777 -0.4428 -0.3355 -0.1605
 1408SOL     OW15682   1.558   2.274   6.610  0.1714  0.0451  0.0573
 1408SOL    HW115683   1.575   2.234   6.695  0.9247  1.4817  0.5912
 1408SOL    HW215684   1.634   2.252   6.557  0.5114 -1.7212  1.2953
 1409SOL     OW15685   2.591   1.917   3.024  0.1392 -0.6449 -0.1727
 1409SOL    HW115686   2.604   1.932   2.930  1.2374 -0.4672  0.0125
 1409SOL    HW215687   2.597   2.008   3.054 -3.2610 -0.2339 -0.7244
 1410SOL     OW15688   0.489   0.130   3.240 -0.1478  0.4754 -0.1079
 1410SOL    HW115689   0.573   0.097   3.272 -1.5425 -3.0653 -0.1067
 1410SOL    HW215690   0.517   0.180   3.164 -2.0744  0.3958 -0.8692
 1411SOL     OW15691   0.953   1.800   3.245  0.2419 -0.4243 -0.1696
 1411SOL    HW115692   0.888   1.735   3.272 -1.1449  0.6036 -0.9938
 1411SOL    HW215693   0.957   1.773   3.153  3.5750 -0.0037 -0.1390
 1412SOL     OW15694   1.985   2.384   7.835  0.3689 -0.4767  0.0635
 1412SOL    HW115695   2.019   2.461   7.880  1.5915  0.2278 -2.0327
 1412SOL    HW215696   1.975   2.327   7.911 -1.8965 -0.3744 -0.1670
 1413SOL     OW15697   3.463   4.529   0.318 -0.2562 -0.2747  0.2079
 1413SOL    HW115698   3.373   4.514   0.348  0.2145 -2.5500  0.5294
 1413SOL    HW215699   3.514   4.551   0.395 -1.3879 -3.0583  1.7460
 1414SOL     OW15700   1.339   4.231   6.708  0.1859 -0.5151 -0.1187
 1414SOL    HW115701   1.307   4.292   6.774 -1.8941 -0.6459 -0.9800
 1414SOL    HW215702   1.426   4.206   6.737  0.4450 -1.2001 -1.4906
 1415SOL     OW15703   3.943   1.262   2.316  0.9048  0.1199 -0.1240
 1415SOL    HW115704   3.979   1.339   2.271  1.4870 -0.7414 -1.1255
 1415SOL    HW215705   4.018   1.207   2.293  0.2894 -0.8376  0.1701
 1416SOL     OW15706   0.377   3.530   6.818 -0.8265  0.7454  0.4159
 1416SOL    HW115707   0.322   3.463   6.859 -0.8261  0.4312 -0.1011
 1416SOL    HW215708   0.379   3.493   6.730  1.0690 -1.2150  1.2982
 1417SOL     OW15709   2.102   3.465   4.598  0.0535 -0.3596  0.0339
 1417SOL    HW115710   2.053   3.517   4.534  1.3220  1.5637  0.6334
 1417SOL    HW215711   2.088   3.380   4.557  1.0285 -0.6324  0.2659
 1418SOL     OW15712   0.954   4.426  13.465  0.1725  0.5403 -0.0380
 1418SOL    HW115713   0.897   4.450  13.538  0.5630  1.1336  0.0708
 1418SOL    HW215714   1.007   4.355  13.502 -0.6065  0.5906  1.1726
 1419SOL     OW15715   3.392   1.698   6.291 -0.3547 -0.5020  0.0586
 1419SOL    HW115716   3.428   1.636   6.228 -0.0337  0.4978 -0.7464
 1419SOL    HW215717   3.466   1.736   6.339  1.0975 -0.7587 -1.9948
 1420SOL     OW15718   4.220   4.143  17.657 -0.6057 -0.3005  0.2718
 1420SOL    HW115719   4.251   4.232  17.669 -1.1737  0.1130 -1.4353
 1420SOL    HW215720   4.136   4.144  17.612 -1.1570 -0.0212  1.2992
 1421SOL     OW15721   1.831   3.008  11.401 -0.5616 -0.0938  0.6353
 1421SOL    HW115722   1.796   3.097  11.412 -0.2495  0.0462  0.4919
 1421SOL    HW215723   1.804   2.972  11.486 -2.2940 -1.8199 -0.6377
 1422SOL     OW15724   0.317   2.075   6.165  0.1827 -0.8709  0.5130
 1422SOL    HW115725   0.278   1.995   6.198 -0.7391 -0.2051  1.0265
 1422SOL    HW215726   0.331   2.125   6.246  0.9445  2.2267 -1.5095
 1423SOL     OW15727   2.924   4.080   1.267 -0.4267 -0.6460 -0.0849
 1423SOL    HW115728   2.931   4.019   1.193  0.7576 -0.5730 -0.0414
 1423SOL    HW215729   2.831   4.066   1.282 -0.7628  1.6347 -0.0743
 1424SOL     OW15730   4.221   0.522  16.243 -0.0293  0.4212  0.1599
 1424SOL    HW115731   4.179   0.493  16.324 -0.2859 -0.4755 -0.2913
 1424SOL    HW215732   4.290   0.582  16.271 -0.6430 -0.1854  3.0224
 1425SOL     OW15733   4.003   2.158   1.366 -0.0347  0.1143  0.2643
 1425SOL    HW115734   4.029   2.075   1.325  0.3134  0.4831 -0.2680
 1425SOL    HW215735   3.917   2.178   1.330  0.4961  2.1795  0.1208
 1426SOL     OW15736   2.261   3.899   3.153  0.4873  0.0876  0.0763
 1426SOL    HW115737   2.169   3.873   3.147 -0.0221  1.4827  1.6341
 1426SOL    HW215738   2.265   3.897   3.249 -1.6113 -3.9148  0.0706
 1427SOL     OW15739   1.724   2.128   3.587 -0.5171 -0.2743  0.6676
 1427SOL    HW115740   1.808   2.121   3.634 -1.3380  1.5144  2.3588
 1427SOL    HW215741   1.739   2.196   3.521  0.8531 -0.0448  1.1979
 1428SOL     OW15742   0.704   4.388   2.827  0.1710 -0.3334  0.5576
 1428SOL    HW115743   0.700   4.313   2.767 -0.8695 -0.2861  0.5689
 1428SOL    HW215744   0.772   4.359   2.888  0.6956 -1.5940 -0.6359
 1429SOL     OW15745   0.915   0.909   3.738  0.4373 -0.1270 -0.5617
 1429SOL    HW115746   1.009   0.891   3.744  0.6221  0.8996 -0.4375
 1429SOL    HW215747   0.877   0.835   3.786 -1.3475  0.2923 -1.3505
 1430SOL     OW15748   3.289   0.171  11.929 -0.0445 -0.3747  0.2545
 1430SOL    HW115749   3.298   0.256  11.971 -1.4132 -0.5765  0.9688
 1430SOL    HW215750   3.196   0.151  11.944 -0.6341  2.3639  0.2151
 1431SOL     OW15751   1.300   2.472   5.901 -0.5117 -0.5850 -0.1664
 1431SOL    HW115752   1.250   2.408   5.850  0.0627  1.5790 -3.3947
 1431SOL    HW215753   1.317   2.534   5.830  0.7198 -0.0571  0.5888
 1432SOL     OW15754   2.610   2.489   5.361 -1.2041 -0.1529  0.4998
 1432SOL    HW115755   2.636   2.482   5.453 -1.5133 -0.8177  0.5325
 1432SOL    HW215756   2.527   2.443   5.372 -0.9436 -0.2109  2.1466
 1433SOL     OW15757   0.770   2.461   5.952  0.7531  0.6805  0.0160
 1433SOL    HW115758   0.837   2.454   6.020 -0.7146 -0.0669  1.3975
 1433SOL    HW215759   0.825   2.453   5.874  0.5586 -3.0744  0.2646
 1434SOL     OW15760   2.237   4.026   4.052 -0.0064  1.0468  0.2843
 1434SOL    HW115761   2.287   4.046   3.972 -0.4406 -2.9134 -1.0284
 1434SOL    HW215762   2.247   4.101   4.110 -2.8452  1.9682 -0.4386
 1435SOL     OW15763   3.296   2.084   5.241  0.1766  0.2375  0.2518
 1435SOL    HW115764   3.389   2.071   5.260  0.4220 -0.9910 -1.7195
 1435SOL    HW215765   3.301   2.175   5.268 -1.6704  0.9308 -1.7523
 1436SOL     OW15766   2.130   1.330  15.276  0.6294 -0.0701 -0.2441
 1436SOL    HW115767   2.100   1.267  15.211  1.0327  0.3354 -0.8294
 1436SOL    HW215768   2.169   1.388  15.211  0.8811  1.9709  1.6928
 1437SOL     OW15769   3.108   4.470   7.663  0.1743 -0.0161 -0.1715
 1437SOL    HW115770   3.082   4.406   7.596 -0.6213 -0.6529  0.7513
 1437SOL    HW215771   3.064   4.440   7.742  2.1667 -1.5970  0.3316
 1438SOL     OW15772   1.552   1.561   8.406  0.1137  0.4875  0.7121
 1438SOL    HW115773   1.628   1.520   8.447 -1.4161 -1.2394  1.8237
 1438SOL    HW215774   1.544   1.645   8.451  0.4431  0.2452  1.2211
 1439SOL     OW15775   0.851   2.074   2.293  0.9293  0.0341  0.2959
 1439SOL    HW115776   0.922   2.115   2.244  0.8847  1.2532  1.2453
 1439SOL    HW215777   0.829   1.998   2.240 -1.3426  1.4038 -0.7548
 1440SOL     OW15778   4.575   4.149  16.278  0.1738  0.4868  0.8472
 1440SOL    HW115779   4.498   4.106  16.240  0.9699 -1.3861  1.3871
 1440SOL    HW215780   4.606   4.211  16.212 -3.2621  0.9721 -0.3263
 1441SOL     OW15781   1.449   0.109  15.884  0.3235  0.4749 -0.1889
 1441SOL    HW115782   1.493   0.190  15.859 -0.6160  1.7112  2.2534
 1441SOL    HW215783   1.416   0.095  15.795  1.6964 -0.5471 -0.5412
 1442SOL     OW15784   2.333   1.454  17.590 -0.8639  0.3396 -0.1193
 1442SOL    HW115785   2.327   1.415  17.503 -0.4848  0.4487 -0.1928
 1442SOL    HW215786   2.290   1.537  17.568  0.4881  0.8744 -0.7764
 1443SOL     OW15787   1.489   3.866   2.697  0.6707 -0.1419 -0.4141
 1443SOL    HW115788   1.397   3.864   2.670 -0.2595 -1.2054  2.9082
 1443SOL    HW215789   1.531   3.901   2.619  0.7076  2.5837  0.8459
 1444SOL     OW15790   0.687   2.990   7.457  0.5354 -0.1580 -0.2822
 1444SOL    HW115791   0.730   2.961   7.376 -1.2017  0.6157 -1.5029
 1444SOL    HW215792   0.599   3.006   7.422 -0.9069 -1.6817  2.7306
 1445SOL     OW15793   1.607   3.526   5.270 -0.3612  0.4463 -0.1693
 1445SOL    HW115794   1.646   3.455   5.321 -0.2712  1.5657  1.3060
 1445SOL    HW215795   1.517   3.493   5.272 -0.1765  0.0598  2.0042
 1446SOL     OW15796   1.043   1.017   5.706 -0.5864  0.0232  0.0233
 1446SOL    HW115797   1.076   1.053   5.624 -0.6085  0.7493  0.3376
 1446SOL    HW215798   0.954   0.987   5.688  0.0660 -1.6175 -0.5604
 1447SOL     OW15799   0.164   1.378   3.961  0.2289  0.0435  0.1060
 1447SOL    HW115800   0.126   1.403   4.045 -1.4246 -1.6379 -0.1197
 1447SOL    HW215801   0.183   1.285   3.976  0.5365 -0.4787 -3.5183
 1448SOL     OW15802   2.235   1.677   2.262 -0.1160  0.3741  0.1451
 1448SOL    HW115803   2.213   1.666   2.354 -0.3937  2.3197  0.3121
 1448SOL    HW215804   2.203   1.595   2.227  1.3707 -0.7166  1.3272
 1449SOL     OW15805   0.824   4.289   3.050  0.0677  0.2000 -0.1443
 1449SOL    HW115806   0.832   4.195   3.061  0.7204  0.0086 -2.2904
 1449SOL    HW215807   0.912   4.304   3.083 -0.7947  1.1887  1.6808
 1450SOL     OW15808   2.606   2.305   9.328  0.1651 -0.0559  0.1185
 1450SOL    HW115809   2.523   2.274   9.363 -0.5664  1.5150 -0.2148
 1450SOL    HW215810   2.667   2.272   9.394  0.9186 -1.4123 -1.2427
 1451SOL     OW15811   0.032   0.301   8.864 -0.0226  0.5287 -0.3419
 1451SOL    HW115812   4.685   0.368   8.853 -1.4675 -1.1400 -1.4554
 1451SOL    HW215813   0.111   0.354   8.852 -2.1102  3.3142 -1.8703
 1452SOL     OW15814   3.270   1.770   7.133  0.4381  0.2227 -0.3927
 1452SOL    HW115815   3.181   1.741   7.118  0.1443  0.7651  0.2995
 1452SOL    HW215816   3.249   1.843   7.191 -0.0124 -0.1641 -0.0724
 1453SOL     OW15817   0.260   4.348  14.058  0.3803 -0.1950 -0.2726
 1453SOL    HW115818   0.300   4.297  13.988  0.1894 -1.3699  0.4719
 1453SOL    HW215819   0.239   4.432  14.017 -1.7535 -0.9503 -0.7389
 1454SOL     OW15820   2.993   1.588   7.417 -0.2654  0.1005 -0.4219
 1454SOL    HW115821   2.980   1.673   7.375  1.0804  0.9813  0.9374
 1454SOL    HW215822   3.088   1.578   7.418  0.0559  3.0094  0.2216
 1455SOL     OW15823   1.160   1.737  15.045 -0.4332  0.1171 -0.0408
 1455SOL    HW115824   1.172   1.642  15.055  0.4166  0.1484 -0.7750
 1455SOL    HW215825   1.222   1.768  14.979 -0.9920 -2.3227 -1.7395
 1456SOL     OW15826   0.710   2.641   2.858  0.0529  0.3492  0.3470
 1456SOL    HW115827   0.632   2.594   2.829  0.6418 -0.0494 -0.5858
 1456SOL    HW215828   0.679   2.723   2.898  1.6807  0.9432  0.3818
 1457SOL     OW15829   4.444   2.224  13.880  0.0088 -0.2220 -0.1524
 1457SOL    HW115830   4.433   2.143  13.830  0.3913 -1.4259  1.7301
 1457SOL    HW215831   4.518   2.195  13.932  1.0862 -0.1687 -1.6689
 1458SOL     OW15832   4.474   0.389  15.737 -0.3265 -0.1498 -0.0310
 1458SOL    HW115833   4.484   0.470  15.687  1.7963 -0.0915  0.4839
 1458SOL    HW215834   4.397   0.409  15.789 -0.2092  1.7058 -0.5595
 1459SOL     OW15835   0.219   2.699   8.557 -0.2968 -0.5689 -0.1443
 1459SOL    HW115836   0.252   2.696   8.647  1.1113 -1.0721 -0.6698
 1459SOL    HW215837   0.185   2.788   8.563 -0.4682 -0.5063 -2.2470
 1460SOL     OW15838   3.298   1.982  15.472 -0.7142 -0.0641 -0.2739
 1460SOL    HW115839   3.389   1.997  15.446 -0.7115 -2.1243 -1.4615
 1460SOL    HW215840   3.304   1.912  15.538 -1.3075  3.3524  3.4388
 1461SOL     OW15841   1.613   4.106   6.733 -0.7127 -0.3480 -0.4779
 1461SOL    HW115842   1.577   4.019   6.746 -0.8855 -0.0248  1.1167
 1461SOL    HW215843   1.700   4.096   6.773 -1.8291  1.7284  2.4560
 1462SOL     OW15844   4.556   2.580   2.940 -0.2648 -0.3143 -0.0506
 1462SOL    HW115845   4.650   2.575   2.958 -0.1932  0.1872 -0.2861
 1462SOL    HW215846   4.543   2.501   2.889  1.0409 -0.1570 -0.6115
 1463SOL     OW15847   2.086   1.370   3.304  0.2393  0.7117 -0.8806
 1463SOL    HW115848   2.157   1.338   3.248 -0.5799 -0.5665 -1.1919
 1463SOL    HW215849   2.121   1.457   3.324  0.0346  0.6606 -0.2954
 1464SOL     OW15850   0.624   0.498   6.737  0.0317 -0.6635  0.0356
 1464SOL    HW115851   0.671   0.422   6.701  1.2883 -0.2211  0.7388
 1464SOL    HW215852   0.673   0.525   6.814  1.1907 -3.1205  0.1760
 1465SOL     OW15853   1.585   4.277   7.646 -0.4143  0.1814  0.6155
 1465SOL    HW115854   1.584   4.227   7.727  0.6164  2.0264  1.7580
 1465SOL    HW215855   1.515   4.228   7.602 -1.6812  1.8724  0.7256
 1466SOL     OW15856   3.064   4.126   8.637 -0.7834 -0.0340 -0.8972
 1466SOL    HW115857   3.127   4.195   8.618 -0.1090 -0.7123 -1.1113
 1466SOL    HW215858   3.066   4.089   8.549  2.3610  1.2976 -1.3587
 1467SOL     OW15859   1.487   2.270   5.642 -0.2526 -0.3580  0.3122
 1467SOL    HW115860   1.563   2.326   5.624 -0.3895 -0.3599 -0.2767
 1467SOL    HW215861   1.420   2.332   5.613 -0.0990 -0.3984 -0.1258
 1468SOL     OW15862   4.579   3.331   3.125  0.7138 -0.4669 -0.4318
 1468SOL    HW115863   4.485   3.318   3.141  1.0480 -3.5808 -0.9545
 1468SOL    HW215864   4.602   3.381   3.203 -0.9318 -0.9071  0.3420
 1469SOL     OW15865   1.295   0.893  12.945  0.2558 -0.4067 -0.5149
 1469SOL    HW115866   1.320   0.817  12.892  1.3062  0.6822 -1.5789
 1469SOL    HW215867   1.268   0.852  13.027  1.6847 -1.0468 -0.3608
 1470SOL     OW15868   4.297   3.759   4.631  0.6871 -0.0414  0.8277
 1470SOL    HW115869   4.264   3.819   4.698 -2.1533  1.1981 -1.6789
 1470SOL    HW215870   4.392   3.764   4.641  0.5230  2.3574  1.3448
 1471SOL     OW15871   3.690   3.625   2.097 -0.6883 -0.0581  0.7356
 1471SOL    HW115872   3.663   3.671   2.017 -0.2673  0.1010  0.6851
 1471SOL    HW215873   3.728   3.708   2.126  0.7718  0.0515 -1.4181
 1472SOL     OW15874   0.011   3.144  14.534 -0.5581 -0.1927  0.0987
 1472SOL    HW115875   0.033   3.080  14.602 -2.7084  0.2808  1.2332
 1472SOL    HW215876   0.030   3.226  14.581 -0.8407 -0.9162  1.4714
 1473SOL     OW15877   0.896   2.756  11.261  0.5415 -0.0188 -0.5545
 1473SOL    HW115878   0.901   2.751  11.166 -0.2311  2.0779 -0.7025
 1473SOL    HW215879   0.801   2.755  11.273  0.7880  0.7351  1.5168
 1474SOL     OW15880   4.349   4.330   7.726 -0.2582  0.1545 -0.1103
 1474SOL    HW115881   4.291   4.288   7.663 -0.3331 -0.7156  0.5405
 1474SOL    HW215882   4.317   4.417   7.702  1.3198  1.3177  1.9070
 1475SOL     OW15883   1.796   0.281   7.780  1.1655 -0.0418 -0.0427
 1475SOL    HW115884   1.852   0.356   7.761  2.5697 -1.1847 -0.3811
 1475SOL    HW215885   1.798   0.279   7.876 -2.5673  0.7882  0.0513
 1476SOL     OW15886   2.509   2.702   3.577  0.1478  0.4344  0.0476
 1476SOL    HW115887   2.569   2.634   3.608 -0.8006 -0.4725 -0.0788
 1476SOL    HW215888   2.555   2.732   3.499 -0.5837  1.0400 -0.1536
 1477SOL     OW15889   2.554   2.927   4.645  0.5288  0.2568  0.1183
 1477SOL    HW115890   2.609   3.004   4.661  0.1421  0.4106  0.7335
 1477SOL    HW215891   2.478   2.930   4.704  1.4010 -1.1754  1.3017
 1478SOL     OW15892   2.616   3.954  13.890 -0.0863 -0.6875 -0.6272
 1478SOL    HW115893   2.690   3.902  13.921  0.2466  0.7350  0.9252
 1478SOL    HW215894   2.571   3.955  13.974 -2.7423  3.2294 -2.0723
 1479SOL     OW15895   2.390   3.628   0.201 -0.8815  0.1302 -0.1790
 1479SOL    HW115896   2.324   3.664   0.141 -0.5111 -1.4241 -1.5187
 1479SOL    HW215897   2.468   3.674   0.170 -1.3538  1.1482  0.1445
 1480SOL     OW15898   0.673   4.441   7.099  0.0748  0.1140  0.1188
 1480SOL    HW115899   0.732   4.480   7.034  1.3111 -0.1466  1.0620
 1480SOL    HW215900   0.693   4.347   7.094 -0.4729  0.0934 -1.8508
 1481SOL     OW15901   3.837   1.676   8.945  0.2317 -0.0079 -0.9656
 1481SOL    HW115902   3.822   1.592   8.989 -1.6276  1.4208  1.1501
 1481SOL    HW215903   3.818   1.732   9.021 -1.5436 -1.5027 -0.3107
 1482SOL     OW15904   1.140   1.201   6.041  0.0659 -0.5046 -0.0803
 1482SOL    HW115905   1.097   1.262   6.101  0.7334 -0.0214 -0.0956
 1482SOL    HW215906   1.175   1.270   5.984 -1.6811 -0.3612 -0.9874
 1483SOL     OW15907   4.626   4.540  16.197  0.0593  0.3361  0.0113
 1483SOL    HW115908   4.601   4.483  16.269  0.6424  1.1563  0.8556
 1483SOL    HW215909   4.558   4.608  16.197  1.0073  1.2713 -0.1777
 1484SOL     OW15910   3.348   1.908   3.619 -0.5847  0.8855  0.3290
 1484SOL    HW115911   3.342   1.900   3.714 -2.2649  5.6480  0.5994
 1484SOL    HW215912   3.272   1.854   3.596 -1.4967  1.7878  1.2224
 1485SOL     OW15913   3.315   0.753  11.208 -0.1840 -0.7480  0.1934
 1485SOL    HW115914   3.403   0.782  11.182 -0.3973 -0.8518 -0.6490
 1485SOL    HW215915   3.304   0.695  11.133 -2.0841 -0.1565  0.0263
 1486SOL     OW15916   1.777   4.044   9.417  0.3679  0.5938  0.2523
 1486SOL    HW115917   1.734   4.086   9.491 -1.6319 -2.2696  0.7147
 1486SOL    HW215918   1.729   3.961   9.419 -0.6473  1.1824  0.3773
 1487SOL     OW15919   1.822   0.625   4.446  0.3058 -0.1422 -0.3885
 1487SOL    HW115920   1.751   0.682   4.418 -1.1160 -1.4561  0.5159
 1487SOL    HW215921   1.887   0.692   4.466  0.3140 -0.4954  0.7520
 1488SOL     OW15922   2.315   3.532  16.944 -0.3721 -0.2693 -0.0696
 1488SOL    HW115923   2.245   3.501  17.001 -1.2109  1.2976 -0.2478
 1488SOL    HW215924   2.314   3.483  16.862 -0.9259 -0.5706  0.1207
 1489SOL     OW15925   4.421   4.590  14.767  0.0414 -0.2733  0.3962
 1489SOL    HW115926   4.507   4.554  14.745  1.8240  3.4077  1.3143
 1489SOL    HW215927   4.418   4.567  14.859 -1.8220 -0.6231  0.2315
 1490SOL     OW15928   1.535   2.802   9.072 -0.0795 -0.7143 -0.2799
 1490SOL    HW115929   1.451   2.769   9.105  1.1935 -0.8948  2.7879
 1490SOL    HW215930   1.503   2.881   9.028  0.1236 -0.1406  0.6022
 1491SOL     OW15931   1.445   0.825   5.467  0.3412 -0.1299 -0.1726
 1491SOL    HW115932   1.506   0.823   5.393 -1.0391 -0.0190 -1.3146
 1491SOL    HW215933   1.450   0.915   5.499  0.3900  0.2683 -1.3131
 1492SOL     OW15934   3.894   1.634  16.525  0.5463 -0.0706  0.3258
 1492SOL    HW115935   3.908   1.668  16.613 -1.6587 -0.1933  0.7213
 1492SOL    HW215936   3.816   1.579  16.529 -1.3799  2.6857  0.6971
 1493SOL     OW15937   2.240   2.731   2.111 -0.1290 -0.2242 -0.7676
 1493SOL    HW115938   2.221   2.684   2.192  2.1740 -0.4551 -0.3535
 1493SOL    HW215939   2.250   2.821   2.144 -2.9706  0.0167 -0.5671
 1494SOL     OW15940   3.286   3.763   3.733  0.0206 -0.2932  0.0645
 1494SOL    HW115941   3.308   3.848   3.695 -0.6324 -0.0222  0.2938
 1494SOL    HW215942   3.276   3.710   3.654  0.1318  1.6514 -1.2397
 1495SOL     OW15943   1.775   1.336   2.229  0.0236 -0.2773 -0.4317
 1495SOL    HW115944   1.806   1.247   2.210 -2.1883 -1.1422 -0.1389
 1495SOL    HW215945   1.839   1.350   2.298 -0.6594  0.9673 -0.0384
 1496SOL     OW15946   2.993   1.941  17.470 -0.4323  0.1964  0.0424
 1496SOL    HW115947   2.930   1.964  17.538  0.1565  1.0668  0.2921
 1496SOL    HW215948   3.038   1.860  17.491 -0.2839  0.1880 -0.3064
 1497SOL     OW15949   1.525   1.523  17.426  0.1346 -0.7048 -0.2537
 1497SOL    HW115950   1.603   1.511  17.480  0.2380 -1.8779 -0.6714
 1497SOL    HW215951   1.457   1.525  17.493  1.2251 -1.7579  0.8967
 1498SOL     OW15952   3.383   3.082   0.260 -0.2086 -1.0382  0.2487
 1498SOL    HW115953   3.328   3.125   0.195  0.3099 -0.6063  0.0919
 1498SOL    HW215954   3.461   3.100   0.207 -0.5022  1.2016  0.5853
 1499SOL     OW15955   1.481   0.596  13.869  0.2741  0.2178  0.4977
 1499SOL    HW115956   1.404   0.648  13.845 -1.0102 -2.1328 -0.4672
 1499SOL    HW215957   1.527   0.581  13.787 -0.2567 -1.3543  0.4828
 1500SOL     OW15958   2.312   4.167   9.659  0.3878 -0.0779  0.0228
 1500SOL    HW115959   2.294   4.246   9.710  1.8453  0.9110 -1.0014
 1500SOL    HW215960   2.230   4.124   9.686  0.8283 -0.6515  0.4419
 1501SOL     OW15961   4.614   2.298   8.715  0.1923 -0.4918  0.0400
 1501SOL    HW115962   4.594   2.220   8.663 -1.7155 -0.2599  0.4330
 1501SOL    HW215963   4.703   2.287   8.748 -0.1145 -2.3707  0.2182
 1502SOL     OW15964   3.474   4.456   4.272 -0.0864  0.3288 -0.1643
 1502SOL    HW115965   3.471   4.552   4.272 -3.6236  0.2265 -0.4742
 1502SOL    HW215966   3.411   4.437   4.342 -0.0146 -0.0209 -0.1949
 1503SOL     OW15967   2.408   2.889   2.295 -0.2391  0.2326  0.1992
 1503SOL    HW115968   2.384   2.982   2.291 -0.6260  0.1125 -0.1687
 1503SOL    HW215969   2.361   2.866   2.375  1.0500 -0.0534  0.8798
 1504SOL     OW15970   0.533   3.988   6.349  0.5821 -0.2737  0.3202
 1504SOL    HW115971   0.441   3.992   6.323  0.1111 -0.8171  1.8895
 1504SOL    HW215972   0.555   4.077   6.320  1.6404 -0.4924  0.4215
 1505SOL     OW15973   3.560   0.164   4.474 -0.5240  0.1542 -0.0796
 1505SOL    HW115974   3.513   0.230   4.525 -0.3864 -1.3144  1.9395
 1505SOL    HW215975   3.645   0.207   4.478 -1.2874  1.4636  1.6085
 1506SOL     OW15976   1.442   0.874  11.874  0.2025  0.1551  0.3560
 1506SOL    HW115977   1.364   0.867  11.929  0.3837  1.7867  0.8279
 1506SOL    HW215978   1.414   0.931  11.802 -0.1901 -4.6951 -3.3421
 1507SOL     OW15979   0.604   4.406   3.151  0.3105 -0.0792 -0.0488
 1507SOL    HW115980   0.624   4.471   3.084 -1.9676 -0.5412 -1.1922
 1507SOL    HW215981   0.648   4.333   3.108  0.7070  0.4825 -0.5982
 1508SOL     OW15982   1.162   4.659   6.707 -0.1279  0.0566 -0.3739
 1508SOL    HW115983   1.200   4.631   6.623  1.6864  2.4671 -0.3420
 1508SOL    HW215984   1.197   4.595   6.769 -0.6087  0.2561  0.1025
 1509SOL     OW15985   2.003   2.504  12.849  0.2648  0.5701 -0.0272
 1509SOL    HW115986   1.988   2.430  12.908  1.0748 -0.7784 -1.5119
 1509SOL    HW215987   2.070   2.555  12.894  0.2240  0.6664 -0.0753
 1510SOL     OW15988   3.264   0.381   7.993 -0.2727  0.2513  0.8855
 1510SOL    HW115989   3.193   0.329   8.030  0.2807  0.6010  2.4164
 1510SOL    HW215990   3.216   0.418   7.919 -1.3314 -1.4153  0.7427
 1511SOL     OW15991   4.470   1.498   0.753 -0.1154 -0.6206  0.4582
 1511SOL    HW115992   4.381   1.507   0.720 -1.1176 -1.5333  2.9058
 1511SOL    HW215993   4.478   1.580   0.802 -0.7214 -1.1481  1.4305
 1512SOL     OW15994   0.979   4.295   6.841 -0.3373  0.2116  0.1563
 1512SOL    HW115995   1.047   4.249   6.792  0.7546  1.0611  0.8738
 1512SOL    HW215996   1.003   4.273   6.931 -1.6848  1.1455  0.7552
 1513SOL     OW15997   4.497   0.524  11.648 -0.0530  0.6933 -0.8703
 1513SOL    HW115998   4.558   0.487  11.584  0.1999 -1.0887  0.3858
 1513SOL    HW215999   4.416   0.489  11.611  0.3971 -0.0974 -1.1293
 1514SOL     OW16000   0.179   3.083   0.283 -0.3920 -0.1290  0.5610
 1514SOL    HW116001   0.234   3.049   0.353  1.4309 -0.1921 -0.9139
 1514SOL    HW216002   0.240   3.081   0.209 -0.6844  1.9518  0.2564
 1515SOL     OW16003   4.252   2.589   6.458  0.4067  0.0384  0.0560
 1515SOL    HW116004   4.335   2.611   6.501  0.9811 -1.4319 -0.3070
 1515SOL    HW216005   4.236   2.497   6.479  0.3444  0.8723  3.7486
 1516SOL     OW16006   2.038   4.696  17.545  0.5543 -0.1804 -0.5310
 1516SOL    HW116007   2.095   4.718  17.471 -1.7513 -2.1737 -2.9280
 1516SOL    HW216008   1.988   0.056  17.545  2.2245  0.8313 -0.0854
 1517SOL     OW16009   1.929   4.019   0.391 -0.4997 -0.0249  0.6490
 1517SOL    HW116010   1.859   3.953   0.382 -1.2799  0.8353  0.4440
 1517SOL    HW216011   2.003   3.965   0.362 -0.4138  0.3440  0.1963
 1518SOL     OW16012   2.149   2.052  13.553  0.5067  0.0752  0.3418
 1518SOL    HW116013   2.149   2.119  13.484 -0.4174 -0.4005 -0.1259
 1518SOL    HW216014   2.114   1.979  13.502 -1.9391 -0.6823  3.0771
 1519SOL     OW16015   2.510   3.841  13.506  0.0730  0.6008  0.0696
 1519SOL    HW116016   2.456   3.772  13.467  0.7644 -0.3803  0.8489
 1519SOL    HW216017   2.529   3.784  13.580  1.5267  2.5173  1.1932
 1520SOL     OW16018   0.212   2.587   4.283  0.1736  0.1541 -0.6597
 1520SOL    HW116019   0.134   2.538   4.305  0.8923 -0.8046 -0.2644
 1520SOL    HW216020   0.180   2.674   4.309 -1.0376 -1.1727  2.2242
 1521SOL     OW16021   3.174   3.444   5.902  0.2893 -0.8406 -0.2518
 1521SOL    HW116022   3.142   3.375   5.961 -1.0949  0.1206  0.1418
 1521SOL    HW216023   3.216   3.501   5.966 -3.3302  2.2566 -0.5802
 1522SOL     OW16024   1.610   3.718   2.369  0.0179 -0.0024 -0.4605
 1522SOL    HW116025   1.669   3.665   2.315  0.4381  0.2690 -0.2647
 1522SOL    HW216026   1.627   3.805   2.333 -0.7774  0.2431 -0.2523
 1523SOL     OW16027   0.468   2.000   3.793  0.2543 -0.5083  0.2391
 1523SOL    HW116028   0.409   2.024   3.722  1.7531  0.3686 -0.7135
 1523SOL    HW216029   0.547   1.982   3.742  0.1090  0.3650 -0.2858
 1524SOL     OW16030   4.012   0.837   1.036  0.5855 -0.0195 -0.7418
 1524SOL    HW116031   3.946   0.776   1.067 -0.2026  2.4717  2.5355
 1524SOL    HW216032   4.030   0.888   1.115 -0.3618 -1.8833  0.6701
 1525SOL     OW16033   1.686   4.032   7.433  0.1350 -0.1995 -0.7289
 1525SOL    HW116034   1.733   4.019   7.515 -2.9062 -0.8727  0.8991
 1525SOL    HW216035   1.601   3.991   7.451  0.7400 -0.7960  0.7674
 1526SOL     OW16036   4.057   0.367   4.051  0.6386  0.4101  0.3120
 1526SOL    HW116037   3.974   0.322   4.064  0.9835 -0.5582 -0.8729
 1526SOL    HW216038   4.052   0.392   3.959 -0.3104 -1.5336 -0.1566
 1527SOL     OW16039   4.588   4.250   7.963  0.5328 -1.4775 -0.2321
 1527SOL    HW116040   4.517   4.230   8.023  1.2317  2.2008  1.7844
 1527SOL    HW216041   4.584   4.344   7.980  2.6899 -1.0912 -1.7713
 1528SOL     OW16042   3.568   2.795   5.879 -0.6149  0.0658 -0.5146
 1528SOL    HW116043   3.497   2.853   5.850 -2.4576 -0.5588  2.7316
 1528SOL    HW216044   3.639   2.858   5.864 -0.1372 -0.2774  0.3489
 1529SOL     OW16045   0.917   1.781   1.621  0.1318  0.3732  0.0070
 1529SOL    HW116046   0.952   1.705   1.574  0.6567  0.6206 -0.0088
 1529SOL    HW216047   0.828   1.765   1.652  0.3246 -0.4596  0.1204
 1530SOL     OW16048   0.012   3.831   3.319 -0.5171 -0.1884  0.0156
 1530SOL    HW116049   0.032   3.925   3.323  2.2582 -0.8140  0.9003
 1530SOL    HW216050   0.100   3.800   3.297 -1.6989 -3.8091  0.4805
 1531SOL     OW16051   1.142   1.755   6.101 -0.2531  0.2958  0.6851
 1531SOL    HW116052   1.216   1.724   6.048  0.8463  1.0867  1.7597
 1531SOL    HW216053   1.148   1.849   6.083 -0.8051  0.1762 -0.1359
 1532SOL     OW16054   2.111   4.546  10.436 -0.1462  0.2901 -0.3356
 1532SOL    HW116055   2.079   4.579  10.352  4.0701 -0.3307 -2.1852
 1532SOL    HW216056   2.149   4.625  10.473 -1.0235 -0.1426  1.4805
 1533SOL     OW16057   2.640   2.693  16.825  0.1288 -0.2240 -0.2756
 1533SOL    HW116058   2.653   2.604  16.792  2.7076 -0.9350  2.6357
 1533SOL    HW216059   2.733   2.712  16.839  0.7274 -2.4318 -1.1299
 1534SOL     OW16060   0.926   2.300  14.978  0.0752  0.1060  0.3065
 1534SOL    HW116061   0.841   2.297  14.935 -0.4219 -0.6545  1.3381
 1534SOL    HW216062   0.944   2.394  14.988 -0.7617  0.2405  0.5455
 1535SOL     OW16063   0.645   1.135   8.430  0.5079 -0.2160  0.1270
 1535SOL    HW116064   0.691   1.053   8.446  0.4218 -0.4645 -0.9371
 1535SOL    HW216065   0.685   1.175   8.354  1.5052  0.7893  1.1865
 1536SOL     OW16066   0.859   0.430   4.752 -0.0556 -0.7414  0.4229
 1536SOL    HW116067   0.941   0.380   4.761 -0.2392 -0.6647  2.6437
 1536SOL    HW216068   0.897   0.515   4.773 -1.2985 -0.3620  1.1031
 1537SOL     OW16069   3.971   0.680  15.873 -0.4156  0.0979  0.5998
 1537SOL    HW116070   3.912   0.677  15.798 -0.0519 -0.3372  0.3329
 1537SOL    HW216071   4.017   0.760  15.851 -0.2370 -0.4478 -1.0118
 1538SOL     OW16072   3.283   2.384   7.909  0.4403 -0.4287  0.5364
 1538SOL    HW116073   3.318   2.334   7.983 -1.2050 -2.1928  0.1001
 1538SOL    HW216074   3.364   2.435   7.900  0.8600 -0.7880  2.2725
 1539SOL     OW16075   3.147   1.773   1.044  0.3894  0.3297  0.4967
 1539SOL    HW116076   3.138   1.778   1.139 -3.2744  1.6618  0.0708
 1539SOL    HW216077   3.241   1.754   1.044  0.4021  0.3968  0.9209
 1540SOL     OW16078   2.617   3.627   4.643 -0.0942  0.1458  0.0647
 1540SOL    HW116079   2.642   3.559   4.706  2.6123  1.3370  0.2481
 1540SOL    HW216080   2.521   3.625   4.641 -0.0912 -0.1097  0.1504
 1541SOL     OW16081   0.439   0.231   4.025 -0.2554 -0.2423 -0.5366
 1541SOL    HW116082   0.498   0.201   3.957  1.3461  3.3096 -0.7462
 1541SOL    HW216083   0.445   0.156   4.084 -0.5379  0.6630  0.6601
 1542SOL     OW16084   2.673   2.515   1.400  0.2185 -0.1095 -0.8149
 1542SOL    HW116085   2.762   2.530   1.430 -0.4909 -1.0755  1.7414
 1542SOL    HW216086   2.658   2.427   1.434 -0.4662 -0.4600 -1.9993
 1543SOL     OW16087   0.304   0.528  10.627 -0.2964  0.3715  0.3680
 1543SOL    HW116088   0.314   0.573  10.543 -0.2149  2.1739  1.3319
 1543SOL    HW216089   0.218   0.487  10.618  0.4610 -0.9172 -0.9150
 1544SOL     OW16090   3.249   4.296  15.468 -0.0037 -0.7238 -0.0131
 1544SOL    HW116091   3.195   4.372  15.489 -0.6186 -1.9508  2.8553
 1544SOL    HW216092   3.216   4.270  15.382  2.3100 -0.2509 -1.0359
 1545SOL     OW16093   2.537   1.128  10.458  0.5419 -0.5325  0.4376
 1545SOL    HW116094   2.588   1.138  10.538  2.0399  2.2665 -0.8447
 1545SOL    HW216095   2.535   1.218  10.424  0.4039 -1.0044 -0.7898
 1546SOL     OW16096   0.559   2.519   5.459 -0.5643  0.2122 -0.7836
 1546SOL    HW116097   0.561   2.524   5.363  3.9970  1.2153 -0.6459
 1546SOL    HW216098   0.638   2.567   5.484 -0.5197 -0.6718  0.7780
 1547SOL     OW16099   1.190   3.563   3.318 -0.8340 -0.5216  0.3466
 1547SOL    HW116100   1.118   3.603   3.269 -1.3697 -0.5745  1.1058
 1547SOL    HW216101   1.223   3.504   3.251  1.7152  1.8388 -0.4880
 1548SOL     OW16102   1.358   0.936   4.040 -0.5475  0.1483  1.1931
 1548SOL    HW116103   1.397   0.974   3.962  0.7501 -1.4912  1.0457
 1548SOL    HW216104   1.436   0.907   4.088 -0.4428 -2.9021 -0.8273
 1549SOL     OW16105   2.719   2.523   7.947 -0.2838 -0.3356  0.0907
 1549SOL    HW116106   2.756   2.536   8.034 -0.5433 -1.1813  0.3226
 1549SOL    HW216107   2.655   2.453   7.959  0.8267 -1.3650 -0.0476
 1550SOL     OW16108   3.549   1.102  11.641  0.0017 -0.5214 -0.2729
 1550SOL    HW116109   3.581   1.064  11.559  0.0887 -0.4181 -0.2868
 1550SOL    HW216110   3.624   1.092  11.699 -2.2431 -0.3177  2.6349
 1551SOL     OW16111   1.625   4.512  10.898  0.4359 -0.0476 -0.2646
 1551SOL    HW116112   1.616   4.569  10.821  1.5347 -1.7080 -1.6201
 1551SOL    HW216113   1.640   4.424  10.863 -0.4573  0.1216 -1.0713
 1552SOL     OW16114   4.502   3.270   0.927 -0.5312  0.0133 -0.1554
 1552SOL    HW116115   4.537   3.358   0.929  2.5954 -1.2784  2.5595
 1552SOL    HW216116   4.523   3.241   1.016 -0.8605  0.8213  0.1860
 1553SOL     OW16117   2.456   3.952   6.108 -0.0708  0.3613 -0.4705
 1553SOL    HW116118   2.510   4.029   6.095 -0.2226  0.8269  1.6735
 1553SOL    HW216119   2.407   3.969   6.027 -1.9661  3.0725  1.2603
 1554SOL     OW16120   1.353   4.283   5.796  0.0129  0.4750  0.2965
 1554SOL    HW116121   1.359   4.227   5.719 -0.6525  1.6028 -0.5720
 1554SOL    HW216122   1.282   4.236   5.840 -2.5694  0.6778 -3.6600
 1555SOL     OW16123   0.408   3.354   3.897 -0.1899 -1.0270  0.7005
 1555SOL    HW116124   0.422   3.446   3.918 -0.8707 -0.9287  0.7404
 1555SOL    HW216125   0.486   3.306   3.922  0.7336  0.7286  1.1674
 1556SOL     OW16126   0.225   0.448   6.469  0.9344 -0.5960  0.2195
 1556SOL    HW116127   0.154   0.429   6.408  1.3501  0.7259 -0.6598
 1556SOL    HW216128   0.291   0.387   6.435  1.6459  0.4841 -0.3176
 1557SOL     OW16129   3.689   1.750   8.229 -0.5818  0.4243 -0.1107
 1557SOL    HW116130   3.724   1.672   8.273  0.2265 -0.6537 -2.7000
 1557SOL    HW216131   3.758   1.812   8.210 -0.2006  0.5301  1.6393
 1558SOL     OW16132   3.131   1.282   4.803  0.3521  0.1075  0.5450
 1558SOL    HW116133   3.181   1.349   4.756  0.4448  0.1542  0.7134
 1558SOL    HW216134   3.164   1.203   4.759  1.3059  1.0303 -0.3974
 1559SOL     OW16135   1.706   1.542   9.270  0.0950 -0.2610 -0.0982
 1559SOL    HW116136   1.700   1.606   9.199 -0.2824  2.2532  2.1897
 1559SOL    HW216137   1.800   1.529   9.285 -0.2664 -0.1809  2.2592
 1560SOL     OW16138   3.865   2.600   7.784 -0.2862 -0.2471  0.0002
 1560SOL    HW116139   3.805   2.672   7.764  0.7729  0.6579  0.1419
 1560SOL    HW216140   3.901   2.626   7.868 -0.3460  0.5528 -0.2241
 1561SOL     OW16141   1.295   2.820   6.176 -0.3628 -0.4099 -0.2857
 1561SOL    HW116142   1.257   2.862   6.253 -2.0271 -4.0103  0.8881
 1561SOL    HW216143   1.377   2.868   6.187 -1.7135  1.8879 -0.1606
 1562SOL     OW16144   3.916   0.787   8.203  0.3246 -0.1909 -0.4841
 1562SOL    HW116145   3.973   0.798   8.126 -0.2052 -0.5304 -0.9264
 1562SOL    HW216146   3.968   0.727   8.256  1.8997 -0.1042 -1.9246
 1563SOL     OW16147   3.258   1.167   3.234  0.3154  0.5111 -0.2112
 1563SOL    HW116148   3.180   1.217   3.210 -0.0535  0.8733  1.7726
 1563SOL    HW216149   3.323   1.204   3.174  2.3536  1.3498  2.5552
 1564SOL     OW16150   1.001   2.372  15.441 -0.3953  0.7838  0.0123
 1564SOL    HW116151   0.984   2.280  15.461 -0.8970  1.0680  0.8990
 1564SOL    HW216152   0.987   2.410  15.528  2.0603 -1.0732  1.2335
 1565SOL     OW16153   2.179   3.588   9.135  0.3313 -0.2175  0.3770
 1565SOL    HW116154   2.233   3.659   9.099 -0.2379  0.1805  0.2957
 1565SOL    HW216155   2.212   3.515   9.082 -0.3559 -0.1146 -0.1949
 1566SOL     OW16156   3.737   1.762   7.424 -0.0051  0.3417  0.0220
 1566SOL    HW116157   3.667   1.826   7.436 -1.1484 -1.4654  2.9656
 1566SOL    HW216158   3.796   1.774   7.498 -1.1353 -1.5523  1.2356
 1567SOL     OW16159   1.679   1.193   4.060 -0.0070  0.2066  0.9372
 1567SOL    HW116160   1.668   1.149   3.975  0.1662 -0.3355  1.1997
 1567SOL    HW216161   1.656   1.120   4.118  1.8397 -0.9142  0.2532
 1568SOL     OW16162   4.406   2.977   7.588 -0.3817  0.1400 -0.1710
 1568SOL    HW116163   4.443   3.028   7.660 -0.1089 -1.5139  0.8626
 1568SOL    HW216164   4.457   2.895   7.589 -1.2187 -0.3804 -1.0090
 1569SOL     OW16165   0.920   0.873   2.766 -0.3326 -0.0935  0.0060
 1569SOL    HW116166   0.841   0.927   2.770  0.0600  0.3892  1.1459
 1569SOL    HW216167   0.905   0.840   2.855  0.9893 -0.0202  0.2557
 1570SOL     OW16168   2.916   0.575   2.412 -0.0698  0.3223 -0.3992
 1570SOL    HW116169   2.979   0.503   2.423 -1.4650 -1.2082 -2.2364
 1570SOL    HW216170   2.847   0.545   2.471  1.7564 -0.8886  1.1484
 1571SOL     OW16171   4.696   0.255   3.362 -0.1828  0.7789  0.3068
 1571SOL    HW116172   4.609   0.216   3.354 -0.5085  1.7784 -1.0921
 1571SOL    HW216173   0.015   0.246   3.275 -1.1938  0.5201 -0.1431
 1572SOL     OW16174   2.119   0.907   2.069 -0.0887 -0.2740 -0.0138
 1572SOL    HW116175   2.214   0.916   2.061 -0.0289 -0.4197  0.4838
 1572SOL    HW216176   2.099   0.852   1.994  0.1608 -2.1907  1.3047
 1573SOL     OW16177   2.037   3.046   4.883 -0.3315 -0.0767  0.1322
 1573SOL    HW116178   1.946   3.027   4.859  0.2587 -0.6768 -1.6209
 1573SOL    HW216179   2.033   3.034   4.978 -2.3698  0.2043  0.0948
 1574SOL     OW16180   3.893   1.841  12.725 -0.5629  0.2416 -0.0323
 1574SOL    HW116181   3.920   1.882  12.807  1.9648  1.0071 -1.2364
 1574SOL    HW216182   3.963   1.777  12.722 -0.2069  0.6220  0.1589
 1575SOL     OW16183   2.636   3.095   6.067 -0.5416 -0.0766  0.0945
 1575SOL    HW116184   2.583   3.059   6.137 -0.5228 -1.4302 -0.5796
 1575SOL    HW216185   2.685   3.015   6.051  2.1187  1.5608  0.0227
 1576SOL     OW16186   4.245   0.550   9.242 -0.3352 -0.0360 -0.2282
 1576SOL    HW116187   4.246   0.521   9.333  0.4738  2.9301  0.6842
 1576SOL    HW216188   4.339   0.546   9.227 -0.5127  2.0628 -1.8556
 1577SOL     OW16189   2.788   2.159   4.674 -0.0145 -0.2256 -0.2696
 1577SOL    HW116190   2.857   2.142   4.609 -0.3098 -1.1170 -0.3580
 1577SOL    HW216191   2.713   2.124   4.628  0.7072 -1.2976 -0.6418
 1578SOL     OW16192   4.085   1.627  10.339 -0.1113  0.5122 -0.4277
 1578SOL    HW116193   4.103   1.649  10.248 -0.0613 -1.5459 -0.9142
 1578SOL    HW216194   4.016   1.563  10.323  2.2174 -2.4513  1.5198
 1579SOL     OW16195   0.062   4.583   4.846  0.2487 -0.2789  0.5088
 1579SOL    HW116196   0.048   4.514   4.910  0.6535 -0.7047  0.1362
 1579SOL    HW216197   4.694   4.618   4.841  0.5886  0.6566  0.8333
 1580SOL     OW16198   0.532   4.311   3.620  0.3935 -0.3040 -0.2487
 1580SOL    HW116199   0.585   4.298   3.542 -1.0559 -2.2101 -0.9034
 1580SOL    HW216200   0.593   4.360   3.677  2.3752 -0.5126 -2.1976
 1581SOL     OW16201   2.880   3.394  14.068  0.5938  0.2226 -0.3690
 1581SOL    HW116202   2.826   3.443  14.130  0.4498  1.9908 -1.8886
 1581SOL    HW216203   2.937   3.352  14.133 -0.2600 -0.6558 -0.1843
 1582SOL     OW16204   0.451   4.028  14.100 -0.0907 -0.7296 -0.0404
 1582SOL    HW116205   0.438   4.044  14.006 -0.7893  0.3014  0.2329
 1582SOL    HW216206   0.362   4.042  14.131  0.0172  0.1847 -0.1422
 1583SOL     OW16207   4.353   1.501   6.214 -0.4078  0.2481 -0.2327
 1583SOL    HW116208   4.370   1.453   6.133 -0.8508  0.3171 -0.3675
 1583SOL    HW216209   4.348   1.428   6.276 -0.8523 -0.4627 -1.1011
 1584SOL     OW16210   4.710   3.595  15.858  0.1450 -0.5406 -0.0008
 1584SOL    HW116211   4.657   3.650  15.800 -0.0447  1.6155  2.2463
 1584SOL    HW216212   0.071   3.627  15.821  0.5206 -1.6828 -0.1697
 1585SOL     OW16213   4.542   2.899   2.637 -0.1327  0.0503  0.3135
 1585SOL    HW116214   4.472   2.833   2.632 -0.3651  0.1911  1.5905
 1585SOL    HW216215   4.496   2.974   2.600 -0.8293 -0.8927 -0.7271
 1586SOL     OW16216   1.442   2.757   3.729  0.1186  0.0322 -0.3017
 1586SOL    HW116217   1.418   2.697   3.658  2.5802 -1.4590  0.1166
 1586SOL    HW216218   1.360   2.806   3.726  0.2978  0.1791 -2.7733
 1587SOL     OW16219   3.157   0.795   7.933  0.5237 -0.0949  0.1380
 1587SOL    HW116220   3.064   0.811   7.917  0.1237 -0.6761  1.8944
 1587SOL    HW216221   3.201   0.814   7.850  0.7384 -0.3346  0.1957
 1588SOL     OW16222   0.545   1.298   9.648  0.2070  0.2218 -0.0784
 1588SOL    HW116223   0.616   1.329   9.704 -0.5066 -0.4829  1.2314
 1588SOL    HW216224   0.473   1.320   9.708 -0.2362  0.1183 -0.5764
 1589SOL     OW16225   2.049   0.621   4.023 -0.4349  0.5386  0.4674
 1589SOL    HW116226   2.080   0.565   4.094  0.5088  1.1210  0.5137
 1589SOL    HW216227   2.072   0.560   3.954 -0.3910  1.2999 -0.1925
 1590SOL     OW16228   4.647   2.205   4.963 -0.4688 -0.2229 -0.1307
 1590SOL    HW116229   4.682   2.156   4.888 -0.4248 -2.4527  1.3498
 1590SOL    HW216230   4.622   2.288   4.922 -3.2262 -0.7900  0.4075
 1591SOL     OW16231   3.899   1.546   2.970  0.1287 -0.7523 -0.5232
 1591SOL    HW116232   3.982   1.514   2.933  0.4868  0.3898 -0.7101
 1591SOL    HW216233   3.835   1.481   2.942  1.1273 -2.3315  0.8484
 1592SOL     OW16234   0.134   3.062   8.277 -0.1509  0.0440 -0.2474
 1592SOL    HW116235   0.217   3.032   8.315 -0.4968  1.9779  2.0063
 1592SOL    HW216236   0.146   3.047   8.183  2.4422  2.1010 -0.2368
 1593SOL     OW16237   4.699   3.991  16.043 -0.0778 -0.0463 -0.1068
 1593SOL    HW116238   4.713   3.954  15.956 -0.7310 -1.2021  0.2921
 1593SOL    HW216239   4.680   4.084  16.026  2.7691  1.0508  2.7618
 1594SOL     OW16240   1.315   1.856   3.693  0.2702 -0.1814  0.6046
 1594SOL    HW116241   1.273   1.875   3.776  0.8624 -0.0645  0.8817
 1594SOL    HW216242   1.243   1.859   3.630  0.6912  0.7440  0.1647
 1595SOL     OW16243   1.617   4.262   5.965  0.1079  0.1154  0.0811
 1595SOL    HW116244   1.561   4.246   5.890  1.5061  1.8656 -1.3353
 1595SOL    HW216245   1.601   4.356   5.972  0.8963  0.2943 -0.5811
 1596SOL     OW16246   3.257   2.519   2.327  0.3800 -0.2000 -0.3591
 1596SOL    HW116247   3.269   2.519   2.232 -1.7880 -0.8952 -0.6260
 1596SOL    HW216248   3.345   2.522   2.366 -0.0156  1.9867  0.3557
 1597SOL     OW16249   2.627   0.414   8.220 -0.2424  0.2012  0.1681
 1597SOL    HW116250   2.602   0.442   8.132 -0.2132 -1.7683 -0.4746
 1597SOL    HW216251   2.670   0.496   8.244  1.2521 -0.5855  0.1973
 1598SOL     OW16252   0.553   0.937   0.090  0.2399  0.7233 -0.4294
 1598SOL    HW116253   0.574   0.931  17.685 -1.4531 -0.6550 -0.7216
 1598SOL    HW216254   0.545   0.843   0.109  0.7004  0.6964 -0.3684
 1599SOL     OW16255   0.529   2.429  16.798 -0.4718  0.1680  0.3729
 1599SOL    HW116256   0.501   2.338  16.797 -0.2662  0.1192 -0.3135
 1599SOL    HW216257   0.472   2.468  16.865 -2.6499 -0.5241 -1.0855
 1600SOL     OW16258   2.112   4.205   4.699  0.6152 -0.3977  0.0423
 1600SOL    HW116259   2.135   4.293   4.730  2.5704 -0.4853 -1.1490
 1600SOL    HW216260   2.198   4.165   4.710  0.2044 -1.9133 -2.3735
 1601SOL     OW16261   0.869   4.395   8.927  0.1358  0.5913  0.2944
 1601SOL    HW116262   0.869   4.302   8.905  3.6313  0.4818  0.8734
 1601SOL    HW216263   0.946   4.421   8.877 -0.1883  0.2711 -0.3711
 1602SOL     OW16264   2.095   1.941  11.806  0.4989 -0.2365  0.1820
 1602SOL    HW116265   2.103   2.035  11.790 -1.5574 -0.4816 -2.2430
 1602SOL    HW216266   2.121   1.928  11.897 -0.1361 -0.6034  0.3084
 1603SOL     OW16267   2.375   0.878   0.616 -0.5952 -0.3404  0.7445
 1603SOL    HW116268   2.326   0.937   0.559 -0.3172 -1.2801 -0.4770
 1603SOL    HW216269   2.335   0.794   0.592 -1.7871 -0.5715  3.5391
 1604SOL     OW16270   2.779   4.458   8.066 -0.3316 -0.2479  0.5741
 1604SOL    HW116271   2.813   4.523   8.128  0.6417 -1.4077  1.2518
 1604SOL    HW216272   2.865   4.421   8.049  0.7564  2.8557 -0.7551
 1605SOL     OW16273   2.968   2.061   4.509  0.0303 -0.6221 -0.6220
 1605SOL    HW116274   3.045   2.005   4.515  0.8872  0.4096 -2.0216
 1605SOL    HW216275   2.964   2.078   4.415  1.3447  3.4467  0.0327
 1606SOL     OW16276   0.934   2.354  16.943  0.2312  0.0609 -0.2481
 1606SOL    HW116277   0.872   2.405  16.890 -1.1171 -1.4477 -0.1294
 1606SOL    HW216278   1.001   2.413  16.977 -0.1376 -0.0583  0.6952
 1607SOL     OW16279   4.092   1.440   8.303 -0.1963 -0.6613  0.3568
 1607SOL    HW116280   4.167   1.382   8.287  0.1077 -0.3490  0.6775
 1607SOL    HW216281   4.093   1.449   8.398 -0.0614  1.3022  0.1662
 1608SOL     OW16282   1.010   4.708   3.947  0.1902 -0.1781  0.0506
 1608SOL    HW116283   0.992   0.072   3.907  1.3344  0.1104  0.1592
 1608SOL    HW216284   1.094   4.720   3.991 -1.1979 -0.4293  2.8129
 1609SOL     OW16285   3.945   3.511   8.585 -0.0212 -0.6263 -0.2797
 1609SOL    HW116286   3.934   3.592   8.636  1.1162 -0.4226 -0.3435
 1609SOL    HW216287   3.936   3.550   8.498 -0.9660 -1.6293 -0.6343
 1610SOL     OW16288   3.748   2.869  13.204 -0.3431 -0.0224 -0.2717
 1610SOL    HW116289   3.751   2.777  13.231 -0.0187 -0.2840 -1.2115
 1610SOL    HW216290   3.840   2.896  13.203 -0.1471 -0.5483  3.0313
 1611SOL     OW16291   0.771   0.420   2.794  0.1346 -0.6066 -0.1376
 1611SOL    HW116292   0.763   0.338   2.746  0.0178  0.1176 -1.3625
 1611SOL    HW216293   0.758   0.482   2.722 -1.8444  0.5181  1.1949
 1612SOL     OW16294   4.489   2.855   5.049  1.0218 -0.5123  0.4634
 1612SOL    HW116295   4.504   2.796   4.976 -0.1924  0.1383 -0.3168
 1612SOL    HW216296   4.481   2.940   5.005  0.6557 -0.6273  0.3051
 1613SOL     OW16297   1.186   3.256   8.357 -0.3907 -0.1093 -0.0180
 1613SOL    HW116298   1.136   3.319   8.305 -1.7015 -1.6169 -0.5667
 1613SOL    HW216299   1.247   3.215   8.295  1.0054 -3.9125  3.8659
 1614SOL     OW16300   2.653   2.722   4.488 -0.3359 -0.4500  0.3806
 1614SOL    HW116301   2.707   2.752   4.560 -1.4077 -1.0414  1.4257
 1614SOL    HW216302   2.581   2.783   4.508 -0.3627 -0.2975 -0.1743
 1615SOL     OW16303   0.007   4.307   3.579  0.4348  0.1442  0.3554
 1615SOL    HW116304   4.697   4.289   3.667 -1.8547  0.6837 -0.3758
 1615SOL    HW216305   0.079   4.367   3.601  1.1290 -0.8041  0.6993
 1616SOL     OW16306   0.478   2.679   9.082 -0.2322 -0.5421  0.4503
 1616SOL    HW116307   0.385   2.663   9.098  0.1241 -0.0391  3.0237
 1616SOL    HW216308   0.524   2.635   9.154  0.8142  0.5869  0.4796
 1617SOL     OW16309   3.904   2.196  12.121 -0.4630  0.1802  0.3967
 1617SOL    HW116310   3.972   2.171  12.184  0.5231 -2.0925 -1.6112
 1617SOL    HW216311   3.944   2.167  12.040 -1.7669 -1.8044  0.4494
 1618SOL     OW16312   4.282   1.990  13.173 -0.3208 -0.1915 -0.2277
 1618SOL    HW116313   4.204   1.939  13.194 -1.1973 -0.0071 -3.0199
 1618SOL    HW216314   4.315   1.963  13.087 -0.5440  0.5640 -0.5483
 1619SOL     OW16315   3.852   2.770   7.531  0.0042  0.0410  0.3354
 1619SOL    HW116316   3.892   2.855   7.510 -2.5531  1.3199  0.6056
 1619SOL    HW216317   3.776   2.806   7.577 -1.0068 -0.7198 -0.7581
 1620SOL     OW16318   4.046   2.603   9.236  0.8413  0.2588 -0.7820
 1620SOL    HW116319   4.119   2.665   9.235  0.0344  1.2805  2.0060
 1620SOL    HW216320   4.003   2.628   9.154 -0.7204  0.3042  0.0496
 1621SOL     OW16321   0.424   0.937   6.685 -0.5643 -0.5098 -0.0246
 1621SOL    HW116322   0.334   0.968   6.675 -0.2080 -0.2736 -2.5002
 1621SOL    HW216323   0.404   0.850   6.650  0.2581  0.0604 -1.9007
 1622SOL     OW16324   3.345   3.270   7.366 -0.0851 -0.2608 -0.5619
 1622SOL    HW116325   3.364   3.177   7.353 -1.7232 -1.2822  4.5765
 1622SOL    HW216326   3.253   3.257   7.386  0.2065 -0.1324  0.8425
 1623SOL     OW16327   0.313   1.096  17.064  0.2394 -0.0493 -0.1237
 1623SOL    HW116328   0.238   1.046  17.096  0.9355 -0.3963  0.9814
 1623SOL    HW216329   0.345   1.155  17.133  0.2471 -0.8448  0.5574
 1624SOL     OW16330   3.088   3.240  15.614  0.1950 -0.2539  0.1728
 1624SOL    HW116331   3.095   3.237  15.709 -4.1815 -1.3815  0.4499
 1624SOL    HW216332   3.110   3.150  15.589 -3.4271 -1.4676  1.2746
 1625SOL     OW16333   1.248   3.549   1.399  0.1729  0.2904  0.2029
 1625SOL    HW116334   1.200   3.610   1.343 -1.4460 -1.4672 -0.3379
 1625SOL    HW216335   1.333   3.547   1.356  0.5955 -0.7329  1.0806
 1626SOL     OW16336   0.942   3.380   4.262  0.1262  0.4006 -0.2157
 1626SOL    HW116337   1.029   3.414   4.243  2.0099 -2.7126  2.7229
 1626SOL    HW216338   0.936   3.305   4.202 -0.9886  0.3955 -0.1005
 1627SOL     OW16339   3.497   0.724   2.282 -0.4550 -0.2687 -1.3360
 1627SOL    HW116340   3.447   0.742   2.202 -2.1254  2.7440  0.4106
 1627SOL    HW216341   3.535   0.637   2.266  2.5310  1.5674 -4.3463
 1628SOL     OW16342   3.039   0.440   3.183  0.4668 -0.1396  0.3278
 1628SOL    HW116343   3.099   0.371   3.211  1.0299 -0.1799 -0.9541
 1628SOL    HW216344   3.059   0.517   3.237  1.6417  0.9615 -1.6538
 1629SOL     OW16345   2.865   3.269   2.843 -0.8031  0.0757  0.4575
 1629SOL    HW116346   2.771   3.254   2.835 -0.8368  0.6846 -0.2753
 1629SOL    HW216347   2.865   3.355   2.800 -1.1393 -0.0546  0.1977
 1630SOL     OW16348   2.586   4.405   7.002 -0.0031 -0.1820  0.1447
 1630SOL    HW116349   2.678   4.381   6.992 -0.4071 -1.5694 -0.2357
 1630SOL    HW216350   2.564   4.426   6.911  0.5161 -0.5702 -0.0705
 1631SOL     OW16351   4.377   0.702  16.403  0.1919  0.1946  0.3712
 1631SOL    HW116352   4.427   0.783  16.393  2.7657 -1.6018 -1.4386
 1631SOL    HW216353   4.292   0.744  16.403  0.3061  0.4277  0.1230
 1632SOL     OW16354   3.344   2.678  15.027 -0.4163  0.0805 -0.5107
 1632SOL    HW116355   3.364   2.585  15.033  3.3774  0.9213  0.1603
 1632SOL    HW216356   3.271   2.689  14.967  1.5485  1.1806 -2.7167
 1633SOL     OW16357   0.146   0.597   4.790 -1.4051 -0.0753  0.4612
 1633SOL    HW116358   0.223   0.560   4.746 -0.9909  0.0547  1.0804
 1633SOL    HW216359   0.168   0.563   4.877  0.0396 -0.1721  0.0496
 1634SOL     OW16360   2.700   2.475   7.420  0.0925  0.2889  0.3874
 1634SOL    HW116361   2.697   2.432   7.505  1.3421 -1.7812 -0.6185
 1634SOL    HW216362   2.766   2.543   7.431 -0.4365  0.5670  1.8483
 1635SOL     OW16363   0.778   0.970   7.670  0.6284  0.4166  0.1600
 1635SOL    HW116364   0.710   1.036   7.670  1.0491  0.8481 -0.0116
 1635SOL    HW216365   0.858   1.016   7.695  1.5274 -0.1995 -1.6211
 1636SOL     OW16366   2.102   2.996  15.320 -0.0691  0.2709 -0.0152
 1636SOL    HW116367   2.130   2.904  15.328  1.6876  0.7942 -0.1319
 1636SOL    HW216368   2.063   3.016  15.405  3.5483 -0.4121  1.8092
 1637SOL     OW16369   4.336   3.482   7.372  0.6269  0.2040  0.2694
 1637SOL    HW116370   4.389   3.560   7.356  1.2672 -0.2911 -0.0387
 1637SOL    HW216371   4.328   3.476   7.467 -1.0150  1.3165  0.1936
 1638SOL     OW16372   4.475   1.245   8.093 -0.1276  0.1462 -0.1700
 1638SOL    HW116373   4.554   1.192   8.106 -1.3162 -1.6385 -0.2677
 1638SOL    HW216374   4.484   1.316   8.157 -3.8992  0.7893 -0.3648
 1639SOL     OW16375   1.845   3.129   3.662 -0.2503 -0.0258  0.3939
 1639SOL    HW116376   1.795   3.052   3.638 -1.2862  0.2800  1.5728
 1639SOL    HW216377   1.860   3.121   3.756 -0.6075  0.6339  0.5065
 1640SOL     OW16378   1.569   0.903   7.082  0.2024 -0.0367 -0.0745
 1640SOL    HW116379   1.514   0.857   7.145  1.3571 -1.4687 -0.1155
 1640SOL    HW216380   1.614   0.957   7.147 -0.8925 -0.0463  0.6924
 1641SOL     OW16381   3.219   3.408  15.342 -0.3222  0.2133  0.4545
 1641SOL    HW116382   3.277   3.333  15.351 -0.2243  0.1722 -0.4745
 1641SOL    HW216383   3.147   3.364  15.296 -1.6221  2.8244 -0.0122
 1642SOL     OW16384   4.057   2.135   5.338 -0.2248 -0.1912  0.1215
 1642SOL    HW116385   4.038   2.117   5.430  0.5872 -0.7186  0.1836
 1642SOL    HW216386   4.060   2.043   5.312  0.1476  0.4053 -1.9495
 1643SOL     OW16387   2.261   1.452   6.363  0.3440 -0.2958  0.1636
 1643SOL    HW116388   2.348   1.425   6.393  0.9941  0.2352 -1.2424
 1643SOL    HW216389   2.275   1.457   6.268 -0.2128 -1.5450  0.0248
 1644SOL     OW16390   0.741   3.231  13.359  0.1155  0.2221 -0.4417
 1644SOL    HW116391   0.801   3.305  13.349 -0.5176  0.9541  1.1393
 1644SOL    HW216392   0.796   3.154  13.348 -2.4155 -1.5993 -0.4431
 1645SOL     OW16393   0.798   4.636   7.258  0.2819  0.1671  0.2736
 1645SOL    HW116394   0.756   4.586   7.187  0.3410  1.1294 -0.4368
 1645SOL    HW216395   0.817   4.562   7.316  0.1054 -2.0926 -2.5373
 1646SOL     OW16396   4.521   1.275  13.310 -0.0473 -0.2999  0.1294
 1646SOL    HW116397   4.579   1.266  13.386 -0.7117  0.0124  0.6696
 1646SOL    HW216398   4.475   1.191  13.311 -0.4718 -0.0743 -0.4167
 1647SOL     OW16399   2.904   2.160   8.351 -0.0229 -0.4693  0.0851
 1647SOL    HW116400   2.869   2.212   8.424  0.0871 -0.9581  0.4839
 1647SOL    HW216401   2.838   2.095   8.329  2.5222 -3.1746  0.4356
 1648SOL     OW16402   3.562   0.729  11.998 -0.4721 -0.0566  0.0042
 1648SOL    HW116403   3.569   0.640  12.033  0.8392  0.9088  2.2024
 1648SOL    HW216404   3.491   0.749  12.059  0.2286 -0.9072  1.0872
 1649SOL     OW16405   0.717   0.719   3.907 -0.3888  0.5581  0.2378
 1649SOL    HW116406   0.696   0.804   3.945  1.9741  1.4232 -0.3833
 1649SOL    HW216407   0.652   0.661   3.948 -0.7577  0.3615 -0.6269
 1650SOL     OW16408   3.651   3.144   1.318  0.8517  0.1825 -0.3823
 1650SOL    HW116409   3.584   3.210   1.303 -0.3009 -0.8550  0.1985
 1650SOL    HW216410   3.731   3.197   1.316  1.3701 -0.5704 -0.0924
 1651SOL     OW16411   0.653   3.034  13.894 -0.3166  0.0115 -0.2706
 1651SOL    HW116412   0.690   2.963  13.842 -1.6516 -0.4716 -0.5623
 1651SOL    HW216413   0.560   3.014  13.878 -0.7675  0.1807  2.1987
 1652SOL     OW16414   3.859   3.722   4.625 -0.4552 -0.4846  0.0130
 1652SOL    HW116415   3.828   3.749   4.538  1.5357  2.3222  0.1521
 1652SOL    HW216416   3.793   3.756   4.686  1.4061  1.4165  0.9838
 1653SOL     OW16417   3.459   4.445   9.754 -0.5380 -0.4440  0.3072
 1653SOL    HW116418   3.497   4.400   9.830  1.3607  1.0857  0.2650
 1653SOL    HW216419   3.390   4.380   9.738 -1.1729 -0.2199  2.0792
 1654SOL     OW16420   2.150   4.155   9.304 -0.2614 -0.0458  0.4773
 1654SOL    HW116421   2.137   4.183   9.394 -0.0427 -1.9697  1.1029
 1654SOL    HW216422   2.079   4.094   9.284 -0.1229  0.8683 -2.9639
 1655SOL     OW16423   2.041   1.884   6.971 -0.4529 -0.3832  0.3576
 1655SOL    HW116424   2.010   1.929   7.050 -2.5826 -1.5138  0.1657
 1655SOL    HW216425   2.074   1.807   7.017 -0.1379 -0.3706  0.1551
 1656SOL     OW16426   3.223   2.473  15.411 -0.6859  0.1169  0.1198
 1656SOL    HW116427   3.282   2.459  15.485  0.4072  1.9013 -0.4409
 1656SOL    HW216428   3.278   2.539  15.370 -1.2607  1.0342  0.8377
 1657SOL     OW16429   0.885   2.875   4.533  0.1501 -0.5755 -0.5344
 1657SOL    HW116430   0.864   2.850   4.442 -1.7271 -0.5245 -0.1289
 1657SOL    HW216431   0.957   2.937   4.527  0.0405 -0.4512 -0.5731
 1658SOL     OW16432   1.146   1.323   9.842 -0.1600  0.0399  0.2339
 1658SOL    HW116433   1.185   1.329   9.755 -0.8980  1.4599  0.0029
 1658SOL    HW216434   1.110   1.235   9.850  0.6704 -0.3882 -0.7153
 1659SOL     OW16435   3.579   2.075  11.174  0.4202  0.0626 -0.1684
 1659SOL    HW116436   3.596   2.047  11.264 -2.2358  2.3389  1.0263
 1659SOL    HW216437   3.503   2.024  11.147 -1.0022  1.6802  0.7810
 1660SOL     OW16438   0.990   1.018  13.961 -0.3638  0.0331 -0.4018
 1660SOL    HW116439   0.907   1.066  13.954  1.0973  2.2850 -2.3770
 1660SOL    HW216440   1.059   1.083  13.978 -0.0409 -0.5867  0.6950
 1661SOL     OW16441   1.221   1.191  17.174  0.1447  0.5452  0.3205
 1661SOL    HW116442   1.268   1.259  17.222 -1.6064  0.6595  1.8281
 1661SOL    HW216443   1.131   1.223  17.183  0.4936  1.4617  0.5260
 1662SOL     OW16444   0.296   3.271  17.430  0.7231 -0.1206  0.4832
 1662SOL    HW116445   0.340   3.348  17.395  1.8287 -0.2350  1.6040
 1662SOL    HW216446   0.224   3.314  17.476  0.0134  0.5080 -1.2394
 1663SOL     OW16447   3.404   3.640   0.421  0.2057  0.3028  0.0900
 1663SOL    HW116448   3.312   3.665   0.434 -0.0117  0.5568 -1.8920
 1663SOL    HW216449   3.376   3.555   0.388  0.8617  0.1863 -0.1636
 1664SOL     OW16450   1.598   1.538   9.526 -0.4559 -0.2005  0.5983
 1664SOL    HW116451   1.503   1.546   9.521 -0.5091  0.2545  2.2296
 1664SOL    HW216452   1.625   1.550   9.435 -2.1504 -0.0500  0.1202
 1665SOL     OW16453   3.450   0.150   6.833  0.0117 -0.0874 -0.2863
 1665SOL    HW116454   3.390   0.201   6.777 -1.8372  0.0861  1.8364
 1665SOL    HW216455   3.437   0.200   6.913  1.2121 -2.2946  1.2697
 1666SOL     OW16456   4.480   3.846  13.497 -0.4413  0.5266 -0.0518
 1666SOL    HW116457   4.572   3.845  13.471 -1.2072 -0.5342 -2.7086
 1666SOL    HW216458   4.491   3.869  13.590  1.9295  1.5934 -0.5858
 1667SOL     OW16459   3.978   3.645   8.877  0.6642  0.0557  0.2592
 1667SOL    HW116460   4.055   3.698   8.858  1.3555 -0.3520  1.9275
 1667SOL    HW216461   3.915   3.714   8.860  1.3992  0.6630 -0.0081
 1668SOL     OW16462   1.310   0.033  15.179  0.2788 -0.4554 -0.1093
 1668SOL    HW116463   1.330   0.054  15.270  1.0978 -1.6152 -0.0155
 1668SOL    HW216464   1.220   0.002  15.193 -0.5426  1.6120 -0.7894
 1669SOL     OW16465   2.053   0.578  11.401 -0.7337 -0.6596  0.6468
 1669SOL    HW116466   2.088   0.667  11.400 -0.9800 -0.5465  1.3881
 1669SOL    HW216467   1.993   0.582  11.327 -0.0005  0.8639  0.1212
 1670SOL     OW16468   3.768   0.753   3.423  0.8045 -0.4505 -0.4496
 1670SOL    HW116469   3.732   0.720   3.341 -3.4282 -1.7383  1.9101
 1670SOL    HW216470   3.774   0.669   3.468 -0.2844 -1.8346 -2.8984
 1671SOL     OW16471   1.739   2.297  13.767 -0.4650  0.2599 -1.0310
 1671SOL    HW116472   1.764   2.212  13.731  0.1575  0.7673 -1.7830
 1671SOL    HW216473   1.698   2.271  13.850 -2.1117  1.0957 -1.5809
 1672SOL     OW16474   3.749   2.337  13.610 -0.0510 -0.2526 -0.2570
 1672SOL    HW116475   3.659   2.304  13.604 -0.6341  1.3875 -0.5857
 1672SOL    HW216476   3.747   2.356  13.704 -3.3580  1.0131 -0.5730
 1673SOL     OW16477   2.911   0.921   4.649 -0.2220 -0.2979 -0.7241
 1673SOL    HW116478   2.896   1.001   4.598 -0.1691  0.5125  0.5284
 1673SOL    HW216479   2.821   0.898   4.671 -1.2252  3.2379 -1.1578
 1674SOL     OW16480   1.946   4.417  15.312  0.2445 -0.6220 -0.0140
 1674SOL    HW116481   1.959   4.405  15.218 -3.2580 -4.2343 -0.0585
 1674SOL    HW216482   2.021   4.369  15.350  0.5137 -1.0327 -1.0590
 1675SOL     OW16483   1.262   2.377   6.389 -0.2996  0.1637 -0.0775
 1675SOL    HW116484   1.170   2.353   6.399 -0.6793  1.9882  0.7625
 1675SOL    HW216485   1.269   2.441   6.319 -1.6981 -1.0498 -1.3033
 1676SOL     OW16486   1.402   1.580   6.955  0.1717  0.3544  0.1876
 1676SOL    HW116487   1.381   1.487   6.955  0.3722  0.3165  1.9676
 1676SOL    HW216488   1.369   1.607   7.041 -1.8681 -3.4776  0.6272
 1677SOL     OW16489   2.320   0.754  13.772  0.2374  0.2378 -0.0569
 1677SOL    HW116490   2.395   0.778  13.717 -0.8649  1.4485 -1.0262
 1677SOL    HW216491   2.307   0.664  13.740 -1.1187 -0.5966  2.9159
 1678SOL     OW16492   1.181   2.684   7.051 -0.6935  0.3547 -0.4697
 1678SOL    HW116493   1.093   2.654   7.026 -0.5764 -1.7108  1.5135
 1678SOL    HW216494   1.232   2.632   6.989 -2.1682  1.4860 -2.6137
 1679SOL     OW16495   4.081   1.372   0.780 -0.0270  0.1594 -0.0579
 1679SOL    HW116496   4.120   1.430   0.715 -0.7209 -0.4966 -1.0655
 1679SOL    HW216497   4.151   1.319   0.818  0.7819  1.0130 -0.3741
 1680SOL     OW16498   4.391   3.241   4.722  0.2936  0.2744 -0.4728
 1680SOL    HW116499   4.363   3.232   4.813  0.7911 -0.6287 -0.4045
 1680SOL    HW216500   4.312   3.198   4.687 -0.3108 -1.4181  2.9984
 1681SOL     OW16501   4.584   1.681   2.791  0.5888 -0.3008  0.1730
 1681SOL    HW116502   4.614   1.772   2.781  1.4883 -0.5214  0.8462
 1681SOL    HW216503   4.650   1.639   2.736  1.0799  1.2252 -0.4206
 1682SOL     OW16504   2.498   0.031   0.048 -0.0152  0.1915 -0.5872
 1682SOL    HW116505   2.421   0.021   0.104  0.3753  0.1171 -0.0668
 1682SOL    HW216506   2.548   0.107   0.079  1.4880 -1.1529  0.2496
 1683SOL     OW16507   0.035   1.955   5.796  0.0715 -0.1791 -0.5026
 1683SOL    HW116508   0.023   1.864   5.772 -2.6624  0.8898 -3.1797
 1683SOL    HW216509   0.113   1.951   5.852  0.0601 -0.4149 -0.5039
 1684SOL     OW16510   4.510   1.840  14.615  0.0258  0.3068 -0.2205
 1684SOL    HW116511   4.575   1.778  14.583 -0.7992 -0.0752 -1.1463
 1684SOL    HW216512   4.546   1.919  14.576  0.2196  0.1376 -0.3818
 1685SOL     OW16513   4.459   3.261   3.505  0.1617  0.6324 -0.0660
 1685SOL    HW116514   4.439   3.168   3.503 -1.5092  0.9210  2.0887
 1685SOL    HW216515   4.554   3.257   3.496 -0.0057 -1.8777 -0.5683
 1686SOL     OW16516   2.886   2.532   1.580  0.0102  0.3885 -0.0331
 1686SOL    HW116517   2.900   2.446   1.621 -1.7289 -1.2009 -2.7777
 1686SOL    HW216518   2.979   2.554   1.572  0.2825 -1.4738 -1.9282
 1687SOL     OW16519   3.313   1.454  17.260 -0.1439 -0.4019  0.1018
 1687SOL    HW116520   3.298   1.402  17.181 -0.0454 -0.4512  0.1160
 1687SOL    HW216521   3.401   1.420  17.276  0.1704 -0.8697 -2.5685
 1688SOL     OW16522   0.018   2.527  15.087 -0.4456 -0.3225  0.3739
 1688SOL    HW116523   0.035   2.454  15.147 -1.1539 -0.6854  0.1402
 1688SOL    HW216524   4.669   2.483  15.039 -1.2018 -0.2570  1.4142
 1689SOL     OW16525   4.476   3.675   7.668 -0.5076 -0.1911  0.4889
 1689SOL    HW116526   4.394   3.712   7.635 -1.2725 -0.7353  1.7885
 1689SOL    HW216527   4.517   3.667   7.582 -2.2209 -0.1880 -0.3435
 1690SOL     OW16528   3.918   4.300   3.156  0.3502  0.2898 -0.3422
 1690SOL    HW116529   3.910   4.209   3.186  0.4812  0.7286  1.0038
 1690SOL    HW216530   3.834   4.327   3.194  0.5655  2.0257 -1.1046
 1691SOL     OW16531   3.701   1.198  17.132 -0.3391 -0.2829 -0.1538
 1691SOL    HW116532   3.691   1.270  17.194 -3.5699  0.2152 -1.2251
 1691SOL    HW216533   3.619   1.149  17.125 -0.6059  0.0595  0.5067
 1692SOL     OW16534   1.264   3.900   2.310 -0.1990 -0.0897  0.1737
 1692SOL    HW116535   1.269   3.986   2.267  0.6043  0.9313  2.3219
 1692SOL    HW216536   1.218   3.859   2.237  1.1567 -3.7269  1.3641
 1693SOL     OW16537   1.614   1.034  15.603  0.0589  0.4808 -0.5159
 1693SOL    HW116538   1.617   1.112  15.658  0.3381  0.2634 -0.2268
 1693SOL    HW216539   1.551   0.977  15.646 -0.5602  1.0261 -0.7012
 1694SOL     OW16540   0.221   4.231   3.916  0.0276 -0.0220 -0.0956
 1694SOL    HW116541   0.303   4.213   3.962 -0.0056  0.5935  0.1993
 1694SOL    HW216542   0.165   4.173   3.968  0.8384 -0.8378 -0.1393
 1695SOL     OW16543   0.055   1.275   5.518  0.1217 -0.3287  0.4936
 1695SOL    HW116544   0.039   1.363   5.552  2.0494 -0.7042  2.4115
 1695SOL    HW216545   0.007   1.221   5.581 -0.7787  1.4566  1.3594
 1696SOL     OW16546   4.325   2.717   1.630  0.0673 -0.2214  0.1747
 1696SOL    HW116547   4.293   2.628   1.645  2.4431 -1.2504 -0.7674
 1696SOL    HW216548   4.242   2.763   1.642 -1.5127 -2.5537 -1.8207
 1697SOL     OW16549   2.882   3.228   0.821  0.1732 -0.8079 -0.3595
 1697SOL    HW116550   2.872   3.143   0.778 -1.0377 -1.1604  0.6306
 1697SOL    HW216551   2.805   3.225   0.878 -0.5115  0.9131 -1.1949
 1698SOL     OW16552   0.294   0.331   2.313  0.0264  0.3555  0.5514
 1698SOL    HW116553   0.349   0.386   2.258 -0.0730 -0.3715 -0.2686
 1698SOL    HW216554   0.335   0.337   2.399 -2.2079 -0.5752  1.7066
 1699SOL     OW16555   2.962   1.413   5.868  0.7999  0.4902 -0.3892
 1699SOL    HW116556   3.046   1.368   5.859 -1.1905 -3.0237 -1.4214
 1699SOL    HW216557   2.951   1.394   5.961  1.7952 -1.4327 -0.6784
 1700SOL     OW16558   3.482   0.075  13.105  0.2244 -0.0713 -0.3332
 1700SOL    HW116559   3.447   4.709  13.087 -3.1493  0.6984  2.6115
 1700SOL    HW216560   3.400   0.124  13.097 -0.6973 -1.2518  1.7922
 1701SOL     OW16561   2.923   0.858   7.769  0.0871 -0.2672 -0.4564
 1701SOL    HW116562   2.907   0.939   7.819 -3.0530  0.1311 -2.0729
 1701SOL    HW216563   2.921   0.891   7.679  0.7673 -2.8412 -1.4076
 1702SOL     OW16564   3.968   4.377   9.076  0.0854 -0.0285 -0.6636
 1702SOL    HW116565   4.040   4.413   9.024  2.2926 -1.7746  1.1952
 1702SOL    HW216566   3.895   4.403   9.019  0.3966 -0.9854 -1.4867
 1703SOL     OW16567   2.382   2.098   9.871 -0.0665  0.4320  0.3612
 1703SOL    HW116568   2.339   2.081   9.954  0.6844  0.4766  0.7589
 1703SOL    HW216569   2.459   2.047   9.897 -0.4087 -0.8753 -1.1915
 1704SOL     OW16570   1.614   3.829   9.394 -0.4545 -0.2185 -0.3518
 1704SOL    HW116571   1.596   3.778   9.473  1.3665 -1.1740 -0.5680
 1704SOL    HW216572   1.664   3.771   9.338 -2.0286 -2.1031  0.2028
 1705SOL     OW16573   0.110   2.070   6.531 -0.2835 -0.0553 -0.1778
 1705SOL    HW116574   0.189   2.114   6.561 -0.1229 -0.3565 -0.1573
 1705SOL    HW216575   0.140   1.980   6.515  1.5872  0.3988  0.7218
 1706SOL     OW16576   0.611   3.283   9.151 -0.6493  0.4432 -0.3610
 1706SOL    HW116577   0.674   3.299   9.082  0.8948 -0.6760  0.7990
 1706SOL    HW216578   0.569   3.369   9.161  2.8185  1.9834  0.7918
 1707SOL     OW16579   2.112   2.271   8.420  0.2696 -0.5972  0.6670
 1707SOL    HW116580   2.173   2.271   8.346  0.0412  4.4383  0.4579
 1707SOL    HW216581   2.167   2.240   8.492  2.6930 -1.2417 -1.4810
 1708SOL     OW16582   2.172   3.168   9.135  0.0863  0.4005 -0.4591
 1708SOL    HW116583   2.157   3.095   9.194 -0.6004 -0.0755 -1.2334
 1708SOL    HW216584   2.135   3.238   9.189 -0.5983  0.1798 -0.6470
 1709SOL     OW16585   1.706   1.554  12.391  0.0852 -0.0745  0.0793
 1709SOL    HW116586   1.688   1.480  12.333 -1.3462 -1.0494  1.7632
 1709SOL    HW216587   1.677   1.521  12.476 -0.7314 -0.5680 -0.3871
 1710SOL     OW16588   2.023   0.967   8.384 -0.0764  0.6518  0.2038
 1710SOL    HW116589   2.029   0.961   8.479 -2.0080  1.3946  0.3720
 1710SOL    HW216590   2.109   0.936   8.358 -0.0872  0.3737  0.5040
 1711SOL     OW16591   4.531   3.835   4.260  0.4677 -0.1769  0.5067
 1711SOL    HW116592   4.547   3.911   4.317 -1.0699 -0.7350  1.6808
 1711SOL    HW216593   4.611   3.787   4.283 -0.5607 -1.9349  0.3839
 1712SOL     OW16594   3.135   0.423   3.741 -0.2047  0.1928  0.4573
 1712SOL    HW116595   3.220   0.390   3.767  0.2362  0.4543 -0.6447
 1712SOL    HW216596   3.084   0.347   3.768  0.5782  0.2495  2.0838
 1713SOL     OW16597   3.219   1.863   5.148 -0.4111  0.1385  0.7900
 1713SOL    HW116598   3.130   1.871   5.183 -1.1016  3.3750 -1.6414
 1713SOL    HW216599   3.266   1.947   5.157 -0.3724  0.4307 -2.1354
 1714SOL     OW16600   0.515   0.740   2.530 -0.1668  0.3822  0.1566
 1714SOL    HW116601   0.498   0.834   2.530  0.7680  0.5630 -1.5106
 1714SOL    HW216602   0.433   0.708   2.492  0.2546  0.1103 -0.5300
 1715SOL     OW16603   1.859   1.284   8.180 -0.4620  0.1756  0.6583
 1715SOL    HW116604   1.831   1.350   8.116  0.0546 -2.1736 -1.9960
 1715SOL    HW216605   1.779   1.233   8.193 -0.2865  0.1835  1.7255
 1716SOL     OW16606   3.775   0.226   6.113 -0.1410 -0.2805  0.4089
 1716SOL    HW116607   3.716   0.294   6.146  0.6074  1.5201 -1.9861
 1716SOL    HW216608   3.862   0.265   6.104  0.1884 -0.5059  2.5254
 1717SOL     OW16609   4.622   3.718   2.928 -0.9248 -0.0410 -0.3527
 1717SOL    HW116610   4.706   3.737   2.886 -0.2305 -0.1899  0.9518
 1717SOL    HW216611   4.608   3.780   2.999  0.1905  0.9634 -1.0036
 1718SOL     OW16612   2.721   3.727   2.169  0.2340  0.4108 -0.7121
 1718SOL    HW116613   2.632   3.740   2.202  0.3432 -1.4877  0.3250
 1718SOL    HW216614   2.769   3.745   2.249 -0.4462  1.7747 -0.6231
 1719SOL     OW16615   2.896   3.750   3.521 -0.0401 -0.1252 -0.4280
 1719SOL    HW116616   2.893   3.793   3.606  2.0889  4.3579 -2.6255
 1719SOL    HW216617   2.988   3.759   3.497 -0.2031  1.4564 -0.4623
 1720SOL     OW16618   0.787   2.467   3.807  1.0755 -0.2616  0.0641
 1720SOL    HW116619   0.795   2.561   3.787 -0.4522 -0.5487 -1.9991
 1720SOL    HW216620   0.696   2.448   3.831  0.4717  1.1491 -1.0396
 1721SOL     OW16621   0.625   1.116  17.253  0.5256 -0.0770  1.0270
 1721SOL    HW116622   0.617   1.044  17.191  3.6322 -0.8815  1.5196
 1721SOL    HW216623   0.712   1.142  17.223 -0.1061  2.2791  1.2999
 1722SOL     OW16624   4.323   2.862  10.890 -0.2737  0.0891 -0.5808
 1722SOL    HW116625   4.249   2.805  10.869  1.5858 -2.0078 -1.5216
 1722SOL    HW216626   4.394   2.804  10.917  0.8832  1.8247  0.0939
 1723SOL     OW16627   1.269   1.234   9.331 -0.3614  0.5211  0.1899
 1723SOL    HW116628   1.181   1.212   9.300  0.5786 -1.3203 -1.1688
 1723SOL    HW216629   1.318   1.245   9.250 -0.8402 -0.1907 -0.1904
 1724SOL     OW16630   0.505   3.932   2.372  0.0116 -0.1951  0.7476
 1724SOL    HW116631   0.561   3.985   2.316 -1.5936  1.3909  0.6532
 1724SOL    HW216632   0.501   3.983   2.453  1.5038 -1.1019  1.3846
 1725SOL     OW16633   4.055   2.084   4.806 -0.0802 -0.3610 -0.7284
 1725SOL    HW116634   4.032   2.140   4.732  0.1177  1.6296  0.6975
 1725SOL    HW216635   4.028   2.139   4.880 -1.3659  1.3292 -2.4482
 1726SOL     OW16636   4.153   2.406  10.456  0.6860 -0.2784  0.1748
 1726SOL    HW116637   4.100   2.378  10.530 -1.7084 -0.0192 -1.4491
 1726SOL    HW216638   4.235   2.374  10.493  0.7971 -0.2213 -0.0197
 1727SOL     OW16639   2.453   3.465  11.478  0.0487  0.0454  0.0301
 1727SOL    HW116640   2.405   3.452  11.397 -2.1537  1.7039  1.0760
 1727SOL    HW216641   2.507   3.386  11.483  0.8061  0.4244 -2.1666
 1728SOL     OW16642   0.136   0.160   1.725  0.7918  0.5551  0.3973
 1728SOL    HW116643   0.046   0.130   1.714  1.4957 -1.3019 -0.3095
 1728SOL    HW216644   0.158   0.166   1.632  0.1264  0.7244  0.2512
 1729SOL     OW16645   4.411   2.027   0.380 -0.3083  0.3472 -0.0707
 1729SOL    HW116646   4.476   2.033   0.311 -2.2835  0.0062 -1.9616
 1729SOL    HW216647   4.458   2.050   0.460  0.4469  0.7001 -0.6162
 1730SOL     OW16648   0.254   1.615   9.282  0.0526 -0.7829 -0.0211
 1730SOL    HW116649   0.241   1.570   9.365 -3.1591 -0.3578 -0.2917
 1730SOL    HW216650   0.338   1.659   9.294 -0.0033 -0.7827  0.3645
 1731SOL     OW16651   3.483   2.636   6.217 -0.1677 -0.0599  0.9966
 1731SOL    HW116652   3.575   2.635   6.190 -1.4464  1.0624 -3.4497
 1731SOL    HW216653   3.468   2.729   6.235  1.2992  0.6849 -1.5622
 1732SOL     OW16654   4.117   2.975   2.318 -0.0344  0.6783 -0.6380
 1732SOL    HW116655   4.039   2.974   2.262 -0.5983  2.8026  0.0790
 1732SOL    HW216656   4.122   3.069   2.335 -0.5030  0.3323  1.4387
 1733SOL     OW16657   2.113   2.962   0.322 -0.0351 -0.0543  0.1828
 1733SOL    HW116658   2.111   2.975   0.227  0.8372  2.1682  0.4686
 1733SOL    HW216659   2.028   2.921   0.340  0.1091 -0.0601  0.8423
 1734SOL     OW16660   4.027   1.554  11.448  0.1147 -0.5016  0.3699
 1734SOL    HW116661   3.966   1.481  11.455 -0.7937  0.2298 -0.0142
 1734SOL    HW216662   3.999   1.600  11.369  0.0244 -0.7036  0.2837
 1735SOL     OW16663   2.106   3.494   2.107  0.2097 -0.3164  0.8971
 1735SOL    HW116664   2.160   3.544   2.045  0.8239  0.9844  2.4747
 1735SOL    HW216665   2.163   3.491   2.184  0.5767 -0.2767  0.6276
 1736SOL     OW16666   4.110   3.290   4.841  0.1976  0.1534 -0.3949
 1736SOL    HW116667   4.057   3.216   4.869  1.5732 -1.0999 -1.0480
 1736SOL    HW216668   4.055   3.352   4.794 -1.1513 -1.2474 -0.6733
 1737SOL     OW16669   2.009   2.191   5.420  0.1490 -0.2444 -0.1742
 1737SOL    HW116670   2.007   2.143   5.337 -2.6182  0.6465 -0.6231
 1737SOL    HW216671   2.091   2.157   5.457  0.1456  1.3469  1.3232
 1738SOL     OW16672   1.545   4.627   1.695  0.0011  0.6299  0.1803
 1738SOL    HW116673   1.582   4.553   1.646 -2.9207  0.3886 -1.6640
 1738SOL    HW216674   1.556   4.694   1.627  0.4333 -2.1167 -2.4679
 1739SOL     OW16675   3.973   3.594   6.433  0.1785  0.5132  0.3124
 1739SOL    HW116676   3.938   3.565   6.517  0.1308 -3.2693 -1.0227
 1739SOL    HW216677   3.962   3.527   6.365  2.7842  1.8777 -1.4294
 1740SOL     OW16678   3.347   1.297   7.399  0.0797  0.8711  0.4013
 1740SOL    HW116679   3.279   1.363   7.386  0.3759  0.9732 -0.6524
 1740SOL    HW216680   3.387   1.323   7.482 -0.0036 -2.3731  1.4824
 1741SOL     OW16681   4.108   0.399   2.629  0.1951 -0.4451 -0.0242
 1741SOL    HW116682   4.037   0.363   2.682 -1.4222  1.0238 -1.2191
 1741SOL    HW216683   4.078   0.475   2.581  1.3019  0.1358  0.1987
 1742SOL     OW16684   4.150   0.212   3.230 -0.1972 -0.0802  0.9172
 1742SOL    HW116685   4.136   0.171   3.144  0.6486  1.0788  0.2229
 1742SOL    HW216686   4.160   0.140   3.293 -0.4061 -0.7072  0.2470
 1743SOL     OW16687   4.479   2.051   8.618  0.0750  0.3723  0.4582
 1743SOL    HW116688   4.500   1.960   8.639 -3.8194 -0.7721 -0.5962
 1743SOL    HW216689   4.384   2.050   8.618  0.0810 -0.3487  1.6305
 1744SOL     OW16690   1.070   1.606   8.001  0.2647 -0.1559 -0.1524
 1744SOL    HW116691   1.039   1.593   7.912 -1.3232  1.4634  0.1611
 1744SOL    HW216692   1.165   1.618   7.993  0.2617  1.0095  1.4344
 1745SOL     OW16693   2.312   3.991   8.154 -0.0918  0.0267  0.4501
 1745SOL    HW116694   2.377   3.940   8.201  1.5941  0.4817 -1.3708
 1745SOL    HW216695   2.371   4.050   8.107  0.2921  0.0686  0.9862
 1746SOL     OW16696   1.786   3.584   0.798  0.1183  0.2940  0.2702
 1746SOL    HW116697   1.874   3.596   0.833  1.0464 -1.5634 -1.3631
 1746SOL    HW216698   1.773   3.673   0.766 -1.8462 -0.5524 -1.3046
 1747SOL     OW16699   3.363   3.318   3.787 -0.3557  0.4773  0.5530
 1747SOL    HW116700   3.429   3.326   3.718 -0.4073 -0.3665  0.4052
 1747SOL    HW216701   3.291   3.365   3.746 -0.4502  0.9387  1.2442
 1748SOL     OW16702   1.679   0.548   7.963 -0.3382  0.1662 -0.5995
 1748SOL    HW116703   1.613   0.497   8.010  0.2292  0.8767  0.9301
 1748SOL    HW216704   1.756   0.521   8.012 -0.6278  1.1992  0.4065
 1749SOL     OW16705   3.488   3.222   2.118 -0.0993  0.0836  0.0544
 1749SOL    HW116706   3.437   3.298   2.145  0.9414  0.9180 -0.3391
 1749SOL    HW216707   3.499   3.244   2.025 -2.9322 -0.5476 -0.4384
 1750SOL     OW16708   4.159   3.732  12.709 -0.3731  0.7246  0.1105
 1750SOL    HW116709   4.252   3.713  12.727 -0.3005  0.8565 -0.1372
 1750SOL    HW216710   4.127   3.743  12.799  0.3986  0.2396  0.4488
 1751SOL     OW16711   0.491   1.070  11.987 -0.7072  0.0252 -0.3590
 1751SOL    HW116712   0.424   1.124  11.946  0.9499  0.6942 -2.2124
 1751SOL    HW216713   0.563   1.104  11.933  0.5511 -1.5489  0.3178
 1752SOL     OW16714   3.464   0.594  16.948 -0.3439  0.0345 -0.1233
 1752SOL    HW116715   3.468   0.509  16.904 -1.9716 -0.1053  0.0033
 1752SOL    HW216716   3.397   0.575  17.013  2.8249  1.8562  3.7360
 1753SOL     OW16717   3.346   3.479   6.286 -0.2062 -0.3206 -0.2175
 1753SOL    HW116718   3.380   3.439   6.366  1.0416  2.1464  0.4960
 1753SOL    HW216719   3.252   3.466   6.288 -0.2597  0.2407  0.7243
 1754SOL     OW16720   0.845   0.279   2.262 -0.5135 -0.0685  0.2990
 1754SOL    HW116721   0.755   0.297   2.237 -0.4063 -0.5114 -0.4154
 1754SOL    HW216722   0.887   0.241   2.185  2.6820  0.0287  1.9936
 1755SOL     OW16723   1.127   0.696  16.857 -0.0446 -0.7109 -0.3048
 1755SOL    HW116724   1.033   0.711  16.850 -0.0337 -0.1476  0.6611
 1755SOL    HW216725   1.133   0.601  16.857 -1.4781 -0.7923 -1.7373
 1756SOL     OW16726   1.665   2.801   7.676  0.0303  0.2461  0.1522
 1756SOL    HW116727   1.583   2.752   7.683  0.3689 -0.3165  0.1431
 1756SOL    HW216728   1.728   2.733   7.653  1.7654  1.1938  2.0952
 1757SOL     OW16729   3.194   0.841   1.270  0.1108 -0.1313  0.5715
 1757SOL    HW116730   3.127   0.784   1.307  0.1100 -0.1364  0.5621
 1757SOL    HW216731   3.261   0.779   1.241 -0.2116 -0.9165  1.5015
 1758SOL     OW16732   4.713   2.266  16.352  0.0793 -0.2377 -0.0127
 1758SOL    HW116733   0.015   2.358  16.350  1.8020 -0.7025 -1.0022
 1758SOL    HW216734   4.633   2.274  16.405  0.8037  0.0464  1.0369
 1759SOL     OW16735   4.204   1.582   0.668 -0.0991  0.5969 -0.4946
 1759SOL    HW116736   4.208   1.674   0.696 -2.1057  0.8267 -0.9879
 1759SOL    HW216737   4.133   1.591   0.605  0.1836  0.8503 -0.7796
 1760SOL     OW16738   3.658   2.317   4.020  0.0269  0.0621  0.5008
 1760SOL    HW116739   3.700   2.256   3.959  2.0652  1.4338  0.5131
 1760SOL    HW216740   3.567   2.294   4.001  0.3657  0.8180 -2.0891
 1761SOL     OW16741   0.366   0.003   7.213 -0.0772  0.2388 -0.2507
 1761SOL    HW116742   0.350   4.658   7.146  0.3645 -0.3988  0.2791
 1761SOL    HW216743   0.310   0.072   7.177 -0.5363 -0.6750 -1.2798
 1762SOL     OW16744   1.359   2.599   3.467  0.0513 -0.2824  0.0335
 1762SOL    HW116745   1.388   2.650   3.391 -2.3608 -2.1440 -2.1275
 1762SOL    HW216746   1.267   2.624   3.459  0.7544  2.4300  0.3522
 1763SOL     OW16747   3.471   1.987   7.766  0.0861  0.1509 -0.5713
 1763SOL    HW116748   3.501   2.055   7.826 -0.9170 -1.1419  1.4094
 1763SOL    HW216749   3.403   2.028   7.713 -3.0628 -2.4972  1.4100
 1764SOL     OW16750   2.652   4.628  14.068 -0.2602  0.0717 -0.0692
 1764SOL    HW116751   2.671   4.566  13.998  2.4325  0.3811  0.3816
 1764SOL    HW216752   2.652   4.713  14.023 -0.2034  0.6730  1.0792
 1765SOL     OW16753   4.678   3.160   6.388  0.3087 -0.2394  0.1932
 1765SOL    HW116754   4.623   3.120   6.320 -0.0173  0.5497 -0.0051
 1765SOL    HW216755   4.650   3.106   6.462 -1.3920  0.4919  0.0935
 1766SOL     OW16756   4.051   1.896   6.208  0.3842  0.9991  0.1729
 1766SOL    HW116757   3.997   1.926   6.280  1.6900  1.2454  1.0568
 1766SOL    HW216758   4.123   1.958   6.216  2.9196 -1.9051  0.2643
 1767SOL     OW16759   1.313   3.814   3.341 -0.0375 -0.1329 -0.1438
 1767SOL    HW116760   1.331   3.860   3.259 -0.7479  0.9149  0.3008
 1767SOL    HW216761   1.244   3.753   3.315 -0.3062  0.9676 -1.9998
 1768SOL     OW16762   4.240   1.045   6.312  0.6218 -0.0048 -0.2333
 1768SOL    HW116763   4.197   0.960   6.325 -0.6428  0.5993 -0.4501
 1768SOL    HW216764   4.194   1.072   6.233 -1.2960 -0.8873  0.5657
 1769SOL     OW16765   2.341   2.848  10.484 -0.4046 -0.7460  0.9812
 1769SOL    HW116766   2.273   2.836  10.418 -0.7557  1.0280  1.0164
 1769SOL    HW216767   2.402   2.785  10.445 -0.1714 -0.6166  1.1362
 1770SOL     OW16768   3.052   1.971   3.268  0.6316 -0.0869 -0.1617
 1770SOL    HW116769   3.137   2.002   3.300 -1.3578  3.4672  1.7535
 1770SOL    HW216770   2.996   2.048   3.265  0.3681 -0.2122  1.5977
 1771SOL     OW16771   0.980   3.596   6.767 -0.3013  0.4699  0.4370
 1771SOL    HW116772   0.931   3.644   6.700 -1.7222 -0.5641  0.7231
 1771SOL    HW216773   1.063   3.581   6.722 -0.0107 -2.5748  1.9857
 1772SOL     OW16774   0.703   2.504   3.164  0.3706 -0.2755  0.9073
 1772SOL    HW116775   0.737   2.519   3.076  0.9077 -0.2327  1.1238
 1772SOL    HW216776   0.712   2.596   3.189 -0.2304 -0.0674  0.3369
 1773SOL     OW16777   0.353   1.230  16.797 -0.0282  0.1922 -0.1238
 1773SOL    HW116778   0.309   1.185  16.870  1.1188  0.3689  0.6823
 1773SOL    HW216779   0.325   1.169  16.729  1.8034 -0.0371 -0.6849
 1774SOL     OW16780   0.786   3.307   2.229  0.3125 -0.3495  0.5715
 1774SOL    HW116781   0.831   3.363   2.292  0.3719 -1.3423  1.4155
 1774SOL    HW216782   0.797   3.344   2.142 -0.5161  0.2819  0.7393
 1775SOL     OW16783   3.892   3.169   0.321  0.0061 -0.5818 -0.3130
 1775SOL    HW116784   3.867   3.217   0.242  1.4316 -0.8093 -0.9112
 1775SOL    HW216785   3.821   3.190   0.381 -0.2776  0.4481 -1.0093
 1776SOL     OW16786   1.119   4.218  13.647  0.1079  0.1149 -0.1368
 1776SOL    HW116787   1.188   4.201  13.712 -2.1437 -1.0923  1.9620
 1776SOL    HW216788   1.068   4.281  13.697 -1.7627 -0.8258 -0.8752
 1777SOL     OW16789   3.783   1.236   6.602 -0.3634 -0.1594 -0.2058
 1777SOL    HW116790   3.841   1.202   6.671  2.3913  1.6943 -1.6129
 1777SOL    HW216791   3.791   1.332   6.604  3.8613 -0.4857 -0.0133
 1778SOL     OW16792   1.654   2.303   8.011  0.2977  0.1390  0.0816
 1778SOL    HW116793   1.670   2.300   8.105 -1.7069  2.4474  0.4904
 1778SOL    HW216794   1.670   2.395   7.991 -0.3353  0.3724  0.6858
 1779SOL     OW16795   0.072   1.872  11.132 -0.1824 -0.0625  0.0634
 1779SOL    HW116796   0.165   1.851  11.124 -0.0113  1.7155 -2.5152
 1779SOL    HW216797   0.038   1.802  11.188  0.2218 -0.9506 -0.7994
 1780SOL     OW16798   3.662   1.974   4.631 -0.8117 -0.4206 -0.3103
 1780SOL    HW116799   3.711   1.906   4.585 -0.6492 -0.0567 -0.6771
 1780SOL    HW216800   3.586   1.984   4.573  0.6465  0.9278 -2.0039
 1781SOL     OW16801   0.094   0.859   6.238 -0.4753 -0.3668 -0.8882
 1781SOL    HW116802   0.051   0.802   6.302 -0.3486  0.6245  0.0942
 1781SOL    HW216803   0.169   0.803   6.216 -1.0973 -0.2096 -3.3877
 1782SOL     OW16804   4.128   2.855   1.809  0.0704 -0.5043 -0.0099
 1782SOL    HW116805   4.216   2.872   1.842 -0.2889  2.2295 -0.4617
 1782SOL    HW216806   4.081   2.844   1.892  0.6598  1.0079  0.5215
 1783SOL     OW16807   1.157   3.314  12.593 -0.3066  0.2432 -0.6602
 1783SOL    HW116808   1.148   3.397  12.639  0.0554  0.1123 -0.3583
 1783SOL    HW216809   1.229   3.341  12.536 -1.3233 -1.2995 -2.6741
 1784SOL     OW16810   4.347   2.104  14.822  0.2166 -0.0613  0.3390
 1784SOL    HW116811   4.366   2.194  14.847 -2.4615 -0.0022  2.0897
 1784SOL    HW216812   4.356   2.103  14.726 -1.7974  1.0293  0.1427
 1785SOL     OW16813   3.456   1.036   5.875 -1.0294  0.4985 -0.3634
 1785SOL    HW116814   3.410   1.097   5.818  0.3269 -0.2127 -2.2567
 1785SOL    HW216815   3.391   0.973   5.906  0.9316 -1.4668 -0.1506
 1786SOL     OW16816   2.082   2.938   5.897 -0.7508  0.9579 -0.1825
 1786SOL    HW116817   2.099   2.893   5.980  1.6319  0.2565 -1.0378
 1786SOL    HW216818   2.134   3.017   5.916  0.6350  0.2988 -1.2601
 1787SOL     OW16819   2.239   4.328   9.086  0.3133  0.2359 -1.0057
 1787SOL    HW116820   2.242   4.285   9.171 -1.9980  0.3653 -0.8647
 1787SOL    HW216821   2.302   4.396   9.110 -0.2399 -0.0812  1.2829
 1788SOL     OW16822   3.037   1.836   0.791  0.0610 -0.0041 -0.1601
 1788SOL    HW116823   3.120   1.854   0.747 -1.3313  2.4159 -1.8404
 1788SOL    HW216824   3.070   1.843   0.881 -0.7028  0.0490  0.1146
 1789SOL     OW16825   0.092   0.982  12.701 -0.1462 -0.3808  0.2368
 1789SOL    HW116826   0.114   0.903  12.651 -0.1872 -0.6081  0.5827
 1789SOL    HW216827   0.176   0.996  12.745  0.6106 -1.2502 -0.9245
 1790SOL     OW16828   2.033   0.123   4.016  0.1572  0.1388 -0.2695
 1790SOL    HW116829   1.972   0.064   3.972 -0.7602  1.7766 -1.1773
 1790SOL    HW216830   2.083   0.077   4.083  1.1303 -0.6394 -1.5160
 1791SOL     OW16831   3.903   4.474  15.275 -0.1967 -0.1167  0.3448
 1791SOL    HW116832   3.874   4.412  15.342 -0.5574 -0.9046 -0.5356
 1791SOL    HW216833   3.871   4.553  15.318 -0.9624  0.7857 -1.9141
 1792SOL     OW16834   2.333   0.341   7.396  0.1604 -0.0126 -0.3634
 1792SOL    HW116835   2.359   0.376   7.482  0.2900 -0.4645 -0.2221
 1792SOL    HW216836   2.240   0.349   7.413  0.6170  2.2541  1.1956
 1793SOL     OW16837   2.335   3.329  15.824 -0.2378 -0.1401  0.0161
 1793SOL    HW116838   2.345   3.381  15.745 -3.6650  0.2264 -0.1653
 1793SOL    HW216839   2.350   3.243  15.784 -2.5142  0.3741 -1.9140
 1794SOL     OW16840   0.600   1.143  10.043  0.4893 -0.3531  0.1803
 1794SOL    HW116841   0.596   1.191  10.125 -0.1528  0.4806 -0.3407
 1794SOL    HW216842   0.508   1.114  10.040  0.7017 -0.9264 -0.7187
 1795SOL     OW16843   1.096   0.639  11.028 -0.3031 -0.2652 -1.3587
 1795SOL    HW116844   1.150   0.626  11.105 -0.1381  0.3641 -1.3708
 1795SOL    HW216845   1.166   0.648  10.964  0.3512  1.1998 -0.4458
 1796SOL     OW16846   3.960   1.722   7.637 -0.0296 -0.2249  0.0103
 1796SOL    HW116847   3.936   1.651   7.577 -1.7216  2.1183 -2.1138
 1796SOL    HW216848   3.972   1.680   7.722 -4.1681 -0.6553  0.3775
 1797SOL     OW16849   2.941   3.792  17.113  0.5182 -0.3241  0.1480
 1797SOL    HW116850   2.942   3.781  17.018 -1.8008  0.9070 -0.0209
 1797SOL    HW216851   3.003   3.865  17.111 -1.3911  1.2970  0.9737
 1798SOL     OW16852   0.697   1.112   9.475 -0.1943  0.2191  0.1068
 1798SOL    HW116853   0.655   1.179   9.528 -2.3827 -0.3351 -0.9272
 1798SOL    HW216854   0.621   1.054   9.465  1.7409 -2.9387  3.3792
 1799SOL     OW16855   2.976   0.903   4.943  0.0568 -0.2278 -0.2032
 1799SOL    HW116856   2.952   0.890   4.852 -0.9641 -2.7140  0.4116
 1799SOL    HW216857   2.898   0.876   4.992 -0.0564 -0.6983 -0.6395
 1800SOL     OW16858   1.577   4.458   8.851  0.0375 -0.0832  0.2333
 1800SOL    HW116859   1.591   4.520   8.923 -2.4713 -0.0241  0.6698
 1800SOL    HW216860   1.646   4.394   8.871  1.4551  1.8491  1.4514
 1801SOL     OW16861   2.547   0.454   2.891  0.1947 -0.2263 -0.6634
 1801SOL    HW116862   2.576   0.537   2.929  0.1842 -0.9048  0.8355
 1801SOL    HW216863   2.523   0.415   2.975 -0.6685  1.3811 -0.1633
 1802SOL     OW16864   2.406   4.608  14.227 -0.3751  0.6351 -0.4998
 1802SOL    HW116865   2.483   4.650  14.190  0.8081  0.4928  1.7668
 1802SOL    HW216866   2.339   4.642  14.168  0.9217  0.7048 -1.9187
 1803SOL     OW16867   1.249   2.887  15.306 -0.0532  0.2232 -0.6708
 1803SOL    HW116868   1.219   2.887  15.215 -0.2190  1.2146 -0.6223
 1803SOL    HW216869   1.176   2.847  15.353  0.6810  0.8839  1.0552
 1804SOL     OW16870   0.467   4.128   8.545  0.1033  0.7382 -0.0295
 1804SOL    HW116871   0.382   4.164   8.572  0.7600 -0.1830  3.2403
 1804SOL    HW216872   0.477   4.180   8.465  0.5340  1.6372  0.6004
 1805SOL     OW16873   2.022   3.013   8.321  0.3878 -0.6344  0.0947
 1805SOL    HW116874   2.074   3.038   8.398 -0.8159 -1.1160  1.0684
 1805SOL    HW216875   2.077   2.945   8.283  1.2310  0.3653 -0.4865
 1806SOL     OW16876   2.715   2.693  12.361  0.4185  0.0548  0.0821
 1806SOL    HW116877   2.694   2.603  12.387 -2.4149  0.1343 -2.0002
 1806SOL    HW216878   2.799   2.682  12.316 -0.9682  1.6481 -2.8781
 1807SOL     OW16879   4.278   1.119  12.246  0.0327 -0.0415 -0.2386
 1807SOL    HW116880   4.306   1.130  12.337  1.4404  0.5859 -0.7451
 1807SOL    HW216881   4.361   1.096  12.204 -0.2164 -0.5258 -0.4630
 1808SOL     OW16882   3.339   2.977   3.671  0.4122  0.0943  0.5957
 1808SOL    HW116883   3.281   3.009   3.740 -0.4715 -1.9427  0.8059
 1808SOL    HW216884   3.322   3.039   3.600 -0.8387 -1.2999 -0.3251
 1809SOL     OW16885   4.671   3.974   3.912  0.6958  0.1185  0.4583
 1809SOL    HW116886   0.005   3.995   3.988  0.1585  0.1462  0.8442
 1809SOL    HW216887   4.699   3.883   3.903  0.3024  0.2910 -2.4811
 1810SOL     OW16888   4.395   4.662   5.910 -0.0677  0.4114  0.2100
 1810SOL    HW116889   4.453   4.587   5.895  0.9699  1.2584 -0.0245
 1810SOL    HW216890   4.364   4.655   6.001  0.8203  3.4294  0.7614
 1811SOL     OW16891   3.279   3.726   4.015 -0.3171  0.0405 -0.0132
 1811SOL    HW116892   3.303   3.759   3.928 -0.2632  1.6449  0.6110
 1811SOL    HW216893   3.355   3.751   4.067 -0.1336 -1.5256  0.4435
 1812SOL     OW16894   3.426   4.135   2.786 -0.0345 -0.2975  0.4217
 1812SOL    HW116895   3.389   4.212   2.742 -0.6634 -0.7778  0.1118
 1812SOL    HW216896   3.346   4.084   2.774  0.3095 -0.7214 -0.1031
 1813SOL     OW16897   4.042   0.278   4.871 -0.2598  0.6815  0.6319
 1813SOL    HW116898   4.035   0.334   4.949 -0.8325 -0.2191  1.2218
 1813SOL    HW216899   3.992   0.199   4.891  1.0961 -0.3700 -0.0757
 1814SOL     OW16900   0.186   3.274   7.688 -0.0921 -0.2476 -0.5041
 1814SOL    HW116901   0.097   3.241   7.671  0.2454 -1.1155 -0.6191
 1814SOL    HW216902   0.198   3.320   7.605 -0.6661 -0.9468 -0.9809
 1815SOL     OW16903   3.220   3.205  11.556 -0.2676  0.3619 -0.6675
 1815SOL    HW116904   3.292   3.180  11.498 -0.6326 -2.4527  0.0611
 1815SOL    HW216905   3.249   3.173  11.641  1.4842 -0.2311 -1.4847
 1816SOL     OW16906   0.038   1.464   8.073 -0.7190  0.4223 -0.1367
 1816SOL    HW116907   0.025   1.558   8.083 -0.2826  0.2235  2.2493
 1816SOL    HW216908   4.709   1.425   8.144  1.5023  1.3837  1.9650
 1817SOL     OW16909   3.563   3.345   3.561  0.1365 -0.5835 -0.2778
 1817SOL    HW116910   3.609   3.318   3.482  1.2908 -0.2318  0.2649
 1817SOL    HW216911   3.587   3.270   3.615  3.1216 -0.0836 -0.8994
 1818SOL     OW16912   2.422   4.572   4.195 -0.5100 -0.4482 -0.8547
 1818SOL    HW116913   2.491   4.606   4.253 -0.4334 -0.6842 -0.8066
 1818SOL    HW216914   2.479   4.516   4.143 -0.8212 -0.7516 -0.8653
 1819SOL     OW16915   4.539   1.489   9.618 -0.0653  0.1793  0.3051
 1819SOL    HW116916   4.540   1.584   9.629 -0.1858  0.3081 -0.7810
 1819SOL    HW216917   4.494   1.474   9.701  1.4584  0.5416  1.2025
 1820SOL     OW16918   2.265   4.632   3.452  0.4347  0.3363 -0.6760
 1820SOL    HW116919   2.331   4.566   3.434  0.7131 -0.0487  1.7972
 1820SOL    HW216920   2.320   4.699   3.492 -2.4159 -0.7818  5.1607
 1821SOL     OW16921   1.804   2.678   5.962  0.1173 -0.6752 -0.0812
 1821SOL    HW116922   1.878   2.624   5.934  0.4964 -0.2334  0.0622
 1821SOL    HW216923   1.749   2.667   5.884  0.4859  0.0529 -0.4469
 1822SOL     OW16924   3.255   1.597   2.589 -0.2481  0.3616  0.3792
 1822SOL    HW116925   3.332   1.541   2.593  0.8685  1.7349 -1.9706
 1822SOL    HW216926   3.298   1.669   2.543  0.4336  1.2331  2.4113
 1823SOL     OW16927   2.380   0.303   6.010 -0.3914 -0.1734  0.1330
 1823SOL    HW116928   2.459   0.284   5.959  1.0641  1.4494  1.7932
 1823SOL    HW216929   2.351   0.377   5.957  0.4513  0.1226  0.0784
 1824SOL     OW16930   2.700   2.903  11.169  0.5471 -0.4711 -0.7685
 1824SOL    HW116931   2.677   2.985  11.126 -1.3401  0.0221  1.1768
 1824SOL    HW216932   2.727   2.851  11.094 -0.2087  0.0474 -1.4023
 1825SOL     OW16933   2.372   2.903   6.721 -0.3417  0.3016 -0.1066
 1825SOL    HW116934   2.278   2.920   6.732 -0.5291 -0.6325 -0.2414
 1825SOL    HW216935   2.379   2.851   6.641 -0.7907 -0.6997  0.4978
 1826SOL     OW16936   0.426   1.192   3.641 -0.2303  0.2288  0.0908
 1826SOL    HW116937   0.334   1.191   3.616 -0.2930 -0.0764  0.3458
 1826SOL    HW216938   0.451   1.107   3.603 -0.0687  0.7578 -0.9779
 1827SOL     OW16939   2.525   1.286   6.949 -0.2386 -0.4625 -0.7610
 1827SOL    HW116940   2.558   1.325   6.868  0.0325 -1.7124 -1.2477
 1827SOL    HW216941   2.539   1.353   7.016  1.3576  0.6897 -2.2395
 1828SOL     OW16942   2.916   0.020   4.082 -0.3252  0.1984  0.4096
 1828SOL    HW116943   2.823   0.042   4.086 -0.3771  0.0101  0.2908
 1828SOL    HW216944   2.944   0.078   4.152 -1.3278  1.0935  0.0737
 1829SOL     OW16945   0.790   2.143   1.790  0.1827  0.2160 -0.0368
 1829SOL    HW116946   0.877   2.141   1.751  1.4977  2.9452  2.7181
 1829SOL    HW216947   0.752   2.224   1.755 -3.0610 -1.1133  0.3561
 1830SOL     OW16948   3.465   4.633  17.545 -0.0823 -0.1299  0.2704
 1830SOL    HW116949   3.411   4.614  17.622  1.5342  0.4367  1.5316
 1830SOL    HW216950   3.554   4.633  17.580 -0.8876 -3.4833  2.2398
 1831SOL     OW16951   0.360   0.988   7.096  0.3223 -0.5544 -0.2411
 1831SOL    HW116952   0.390   0.961   7.183  1.2772  1.6193  0.1098
 1831SOL    HW216953   0.429   1.049   7.072  0.8228 -0.5929  1.1134
 1832SOL     OW16954   4.641   2.811   7.264  0.6452  0.1257 -0.2948
 1832SOL    HW116955   4.611   2.767   7.344  1.1385  0.5924  0.1492
 1832SOL    HW216956   4.668   2.899   7.291  2.4678 -0.0543 -1.5311
 1833SOL     OW16957   4.137   2.165   9.005  0.0292 -0.1725 -0.6093
 1833SOL    HW116958   4.198   2.206   8.944  0.1926  1.0455  0.3554
 1833SOL    HW216959   4.188   2.159   9.086  0.4125  0.7694 -0.7745
 1834SOL     OW16960   1.873   2.668   2.762 -0.3974  0.1984  0.3669
 1834SOL    HW116961   1.786   2.704   2.747 -0.7013 -0.0959  1.4805
 1834SOL    HW216962   1.901   2.720   2.837 -0.4837  0.8893 -0.0760
 1835SOL     OW16963   2.132   3.749   2.868 -0.4372  0.5432 -0.0821
 1835SOL    HW116964   2.178   3.678   2.822 -1.6013 -0.0574 -0.3121
 1835SOL    HW216965   2.051   3.703   2.892 -1.6178  2.3120 -0.7178
 1836SOL     OW16966   4.310   0.746   3.497 -0.4143 -0.1511  0.3522
 1836SOL    HW116967   4.215   0.753   3.493 -0.2656  1.5022 -0.1921
 1836SOL    HW216968   4.319   0.664   3.449  1.0766  0.1415  0.1197
 1837SOL     OW16969   2.062   1.429   2.145  0.0955  0.2378 -0.6891
 1837SOL    HW116970   2.016   1.366   2.089 -2.4493  0.0358  1.6225
 1837SOL    HW216971   2.007   1.506   2.135  1.9689  1.5962 -0.5653
 1838SOL     OW16972   3.217   3.397   8.031 -0.2782  0.2930 -0.1662
 1838SOL    HW116973   3.286   3.463   8.030  0.8295 -0.8843 -1.3449
 1838SOL    HW216974   3.188   3.394   8.122 -0.7810  1.8365 -0.2814
 1839SOL     OW16975   2.747   3.690   8.770  0.3604 -0.0685 -0.3687
 1839SOL    HW116976   2.778   3.609   8.727 -0.5236 -0.1715 -0.8172
 1839SOL    HW216977   2.794   3.760   8.724 -0.4708  0.9217  0.2998
 1840SOL     OW16978   3.898   3.819   9.428 -0.2795 -0.4089  0.1254
 1840SOL    HW116979   3.826   3.757   9.441 -1.2169  1.0241  1.8045
 1840SOL    HW216980   3.859   3.906   9.417 -2.1620 -1.4873 -1.6803
 1841SOL     OW16981   2.104   3.874   4.997  0.0315  0.3393 -0.4803
 1841SOL    HW116982   2.185   3.831   5.023  0.0726  0.3050 -0.6701
 1841SOL    HW216983   2.040   3.841   5.060  0.9150  1.1819  0.8659
 1842SOL     OW16984   0.704   1.246   6.340 -0.0144 -0.1892 -0.2126
 1842SOL    HW116985   0.658   1.326   6.316  0.1966 -0.5064 -1.6357
 1842SOL    HW216986   0.793   1.279   6.337 -0.2582  0.5075  0.1664
 1843SOL     OW16987   4.411   3.449  17.656 -0.2035  0.0605 -0.2979
 1843SOL    HW116988   4.443   3.366   0.004 -1.7011 -0.7753 -0.9041
 1843SOL    HW216989   4.470   3.469  17.583  2.7240  1.1854  2.3305
 1844SOL     OW16990   1.057   3.876  11.242 -0.0484 -0.1746 -0.4810
 1844SOL    HW116991   1.069   3.892  11.336  0.5662 -1.4084 -0.3360
 1844SOL    HW216992   0.971   3.918  11.243 -0.1746 -0.4481  3.4726
 1845SOL     OW16993   0.092   1.298   3.164  0.0506  1.0114  0.3013
 1845SOL    HW116994   0.087   1.243   3.085  2.3476  1.7756 -0.3792
 1845SOL    HW216995   0.000   1.321   3.177  0.2341  2.0498 -0.2444
 1846SOL     OW16996   1.155   2.981  10.810  0.1620 -0.1737 -0.5013
 1846SOL    HW116997   1.107   3.022  10.883  0.6204 -2.9263  1.3609
 1846SOL    HW216998   1.188   2.900  10.848  0.6302  0.7704  1.1523
 1847SOL     OW16999   2.455   0.494   3.323 -0.1548 -0.0326 -0.2805
 1847SOL    HW117000   2.510   0.424   3.289 -1.7607 -2.4493  2.0990
 1847SOL    HW217001   2.366   0.478   3.290 -0.3084 -1.6640  0.9165
 1848SOL     OW17002   3.619   4.610  12.531 -0.2412  0.1016 -0.2643
 1848SOL    HW117003   3.610   4.515  12.539  0.9666 -0.0093 -0.2816
 1848SOL    HW217004   3.635   4.611  12.436  1.4400 -2.7942 -0.0138
 1849SOL     OW17005   2.986   4.270   5.324  0.1230 -0.3385  0.6181
 1849SOL    HW117006   3.015   4.249   5.235  1.0097  3.4341  0.0242
 1849SOL    HW217007   2.895   4.239   5.321  0.7365 -2.2088  1.5296
 1850SOL     OW17008   0.700   1.605   7.684 -0.3720  0.2207  0.0447
 1850SOL    HW117009   0.616   1.601   7.731 -1.3698  2.0735 -1.6027
 1850SOL    HW217010   0.689   1.542   7.613 -0.1535  0.2691 -0.0317
 1851SOL     OW17011   2.157   3.398   0.668 -0.2956 -0.3952  0.1990
 1851SOL    HW117012   2.235   3.422   0.617  1.4354 -2.0906  2.0505
 1851SOL    HW217013   2.092   3.433   0.607 -0.3012 -1.9458 -0.6715
 1852SOL     OW17014   1.937   3.484  10.052  0.9753  0.2168  0.7006
 1852SOL    HW117015   1.923   3.513   9.962  2.3569 -1.2111  0.0314
 1852SOL    HW217016   1.934   3.388  10.049  1.5136  0.2742 -2.0103
 1853SOL     OW17017   3.175   0.062   5.703 -0.1225 -0.1245  0.0958
 1853SOL    HW117018   3.091   0.029   5.734  0.6210 -0.0944  2.1229
 1853SOL    HW217019   3.235   4.709   5.707  0.9265  0.6568 -0.9469
 1854SOL     OW17020   1.765   4.446   0.170  0.4689 -0.1110 -0.3152
 1854SOL    HW117021   1.699   4.489   0.116  0.0980 -1.3619 -0.8684
 1854SOL    HW217022   1.753   4.354   0.146 -0.6771 -0.2539  0.8265
 1855SOL     OW17023   4.306   2.233  10.644  0.6528 -0.5298  0.5669
 1855SOL    HW117024   4.287   2.143  10.617  0.8629 -0.3697 -0.1036
 1855SOL    HW217025   4.327   2.219  10.737 -1.2737 -1.1616  0.9163
 1856SOL     OW17026   3.999   3.591  10.627  0.7029  0.2505 -0.3192
 1856SOL    HW117027   4.079   3.547  10.658 -1.1052 -1.6433  1.7167
 1856SOL    HW217028   4.037   3.657  10.569 -0.5123 -0.1401 -1.5468
 1857SOL     OW17029   1.787   2.832   8.748  0.7093 -0.1780  0.2011
 1857SOL    HW117030   1.723   2.879   8.695  1.4812  1.4130  0.6771
 1857SOL    HW217031   1.850   2.813   8.679 -0.2737  0.1909 -0.8000
 1858SOL     OW17032   1.596   0.786   3.827  0.0112 -0.0624 -0.2146
 1858SOL    HW117033   1.559   0.770   3.740  2.3682  0.5861 -1.3355
 1858SOL    HW217034   1.579   0.879   3.839 -1.0390 -0.6856  2.9477
 1859SOL     OW17035   1.914   0.987  17.050  0.0986  0.0708  0.1499
 1859SOL    HW117036   1.849   0.945  16.993  1.2851  2.0484 -2.6232
 1859SOL    HW217037   1.926   0.923  17.120  1.1468  2.3971  2.0758
 1860SOL     OW17038   1.074   1.302   8.832  0.0152 -0.1267 -0.4865
 1860SOL    HW117039   1.145   1.246   8.864  0.0997 -0.7729 -1.7947
 1860SOL    HW217040   1.107   1.382   8.872 -0.0947 -0.0804 -0.4862
 1861SOL     OW17041   2.955   3.719   7.708  0.8905  0.1792  0.4566
 1861SOL    HW117042   2.873   3.670   7.703  2.2099 -1.7556 -2.4841
 1861SOL    HW217043   2.923   3.798   7.751  4.7626  1.8991  0.1959
 1862SOL     OW17044   0.849   4.173   6.182 -0.0293 -0.4443  0.1200
 1862SOL    HW117045   0.811   4.085   6.178  0.0314 -0.4972  0.7256
 1862SOL    HW217046   0.914   4.168   6.252 -0.2678  3.1501  0.5916
 1863SOL     OW17047   3.228   1.192   3.741 -0.3204  0.0192  0.4019
 1863SOL    HW117048   3.172   1.196   3.818 -3.1848  1.9438 -1.7665
 1863SOL    HW217049   3.293   1.257   3.768  0.4687 -0.5602 -0.1075
 1864SOL     OW17050   3.334   0.466  11.466 -0.2210  0.1758  0.2819
 1864SOL    HW117051   3.239   0.470  11.469 -0.2263  0.8120 -0.8612
 1864SOL    HW217052   3.353   0.559  11.477  1.4701 -0.0253 -0.8913
 1865SOL     OW17053   2.213   2.366   2.893  0.2180 -0.0680  0.1449
 1865SOL    HW117054   2.205   2.418   2.812  4.4328 -0.7206 -0.7029
 1865SOL    HW217055   2.308   2.354   2.895  0.0988 -0.9077  0.7057
 1866SOL     OW17056   2.909   4.048  10.186  0.0585  0.6279  0.1579
 1866SOL    HW117057   2.976   4.024  10.121 -2.4858 -0.0625 -2.1837
 1866SOL    HW217058   2.958   4.034  10.267 -0.0506  0.2608  0.1580
 1867SOL     OW17059   1.982   2.336   0.323 -0.4917 -0.1101 -0.0440
 1867SOL    HW117060   2.055   2.351   0.383 -0.9621 -2.2357  1.0296
 1867SOL    HW217061   1.958   2.244   0.329  1.8312 -0.6651  0.8721
 1868SOL     OW17062   1.451   2.764   0.163 -0.2808 -0.3165 -0.0760
 1868SOL    HW117063   1.390   2.820   0.212 -0.1849  0.4011 -0.7760
 1868SOL    HW217064   1.530   2.785   0.214 -0.1557  1.2519 -0.9285
 1869SOL     OW17065   0.561   0.132   2.677  0.4764 -0.0621  0.6770
 1869SOL    HW117066   0.546   0.046   2.638  0.5002 -0.1785  0.9257
 1869SOL    HW217067   0.654   0.145   2.662  0.5864  0.0156  1.4379
 1870SOL     OW17068   1.587   0.369   5.848 -0.1976 -0.5737 -0.1440
 1870SOL    HW117069   1.622   0.282   5.867 -1.4722 -1.2634 -0.9619
 1870SOL    HW217070   1.611   0.410   5.931  1.0573  0.8603 -1.2085
 1871SOL     OW17071   2.908   4.457  12.283  0.8045  0.5337 -0.0587
 1871SOL    HW117072   2.971   4.429  12.217  0.5263  0.4931 -0.3083
 1871SOL    HW217073   2.895   4.371  12.324  0.6082  1.4784  1.8827
 1872SOL     OW17074   1.624   0.645  16.526  0.2726 -0.4416  0.2053
 1872SOL    HW117075   1.683   0.590  16.475  2.8434  1.3194  1.2525
 1872SOL    HW217076   1.633   0.720  16.466 -0.9417  0.6042  1.3294
 1873SOL     OW17077   1.399   1.837  10.636  0.7197 -0.6203  0.2534
 1873SOL    HW117078   1.409   1.866  10.545 -0.2167 -1.2606 -0.0488
 1873SOL    HW217079   1.339   1.905  10.667  0.4461 -1.0911  0.7568
 1874SOL     OW17080   3.565   2.982   0.732 -0.3267 -0.1228  0.6009
 1874SOL    HW117081   3.491   2.966   0.674  1.1902 -2.3662 -0.7232
 1874SOL    HW217082   3.608   2.897   0.722  0.1571  0.2794 -0.7668
 1875SOL     OW17083   3.848   1.006   2.734 -0.2686 -0.0100 -0.5511
 1875SOL    HW117084   3.836   0.917   2.700  1.5004 -0.4769  0.0594
 1875SOL    HW217085   3.820   1.053   2.656 -0.4370  1.5470  0.4578
 1876SOL     OW17086   2.058   2.850   5.646 -0.5122 -0.1730 -0.3209
 1876SOL    HW117087   2.058   2.874   5.738  0.5347 -1.2650 -0.0411
 1876SOL    HW217088   1.975   2.885   5.612 -0.2471  1.6138  0.8760
 1877SOL     OW17089   3.235   3.678   7.397 -0.1862 -0.2180 -0.8390
 1877SOL    HW117090   3.153   3.724   7.416 -0.1157  0.0099 -1.0819
 1877SOL    HW217091   3.224   3.646   7.308  0.9037 -3.0962  0.0666
 1878SOL     OW17092   3.488   2.533   2.492 -0.4220 -0.3643  0.1293
 1878SOL    HW117093   3.510   2.461   2.551  0.7365  0.0375  0.2001
 1878SOL    HW217094   3.550   2.595   2.530 -0.7111  0.7055 -1.1504
 1879SOL     OW17095   3.588   0.936   4.948  0.2478  0.5523  1.0297
 1879SOL    HW117096   3.609   0.888   4.868 -3.2248  1.6734 -0.5536
 1879SOL    HW217097   3.568   1.023   4.913 -2.0195 -0.3294  0.1302
 1880SOL     OW17098   4.711   0.322  14.026 -0.3401 -0.2952 -0.0762
 1880SOL    HW117099   4.636   0.266  14.006 -0.1042 -0.4922 -0.4155
 1880SOL    HW217100   0.009   0.281  14.111  2.8924  0.2468 -0.5690
 1881SOL     OW17101   3.860   2.274   8.869  0.0785 -0.4419 -0.1066
 1881SOL    HW117102   3.880   2.293   8.961 -0.5738  1.6442 -0.3903
 1881SOL    HW217103   3.850   2.363   8.834 -0.3146 -0.2199  0.5556
 1882SOL     OW17104   4.657   1.313   0.371  0.4833  0.0210 -0.2099
 1882SOL    HW117105   4.658   1.286   0.279 -1.9967 -2.9447  0.6394
 1882SOL    HW217106   4.564   1.326   0.391 -0.2248  1.0510 -4.1920
 1883SOL     OW17107   0.149   4.050   4.102  0.0298  0.2571 -0.4805
 1883SOL    HW117108   0.184   4.066   4.190  1.8728 -0.5134 -1.0673
 1883SOL    HW217109   0.212   3.980   4.083  0.7571  0.4302  1.3036
 1884SOL     OW17110   0.988   1.510   1.522  0.2296 -0.3786  0.4948
 1884SOL    HW117111   0.932   1.433   1.507  0.1123 -0.0396 -0.7815
 1884SOL    HW217112   1.067   1.462   1.548  1.1212 -0.0251 -1.5618
 1885SOL     OW17113   2.948   2.070   6.289  0.6668  0.0174 -0.0519
 1885SOL    HW117114   2.987   2.155   6.307  1.1738 -0.5258  1.4502
 1885SOL    HW217115   2.933   2.039   6.378 -0.1038 -1.2096 -0.6023
 1886SOL     OW17116   0.076   3.878   7.908  0.0094 -1.1452  0.1103
 1886SOL    HW117117   0.151   3.873   7.849 -1.9879  1.9656 -2.6285
 1886SOL    HW217118   0.090   3.797   7.957 -1.3035 -0.6206  1.3416
 1887SOL     OW17119   2.981   0.127   8.765 -0.4353  0.3472  0.7486
 1887SOL    HW117120   3.009   0.140   8.856 -0.1339  1.5468  0.4815
 1887SOL    HW217121   2.887   0.119   8.783 -1.0342  2.5130 -1.3722
 1888SOL     OW17122   4.635   2.470  14.104 -0.2926  0.4434 -0.6468
 1888SOL    HW117123   4.640   2.380  14.071 -1.8454  0.4840 -1.0105
 1888SOL    HW217124   4.629   2.524  14.025 -1.7553  0.1385 -0.7489
 1889SOL     OW17125   3.213   1.117   1.408  0.3182  0.2843  0.4948
 1889SOL    HW117126   3.140   1.092   1.465  0.5148 -0.7214  0.3000
 1889SOL    HW217127   3.243   1.030   1.382 -1.7021  0.3247 -1.9687
 1890SOL     OW17128   3.043   3.031   9.203  0.2308  0.6891 -0.4244
 1890SOL    HW117129   3.109   3.063   9.142  0.5721 -1.0631 -0.9706
 1890SOL    HW217130   3.055   3.095   9.274  1.3541  1.2478 -1.1267
 1891SOL     OW17131   4.221   4.440   8.957  0.9551  0.8274  0.5790
 1891SOL    HW117132   4.282   4.513   8.967 -0.7914  2.3078  0.4780
 1891SOL    HW217133   4.266   4.366   8.998 -0.5051  0.3410  1.3040
 1892SOL     OW17134   4.477   0.373   2.289  0.0970 -0.0954  0.0574
 1892SOL    HW117135   4.516   0.286   2.276  1.2785  0.5528 -0.7801
 1892SOL    HW217136   4.399   0.335   2.330 -0.1312  0.1151 -0.1867
 1893SOL     OW17137   2.007   3.856  17.547  0.2595 -0.0314 -0.2961
 1893SOL    HW117138   1.931   3.897  17.588 -1.3632 -2.2371 -1.0673
 1893SOL    HW217139   2.035   3.920  17.481 -2.7366  0.8170 -0.7650
 1894SOL     OW17140   0.261   1.081   8.092 -0.2248 -0.0319  0.7116
 1894SOL    HW117141   0.316   1.159   8.103  0.4360 -0.7751  2.8010
 1894SOL    HW217142   0.287   1.021   8.162 -0.5878  0.0442  0.9100
 1895SOL     OW17143   4.085   1.713   3.316 -0.2963  0.1644 -0.6529
 1895SOL    HW117144   4.042   1.730   3.232 -3.0489  0.9789  0.9612
 1895SOL    HW217145   4.019   1.655   3.353  1.1274 -1.8600 -1.3071
 1896SOL     OW17146   2.555   1.024   5.469 -0.0353 -0.3476 -0.2478
 1896SOL    HW117147   2.604   0.959   5.520 -1.6723 -1.5037 -0.1642
 1896SOL    HW217148   2.515   1.074   5.540 -1.1272 -0.7222 -0.6120
 1897SOL     OW17149   0.885   3.074   8.399 -0.3297  0.2430 -0.0360
 1897SOL    HW117150   0.960   3.117   8.441 -0.0622 -0.0137 -0.2538
 1897SOL    HW217151   0.936   3.017   8.342  0.0476  0.7813 -0.2327
 1898SOL     OW17152   3.189   4.048   6.130  0.4570 -0.3465  0.1028
 1898SOL    HW117153   3.229   3.963   6.149  1.0407 -0.0913  0.0253
 1898SOL    HW217154   3.147   4.031   6.045 -1.4321  0.3382  0.8969
 1899SOL     OW17155   0.813   3.688   2.394  0.0893 -0.1561  0.0204
 1899SOL    HW117156   0.863   3.607   2.385  0.1416 -0.2941  1.6113
 1899SOL    HW217157   0.789   3.667   2.484 -1.1975  0.8399 -0.0901
 1900SOL     OW17158   2.645   0.877   4.696 -0.6077 -0.7172 -0.2414
 1900SOL    HW117159   2.605   0.913   4.775  0.5405  1.9564 -0.8502
 1900SOL    HW217160   2.592   0.914   4.625  0.3147  0.3224 -0.4000
 1901SOL     OW17161   0.730   4.503   0.860 -0.0413 -0.2363  0.0978
 1901SOL    HW117162   0.800   4.552   0.902  1.0108 -2.2396  0.6860
 1901SOL    HW217163   0.774   4.442   0.800 -1.2522 -0.1206 -0.9121
 1902SOL     OW17164   2.929   2.362   6.463  0.4223 -0.1283  0.0551
 1902SOL    HW117165   2.979   2.429   6.508  0.2332  0.8487 -1.1900
 1902SOL    HW217166   2.852   2.349   6.519  0.2206  0.8158 -0.0017
 1903SOL     OW17167   1.025   4.080   2.485  0.3943  0.3695 -0.2119
 1903SOL    HW117168   0.971   4.020   2.433  0.5856  0.4443 -0.5008
 1903SOL    HW217169   0.981   4.162   2.463 -1.5246 -0.4325  0.6534
 1904SOL     OW17170   0.892   3.836   0.892 -0.2047 -0.2670 -0.4886
 1904SOL    HW117171   0.963   3.885   0.933  0.1057  0.0628 -1.4359
 1904SOL    HW217172   0.861   3.783   0.965  0.3897 -0.5389 -0.4326
 1905SOL     OW17173   2.169   2.252   6.471  0.2603 -0.1130  0.0407
 1905SOL    HW117174   2.075   2.255   6.454  0.3203 -1.2322 -0.4947
 1905SOL    HW217175   2.213   2.259   6.386 -0.7937 -0.0921 -0.5017
 1906SOL     OW17176   0.486   0.936   3.518  0.5765  0.3386 -0.1453
 1906SOL    HW117177   0.422   0.925   3.449 -1.4703 -2.3167  2.1889
 1906SOL    HW217178   0.570   0.919   3.477 -0.8605 -1.2502 -2.3817
 1907SOL     OW17179   3.956   0.775   7.909 -0.2865 -0.3091 -0.3557
 1907SOL    HW117180   3.898   0.737   7.843 -0.4357  1.0223 -0.9907
 1907SOL    HW217181   4.033   0.724   7.883 -2.4752 -1.7193 -4.0430
 1908SOL     OW17182   4.166   1.096   2.241 -0.4111 -0.3094 -0.7262
 1908SOL    HW117183   4.239   1.149   2.274 -0.7681  0.0546 -0.5116
 1908SOL    HW217184   4.204   1.009   2.253  1.7437  0.8639  1.0341
 1909SOL     OW17185   0.445   2.617  11.491 -0.2233  0.1813 -0.4664
 1909SOL    HW117186   0.375   2.553  11.501  0.6470 -0.3529  2.2178
 1909SOL    HW217187   0.498   2.571  11.556  0.9457 -0.5928 -1.9479
 1910SOL     OW17188   3.295   1.650  13.124  0.0494  0.0200  0.1454
 1910SOL    HW117189   3.239   1.574  13.111 -1.2066  0.9430  0.2080
 1910SOL    HW217190   3.342   1.650  13.040 -2.0656  0.2546 -1.0449
 1911SOL     OW17191   4.634   2.557  17.612 -0.0240  0.1732  0.0031
 1911SOL    HW117192   4.696   2.528  17.546 -2.2561 -2.0656 -1.0715
 1911SOL    HW217193   4.678   2.535   0.006 -0.3011  0.7584  0.3152
 1912SOL     OW17194   4.331   3.109  10.747 -0.3702  0.1962  0.0252
 1912SOL    HW117195   4.393   3.164  10.795  1.0853 -1.6861  0.2761
 1912SOL    HW217196   4.333   3.023  10.787  1.8805 -0.8767 -2.3996
 1913SOL     OW17197   0.598   3.181   8.650  0.7189  0.2084 -0.0116
 1913SOL    HW117198   0.612   3.086   8.642 -0.7607  0.3912 -4.6412
 1913SOL    HW217199   0.505   3.187   8.672  1.4695  0.9126  3.0504
 1914SOL     OW17200   1.145   3.889   8.240 -0.2228  0.4689 -0.0973
 1914SOL    HW117201   1.081   3.880   8.170 -0.5885  2.8892 -0.1041
 1914SOL    HW217202   1.087   3.876   8.315  0.1149  1.2767  0.3070
 1915SOL     OW17203   2.323   1.548   6.893 -0.1341  0.4643 -0.2904
 1915SOL    HW117204   2.295   1.478   6.833  1.9592 -0.3588 -0.3112
 1915SOL    HW217205   2.267   1.613   6.852 -0.9575 -0.4816 -0.6821
 1916SOL     OW17206   1.245   0.940   9.114 -0.9881  0.3794 -0.2246
 1916SOL    HW117207   1.249   0.923   9.208 -2.1569  2.8070  0.2691
 1916SOL    HW217208   1.154   0.913   9.103 -0.6611 -0.5674 -0.6321
 1917SOL     OW17209   1.038   0.461   1.945  0.1834  0.6345 -0.3767
 1917SOL    HW117210   1.086   0.471   2.027 -1.1987 -2.0225  0.7590
 1917SOL    HW217211   0.980   0.387   1.964  0.3220  1.0433  1.6603
 1918SOL     OW17212   4.387   1.957   3.470 -0.2155 -0.3668  0.3250
 1918SOL    HW117213   4.348   2.035   3.430  2.7905  0.3976 -1.1628
 1918SOL    HW217214   4.317   1.908   3.512 -0.2449  0.5757  1.3667
 1919SOL     OW17215   1.062   2.284   3.612 -0.3093  0.0362 -0.1422
 1919SOL    HW117216   0.992   2.232   3.575 -0.1629 -0.0863 -0.2484
 1919SOL    HW217217   1.138   2.230   3.588  1.3486  2.0875  0.4576
 1920SOL     OW17218   2.805   2.672   5.289  0.0117  0.1688 -0.2499
 1920SOL    HW117219   2.745   2.623   5.346  0.8450 -1.5695 -0.8633
 1920SOL    HW217220   2.784   2.617   5.214 -0.8344  0.7265 -0.4219
 1921SOL     OW17221   4.617   0.072   3.956  0.6565  0.2490 -0.2221
 1921SOL    HW117222   4.596   0.043   3.867 -1.6838 -0.8380  0.6679
 1921SOL    HW217223   4.526   0.064   3.987  0.6859  2.1132  0.3014
 1922SOL     OW17224   1.609   3.589   7.771 -0.7316 -0.0277  0.2004
 1922SOL    HW117225   1.676   3.523   7.753  1.1799  2.2315 -0.9355
 1922SOL    HW217226   1.620   3.647   7.696 -1.0747 -1.5671 -1.0356
 1923SOL     OW17227   2.213   1.081   4.489  0.2817 -0.2939  0.0645
 1923SOL    HW117228   2.154   1.155   4.501 -1.1163 -1.2028 -1.2270
 1923SOL    HW217229   2.192   1.049   4.402  1.6632  0.4745 -0.5543
 1924SOL     OW17230   0.643   0.511   2.516  0.0073 -0.5532  0.1753
 1924SOL    HW117231   0.730   0.551   2.521 -0.5688  0.5676  1.1548
 1924SOL    HW217232   0.590   0.590   2.516 -0.3596 -0.7866 -1.9025
 1925SOL     OW17233   1.251   3.578  10.833  0.0046 -0.7562 -0.5398
 1925SOL    HW117234   1.199   3.536  10.765 -1.6609  0.0896  0.1913
 1925SOL    HW217235   1.271   3.664  10.796  1.6338 -0.2045  1.5869
 1926SOL     OW17236   2.434   3.981   6.378  0.3859 -0.0409  0.0970
 1926SOL    HW117237   2.501   4.047   6.362  1.5306 -1.2519 -0.0602
 1926SOL    HW217238   2.416   3.969   6.285 -5.9843  0.2732  1.2545
 1927SOL     OW17239   4.633   2.150   7.970  0.0766  0.1937  0.6586
 1927SOL    HW117240   4.710   2.207   7.980  0.9367 -1.1680  1.7572
 1927SOL    HW217241   4.563   2.213   7.990  0.7140  0.4801  2.0153
 1928SOL     OW17242   2.496   2.980   7.984  0.2904 -0.0512 -0.3465
 1928SOL    HW117243   2.580   3.018   8.010 -0.8440  2.3552 -0.2055
 1928SOL    HW217244   2.443   3.013   8.057  1.7725 -2.8816  2.0352
 1929SOL     OW17245   0.376   3.103   9.015  0.2960  0.6240  0.3060
 1929SOL    HW117246   0.298   3.081   9.067  0.7832  2.3528  1.7783
 1929SOL    HW217247   0.451   3.089   9.073 -0.0420  0.3600  0.6810
 1930SOL     OW17248   0.623   0.491   5.222  0.0501 -0.4355 -0.4457
 1930SOL    HW117249   0.710   0.475   5.260 -0.9243 -1.5595  1.3272
 1930SOL    HW217250   0.569   0.429   5.272  1.0491  0.4129  1.6724
 1931SOL     OW17251   3.864   0.882   4.197 -0.5859 -0.4000  0.1200
 1931SOL    HW117252   3.809   0.837   4.132 -0.2879 -1.2249  0.4381
 1931SOL    HW217253   3.943   0.828   4.192  1.4343  2.5469  0.4224
 1932SOL     OW17254   3.107   1.750   2.757 -0.7114  0.6285  0.2137
 1932SOL    HW117255   3.192   1.786   2.781  0.4725 -1.5251 -0.8044
 1932SOL    HW217256   3.136   1.667   2.719  1.5065 -0.1020  3.4818
 1933SOL     OW17257   0.528   2.108   8.712  0.1462  0.3806  0.0604
 1933SOL    HW117258   0.619   2.079   8.724 -0.2849 -0.9596  0.0843
 1933SOL    HW217259   0.545   2.177   8.648  0.5638  0.3156  0.1016
 1934SOL     OW17260   4.394   3.975  17.460  0.1980 -1.2664  0.2530
 1934SOL    HW117261   4.322   3.974  17.397 -0.7550 -2.7902  1.3661
 1934SOL    HW217262   4.399   4.067  17.485 -2.5135 -0.8533 -0.7717
 1935SOL     OW17263   4.111   4.680   6.620  0.2593  0.0427  0.0051
 1935SOL    HW117264   4.158   0.024   6.569  0.4054 -0.5607 -0.6384
 1935SOL    HW217265   4.020   4.682   6.589 -0.1280  0.4695  1.1584
 1936SOL     OW17266   3.250   2.022   3.854 -0.1628 -0.2846  0.1542
 1936SOL    HW117267   3.187   2.075   3.805 -1.2158 -2.0846 -0.4642
 1936SOL    HW217268   3.193   1.978   3.918  0.6748  0.8050  1.6172
 1937SOL     OW17269   2.509   4.500   6.758  0.2563 -0.2121  0.3071
 1937SOL    HW117270   2.492   4.490   6.664  1.7392 -1.6028  0.1924
 1937SOL    HW217271   2.503   4.593   6.779 -0.2220  0.4754 -2.9218
 1938SOL     OW17272   1.534   2.580   2.249  0.0698 -0.0221 -0.2603
 1938SOL    HW117273   1.442   2.556   2.240 -0.4487  1.3080  1.5072
 1938SOL    HW217274   1.560   2.596   2.158  0.9758  2.0380  0.3670
 1939SOL     OW17275   3.181   2.392  14.535 -0.5259  0.3685 -0.3930
 1939SOL    HW117276   3.237   2.346  14.473  1.1604  2.0273 -0.1055
 1939SOL    HW217277   3.114   2.324  14.533 -0.2130 -0.0153  1.7423
 1940SOL     OW17278   2.359   3.135  16.767 -0.0781  0.2633  0.6171
 1940SOL    HW117279   2.356   3.060  16.707  1.8403  0.5121  0.2053
 1940SOL    HW217280   2.443   3.122  16.810  0.0967  0.7876  0.4389
 1941SOL     OW17281   0.803   3.093   5.928  0.3169 -0.3405  0.3650
 1941SOL    HW117282   0.839   3.035   5.860  2.7664  0.5196  0.9578
 1941SOL    HW217283   0.729   3.035   5.947  1.3966 -0.8888  2.8162
 1942SOL     OW17284   3.068   0.016  11.460 -0.5624 -0.2285  0.3744
 1942SOL    HW117285   3.055   0.070  11.538  1.2824 -0.4133  0.8120
 1942SOL    HW217286   3.113   4.659  11.492  1.9019 -0.1785 -3.0673
 1943SOL     OW17287   1.364   3.337   2.138  0.0324  0.1189  0.0230
 1943SOL    HW117288   1.366   3.425   2.175  1.7790  0.5883 -1.2072
 1943SOL    HW217289   1.457   3.328   2.118  0.0095  2.3991 -1.1135
 1944SOL     OW17290   2.893   4.446   2.465 -0.8849 -0.2125  0.6506
 1944SOL    HW117291   2.805   4.428   2.434 -0.5765  1.9720 -1.4848
 1944SOL    HW217292   2.951   4.458   2.390 -0.6865 -1.6820  0.5866
 1945SOL     OW17293   1.586   4.639   8.655 -0.2281 -1.2257  0.2825
 1945SOL    HW117294   1.659   4.587   8.690  0.1174 -0.3190  0.9190
 1945SOL    HW217295   1.577   4.699   8.729  2.7397 -1.9947  1.2923
 1946SOL     OW17296   2.510   2.110  16.681  0.1189  0.5868  0.6954
 1946SOL    HW117297   2.563   2.059  16.742 -1.0683 -2.9549 -1.1765
 1946SOL    HW217298   2.579   2.163  16.641 -0.1057 -0.1740 -0.7152
 1947SOL     OW17299   3.632   2.832  16.828  0.2720 -0.1095 -0.0810
 1947SOL    HW117300   3.540   2.819  16.806 -0.1998  3.0348  0.0666
 1947SOL    HW217301   3.633   2.921  16.863  2.0962 -0.3694  0.5330
 1948SOL     OW17302   0.146   3.904   8.720 -0.9872 -0.1670 -0.0691
 1948SOL    HW117303   0.203   3.971   8.757 -1.9276  0.8587 -0.4596
 1948SOL    HW217304   0.206   3.830   8.723 -1.0729 -0.0811  3.4133
 1949SOL     OW17305   0.105   4.260  12.352  0.1776  0.2585 -0.0426
 1949SOL    HW117306   0.093   4.258  12.257  1.2262  1.3568 -0.2007
 1949SOL    HW217307   0.085   4.170  12.378  0.0715  0.1775 -0.4078
 1950SOL     OW17308   0.044   0.394   2.896  0.6186 -0.5565 -0.5014
 1950SOL    HW117309   4.708   0.461   2.932  0.4348 -0.7614 -0.4132
 1950SOL    HW217310   4.702   0.370   2.829  1.2245 -0.1062 -1.2308
 1951SOL     OW17311   2.806   1.819   4.998 -0.3728  0.1468  0.7844
 1951SOL    HW117312   2.842   1.892   4.948 -1.8224  0.3676  0.0824
 1951SOL    HW217313   2.791   1.752   4.931  2.8263  0.8909 -0.6695
 1952SOL     OW17314   0.052   2.795   5.354 -0.1173 -0.1498  0.1858
 1952SOL    HW117315   0.144   2.781   5.376 -0.3630 -0.8140  0.7768
 1952SOL    HW217316   0.038   2.886   5.380 -2.5359 -0.2655 -0.6777
 1953SOL     OW17317   3.730   4.648  17.577 -0.0349  0.3470 -0.0339
 1953SOL    HW117318   3.760   4.663  17.666 -2.2328 -0.3316  0.8192
 1953SOL    HW217319   3.754   0.007  17.531 -0.2372  0.3713 -0.0962
 1954SOL     OW17320   0.095   4.597  16.025 -0.4502 -0.5983  0.0849
 1954SOL    HW117321   0.029   4.589  15.955  2.4300  0.0118 -2.6840
 1954SOL    HW217322   0.041   4.565  16.097 -0.2399  0.7993  0.8624
 1955SOL     OW17323   1.878   2.074  12.204 -0.5716  0.7614 -0.3533
 1955SOL    HW117324   1.827   2.014  12.258  1.0683 -0.9087 -0.6605
 1955SOL    HW217325   1.943   2.128  12.249 -0.4038  1.9064 -1.9334
 1956SOL     OW17326   1.444   3.422   4.507 -0.4648  0.4851 -0.1855
 1956SOL    HW117327   1.491   3.465   4.578  0.7421  2.1893 -1.9991
 1956SOL    HW217328   1.456   3.488   4.438  0.0012 -1.0566 -1.5877
 1957SOL     OW17329   3.091   1.469  13.006  0.2523 -0.5126 -0.0717
 1957SOL    HW117330   3.053   1.384  12.982  0.0336 -0.5173  0.2882
 1957SOL    HW217331   3.011   1.518  13.023  0.5571 -0.3679  0.9933
 1958SOL     OW17332   1.196   2.848  10.100  0.1794 -1.0565 -0.0777
 1958SOL    HW117333   1.149   2.888  10.027  2.4118  1.1297 -0.3295
 1958SOL    HW217334   1.125   2.856  10.164  0.4725 -1.5015  0.3023
 1959SOL     OW17335   4.528   3.132   4.962 -0.2461  0.5458 -0.3642
 1959SOL    HW117336   4.571   3.208   5.001  1.8711 -2.3570  2.9567
 1959SOL    HW217337   4.575   3.127   4.878 -1.1473 -0.7311 -0.7881
 1960SOL     OW17338   0.423   4.456   2.768 -0.2118 -0.3472  0.9903
 1960SOL    HW117339   0.510   4.427   2.794 -0.6555 -1.3238  1.3948
 1960SOL    HW217340   0.370   4.465   2.847  0.9754  0.1827  1.7222
 1961SOL     OW17341   0.757   1.868   4.595 -0.3265 -0.6660  0.0310
 1961SOL    HW117342   0.853   1.868   4.590 -0.2760  3.1874  1.3657
 1961SOL    HW217343   0.737   1.948   4.547 -3.2275 -1.2230  0.3423
 1962SOL     OW17344   1.181   0.509  16.371  0.0588  0.0425 -0.4327
 1962SOL    HW117345   1.213   0.519  16.281  0.5568  0.9438 -0.1546
 1962SOL    HW217346   1.260   0.492  16.422 -1.5690  1.7117  2.6148
 1963SOL     OW17347   1.681   3.291  10.305 -0.1332  0.5944  0.4044
 1963SOL    HW117348   1.726   3.338  10.375 -2.2755  1.3941  1.2552
 1963SOL    HW217349   1.651   3.362  10.247  0.2051  1.6757  1.5619
 1964SOL     OW17350   1.842   4.161  15.287 -0.5283 -0.4674  0.0287
 1964SOL    HW117351   1.862   4.252  15.305 -0.8264 -0.3807 -0.0742
 1964SOL    HW217352   1.810   4.149  15.376 -0.4976  0.2789  0.1330
 1965SOL     OW17353   0.474   2.333   7.544 -0.7229 -0.5058  0.2775
 1965SOL    HW117354   0.530   2.282   7.602 -0.3025 -0.3245  0.0353
 1965SOL    HW217355   0.397   2.307   7.594 -0.0988 -0.3523  1.3212
 1966SOL     OW17356   1.064   0.414  10.859  0.0974  0.2636  0.0237
 1966SOL    HW117357   0.977   0.428  10.822 -0.1969  1.8029  1.3442
 1966SOL    HW217358   1.062   0.485  10.923  0.8856  0.0944  0.2379
 1967SOL     OW17359   2.818   4.089   8.925  0.2650  0.4825  0.0895
 1967SOL    HW117360   2.824   4.127   9.013  1.2105 -0.1308  0.2843
 1967SOL    HW217361   2.796   4.167   8.874 -1.3487 -2.0431 -3.0969
 1968SOL     OW17362   1.467   3.269   3.874  0.4876 -0.3598  0.0976
 1968SOL    HW117363   1.383   3.227   3.890  0.0980  0.7354  0.8671
 1968SOL    HW217364   1.522   3.191   3.865 -0.3808 -0.7819 -1.6456
 1969SOL     OW17365   4.222   3.228  13.141  0.0341 -0.0145  0.0935
 1969SOL    HW117366   4.152   3.173  13.177 -0.7245  0.8953 -0.0018
 1969SOL    HW217367   4.246   3.289  13.210 -0.0395  0.4651 -0.3027
 1970SOL     OW17368   1.096   2.042   6.509 -0.5199  0.5193  0.6659
 1970SOL    HW117369   1.122   1.953   6.533  0.6197 -0.0851 -2.7119
 1970SOL    HW217370   1.178   2.083   6.539  0.7894  0.1478 -2.3672
 1971SOL     OW17371   3.626   2.046   9.216  0.7683 -0.4191 -0.3841
 1971SOL    HW117372   3.588   2.099   9.286  1.0108 -0.7128 -0.0350
 1971SOL    HW217373   3.580   2.091   9.145  0.3200 -1.0828 -0.5181
 1972SOL     OW17374   1.987   2.117  11.206 -0.1125 -0.0716 -0.1295
 1972SOL    HW117375   1.997   2.204  11.166 -1.5295 -0.1538 -0.6520
 1972SOL    HW217376   1.905   2.130  11.254 -1.0393 -0.4142 -1.6446
 1973SOL     OW17377   3.735   2.005   6.203 -0.6110 -0.4773  0.0326
 1973SOL    HW117378   3.804   1.973   6.260 -0.9447 -1.4424 -0.1147
 1973SOL    HW217379   3.775   2.027   6.119  3.2244 -1.0730  1.7491
 1974SOL     OW17380   4.131   1.947   5.562  0.0473  0.6471 -0.1601
 1974SOL    HW117381   4.222   1.942   5.534 -0.3946 -0.3906 -1.4032
 1974SOL    HW217382   4.086   1.884   5.505  1.5205  1.8246 -2.5963
 1975SOL     OW17383   4.064   2.443  10.722  0.1008  0.0807  0.1739
 1975SOL    HW117384   3.986   2.392  10.742  0.7455 -0.4833  1.3129
 1975SOL    HW217385   4.100   2.474  10.806  2.1384 -0.6733 -0.4316
 1976SOL     OW17386   2.571   1.117  11.543 -0.6650 -0.5522  0.2782
 1976SOL    HW117387   2.584   1.171  11.621 -1.0631 -0.6227  0.3886
 1976SOL    HW217388   2.593   1.181  11.475  0.6161 -1.6349 -0.3442
 1977SOL     OW17389   1.637   0.151  13.801 -0.7086  0.1606 -0.2784
 1977SOL    HW117390   1.658   0.061  13.825 -0.5157  0.2817  0.0123
 1977SOL    HW217391   1.542   0.159  13.805 -0.4523  1.0215  3.8114
 1978SOL     OW17392   3.133   2.785   5.217  0.3590 -0.0696  0.0758
 1978SOL    HW117393   3.210   2.729   5.208 -0.0762 -0.3883 -1.6526
 1978SOL    HW217394   3.176   2.851   5.271 -0.0514  1.4255 -1.4281
 1979SOL     OW17395   4.682   4.037   4.680 -0.0392 -0.3174 -0.2410
 1979SOL    HW117396   4.709   4.105   4.618 -1.6696  1.4468  0.9498
 1979SOL    HW217397   4.717   4.076   4.760 -0.1786 -0.1778 -0.2481
 1980SOL     OW17398   4.235   0.207   9.399 -0.1206  0.4555  0.3550
 1980SOL    HW117399   4.159   0.201   9.457  0.8438 -0.8715  1.5035
 1980SOL    HW217400   4.287   0.202   9.480 -0.8016  0.4299  0.7915
 1981SOL     OW17401   2.541   0.656   3.512  0.1252 -0.1541  0.6052
 1981SOL    HW117402   2.520   0.578   3.460  1.1964  0.6590 -1.0545
 1981SOL    HW217403   2.454   0.695   3.509 -0.3374 -1.4461 -2.7551
 1982SOL     OW17404   2.200   3.975   2.545 -0.9156 -0.3659  0.0917
 1982SOL    HW117405   2.278   3.922   2.560 -0.6032  0.0427 -0.1078
 1982SOL    HW217406   2.202   3.982   2.450  1.5998  0.0862  0.1876
 1983SOL     OW17407   4.134   4.470   3.263 -0.2230 -0.6008  0.1388
 1983SOL    HW117408   4.180   4.407   3.318 -2.0486 -0.9639  1.2520
 1983SOL    HW217409   4.059   4.421   3.228 -0.8027  0.9985 -0.8935
 1984SOL     OW17410   3.654   2.829   6.456  0.1111  0.0631  0.5574
 1984SOL    HW117411   3.608   2.902   6.415 -0.9770 -0.6867  0.4558
 1984SOL    HW217412   3.739   2.874   6.456  0.3616 -0.4108 -0.1976
 1985SOL     OW17413   4.075   2.238   4.259 -0.1005 -0.4362 -0.3386
 1985SOL    HW117414   4.153   2.291   4.245 -0.5375  0.6693  1.4790
 1985SOL    HW217415   4.004   2.299   4.239 -1.6572 -1.0782  3.2847
 1986SOL     OW17416   0.210   2.960   4.188 -0.1141 -0.0311 -0.2061
 1986SOL    HW117417   0.203   3.054   4.199 -0.7096  0.1902 -2.4992
 1986SOL    HW217418   0.305   2.948   4.183  0.0448  1.3281 -0.2970
 1987SOL     OW17419   3.408   2.446  15.606  0.4159 -0.8312 -0.0274
 1987SOL    HW117420   3.379   2.361  15.641  0.8983 -0.4776  1.2274
 1987SOL    HW217421   3.495   2.422  15.573 -0.0851 -1.6534 -0.7652
 1988SOL     OW17422   4.512   3.735   3.813  0.2875 -0.0370 -0.7599
 1988SOL    HW117423   4.436   3.724   3.755  0.1795  1.1271 -0.8475
 1988SOL    HW217424   4.525   3.647   3.846  2.3067 -0.2656 -2.1534
 1989SOL     OW17425   3.609   1.011  10.943  0.2319  0.0597 -0.0821
 1989SOL    HW117426   3.579   1.076  11.006 -1.9890 -0.7469 -0.2966
 1989SOL    HW217427   3.679   1.052  10.892  0.2399  2.5229  1.9144
 1990SOL     OW17428   0.871   2.132   9.830 -0.3536  0.2402  0.2068
 1990SOL    HW117429   0.877   2.227   9.836 -0.4553  0.1370  2.0603
 1990SOL    HW217430   0.918   2.097   9.906  1.5735  2.4441  0.0115
 1991SOL     OW17431   0.045   1.607  14.848  0.4104 -0.1098 -0.3558
 1991SOL    HW117432   4.673   1.587  14.841  0.0279  0.9045  1.9024
 1991SOL    HW217433   0.085   1.529  14.810  1.9964  0.1328  0.7939
 1992SOL     OW17434   1.349   1.279  14.489  0.2376  0.8408  0.1775
 1992SOL    HW117435   1.394   1.263  14.571  1.6129  1.0812 -0.5232
 1992SOL    HW217436   1.413   1.262  14.419  0.3187  0.9766  0.2187
 1993SOL     OW17437   3.011   2.254   5.302  0.1361 -0.3163 -0.1553
 1993SOL    HW117438   3.047   2.334   5.264  1.6186 -0.5818  0.6999
 1993SOL    HW217439   3.010   2.269   5.397  0.3551  1.9948 -0.5209
 1994SOL     OW17440   0.530   0.556   8.899 -0.0410 -0.6214  0.0428
 1994SOL    HW117441   0.455   0.608   8.872  0.2724 -1.2745 -2.0318
 1994SOL    HW217442   0.569   0.622   8.956  0.9325 -1.3406  0.2098
 1995SOL     OW17443   3.405   3.369   8.881  0.1599  0.0286  0.2697
 1995SOL    HW117444   3.441   3.324   8.958 -0.3054  1.0388  1.0717
 1995SOL    HW217445   3.454   3.451   8.874  0.9798 -0.5919 -1.3604
 1996SOL     OW17446   3.360   3.638  15.372  0.2127 -0.3331  0.1043
 1996SOL    HW117447   3.310   3.558  15.355  1.1493 -0.5493 -1.6300
 1996SOL    HW217448   3.447   3.610  15.346  0.5789  0.4038  0.5116
 1997SOL     OW17449   4.048   2.118  17.286  0.8019 -0.9414  0.4290
 1997SOL    HW117450   4.018   2.208  17.299  0.7873 -0.7932 -0.6200
 1997SOL    HW217451   4.079   2.109  17.376 -0.4934 -1.1028  0.8506
 1998SOL     OW17452   3.415   1.895  13.063 -0.2058  0.3132  0.2225
 1998SOL    HW117453   3.498   1.851  13.081  0.3997  1.6628  0.7496
 1998SOL    HW217454   3.359   1.831  13.107 -1.8393  0.3662 -1.7621
 1999SOL     OW17455   0.667   4.073  12.759  0.5474  0.0316  0.0280
 1999SOL    HW117456   0.751   4.057  12.803  0.6316 -0.8160 -0.4457
 1999SOL    HW217457   0.634   3.984  12.746  1.3668 -0.1379 -0.9473
 2000SOL     OW17458   1.676   2.719   5.378 -0.0317  0.3611  0.1492
 2000SOL    HW117459   1.740   2.648   5.389 -0.6396  0.1423  2.3059
 2000SOL    HW217460   1.600   2.665   5.359 -1.1754  1.1252  2.5372
 2001SOL     OW17461   1.332   2.147   6.624  0.0069 -0.0310 -0.2898
 2001SOL    HW117462   1.403   2.205   6.597  1.9662 -1.5440  1.6836
 2001SOL    HW217463   1.281   2.204   6.681  0.0808 -2.9579  2.7287
 2002SOL     OW17464   1.294   3.492  17.538 -0.1595  0.4757 -0.0749
 2002SOL    HW117465   1.339   3.505  17.621  0.4576  1.9283 -0.6486
 2002SOL    HW217466   1.267   3.578  17.507 -2.0086  0.6169  1.8913
 2003SOL     OW17467   2.954   1.754   5.213  0.1089  0.1576  0.0981
 2003SOL    HW117468   2.960   1.850   5.214  2.7937  0.0212 -1.8563
 2003SOL    HW217469   2.891   1.735   5.144 -0.4012 -1.8831  1.1283
 2004SOL     OW17470   2.047   2.213  12.373  0.3905 -0.3212 -0.6996
 2004SOL    HW117471   2.126   2.179  12.414  0.4496  0.2157 -0.3688
 2004SOL    HW217472   2.063   2.307  12.365 -1.4039  0.2535  2.5154
 2005SOL     OW17473   3.422   1.540  10.952 -0.3237  0.8038  0.5622
 2005SOL    HW117474   3.376   1.559  10.871 -0.3331  2.2626  0.9094
 2005SOL    HW217475   3.362   1.490  11.008 -0.0631  0.7617  0.8046
 2006SOL     OW17476   1.977   3.190   2.084 -0.6423  0.6122  0.7097
 2006SOL    HW117477   1.933   3.221   2.004  2.1210  0.9425 -0.6958
 2006SOL    HW217478   1.932   3.110   2.110 -2.1754  0.9363 -0.9278
 2007SOL     OW17479   4.085   1.530   5.597 -0.3601 -0.0302 -0.1931
 2007SOL    HW117480   4.089   1.597   5.666 -1.3624 -0.7434  0.5594
 2007SOL    HW217481   4.166   1.553   5.552 -1.6057 -0.4801 -2.6172
 2008SOL     OW17482   4.300   1.294   5.146 -0.1423  0.2765 -0.2013
 2008SOL    HW117483   4.305   1.362   5.078  0.0069  0.6276  0.1635
 2008SOL    HW217484   4.394   1.283   5.161  0.0073 -1.5871 -2.4020
 2009SOL     OW17485   1.117   4.464  11.621  0.7655 -0.2000  0.3995
 2009SOL    HW117486   1.054   4.392  11.629 -1.6890  1.7117 -1.9407
 2009SOL    HW217487   1.076   4.514  11.551  3.4476  2.5744  0.8369
 2010SOL     OW17488   3.063   1.144   1.676  0.3882  0.7481 -0.1516
 2010SOL    HW117489   2.994   1.129   1.612 -1.1882  1.2159  1.4397
 2010SOL    HW217490   3.089   1.233   1.652  1.6593  0.6021  0.6621
 2011SOL     OW17491   0.473   2.327   9.186 -0.0069  0.0225 -0.1771
 2011SOL    HW117492   0.463   2.323   9.091  1.2681  0.2691 -0.3168
 2011SOL    HW217493   0.533   2.401   9.184  0.0459 -0.0001  0.6391
 2012SOL     OW17494   0.625   3.169  11.408 -0.2903 -0.2254 -0.2356
 2012SOL    HW117495   0.717   3.144  11.407 -0.6614 -1.6218 -0.1160
 2012SOL    HW217496   0.630   3.261  11.433 -0.2763 -0.1849 -0.3826
 2013SOL     OW17497   0.973   1.543   8.269  0.6667  0.5574  0.5793
 2013SOL    HW117498   0.993   1.581   8.183  0.6801 -0.2547  0.2241
 2013SOL    HW217499   0.914   1.468   8.257  0.2849  1.0190 -0.4877
 2014SOL     OW17500   3.222   3.043  10.828 -0.0256 -0.4115 -0.0122
 2014SOL    HW117501   3.127   3.040  10.841  0.1830  0.3360  1.6411
 2014SOL    HW217502   3.257   3.106  10.891  0.1685 -1.0414  0.5161
 2015SOL     OW17503   2.021   2.505   4.465 -0.5976  0.3862 -0.1099
 2015SOL    HW117504   1.946   2.530   4.519 -0.9011  1.0367 -0.8395
 2015SOL    HW217505   2.086   2.533   4.530 -0.5649 -1.8035  0.8166
 2016SOL     OW17506   4.085   2.092  13.364 -0.1565  0.2253 -0.5712
 2016SOL    HW117507   4.106   1.999  13.376 -0.7044  0.2708  0.7928
 2016SOL    HW217508   3.993   2.093  13.392 -0.7040 -1.9951 -2.2563
 2017SOL     OW17509   0.079   1.936   3.665 -0.2273  0.1311 -0.6586
 2017SOL    HW117510   0.150   1.883   3.701  0.4292  0.0284 -2.1014
 2017SOL    HW217511   0.134   2.008   3.635  2.5284 -1.0142  1.6196
 2018SOL     OW17512   3.918   3.921  15.044 -0.4501  0.3240  0.9120
 2018SOL    HW117513   3.992   3.860  15.041 -2.2208 -1.7013 -1.4297
 2018SOL    HW217514   3.931   3.962  15.129 -1.0307  1.4591  0.4434
 2019SOL     OW17515   0.562   1.764   1.071  0.5172 -0.2455  0.0457
 2019SOL    HW117516   0.513   1.713   1.136  0.4863 -0.0100  0.2068
 2019SOL    HW217517   0.543   1.718   0.989  3.5692 -0.1424 -0.7502
 2020SOL     OW17518   3.669   4.366   7.170  0.7013 -0.5385  0.5775
 2020SOL    HW117519   3.641   4.421   7.097 -1.4234 -2.0148  0.2860
 2020SOL    HW217520   3.752   4.410   7.188  0.8916 -0.6527  0.0021
 2021SOL     OW17521   1.383   2.717   7.692  0.3763 -0.1498  0.0927
 2021SOL    HW117522   1.388   2.654   7.620 -2.9170 -0.1214 -0.1797
 2021SOL    HW217523   1.304   2.757   7.657  0.0348 -1.2428 -0.3857
 2022SOL     OW17524   1.384   3.610   2.238 -0.0373  0.4868  0.2765
 2022SOL    HW117525   1.456   3.649   2.287 -1.0136 -0.3632  2.3653
 2022SOL    HW217526   1.406   3.655   2.156 -0.5467  0.1607 -0.0412
 2023SOL     OW17527   4.097   1.121   7.067 -0.1843 -0.3702  0.3089
 2023SOL    HW117528   4.113   1.207   7.027 -1.8403  1.3924  3.4040
 2023SOL    HW217529   4.010   1.112   7.029  0.8170 -1.1818 -1.7679
 2024SOL     OW17530   3.201   2.092   2.629  0.2326  0.1694  0.1685
 2024SOL    HW117531   3.177   2.173   2.583 -0.5952 -0.1163  0.0999
 2024SOL    HW217532   3.141   2.024   2.598  1.2866 -1.7207  2.3022
 2025SOL     OW17533   1.993   0.045  14.714  0.2227 -0.1932  0.5020
 2025SOL    HW117534   1.956   0.093  14.789  0.8302  0.3335  0.4595
 2025SOL    HW217535   1.917   0.035  14.656  0.0002  0.9961  0.5872
 2026SOL     OW17536   2.598   3.940   0.728  0.8424 -0.7604  0.0880
 2026SOL    HW117537   2.641   3.907   0.649 -0.9311 -2.2609 -0.2420
 2026SOL    HW217538   2.514   3.901   0.705  0.6125 -0.0335 -0.3062
 2027SOL     OW17539   0.429   4.031   4.659  0.3674  0.5196  0.3663
 2027SOL    HW117540   0.421   4.064   4.748  0.2022 -2.1322  1.3552
 2027SOL    HW217541   0.473   4.103   4.615 -0.0368  0.4655 -0.1306
 2028SOL     OW17542   4.549   1.082   3.170  0.4140 -0.2400  0.3467
 2028SOL    HW117543   4.548   1.177   3.175  0.2566 -0.1996 -0.5133
 2028SOL    HW217544   4.472   1.056   3.221 -0.2407  0.5324 -0.2612
 2029SOL     OW17545   2.865   4.074   9.768 -0.1455 -0.0705  0.1115
 2029SOL    HW117546   2.799   4.136   9.739  0.5325  0.3116 -0.6130
 2029SOL    HW217547   2.832   4.003   9.713  1.1185  0.7467 -1.7163
 2030SOL     OW17548   4.517   3.495  17.418  0.4145 -0.0063  0.1803
 2030SOL    HW117549   4.441   3.474  17.363  0.9630  1.0064 -0.9442
 2030SOL    HW217550   4.542   3.580  17.382  0.8355 -0.2041  0.0120
 2031SOL     OW17551   3.733   1.875   6.909 -0.2588 -0.4182  0.7807
 2031SOL    HW117552   3.658   1.861   6.851  0.8732  1.5661 -1.1684
 2031SOL    HW217553   3.708   1.823   6.985  1.2335 -1.2759  0.7047
 2032SOL     OW17554   0.363   2.765   7.711  0.2764 -0.4474  0.9167
 2032SOL    HW117555   0.350   2.854   7.744  1.1991  0.0918 -0.1676
 2032SOL    HW217556   0.446   2.767   7.663 -0.7644 -2.2491 -0.9349
 2033SOL     OW17557   0.421   3.472   8.550  0.5884 -0.2494 -0.0301
 2033SOL    HW117558   0.504   3.490   8.506  0.2425  0.2712 -0.4677
 2033SOL    HW217559   0.404   3.380   8.527  1.2999 -0.8114  1.7642
 2034SOL     OW17560   1.982   0.028   6.623 -1.6324 -0.2056  0.4126
 2034SOL    HW117561   1.943   4.687   6.685 -5.0730  1.7295  0.2073
 2034SOL    HW217562   2.073   0.026   6.653 -1.9564  0.1965  1.4259
 2035SOL     OW17563   2.977   0.210   8.506 -0.6293  0.6408  0.2266
 2035SOL    HW117564   2.885   0.195   8.487  0.0961 -1.7699 -1.4379
 2035SOL    HW217565   2.966   0.187   8.598 -0.2715  0.2480  0.1725
 2036SOL     OW17566   4.253   1.859   2.909  0.1221  0.5934  0.1610
 2036SOL    HW117567   4.281   1.792   2.971 -0.1851 -1.3497 -1.8326
 2036SOL    HW217568   4.186   1.815   2.857  2.1573 -1.6902 -0.5491
 2037SOL     OW17569   2.495   4.675  11.357 -0.1337 -0.7127  0.1017
 2037SOL    HW117570   2.421   4.624  11.324 -0.0838 -0.5375 -0.2726
 2037SOL    HW217571   2.545   4.694  11.278  0.1761 -0.1606  0.4294
 2038SOL     OW17572   2.736   0.348   5.240 -0.4325  0.0183 -0.4146
 2038SOL    HW117573   2.706   0.439   5.237 -1.7189 -0.3345  2.0739
 2038SOL    HW217574   2.830   0.356   5.256 -0.4257 -0.0864 -0.4047
 2039SOL     OW17575   3.817   1.615   7.069  0.3745  0.1087 -0.8442
 2039SOL    HW117576   3.743   1.672   7.090 -0.8436 -1.8443  0.2303
 2039SOL    HW217577   3.767   1.534   7.059  0.2314 -0.2209  2.3567
 2040SOL     OW17578   3.071   1.451  10.735 -0.1010 -0.3734  0.3118
 2040SOL    HW117579   3.009   1.402  10.680  0.6045 -0.8604 -0.0565
 2040SOL    HW217580   3.021   1.532  10.744  0.1371 -0.5308  3.2467
 2041SOL     OW17581   2.044   2.669   1.876 -0.0055  0.3925 -0.0264
 2041SOL    HW117582   2.037   2.589   1.823  1.4651 -0.0718  0.4858
 2041SOL    HW217583   2.120   2.646   1.929  0.1756 -1.0795 -0.9125
 2042SOL     OW17584   1.832   2.409  12.554 -0.3418  0.0099 -0.4821
 2042SOL    HW117585   1.791   2.383  12.636  0.6944 -1.6420 -0.4896
 2042SOL    HW217586   1.822   2.503  12.567  2.6670  0.3393 -0.5456
 2043SOL     OW17587   4.456   2.001   5.130  0.3323  0.0068 -0.5594
 2043SOL    HW117588   4.401   2.016   5.054 -0.8313 -0.0187  0.2857
 2043SOL    HW217589   4.523   2.061   5.095  0.0229 -0.1473 -1.4151
 2044SOL     OW17590   2.558   3.570  11.035  0.5170  0.0349 -0.4359
 2044SOL    HW117591   2.577   3.577  10.942  1.9078  0.6524 -0.1068
 2044SOL    HW217592   2.559   3.663  11.055 -2.4196  0.0265 -0.2298
 2045SOL     OW17593   0.453   0.013  10.703 -0.3122  0.3071 -0.0785
 2045SOL    HW117594   0.537   0.050  10.729 -1.0445  0.9314  1.3714
 2045SOL    HW217595   0.402   0.092  10.685 -2.9679 -0.9864  1.7491
 2046SOL     OW17596   2.288   3.318  16.095  0.4418  0.0450 -0.4026
 2046SOL    HW117597   2.292   3.288  16.005 -4.6424  0.9484 -0.8990
 2046SOL    HW217598   2.225   3.386  16.072  0.5611  0.6779  1.1440
 2047SOL     OW17599   0.793   1.434   4.052 -0.8482  0.1238  0.2441
 2047SOL    HW117600   0.772   1.412   3.961 -1.8881 -0.8527  0.7245
 2047SOL    HW217601   0.744   1.363   4.094 -0.8661 -0.0504 -0.0759
 2048SOL     OW17602   0.251   3.523   4.689  0.0503 -0.1454 -0.4950
 2048SOL    HW117603   0.185   3.567   4.635  0.3070  0.0744 -0.6239
 2048SOL    HW217604   0.304   3.598   4.715 -3.0031  1.9102 -0.2398
 2049SOL     OW17605   1.335   4.269   4.581  1.2045 -0.8134 -0.1282
 2049SOL    HW117606   1.353   4.212   4.506  1.0897 -1.1998  0.1394
 2049SOL    HW217607   1.289   4.209   4.640  2.4062 -0.8582  0.7518
 2050SOL     OW17608   4.091   1.192   4.889  0.2848  0.0495 -0.5186
 2050SOL    HW117609   4.180   1.167   4.864  0.0666  0.2829 -1.5626
 2050SOL    HW217610   4.055   1.137   4.819  0.2915 -2.1325  1.2276
 2051SOL     OW17611   1.468   1.730   5.369  0.2671 -0.1180  0.0593
 2051SOL    HW117612   1.451   1.754   5.277  0.5493  0.1567  0.0747
 2051SOL    HW217613   1.411   1.655   5.380 -0.5018  0.0873 -2.3896
 2052SOL     OW17614   4.273   2.155   3.328  0.0536 -0.6661  0.0539
 2052SOL    HW117615   4.215   2.120   3.260 -0.9772 -2.2725  1.7463
 2052SOL    HW217616   4.314   2.221   3.272 -0.7993 -0.3614 -0.2114
 2053SOL     OW17617   4.655   3.565   5.279 -0.0221  0.1573 -0.1308
 2053SOL    HW117618   4.623   3.654   5.294  0.5521  0.0060  2.0923
 2053SOL    HW217619   4.575   3.524   5.247 -0.5978  0.1540  1.3213
 2054SOL     OW17620   2.648   0.004   7.970  0.5814 -0.2455  0.0612
 2054SOL    HW117621   2.702   4.688   8.040 -1.3117  0.3456  1.8744
 2054SOL    HW217622   2.672   4.682   7.889  0.7869 -0.1268  0.0578
 2055SOL     OW17623   1.946   0.691  13.786 -0.1698  0.0588  0.0573
 2055SOL    HW117624   1.965   0.615  13.733  0.5517  0.6793 -0.5777
 2055SOL    HW217625   2.039   0.713  13.796 -0.6004  1.2993  1.3524
 2056SOL     OW17626   2.245   2.772   4.541 -0.2563 -0.2615  0.0599
 2056SOL    HW117627   2.254   2.829   4.617 -1.0026 -0.8018  0.5591
 2056SOL    HW217628   2.151   2.758   4.557 -0.3961 -0.3742 -0.8082
 2057SOL     OW17629   1.879   4.701   3.854  0.0476 -0.0694 -0.1534
 2057SOL    HW117630   1.862   0.008   3.764 -0.4302 -1.4408 -0.4791
 2057SOL    HW217631   1.795   4.659   3.866 -0.8189  0.9904 -2.3253
 2058SOL     OW17632   4.486   2.626   6.631 -0.5737 -0.3395  0.3523
 2058SOL    HW117633   4.524   2.712   6.648  2.3251 -1.7863  1.1860
 2058SOL    HW217634   4.564   2.571   6.622  0.3294  0.4791  3.3669
 2059SOL     OW17635   0.512   2.392   3.803 -0.1753  0.2061 -0.3697
 2059SOL    HW117636   0.447   2.457   3.774  1.6851  2.6009  0.8814
 2059SOL    HW217637   0.489   2.320   3.744  2.6802 -1.6791  0.8544
 2060SOL     OW17638   2.460   2.235   0.957 -0.2089 -0.1704  0.0830
 2060SOL    HW117639   2.429   2.149   0.930  3.5277 -1.1574 -1.0930
 2060SOL    HW217640   2.555   2.235   0.970 -0.0558  2.1665 -1.0403
 2061SOL     OW17641   3.048   3.628   4.392  0.1462 -0.5710 -0.5002
 2061SOL    HW117642   3.110   3.565   4.355  2.6675  0.0771  2.6819
 2061SOL    HW217643   2.979   3.572   4.425  0.7580 -2.1254 -1.8476
 2062SOL     OW17644   1.923   4.509   6.338 -0.2224  0.3160  0.6601
 2062SOL    HW117645   2.004   4.484   6.293 -1.8823 -1.5889 -1.2345
 2062SOL    HW217646   1.888   4.422   6.354 -0.9334  0.4133 -0.3594
 2063SOL     OW17647   1.812   3.281   8.496 -0.2931 -0.5143  0.5405
 2063SOL    HW117648   1.875   3.277   8.567  0.7560 -0.4525 -0.3971
 2063SOL    HW217649   1.857   3.326   8.424 -0.7190 -1.6823 -0.4692
 2064SOL     OW17650   0.447   3.731  15.938  0.6043 -0.4366  0.1268
 2064SOL    HW117651   0.539   3.728  15.910  0.4252  0.3318 -0.5566
 2064SOL    HW217652   0.454   3.714  16.031  3.0431 -0.4966 -0.0570
 2065SOL     OW17653   0.903   4.674  17.126  0.6608 -0.0718 -0.3330
 2065SOL    HW117654   0.862   0.025  17.079 -0.0848  0.8125  1.6754
 2065SOL    HW217655   0.902   4.715  17.213 -0.1913  0.2299 -0.4812
 2066SOL     OW17656   4.068   1.937   1.231  0.2374  0.0744  0.9928
 2066SOL    HW117657   4.124   1.871   1.272  0.5927  1.2918  2.4581
 2066SOL    HW217658   4.002   1.897   1.174  0.5787  0.5353  0.2718
 2067SOL     OW17659   4.456   2.926   1.589  0.1810 -0.4294  0.8125
 2067SOL    HW117660   4.526   2.941   1.653  2.1860 -2.1078 -0.9692
 2067SOL    HW217661   4.433   2.836   1.613 -0.7427 -0.0851  1.2111
 2068SOL     OW17662   0.705   4.608   2.370 -0.4720  0.6530 -0.2793
 2068SOL    HW117663   0.659   4.574   2.293  3.0251  3.5314 -3.6744
 2068SOL    HW217664   0.633   4.612   2.432  1.5165 -0.7167  2.1433
 2069SOL     OW17665   3.752   2.628   7.204 -0.0275 -0.4700 -0.1480
 2069SOL    HW117666   3.710   2.613   7.119  0.2196 -1.3839 -0.1138
 2069SOL    HW217667   3.844   2.610   7.184 -0.2485 -1.5377 -0.2263
 2070SOL     OW17668   0.134   1.834  17.058  0.0467  0.3069 -0.5060
 2070SOL    HW117669   0.185   1.856  16.979 -0.1679  0.7394 -0.5266
 2070SOL    HW217670   0.065   1.789  17.010 -0.3927  1.2423 -0.7533
 2071SOL     OW17671   1.716   0.565  12.717  0.4578 -0.5176  0.0952
 2071SOL    HW117672   1.791   0.516  12.683 -0.3192 -0.3822 -1.8032
 2071SOL    HW217673   1.652   0.560  12.646  0.7699 -0.8548 -0.1638
 2072SOL     OW17674   3.455   1.194  16.345 -0.6810  0.0385  0.3065
 2072SOL    HW117675   3.397   1.269  16.331 -1.1334 -0.6672 -1.7559
 2072SOL    HW217676   3.527   1.210  16.284  0.0189 -2.2610  0.5264
 2073SOL     OW17677   4.118   1.187  16.121  0.0634  0.0460 -0.3007
 2073SOL    HW117678   4.141   1.264  16.069  0.6688 -0.2028 -0.4040
 2073SOL    HW217679   4.201   1.141  16.136  0.9385  2.0667  1.2669
 2074SOL     OW17680   0.088   2.686   2.333  0.4494 -0.1640  0.4767
 2074SOL    HW117681   4.715   2.682   2.349 -0.0619  1.0084 -2.2179
 2074SOL    HW217682   0.083   2.741   2.255  0.6068 -1.4155 -0.3987
 2075SOL     OW17683   4.472   2.030   6.963  0.4955 -0.4134 -0.0085
 2075SOL    HW117684   4.395   2.046   6.910  0.5659  0.1649  0.0540
 2075SOL    HW217685   4.424   2.028   7.046  0.7259  1.7073  0.1950
 2076SOL     OW17686   3.269   4.708  15.919  0.5584 -0.1072  0.3231
 2076SOL    HW117687   3.325   0.039  15.861 -1.6686  0.7241 -1.0636
 2076SOL    HW217688   3.287   4.621  15.884 -1.8017 -0.3748 -0.2121
 2077SOL     OW17689   4.102   1.202  17.532  0.5554 -0.0672 -0.2677
 2077SOL    HW117690   4.025   1.204  17.474  0.4714 -0.6762 -0.1769
 2077SOL    HW217691   4.096   1.121  17.583  1.4017  0.7560  1.1364
 2078SOL     OW17692   2.864   2.852   2.599  0.0540  0.4101  0.1070
 2078SOL    HW117693   2.844   2.886   2.686 -0.0642  0.4633  0.0586
 2078SOL    HW217694   2.929   2.918   2.577  1.8017 -1.1453  0.5418
 2079SOL     OW17695   3.948   4.715   8.877  0.2272 -0.2459 -0.5340
 2079SOL    HW117696   4.003   0.001   8.955 -0.8048  0.2238  0.1561
 2079SOL    HW217697   3.880   0.059   8.891 -0.6154 -0.9493 -1.3526
 2080SOL     OW17698   1.924   1.680   2.072  0.0283 -0.3011 -0.4478
 2080SOL    HW117699   1.942   1.773   2.064  0.8054 -0.3878  0.2651
 2080SOL    HW217700   1.829   1.675   2.056 -0.1691 -2.2313  1.2933
 2081SOL     OW17701   2.043   2.140  16.627  0.3434  0.0573 -0.2557
 2081SOL    HW117702   2.111   2.141  16.560  1.3032 -1.3613  0.7085
 2081SOL    HW217703   2.063   2.056  16.668  0.3419  0.5801  0.8214
 2082SOL     OW17704   0.715   2.175   9.377  0.7394 -0.2582  0.1281
 2082SOL    HW117705   0.631   2.162   9.332  0.3994  2.5225 -0.0225
 2082SOL    HW217706   0.701   2.256   9.427 -1.9795 -0.1233 -0.8454
 2083SOL     OW17707   1.055   0.862  14.716 -0.1218  0.5163  0.3884
 2083SOL    HW117708   1.113   0.860  14.640 -3.5917  0.2927 -2.2390
 2083SOL    HW217709   1.111   0.874  14.793  0.9466 -3.3229  0.2346
 2084SOL     OW17710   4.049   4.104   9.049 -0.3400  0.1038  0.4140
 2084SOL    HW117711   4.026   4.196   9.040  0.0258  0.1336 -0.2023
 2084SOL    HW217712   4.039   4.096   9.144  0.6011 -1.8467  0.3600
 2085SOL     OW17713   0.603   2.439  14.587 -0.3516 -0.1462 -0.8273
 2085SOL    HW117714   0.691   2.431  14.550  0.6572 -1.7934  1.9406
 2085SOL    HW217715   0.545   2.412  14.516 -2.0246 -0.8873  0.8215
 2086SOL     OW17716   2.128   1.677   7.114  0.1491  0.3558 -0.1486
 2086SOL    HW117717   2.080   1.634   7.185  0.9592 -0.6756 -0.2376
 2086SOL    HW217718   2.211   1.631   7.117  1.0075  1.9807  0.7626
 2087SOL     OW17719   4.547   3.252  10.845  0.2081  0.4398  0.2478
 2087SOL    HW117720   4.605   3.221  10.914 -0.1297  0.2881  0.4642
 2087SOL    HW217721   4.545   3.348  10.846 -2.4372  0.4118 -0.6365
 2088SOL     OW17722   3.727   4.167   8.277 -0.6486  0.0104 -0.7215
 2088SOL    HW117723   3.716   4.084   8.232 -1.5663 -0.3627  0.1985
 2088SOL    HW217724   3.637   4.187   8.303 -0.5155  0.4642 -0.6167
 2089SOL     OW17725   2.636   2.894   1.260  0.6566  0.4244 -0.3096
 2089SOL    HW117726   2.635   2.894   1.164  1.0121 -3.4108 -0.3400
 2089SOL    HW217727   2.633   2.984   1.293 -3.2522  0.2041  0.0285
 2090SOL     OW17728   4.039   3.974   0.874 -0.2283  0.2411 -0.1100
 2090SOL    HW117729   4.110   3.991   0.935 -0.2642  1.0858 -0.3022
 2090SOL    HW217730   3.968   4.000   0.933 -0.6721  2.5781 -1.6911
 2091SOL     OW17731   0.431   1.916   5.022  0.2822  0.0288  0.4535
 2091SOL    HW117732   0.444   2.006   4.991  2.4801 -0.3930  0.1308
 2091SOL    HW217733   0.499   1.871   4.972 -0.3784  0.0806 -0.5018
 2092SOL     OW17734   1.185   0.289   1.059  0.5874  0.5513 -0.0763
 2092SOL    HW117735   1.125   0.252   1.124 -0.2013  0.9334 -0.5841
 2092SOL    HW217736   1.129   0.343   1.004  0.6496  0.9165  0.2175
 2093SOL     OW17737   2.000   2.358   5.647  0.7165  0.2804 -0.3567
 2093SOL    HW117738   2.057   2.406   5.588  1.0606  0.8666  0.4448
 2093SOL    HW217739   1.990   2.284   5.587 -1.3719  0.8696 -0.7361
 2094SOL     OW17740   2.049   4.017   2.950 -0.1692 -0.7486 -0.0583
 2094SOL    HW117741   2.069   4.091   3.007  1.9740 -2.2212  1.0874
 2094SOL    HW217742   2.041   3.951   3.018  0.2971 -1.9009 -1.1240
 2095SOL     OW17743   3.953   2.984   4.674  0.1277 -0.1619 -0.3890
 2095SOL    HW117744   3.888   3.053   4.659 -0.9462 -1.0196  0.3210
 2095SOL    HW217745   3.908   2.930   4.738  0.1980  0.7221  0.3936
 2096SOL     OW17746   3.107   3.252   8.939 -0.1029 -0.3461  0.3101
 2096SOL    HW117747   3.019   3.264   8.973  0.1120  1.5463  0.2539
 2096SOL    HW217748   3.117   3.331   8.885  1.5135 -0.0537  1.0273
 2097SOL     OW17749   3.788   0.579   0.837 -0.3023  0.0017 -0.3533
 2097SOL    HW117750   3.744   0.603   0.756  0.1797  2.8864  0.2076
 2097SOL    HW217751   3.746   0.632   0.905 -0.4215 -0.0934 -0.3547
 2098SOL     OW17752   1.806   4.560   9.923  0.4766  0.1017  0.3596
 2098SOL    HW117753   1.739   4.596   9.982 -0.5565 -0.2478 -0.6093
 2098SOL    HW217754   1.839   4.637   9.876  0.1916 -1.0511 -1.6895
 2099SOL     OW17755   0.904   3.386   9.230 -0.1344 -0.6867 -0.6540
 2099SOL    HW117756   0.944   3.470   9.252  1.4473 -1.9202  1.1642
 2099SOL    HW217757   0.915   3.375   9.135  3.0006 -0.3100 -0.3475
 2100SOL     OW17758   2.768   0.026  17.603 -0.3931  0.1100  0.4248
 2100SOL    HW117759   2.776   4.685  17.532  0.3849  0.6511  0.0285
 2100SOL    HW217760   2.691   0.076  17.577  0.5492  1.4823  0.2615
 2101SOL     OW17761   1.740   2.356  11.066  0.3218 -0.2583 -0.0472
 2101SOL    HW117762   1.670   2.335  11.127 -0.9528  0.2747 -1.3231
 2101SOL    HW217763   1.774   2.437  11.105 -0.5732  0.2712 -0.3688
 2102SOL     OW17764   2.685   0.242   4.273  0.6697  0.1778  0.5506
 2102SOL    HW117765   2.596   0.271   4.251  0.7547  0.9768  1.2667
 2102SOL    HW217766   2.720   0.322   4.312 -1.6768  1.0568  0.8843
 2103SOL     OW17767   3.748   2.489  12.036 -0.5396  0.1052  0.3356
 2103SOL    HW117768   3.666   2.443  12.018  0.6209 -2.3600  1.3629
 2103SOL    HW217769   3.764   2.533  11.953 -1.3719 -1.0942 -0.4692
 2104SOL     OW17770   2.680   3.054   8.947 -0.1847  0.0372 -0.2504
 2104SOL    HW117771   2.656   3.086   9.034  0.4055  1.7386 -0.7087
 2104SOL    HW217772   2.598   3.053   8.898  0.4044 -1.5762 -1.1834
 2105SOL     OW17773   0.545   1.299  14.212 -0.4604  0.1705  0.6346
 2105SOL    HW117774   0.484   1.371  14.197 -1.5430 -0.6061  1.2794
 2105SOL    HW217775   0.488   1.239  14.260 -0.9640 -0.5931 -0.8868
 2106SOL     OW17776   3.294   3.269   0.626  0.3947  0.0602 -0.0654
 2106SOL    HW117777   3.352   3.296   0.698  2.4468 -1.6481 -1.0781
 2106SOL    HW217778   3.225   3.335   0.617 -0.0039 -0.6319 -2.1022
 2107SOL     OW17779   1.839   0.766   7.672 -0.0776  0.1910  0.5578
 2107SOL    HW117780   1.865   0.846   7.627 -1.0123 -1.4407 -2.8885
 2107SOL    HW217781   1.769   0.798   7.729 -0.5312  0.7209 -0.3018
 2108SOL     OW17782   4.553   1.218  16.770  0.4193  0.3513 -0.1667
 2108SOL    HW117783   4.629   1.184  16.722 -0.6626  1.3083 -2.5489
 2108SOL    HW217784   4.497   1.174  16.706 -1.3883  2.2368  0.1221
 2109SOL     OW17785   0.911   1.622   6.211  0.5486  0.1889  0.5405
 2109SOL    HW117786   0.983   1.680   6.186  0.2057 -0.0129 -0.9426
 2109SOL    HW217787   0.925   1.627   6.305 -1.0974 -1.3894  0.8819
 2110SOL     OW17788   0.520   4.416   7.877  0.0361 -0.3068  0.1589
 2110SOL    HW117789   0.494   4.325   7.894  3.2986 -1.1262  0.8709
 2110SOL    HW217790   0.439   4.466   7.874  1.2371  1.7715  2.2210
 2111SOL     OW17791   4.149   2.469   3.496 -0.1350  0.0978  0.0416
 2111SOL    HW117792   4.209   2.541   3.516  1.2758 -0.7841 -1.0110
 2111SOL    HW217793   4.206   2.393   3.511  1.9171  0.9810 -3.4334
 2112SOL     OW17794   1.534   0.690  17.504  0.3384  0.9979  0.3436
 2112SOL    HW117795   1.473   0.763  17.504 -1.1425 -0.2120  4.7316
 2112SOL    HW217796   1.474   0.620  17.530  1.5694  0.8495  2.7944
 2113SOL     OW17797   0.361   1.348   3.100 -0.4197 -0.3270  0.1713
 2113SOL    HW117798   0.384   1.256   3.117 -0.4049 -0.2439  0.6092
 2113SOL    HW217799   0.271   1.354   3.132  0.3196 -0.3325  2.2211
 2114SOL     OW17800   0.410   3.820   4.291  0.1810  0.0042  0.3558
 2114SOL    HW117801   0.332   3.798   4.239 -0.3943 -0.8520  1.5951
 2114SOL    HW217802   0.435   3.904   4.253 -0.3981  1.1841  2.6005
 2115SOL     OW17803   4.268   0.314   6.776  0.0175 -0.3328  0.4467
 2115SOL    HW117804   4.355   0.322   6.816  0.6745  2.5006 -1.5699
 2115SOL    HW217805   4.238   0.225   6.794  1.6892 -0.6681  1.5961
 2116SOL     OW17806   1.177   4.149   1.282 -0.4597 -0.3396 -0.2873
 2116SOL    HW117807   1.243   4.216   1.296 -2.9560  1.9489  0.4319
 2116SOL    HW217808   1.122   4.167   1.358 -0.3565 -1.6686  0.1075
 2117SOL     OW17809   0.145   2.879   1.863 -0.5019  0.0002  0.4434
 2117SOL    HW117810   0.065   2.834   1.890 -1.1924  0.2684 -1.1361
 2117SOL    HW217811   0.097   2.932   1.800  1.6123  0.4021 -0.8210
 2118SOL     OW17812   1.336   2.526   6.887 -0.0302 -0.4167 -0.4915
 2118SOL    HW117813   1.421   2.520   6.931 -1.5296  1.2242  2.6640
 2118SOL    HW217814   1.359   2.499   6.798  0.3883  0.0144 -0.5129
 2119SOL     OW17815   2.127   2.545   6.720  0.6089  0.8034  0.7869
 2119SOL    HW117816   2.222   2.547   6.732  0.9091  1.6615 -1.7907
 2119SOL    HW217817   2.106   2.468   6.774 -0.7389 -0.1639 -1.1264
 2120SOL     OW17818   3.734   4.408  12.352  0.1580 -0.0716 -0.2805
 2120SOL    HW117819   3.775   4.454  12.278 -0.2623 -1.0262 -1.1018
 2120SOL    HW217820   3.645   4.401  12.318 -0.0567  0.5060  0.1638
 2121SOL     OW17821   2.495   1.574   3.304 -1.1035  0.5124  0.0950
 2121SOL    HW117822   2.456   1.596   3.220  0.9102  0.7200 -0.7799
 2121SOL    HW217823   2.453   1.490   3.326 -0.0787  0.2482  1.0284
 2122SOL     OW17824   3.380   2.039  12.505  0.5965 -0.6611 -0.4448
 2122SOL    HW117825   3.393   1.948  12.479  1.8302  0.0525 -2.3853
 2122SOL    HW217826   3.328   2.039  12.585  1.3813 -1.4698  0.0590
 2123SOL     OW17827   3.248   3.241  14.252 -0.5745 -0.1089  0.3781
 2123SOL    HW117828   3.163   3.268  14.286  0.3489  2.7076  0.4335
 2123SOL    HW217829   3.228   3.190  14.173 -0.3100  0.0772  0.1892
 2124SOL     OW17830   3.320   3.542  17.211  0.2030 -0.6627 -0.1710
 2124SOL    HW117831   3.244   3.501  17.252  0.8218 -0.3014  1.3381
 2124SOL    HW217832   3.313   3.514  17.120  0.9103  1.4560 -0.8659
 2125SOL     OW17833   0.529   2.721  14.704  0.2274  0.4344 -0.2453
 2125SOL    HW117834   0.547   2.630  14.679 -2.2596  0.3308 -1.6459
 2125SOL    HW217835   0.609   2.767  14.679  0.5837 -0.8331 -1.4225
 2126SOL     OW17836   2.164   3.047  10.965 -0.4457  0.1263 -0.4443
 2126SOL    HW117837   2.138   3.139  10.966  0.0108  0.2705 -2.3295
 2126SOL    HW217838   2.133   3.017  10.880 -2.5241  1.5709 -0.2153
 2127SOL     OW17839   2.525   0.085   8.474 -0.1031 -0.3677 -0.3671
 2127SOL    HW117840   2.513   0.168   8.521  0.4926  0.9386 -2.4842
 2127SOL    HW217841   2.590   0.038   8.526  2.0917  1.2190 -1.6361
 2128SOL     OW17842   1.852   4.377   3.665 -0.2048 -0.0700 -0.3526
 2128SOL    HW117843   1.913   4.441   3.628  2.6738 -2.1783  0.7856
 2128SOL    HW217844   1.782   4.383   3.599 -0.1458 -0.7891 -0.4697
 2129SOL     OW17845   4.399   3.853   9.687  0.5578  0.2999  0.4224
 2129SOL    HW117846   4.322   3.839   9.632 -0.2066  0.1036  1.5420
 2129SOL    HW217847   4.367   3.820   9.771  0.5464  1.1615  0.7614
 2130SOL     OW17848   4.022   0.363   6.457  0.1686 -0.6314  0.2742
 2130SOL    HW117849   4.022   0.440   6.399 -1.2467 -0.5810  0.3228
 2130SOL    HW217850   4.089   0.314   6.410 -0.7946 -1.2447 -0.4670
 2131SOL     OW17851   3.013   3.911  10.766  0.1747  0.3584 -0.8303
 2131SOL    HW117852   3.072   3.965  10.713  1.3596  0.9325  1.0500
 2131SOL    HW217853   2.944   3.976  10.777  1.0984  1.5977 -2.2375
 2132SOL     OW17854   1.184   4.435   2.901  0.8918  0.0955 -0.3155
 2132SOL    HW117855   1.158   4.422   2.992  2.1634  1.1796  0.2103
 2132SOL    HW217856   1.257   4.374   2.886  0.7310 -0.0506 -0.5071
 2133SOL     OW17857   0.707   2.595   7.185  0.3056 -1.0842 -0.3641
 2133SOL    HW117858   0.646   2.593   7.258  0.0330  1.8729 -0.5234
 2133SOL    HW217859   0.668   2.524   7.133  0.1688 -1.5512  0.3686
 2134SOL     OW17860   4.114   2.472   7.837  0.7423  0.1595 -0.2825
 2134SOL    HW117861   4.025   2.450   7.866 -0.1509  1.5716 -1.8901
 2134SOL    HW217862   4.093   2.537   7.769 -3.3653  0.0050  0.8353
 2135SOL     OW17863   1.549   1.420  12.032 -0.2564  0.5585 -0.1300
 2135SOL    HW117864   1.554   1.331  12.067 -1.0554  0.3489 -0.5763
 2135SOL    HW217865   1.508   1.467  12.105 -0.1910  0.6411 -0.1453
 2136SOL     OW17866   1.395   1.608   3.655 -0.0194  0.2482  0.4742
 2136SOL    HW117867   1.320   1.573   3.704  0.6346 -1.1041  0.4949
 2136SOL    HW217868   1.403   1.702   3.674  1.2530  0.7394 -2.4169
 2137SOL     OW17869   3.678   4.458  13.493  0.4551  0.2829 -1.1728
 2137SOL    HW117870   3.615   4.441  13.563  1.1769 -0.0563 -0.6183
 2137SOL    HW217871   3.686   4.553  13.490  3.7380  0.0071 -1.0916
 2138SOL     OW17872   3.675   3.918  11.485 -0.1407 -0.2694  0.2674
 2138SOL    HW117873   3.731   3.963  11.548 -0.0412  0.8625 -0.6368
 2138SOL    HW217874   3.710   3.830  11.500 -0.0618 -0.2244  0.3515
 2139SOL     OW17875   3.751   3.976  15.503 -0.1300  0.0029  0.2532
 2139SOL    HW117876   3.663   4.011  15.503 -0.4350 -0.7555 -1.5197
 2139SOL    HW217877   3.750   3.899  15.560 -0.0916  1.2897  1.9661
 2140SOL     OW17878   0.533   1.758   2.666  0.4314 -0.1758 -0.2316
 2140SOL    HW117879   0.589   1.830   2.696 -0.5634 -0.1512  1.5792
 2140SOL    HW217880   0.599   1.690   2.678  0.0321 -0.3744  0.8812
 2141SOL     OW17881   0.564   2.473   8.663  0.9633 -0.3558 -0.2234
 2141SOL    HW117882   0.471   2.457   8.645  0.9239  0.0083 -0.3468
 2141SOL    HW217883   0.587   2.496   8.573 -2.2023  0.5919 -0.8141
 2142SOL     OW17884   0.756   1.417   2.948 -0.0456 -0.2471 -0.0655
 2142SOL    HW117885   0.666   1.388   2.932 -0.0808 -0.8579  1.2341
 2142SOL    HW217886   0.795   1.358   3.012 -0.1440 -0.4434 -0.1868
 2143SOL     OW17887   2.370   3.277   7.937  0.2587 -0.2541 -0.0664
 2143SOL    HW117888   2.352   3.369   7.953 -0.0529 -0.3004 -0.1629
 2143SOL    HW217889   2.324   3.268   7.854 -0.4835 -3.5951  0.6985
 2144SOL     OW17890   1.778   3.988   7.689 -0.4295  0.0647  0.1966
 2144SOL    HW117891   1.745   3.950   7.770 -0.6359 -1.9611 -0.8313
 2144SOL    HW217892   1.827   4.063   7.724  1.9029 -0.6431 -1.5121
 2145SOL     OW17893   2.188   2.246   0.495 -0.1938 -0.7572  0.1626
 2145SOL    HW117894   2.150   2.177   0.549  0.9667 -2.4592 -1.1691
 2145SOL    HW217895   2.249   2.191   0.445 -1.0032 -0.0730 -1.5760
 2146SOL     OW17896   3.528   3.923   5.885 -0.2141 -0.3680 -0.2929
 2146SOL    HW117897   3.550   3.921   5.978  2.6939 -1.2777 -1.0016
 2146SOL    HW217898   3.508   3.830   5.878 -1.5411 -0.2454  1.9555
 2147SOL     OW17899   2.950   4.198   0.014 -0.0395  1.0264  0.2501
 2147SOL    HW117900   2.861   4.226   0.034 -1.5664 -2.1026 -2.0344
 2147SOL    HW217901   2.930   4.178  17.611 -2.9209  0.3578  1.0515
 2148SOL     OW17902   0.910   3.456   3.059  0.8847 -0.0478 -0.0753
 2148SOL    HW117903   1.002   3.442   3.034  1.0093  0.4281  0.1122
 2148SOL    HW217904   0.862   3.471   2.977 -0.7108  1.2191  1.1096
 2149SOL     OW17905   0.777   1.817   8.473  0.1893 -0.6807 -0.3772
 2149SOL    HW117906   0.788   1.736   8.522 -2.2050 -0.2561  0.8909
 2149SOL    HW217907   0.809   1.888   8.529 -1.3488 -0.5661  0.3655
 2150SOL     OW17908   2.031   1.253   8.387 -0.2677  0.1334 -0.0959
 2150SOL    HW117909   1.974   1.282   8.315 -1.5492 -0.8059  0.5553
 2150SOL    HW217910   1.970   1.231   8.457 -0.3860  1.8715  0.3556
 2151SOL     OW17911   0.104   2.245   5.177  0.1494  0.2628  0.6001
 2151SOL    HW117912   0.054   2.235   5.096 -0.1122 -0.1249  0.8114
 2151SOL    HW217913   0.086   2.339   5.179 -0.4356  0.1051  2.7971
 2152SOL     OW17914   3.762   0.177  13.972  0.6905 -0.0212 -0.1588
 2152SOL    HW117915   3.681   0.168  13.922 -0.0010  1.0322  0.7771
 2152SOL    HW217916   3.817   0.244  13.931 -0.4010  1.2425  0.4251
 2153SOL     OW17917   2.097   2.338   6.067  0.0168  0.5180  0.2886
 2153SOL    HW117918   2.168   2.294   6.114 -1.6381  0.4938  2.7352
 2153SOL    HW217919   2.039   2.266   6.040  0.8410  0.3920 -1.1524
 2154SOL     OW17920   2.780   3.158  15.932 -0.4252  0.0504  0.2217
 2154SOL    HW117921   2.710   3.095  15.946  0.1191 -0.2543  1.6093
 2154SOL    HW217922   2.748   3.207  15.856  0.1969  1.2239  0.7098
 2155SOL     OW17923   1.408   3.143   7.229  0.4518  0.0097 -0.0032
 2155SOL    HW117924   1.402   3.161   7.323  1.0305  0.3234 -0.0259
 2155SOL    HW217925   1.320   3.175   7.209 -0.5086 -3.5011 -1.3273
 2156SOL     OW17926   1.576   3.433   9.281 -0.2677  0.1741  0.3685
 2156SOL    HW117927   1.601   3.500   9.218 -2.6915  1.2794  0.6114
 2156SOL    HW217928   1.504   3.479   9.323  1.2733  1.8663  1.1564
 2157SOL     OW17929   4.511   1.575  16.351  0.4270  0.6862 -0.5977
 2157SOL    HW117930   4.466   1.519  16.414  0.0112  0.2172 -1.3098
 2157SOL    HW217931   4.542   1.511  16.287  0.4005  0.4603 -0.3812
 2158SOL     OW17932   0.142   0.986   6.937 -0.0595 -0.0989 -0.0408
 2158SOL    HW117933   0.152   0.953   6.847 -1.0794  1.0413 -0.5739
 2158SOL    HW217934   0.228   0.984   6.979  0.3815  1.1664 -0.8966
 2159SOL     OW17935   1.952   0.713  14.050  0.1265 -0.1064 -0.2370
 2159SOL    HW117936   1.857   0.712  14.052  0.1503 -0.2730  1.2995
 2159SOL    HW217937   1.963   0.699  13.956 -0.0162 -0.2543 -0.2304
 2160SOL     OW17938   0.574   0.177   7.189  0.0080 -0.1491  0.7474
 2160SOL    HW117939   0.512   0.104   7.194 -0.3468  0.0342 -0.9791
 2160SOL    HW217940   0.562   0.197   7.096  0.4275 -2.6497  0.1526
 2161SOL     OW17941   0.134   4.179   5.212 -0.0288 -0.5655 -0.1371
 2161SOL    HW117942   0.173   4.135   5.287 -0.3752 -0.1940  0.2576
 2161SOL    HW217943   0.196   4.252   5.206 -0.4779 -0.1234  0.6266
 2162SOL     OW17944   3.391   0.222   1.909  0.4114 -0.1664 -0.1893
 2162SOL    HW117945   3.320   0.277   1.942 -0.5412 -0.8983 -1.0516
 2162SOL    HW217946   3.465   0.249   1.964 -1.0905  0.8425  1.3235
 2163SOL     OW17947   1.286   1.086  13.866 -0.4686  0.3939 -0.0892
 2163SOL    HW117948   1.338   1.137  13.803 -2.6799  1.3384 -1.1382
 2163SOL    HW217949   1.208   1.068  13.815  0.3082  2.5333 -2.0662
 2164SOL     OW17950   3.984   4.322  13.980  0.5156 -0.0684  0.5983
 2164SOL    HW117951   4.057   4.266  13.951 -0.4559  0.4092 -2.6857
 2164SOL    HW217952   3.989   4.321  14.076  0.7724 -0.7182  0.5782
 2165SOL     OW17953   4.640   1.244  13.555 -0.1476 -0.0081 -0.6104
 2165SOL    HW117954   4.623   1.164  13.605 -1.4426  0.2255 -0.6948
 2165SOL    HW217955   4.720   1.276  13.598  0.2923 -1.0268 -0.6584
 2166SOL     OW17956   2.139   4.642   2.309 -0.3921  0.4248 -0.2872
 2166SOL    HW117957   2.078   4.713   2.289  0.8163  1.0430 -1.7112
 2166SOL    HW217958   2.069   4.577   2.301 -1.5551  1.4226  1.6804
 2167SOL     OW17959   3.769   0.066  12.842  0.6148  0.1844  0.1947
 2167SOL    HW117960   3.734   4.699  12.831 -1.3301  0.9762  0.0230
 2167SOL    HW217961   3.711   0.106  12.907 -0.0662  0.1671 -0.3910
 2168SOL     OW17962   0.007   4.140   7.465  0.1636  0.0529 -0.3583
 2168SOL    HW117963   4.685   4.219   7.496  0.7932  0.5000 -0.6106
 2168SOL    HW217964   4.658   4.079   7.484 -0.5710  0.3738 -2.0098
 2169SOL     OW17965   3.315   1.280   1.989  0.1243 -0.2022 -0.2066
 2169SOL    HW117966   3.249   1.281   1.920 -3.3146  0.0863  3.1070
 2169SOL    HW217967   3.397   1.266   1.941  0.4729  0.5894  0.1531
 2170SOL     OW17968   4.117   4.596   5.013 -0.2176 -0.1205 -0.0539
 2170SOL    HW117969   4.139   4.660   4.945 -2.1039 -1.3887 -1.8588
 2170SOL    HW217970   4.085   4.516   4.971 -1.5784  1.8011 -2.7137
 2171SOL     OW17971   1.488   0.933   5.014 -0.2366 -1.0237  0.8208
 2171SOL    HW117972   1.394   0.939   4.993  0.0457  0.8422  0.0810
 2171SOL    HW217973   1.536   0.964   4.938 -0.4562 -0.7105  0.8094
 2172SOL     OW17974   0.287   3.497   5.460 -0.2803  0.1606 -0.0110
 2172SOL    HW117975   0.259   3.549   5.385  1.8267  1.5344  0.1697
 2172SOL    HW217976   0.343   3.562   5.501 -0.4442 -0.2707  0.9194
 2173SOL     OW17977   3.925   3.336   5.186 -0.3418  0.5321  0.3130
 2173SOL    HW117978   3.932   3.405   5.120  0.0187 -0.2678 -0.4862
 2173SOL    HW217979   4.004   3.356   5.235 -0.2800 -0.8405  0.7670
 2174SOL     OW17980   0.574   4.013   9.899 -0.5110  0.7669 -0.0989
 2174SOL    HW117981   0.659   4.013   9.854  0.0296  1.7551  0.9398
 2174SOL    HW217982   0.594   4.046   9.986  2.1660  1.1905 -0.8644
 2175SOL     OW17983   1.994   0.344   7.377 -0.2697 -0.6560  0.1446
 2175SOL    HW117984   1.950   0.422   7.411  0.3145 -0.7360  1.0757
 2175SOL    HW217985   1.932   0.276   7.401 -1.2296  1.6225  4.0632
 2176SOL     OW17986   0.150   1.600   0.562 -0.5693  0.1519  0.0704
 2176SOL    HW117987   0.175   1.602   0.654  1.2403 -0.0269 -0.4143
 2176SOL    HW217988   0.057   1.620   0.565 -0.9781 -1.7179  0.0651
 2177SOL     OW17989   1.733   1.314   7.916  0.0575  0.2044 -0.0443
 2177SOL    HW117990   1.640   1.325   7.937 -0.2079 -2.3746  0.1291
 2177SOL    HW217991   1.736   1.289   7.824 -1.8342 -0.9620  0.2020
 2178SOL     OW17992   2.599   2.658   2.680  0.8671  0.2445  0.2014
 2178SOL    HW117993   2.598   2.707   2.598 -1.1702 -1.0747 -0.5458
 2178SOL    HW217994   2.684   2.615   2.671  0.3031 -0.2251 -2.9970
 2179SOL     OW17995   0.248   4.089   1.166 -0.3951  0.4733 -0.4440
 2179SOL    HW117996   0.230   4.147   1.240 -0.0516 -0.2201  0.1826
 2179SOL    HW217997   0.279   4.166   1.118  1.6672  0.1280  0.3303
 2180SOL     OW17998   4.320   4.670   8.217  0.0972 -0.3518 -0.0824
 2180SOL    HW117999   4.270   4.676   8.299 -0.8981 -2.1318 -0.5528
 2180SOL    HW218000   4.361   4.584   8.225  1.6800  0.3996 -0.2543
 2181SOL     OW18001   1.782   4.045   8.397  0.4766 -0.1109 -0.4597
 2181SOL    HW118002   1.756   4.083   8.481  2.0666 -1.0541  0.4652
 2181SOL    HW218003   1.706   3.989   8.379  0.2981  0.3704 -1.1858
 2182SOL     OW18004   0.827   1.412   0.184  0.1122 -0.5879  0.0644
 2182SOL    HW118005   0.757   1.410   0.118 -0.2752 -0.5249  0.4732
 2182SOL    HW218006   0.808   1.349   0.254  0.0149  2.5909  2.8928
 2183SOL     OW18007   4.606   2.084   0.194 -0.6136 -0.2127  0.1610
 2183SOL    HW118008   4.635   2.167   0.231 -1.3247 -0.1913  0.6589
 2183SOL    HW218009   4.675   2.067   0.130 -0.0280  0.5501  0.5873
 2184SOL     OW18010   2.449   3.560   7.131 -0.3221 -0.6596 -0.1004
 2184SOL    HW118011   2.391   3.596   7.199  1.9645  0.1119  1.4397
 2184SOL    HW218012   2.531   3.541   7.177 -1.4297 -1.0427  1.7346
 2185SOL     OW18013   0.424   3.385  13.245  0.2107  0.2850  0.2313
 2185SOL    HW118014   0.407   3.337  13.164  0.3198  0.7001 -0.0352
 2185SOL    HW218015   0.519   3.395  13.245  0.0896  1.4956  1.3054
 2186SOL     OW18016   4.390   0.482  13.801 -0.4380  0.0903  0.8197
 2186SOL    HW118017   4.327   0.448  13.738  1.3436 -0.5913 -0.5793
 2186SOL    HW218018   4.466   0.461  13.748 -1.2507 -0.7678 -0.0067
 2187SOL     OW18019   2.321   3.111   3.499 -0.4705 -0.5377 -0.2105
 2187SOL    HW118020   2.379   3.092   3.425  1.2037 -1.0549  1.2068
 2187SOL    HW218021   2.379   3.099   3.574 -0.8625  0.6768  0.2832
 2188SOL     OW18022   1.962   3.159  11.772 -0.5477 -0.1023  1.3010
 2188SOL    HW118023   1.946   3.138  11.680  0.3273  1.9509  0.6657
 2188SOL    HW218024   2.057   3.173  11.777 -0.4759 -0.4670  0.9702
 2189SOL     OW18025   1.076   0.031  15.435 -0.1318 -0.4335 -0.5142
 2189SOL    HW118026   1.077   4.674  15.490  0.1411  0.8996  1.3833
 2189SOL    HW218027   1.160   0.060  15.471  0.8656 -0.1694 -3.0541
 2190SOL     OW18028   2.829   2.945  12.555  0.5909  0.4019  0.9245
 2190SOL    HW118029   2.776   3.007  12.605  0.3794 -0.0259  1.2224
 2190SOL    HW218030   2.912   2.939  12.603  1.9004 -1.5021 -1.5520
 2191SOL     OW18031   3.698   3.062   7.418  0.2191 -0.0373 -0.2380
 2191SOL    HW118032   3.704   2.967   7.407 -0.3611  0.1405 -2.0689
 2191SOL    HW218033   3.613   3.070   7.459  1.1778  1.1354  1.5177
 2192SOL     OW18034   0.546   4.278   4.613  0.2839 -0.5083 -0.1424
 2192SOL    HW118035   0.472   4.328   4.649  0.6424  0.4127 -0.6914
 2192SOL    HW218036   0.611   4.344   4.637 -1.1495  1.4516 -1.6179
 2193SOL     OW18037   3.031   4.374   0.889 -0.0491  0.0620 -0.1890
 2193SOL    HW118038   3.012   4.468   0.900  3.0775  0.3907  2.2708
 2193SOL    HW218039   3.002   4.337   0.972  0.7371 -0.2740 -0.0668
 2194SOL     OW18040   3.784   3.803  14.813  0.2593  0.3038 -0.2603
 2194SOL    HW118041   3.863   3.847  14.845  0.8120 -0.3615 -0.7032
 2194SOL    HW218042   3.821   3.718  14.787 -1.6887 -0.4990 -0.4231
 2195SOL     OW18043   3.609   2.184   3.324  0.2103  0.2257 -0.5167
 2195SOL    HW118044   3.686   2.239   3.307  1.6538 -1.2656  1.1928
 2195SOL    HW218045   3.616   2.119   3.253  2.1519  0.3748 -0.4608
 2196SOL     OW18046   3.993   2.413   6.446 -0.3743 -0.1417  0.0090
 2196SOL    HW118047   3.985   2.449   6.535  0.0281  4.1913 -1.7026
 2196SOL    HW218048   3.940   2.478   6.400 -2.3430 -3.0991 -1.8495
 2197SOL     OW18049   1.831   1.193   4.878 -0.5862  0.3834 -0.2749
 2197SOL    HW118050   1.808   1.129   4.811 -0.7658 -0.1998  0.3379
 2197SOL    HW218051   1.881   1.140   4.940  1.0470 -0.6013 -2.4477
 2198SOL     OW18052   3.722   2.163   5.693  0.3042  0.0856 -0.0444
 2198SOL    HW118053   3.727   2.073   5.660  0.5225  0.3742 -0.8004
 2198SOL    HW218054   3.721   2.213   5.611 -3.0079 -1.2416 -0.8150
 2199SOL     OW18055   3.518   3.136   7.631  0.0415 -0.2271 -0.2010
 2199SOL    HW118056   3.426   3.162   7.622  0.2950  0.0831 -1.8641
 2199SOL    HW218057   3.508   3.086   7.712  1.5557 -0.0536  0.0825
 2200SOL     OW18058   3.513   1.934  13.444  0.0138 -0.4779  0.1373
 2200SOL    HW118059   3.449   1.888  13.500 -0.3639  2.3497  2.0555
 2200SOL    HW218060   3.507   1.876  13.368  0.4397  0.5683 -0.6925
 2201SOL     OW18061   0.197   2.309   9.906  0.7824  0.0703  0.5904
 2201SOL    HW118062   0.279   2.341   9.944  1.0387 -1.0924  1.0117
 2201SOL    HW218063   0.199   2.213   9.905 -2.5469  0.0163 -0.3360
 2202SOL     OW18064   0.303   3.528  13.682  0.1190 -0.0498 -0.5980
 2202SOL    HW118065   0.332   3.548  13.593 -0.4784 -0.5794 -0.9068
 2202SOL    HW218066   0.381   3.484  13.715  1.6714  3.6429  0.7503
 2203SOL     OW18067   3.182   3.545  14.870 -0.2386  0.2906 -0.5104
 2203SOL    HW118068   3.139   3.567  14.787 -0.6108  0.4433 -0.2768
 2203SOL    HW218069   3.183   3.630  14.915  0.2747  0.4370 -0.7957
 2204SOL     OW18070   2.491   3.517   0.687  0.2404  0.4150 -0.1843
 2204SOL    HW118071   2.428   3.588   0.697  0.3743  0.7285 -1.5548
 2204SOL    HW218072   2.488   3.460   0.763  0.6946 -0.7751 -1.0439
 2205SOL     OW18073   3.803   4.200  16.289  0.0830  0.4361 -0.5215
 2205SOL    HW118074   3.817   4.272  16.227 -0.1874  0.8868 -0.0552
 2205SOL    HW218075   3.751   4.133  16.245  0.3560  0.2405 -0.5485
 2206SOL     OW18076   3.467   0.640  11.755 -0.4973  0.2482  0.1682
 2206SOL    HW118077   3.441   0.560  11.800  0.0604  0.4190  0.8143
 2206SOL    HW218078   3.500   0.692  11.829  0.1986 -1.7647  1.2792
 2207SOL     OW18079   3.355   3.257   0.023 -0.0936  0.0368 -0.1545
 2207SOL    HW118080   3.377   3.305  17.631 -0.1869 -0.6183 -0.5744
 2207SOL    HW218081   3.441   3.230   0.056  0.3293  0.4121 -0.9614
 2208SOL     OW18082   3.925   0.386   4.664 -0.0922  0.0159 -0.2929
 2208SOL    HW118083   3.979   0.361   4.589  1.4471 -1.7628  1.4312
 2208SOL    HW218084   3.968   0.350   4.741 -1.8774 -2.6842 -0.5643
 2209SOL     OW18085   1.809   1.895   5.361 -0.2118  0.4768  0.0751
 2209SOL    HW118086   1.753   1.972   5.373 -0.5480  0.4437 -1.2279
 2209SOL    HW218087   1.776   1.833   5.426  1.4962  1.3809  1.7769
 2210SOL     OW18088   4.450   3.356   9.039 -0.3678 -0.2461 -0.1763
 2210SOL    HW118089   4.442   3.342   8.944  0.5384 -1.3519 -0.0944
 2210SOL    HW218090   4.424   3.269   9.071  1.4029 -0.4470  0.7330
 2211SOL     OW18091   2.294   2.309   3.967 -0.3030 -0.3773  0.2326
 2211SOL    HW118092   2.230   2.339   4.031 -0.5212 -0.4063  0.0290
 2211SOL    HW218093   2.270   2.216   3.961  2.1571 -0.9293 -1.6364
 2212SOL     OW18094   4.599   3.865   8.705  0.5236  0.0689  0.0252
 2212SOL    HW118095   4.589   3.904   8.792  2.7503  0.8980 -0.1036
 2212SOL    HW218096   4.690   3.894   8.700  0.0439  1.2827 -1.6964
 2213SOL     OW18097   4.575   0.379   0.553  0.1559 -0.0066 -0.5285
 2213SOL    HW118098   4.533   0.302   0.591 -0.9817  0.1066 -1.5347
 2213SOL    HW218099   4.608   0.427   0.629  0.4031 -0.4553 -0.3551
 2214SOL     OW18100   0.343   2.786   2.034  0.3880 -0.5268 -0.8068
 2214SOL    HW118101   0.278   2.820   1.973  1.0661  0.0577 -1.2126
 2214SOL    HW218102   0.375   2.715   1.978 -0.2520 -1.4821  0.0493
 2215SOL     OW18103   1.880   0.122   4.573 -0.1336 -0.0773 -0.1214
 2215SOL    HW118104   1.793   0.102   4.607 -0.7664  1.7136 -0.6947
 2215SOL    HW218105   1.873   0.197   4.513  1.9459  1.3470  1.4514
 2216SOL     OW18106   2.972   1.570  16.398  0.3844 -1.4354  0.4936
 2216SOL    HW118107   2.987   1.580  16.304  0.7452  1.5789  0.8757
 2216SOL    HW218108   3.028   1.495  16.422 -0.8122 -2.9032 -1.3091
 2217SOL     OW18109   2.263   2.114   0.276  0.6234 -0.0752 -0.0566
 2217SOL    HW118110   2.247   2.034   0.327 -1.9417 -0.6150 -1.6911
 2217SOL    HW218111   2.256   2.085   0.185  1.2087 -0.3864 -0.0063
 2218SOL     OW18112   3.489   3.921   9.254  0.3553 -0.1054 -0.0092
 2218SOL    HW118113   3.520   4.008   9.277 -1.3638  0.2066  1.1053
 2218SOL    HW218114   3.423   3.953   9.194 -0.0262  0.3664  0.6733
 2219SOL     OW18115   0.707   4.284  12.422  0.3772  0.3017 -0.1663
 2219SOL    HW118116   0.787   4.293  12.372  1.1275 -0.7960  0.8509
 2219SOL    HW218117   0.719   4.350  12.491  0.4325 -0.9609  1.0347
 2220SOL     OW18118   0.364   2.213   5.209  0.3134  0.3793  0.5453
 2220SOL    HW118119   0.406   2.291   5.245  0.1823  0.9382 -0.5247
 2220SOL    HW218120   0.275   2.228   5.240  0.5171  0.9871  0.8285
 2221SOL     OW18121   1.525   1.505   4.561  0.1929 -0.4860 -0.2977
 2221SOL    HW118122   1.552   1.582   4.610  2.1619 -2.1696  1.2750
 2221SOL    HW218123   1.500   1.543   4.476 -1.3949  0.9986  0.8320
 2222SOL     OW18124   0.813   3.031   3.307 -0.1263 -0.1241  0.0241
 2222SOL    HW118125   0.847   3.077   3.231  0.3019  0.1219  0.3652
 2222SOL    HW218126   0.860   3.078   3.377  1.4888 -0.2320 -0.9966
 2223SOL     OW18127   3.427   2.178   5.680  0.2329 -0.2797  0.3662
 2223SOL    HW118128   3.509   2.185   5.729 -0.0805  0.4164  0.7928
 2223SOL    HW218129   3.430   2.086   5.654  0.9837 -0.7975  2.2307
 2224SOL     OW18130   2.690   0.106   4.583  0.2057 -0.1084  0.4344
 2224SOL    HW118131   2.652   0.137   4.664  2.0890  2.5120  0.3023
 2224SOL    HW218132   2.710   0.190   4.541 -1.4831  1.4045  2.6854
 2225SOL     OW18133   4.539   0.904  16.379 -0.3531  0.7904 -0.1762
 2225SOL    HW118134   4.528   0.924  16.286  1.1326 -1.6170 -0.8648
 2225SOL    HW218135   4.631   0.877  16.375 -0.4689  0.5367 -1.0923
 2226SOL     OW18136   1.941   0.595   3.681 -0.0203  0.6333 -0.0595
 2226SOL    HW118137   1.906   0.681   3.706 -1.0145  0.6168 -1.3870
 2226SOL    HW218138   1.978   0.565   3.764 -0.3034  1.3644  0.3280
 2227SOL     OW18139   3.977   1.822   8.535  0.5332  0.0454  0.2338
 2227SOL    HW118140   4.012   1.763   8.602  0.0618  2.1269  2.3085
 2227SOL    HW218141   3.912   1.873   8.583  0.8027 -0.3496  1.0264
 2228SOL     OW18142   2.882   1.413  12.774  0.3924 -0.2112  0.2736
 2228SOL    HW118143   2.930   1.410  12.691  0.7242  0.7270  0.4359
 2228SOL    HW218144   2.789   1.418  12.750 -0.4480  0.2063  3.6288
 2229SOL     OW18145   0.260   3.362   7.035  0.5061 -0.1603 -0.2915
 2229SOL    HW118146   0.204   3.325   7.103 -2.6555  0.3893 -2.5910
 2229SOL    HW218147   0.297   3.281   6.998  1.7572 -0.4276  1.5394
 2230SOL     OW18148   3.083   3.526  13.822  0.1057  0.0376 -0.6713
 2230SOL    HW118149   3.069   3.611  13.864 -2.3613 -0.9216  0.4532
 2230SOL    HW218150   3.175   3.523  13.795 -0.0026 -1.4205 -0.8973
 2231SOL     OW18151   1.228   0.782   5.282 -0.0860  0.1399  0.0053
 2231SOL    HW118152   1.143   0.809   5.319 -0.3162 -0.1530 -0.3047
 2231SOL    HW218153   1.286   0.824   5.345 -0.1603 -1.0035  0.8439
 2232SOL     OW18154   3.583   2.390  17.173  0.1195  0.5782  0.0023
 2232SOL    HW118155   3.628   2.307  17.189 -0.8224  0.1317  0.3661
 2232SOL    HW218156   3.577   2.384  17.078  0.2183 -1.3710  0.1224
 2233SOL     OW18157   0.712   3.817   5.348 -0.6860 -0.0350 -0.7639
 2233SOL    HW118158   0.712   3.830   5.253  2.3318 -1.2328 -0.9386
 2233SOL    HW218159   0.802   3.825   5.381 -1.6461  1.0982  1.5543
 2234SOL     OW18160   0.543   2.760   3.425  0.0440  0.2396  0.0846
 2234SOL    HW118161   0.508   2.673   3.404  1.1473 -0.3918  0.8223
 2234SOL    HW218162   0.548   2.743   3.519  0.2469  1.0441  0.2207
 2235SOL     OW18163   1.146   2.253   7.580  0.0655 -0.3125 -0.4414
 2235SOL    HW118164   1.181   2.278   7.666 -1.4837  1.2777 -0.2683
 2235SOL    HW218165   1.063   2.216   7.610 -0.1128  1.6111  1.5365
 2236SOL     OW18166   3.413   4.062   9.546  0.6218 -0.4742  0.3516
 2236SOL    HW118167   3.385   4.135   9.602 -1.1964 -1.7721  1.1239
 2236SOL    HW218168   3.499   4.095   9.520  0.9945 -1.0041  0.9101
 2237SOL     OW18169   2.971   2.298   8.117 -0.5926 -0.5880  0.2928
 2237SOL    HW118170   3.037   2.239   8.152 -0.4867 -1.6468 -1.7272
 2237SOL    HW218171   2.896   2.277   8.173  0.1911 -0.0137  1.5426
 2238SOL     OW18172   4.368   2.636  14.103  0.0641  0.4378  0.0892
 2238SOL    HW118173   4.445   2.681  14.137 -0.1515  1.1084 -0.3057
 2238SOL    HW218174   4.418   2.594  14.033  0.9367 -0.2251  1.1126
 2239SOL     OW18175   0.915   4.014  11.697  0.1698  0.5709  0.2919
 2239SOL    HW118176   0.916   4.053  11.784  1.9211  0.5086  0.2921
 2239SOL    HW218177   0.830   3.978  11.672  0.3596 -0.5032  1.2315
 2240SOL     OW18178   4.150   1.457   9.145  0.4159  0.6887  0.0833
 2240SOL    HW118179   4.151   1.547   9.113 -4.1736  0.9214  0.5240
 2240SOL    HW218180   4.224   1.458   9.206  0.5906  0.0738 -0.1272
 2241SOL     OW18181   0.532   2.286   3.148  0.7523 -0.3314 -0.2424
 2241SOL    HW118182   0.606   2.345   3.166  0.0191  0.4301  0.2458
 2241SOL    HW218183   0.514   2.306   3.056  2.0130 -0.0414 -0.4336
 2242SOL     OW18184   1.194   0.628  11.828  0.4227 -0.1069 -0.1070
 2242SOL    HW118185   1.253   0.569  11.874  1.6031 -0.4569 -2.1082
 2242SOL    HW218186   1.142   0.656  11.904 -1.5106  0.3008 -1.5954
 2243SOL     OW18187   1.514   0.303   3.141  0.1719  0.0074 -0.1768
 2243SOL    HW118188   1.577   0.350   3.087  1.4449 -0.7101  0.6982
 2243SOL    HW218189   1.564   0.226   3.166  1.5252  0.8857 -0.2160
 2244SOL     OW18190   3.857   2.727   1.819 -0.8162 -0.5819  0.1978
 2244SOL    HW118191   3.853   2.809   1.770 -0.6278 -0.3368  0.5930
 2244SOL    HW218192   3.870   2.664   1.748 -2.1306 -1.2756  0.5680
 2245SOL     OW18193   2.647   4.387   5.876 -0.6407  0.2083 -0.0658
 2245SOL    HW118194   2.614   4.368   5.964  0.0373  1.4644  0.4584
 2245SOL    HW218195   2.610   4.475   5.869  1.4899  1.1337  0.2776
 2246SOL     OW18196   3.389   3.026   0.522  0.4846  0.1081  0.2315
 2246SOL    HW118197   3.347   3.105   0.557  2.1637  0.8678  0.5354
 2246SOL    HW218198   3.387   3.045   0.428  1.3166 -1.0315 -0.0134
 2247SOL     OW18199   3.733   3.841   8.492 -0.5462  0.0206  0.4066
 2247SOL    HW118200   3.650   3.799   8.468  0.6336 -2.8899  1.4752
 2247SOL    HW218201   3.795   3.814   8.424  0.5510 -2.5086  2.4031
 2248SOL     OW18202   0.932   1.457   5.649  0.3861  0.5702 -0.5584
 2248SOL    HW118203   0.987   1.448   5.572  1.1398 -1.4369  0.2038
 2248SOL    HW218204   0.929   1.369   5.687 -0.7949  0.6183 -0.5199
 2249SOL     OW18205   1.420   3.966  15.342 -0.1346 -0.6820  0.4456
 2249SOL    HW118206   1.494   3.985  15.284 -0.6853 -4.3879 -1.5000
 2249SOL    HW218207   1.433   4.033  15.408 -0.2700  0.6919 -0.9212
 2250SOL     OW18208   3.837   2.239  12.982 -0.1310 -0.5925 -0.0312
 2250SOL    HW118209   3.782   2.168  13.016  0.6626 -1.0510  0.2900
 2250SOL    HW218210   3.819   2.231  12.888  0.4332 -1.3090 -0.0764
 2251SOL     OW18211   0.508   0.782  16.589  0.3931 -0.4511  0.5663
 2251SOL    HW118212   0.574   0.841  16.553  0.7655 -0.0026  2.0010
 2251SOL    HW218213   0.562   0.704  16.580  0.2816 -0.5518  0.7710
 2252SOL     OW18214   1.610   0.495   5.307  0.3649  0.3359  0.1484
 2252SOL    HW118215   1.633   0.559   5.240 -0.9967  0.8927  0.2229
 2252SOL    HW218216   1.620   0.553   5.382 -0.6081 -0.0337  0.5594
 2253SOL     OW18217   2.956   0.260  17.359  0.8036 -0.1526 -0.4510
 2253SOL    HW118218   2.896   0.197  17.317 -0.2513 -0.4565  1.5463
 2253SOL    HW218219   3.014   0.190  17.388 -0.7881 -0.8427  1.0412
 2254SOL     OW18220   0.780   0.291  13.223 -0.2635 -0.3109 -0.3280
 2254SOL    HW118221   0.713   0.258  13.163 -0.0939 -0.2728 -0.5359
 2254SOL    HW218222   0.850   0.337  13.177  0.6886  0.3801  1.8350
 2255SOL     OW18223   4.562   1.632   6.371  0.0766 -0.4116  0.6845
 2255SOL    HW118224   4.524   1.549   6.343 -1.4539  0.8963 -1.1077
 2255SOL    HW218225   4.495   1.693   6.340  0.4276 -1.6245 -2.4914
 2256SOL     OW18226   1.331   4.561  14.482  0.2245  0.2089 -0.3993
 2256SOL    HW118227   1.347   4.580  14.389  1.4690 -1.1132 -0.4623
 2256SOL    HW218228   1.296   4.472  14.479 -1.6297  0.9337 -0.1614
 2257SOL     OW18229   0.427   3.807   5.810  0.0923  0.7493  0.0349
 2257SOL    HW118230   0.406   3.761   5.891  2.4714  1.4071  1.0448
 2257SOL    HW218231   0.338   3.805   5.776 -0.5245  1.1397  1.6077
 2258SOL     OW18232   4.062   4.259  10.532 -0.4533 -0.4327 -0.2036
 2258SOL    HW118233   3.985   4.202  10.528 -1.1937  0.6140 -0.8943
 2258SOL    HW218234   4.060   4.296  10.444 -1.3159  0.6891  0.2971
 2259SOL     OW18235   0.627   2.716   3.704 -0.2637 -0.6444  0.0438
 2259SOL    HW118236   0.547   2.666   3.688 -0.9062 -0.0922  1.5822
 2259SOL    HW218237   0.609   2.759   3.788  0.4384  0.0309 -0.1493
 2260SOL     OW18238   2.109   0.379   0.006 -0.1742 -1.0455 -0.5992
 2260SOL    HW118239   2.059   0.435   0.066  0.9348 -1.3206  0.5971
 2260SOL    HW218240   2.107   0.290   0.040 -1.5555 -0.9844 -0.5138
 2261SOL     OW18241   1.730   4.329   1.688  0.0304 -0.5768  0.2671
 2261SOL    HW118242   1.653   4.326   1.632 -0.2402  3.0032  0.4560
 2261SOL    HW218243   1.727   4.241   1.726  0.7759 -0.5368  0.4143
 2262SOL     OW18244   3.725   0.368   2.457  0.1359 -0.7476 -1.2221
 2262SOL    HW118245   3.659   0.403   2.397  0.8843 -1.2710 -2.3580
 2262SOL    HW218246   3.804   0.386   2.406 -1.2048  1.5232 -2.5277
 2263SOL     OW18247   3.560   3.120  14.657  0.2214  0.3629  0.5311
 2263SOL    HW118248   3.656   3.118  14.657  0.2253 -0.1449  3.4313
 2263SOL    HW218249   3.540   3.125  14.564  0.2902 -0.0315  0.4945
 2264SOL     OW18250   2.002   4.007   3.827 -0.2923  0.5152 -0.5957
 2264SOL    HW118251   2.050   4.062   3.765  0.8278 -2.4538 -2.3534
 2264SOL    HW218252   2.009   4.064   3.903 -0.3619 -0.4648  0.1470
 2265SOL     OW18253   3.765   0.142   5.585  0.4850 -0.4558  0.1983
 2265SOL    HW118254   3.781   0.189   5.503 -0.8457  0.4166  0.4506
 2265SOL    HW218255   3.826   0.068   5.577 -0.2948 -1.0122 -0.5446
 2266SOL     OW18256   1.922   1.178   3.185  0.4264 -0.2947  0.1601
 2266SOL    HW118257   1.920   1.259   3.237 -1.0164 -0.4759  0.3855
 2266SOL    HW218258   2.017   1.169   3.178  0.5472  1.1407 -0.0183
 2267SOL     OW18259   2.469   3.935   7.093  0.1268 -0.2925 -0.0767
 2267SOL    HW118260   2.484   4.026   7.115 -0.9559  0.1643 -1.2158
 2267SOL    HW218261   2.419   3.938   7.011 -0.6344 -0.2059  0.3875
 2268SOL     OW18262   2.718   0.615   5.291  0.0383 -0.5310  0.4499
 2268SOL    HW118263   2.792   0.601   5.349  1.0055  1.0647 -0.3717
 2268SOL    HW218264   2.658   0.640   5.361 -0.6894  1.3147 -0.8125
 2269SOL     OW18265   3.047   4.083   4.698 -0.3152 -0.0300 -0.2584
 2269SOL    HW118266   3.068   4.058   4.788  2.5749 -1.5106 -1.3191
 2269SOL    HW218267   3.037   3.993   4.667  1.5749 -0.3134 -0.0294
 2270SOL     OW18268   2.349   1.950   2.512  0.2154  0.1858  0.0687
 2270SOL    HW118269   2.307   2.031   2.482 -0.5844 -0.4546 -0.5599
 2270SOL    HW218270   2.433   1.952   2.466  0.1847  0.9683  0.0512
 2271SOL     OW18271   3.545   3.395  15.903 -0.2931  0.5825 -0.2129
 2271SOL    HW118272   3.565   3.351  15.986  0.6226 -0.9423 -1.2404
 2271SOL    HW218273   3.554   3.489  15.917 -1.6273  0.5476  0.8404
 2272SOL     OW18274   2.361   0.851  17.678  0.0060  0.2738 -0.0217
 2272SOL    HW118275   2.327   0.792   0.056  2.5028 -1.5766 -0.3733
 2272SOL    HW218276   2.411   0.783  17.632  1.2491  0.6094  0.8156
 2273SOL     OW18277   2.843   4.149   3.043  0.5742  0.2178 -0.0044
 2273SOL    HW118278   2.837   4.119   3.134  1.5062  2.9365  0.9488
 2273SOL    HW218279   2.894   4.229   3.055  0.9916  0.1689 -1.3975
 2274SOL     OW18280   3.597   3.277   9.910  0.0027 -0.0775 -0.7229
 2274SOL    HW118281   3.605   3.306   9.819  0.7844 -1.6866 -1.1737
 2274SOL    HW218282   3.676   3.222   9.916 -0.0867 -0.1332 -0.0323
 2275SOL     OW18283   0.837   4.101  11.305  0.1012 -0.3294  0.2636
 2275SOL    HW118284   0.830   4.089  11.211  0.0953  1.2779  0.0520
 2275SOL    HW218285   0.837   4.197  11.312  0.2546 -0.1977 -1.5134
 2276SOL     OW18286   3.511   4.065   2.477  0.1518 -0.0607  0.1152
 2276SOL    HW118287   3.542   4.071   2.386 -0.8130 -5.1357 -0.5121
 2276SOL    HW218288   3.574   4.131   2.506  0.9730 -1.0667  0.5959
 2277SOL     OW18289   1.425   2.410   8.479  0.3795 -0.2866  0.4411
 2277SOL    HW118290   1.405   2.351   8.552  1.7606 -0.5639  0.5913
 2277SOL    HW218291   1.436   2.348   8.407  0.2858  1.3201 -0.9598
 2278SOL     OW18292   2.473   1.991   7.923 -0.0505  0.5005  0.1409
 2278SOL    HW118293   2.395   2.017   7.873 -0.7092 -0.0956  0.8768
 2278SOL    HW218294   2.435   1.979   8.009 -2.2960  1.8411 -0.6797
 2279SOL     OW18295   1.137   0.266   8.033 -0.0400  0.2862  0.4410
 2279SOL    HW118296   1.222   0.286   8.072  1.5729 -1.1612 -2.4139
 2279SOL    HW218297   1.117   0.341   7.976  0.2965  1.4791  1.8696
 2280SOL     OW18298   3.099   3.962   4.934 -0.0681 -0.7673 -0.1279
 2280SOL    HW118299   3.132   4.022   5.001  1.4418 -2.5386  0.6918
 2280SOL    HW218300   3.181   3.924   4.904 -0.0080 -1.4203  0.8502
 2281SOL     OW18301   1.116   3.673   2.743 -0.1283 -0.5873 -0.5657
 2281SOL    HW118302   1.154   3.717   2.667  2.1409 -1.3156  0.1444
 2281SOL    HW218303   1.054   3.740   2.771  1.3241  0.5013  0.0185
 2282SOL     OW18304   1.489   0.015   2.218 -0.0962  0.3878  0.0153
 2282SOL    HW118305   1.412   0.042   2.268  0.7578  2.4142  0.2368
 2282SOL    HW218306   1.450   0.029   2.132 -0.2519  0.3871  0.0860
 2283SOL     OW18307   3.018   2.407   6.085 -0.2439  0.3871  0.4725
 2283SOL    HW118308   3.093   2.447   6.129  0.3998 -0.3840  0.0858
 2283SOL    HW218309   3.050   2.317   6.076  0.1251  0.7717 -2.3283
 2284SOL     OW18310   0.911   0.175   8.527 -0.4354 -0.1950 -0.4614
 2284SOL    HW118311   1.000   0.203   8.544 -1.8881  3.6230  0.8951
 2284SOL    HW218312   0.891   0.160   8.434 -0.0056  0.4978 -0.6670
 2285SOL     OW18313   4.448   2.332   3.155  0.2920 -0.4876  0.3599
 2285SOL    HW118314   4.425   2.424   3.162  0.6984 -0.4540  1.3001
 2285SOL    HW218315   4.440   2.331   3.060  0.7255 -4.0641  0.3353
 2286SOL     OW18316   2.645   4.231   2.414  0.3402 -0.0608  0.2103
 2286SOL    HW118317   2.567   4.230   2.471 -1.2728  1.6016 -1.9385
 2286SOL    HW218318   2.642   4.324   2.391 -0.3535 -0.9162 -3.1413
 2287SOL     OW18319   0.084   0.951  17.114 -0.6103 -0.2581  0.2256
 2287SOL    HW118320   0.032   1.029  17.096  0.0549 -0.1019 -0.9880
 2287SOL    HW218321   0.020   0.880  17.118 -0.7204 -0.1708 -0.0165
 2288SOL     OW18322   1.508   2.960   8.693  0.0654  0.2331  0.1534
 2288SOL    HW118323   1.482   3.041   8.648 -0.0307  0.4945  0.6826
 2288SOL    HW218324   1.500   3.000   8.779 -0.3671  0.7185 -0.1049
 2289SOL     OW18325   1.190   4.654   5.616 -0.1216  0.5646  0.7516
 2289SOL    HW118326   1.102   4.633   5.648 -0.8955 -0.5731 -2.1198
 2289SOL    HW218327   1.240   4.643   5.697 -0.8779 -0.0097  1.1353
 2290SOL     OW18328   3.663   3.769   4.822 -0.5770  0.3509 -0.1974
 2290SOL    HW118329   3.679   3.717   4.901 -0.7458 -0.5274 -0.7345
 2290SOL    HW218330   3.618   3.843   4.863 -1.4781  0.1012 -0.7167
 2291SOL     OW18331   2.379   2.311   2.234  0.4101  0.1311  0.7938
 2291SOL    HW118332   2.379   2.387   2.176 -0.0258 -0.2781  0.2632
 2291SOL    HW218333   2.463   2.266   2.221  0.0778 -0.2630  0.0400
 2292SOL     OW18334   1.654   4.009  15.173  0.0599  0.1318  0.3868
 2292SOL    HW118335   1.607   4.036  15.094  4.0252  0.3955 -1.8688
 2292SOL    HW218336   1.709   4.085  15.188  2.4064 -1.2182 -1.3609
 2293SOL     OW18337   3.923   2.647   8.073  0.0757  0.6427 -0.3296
 2293SOL    HW118338   4.015   2.661   8.094  1.1815 -3.2239 -2.5182
 2293SOL    HW218339   3.886   2.715   8.129 -1.9459 -0.6909 -0.0481
 2294SOL     OW18340   0.410   1.210   1.915  0.8998  0.3310  0.1218
 2294SOL    HW118341   0.429   1.153   1.990 -0.4962 -0.6345 -0.2671
 2294SOL    HW218342   0.338   1.161   1.876  2.7203 -0.9112 -1.6456
 2295SOL     OW18343   0.918   0.311  10.020  0.6902  0.5914  0.0291
 2295SOL    HW118344   0.848   0.331   9.959  1.6562  0.9011 -0.9749
 2295SOL    HW218345   0.882   0.228  10.050 -1.2196  1.6619  0.6904
 2296SOL     OW18346   3.042   0.259   8.079 -0.0875  0.5561 -0.1702
 2296SOL    HW118347   2.963   0.270   8.026 -0.6962 -0.6876  0.4844
 2296SOL    HW218348   3.027   0.167   8.100 -0.9495  0.4419 -1.2916
 2297SOL     OW18349   3.233   0.333   8.499  0.1633  0.0116 -0.1930
 2297SOL    HW118350   3.144   0.302   8.513  1.4743 -3.7028 -0.1322
 2297SOL    HW218351   3.250   0.393   8.572 -1.3978  0.7599 -0.4392
 2298SOL     OW18352   4.539   3.297  16.619 -0.3124  0.6731  0.1415
 2298SOL    HW118353   4.635   3.291  16.615 -0.1223  1.4486  3.9783
 2298SOL    HW218354   4.534   3.387  16.650 -2.6076 -0.6022  3.5543
 2299SOL     OW18355   0.597   0.171   8.958 -0.3368 -0.7084 -0.4755
 2299SOL    HW118356   0.534   0.107   8.926 -0.0325 -0.7822 -0.9305
 2299SOL    HW218357   0.682   0.130   8.940  0.2730  0.2139  0.2714
 2300SOL     OW18358   2.672   1.131   7.228 -0.2885 -0.0254  0.3496
 2300SOL    HW118359   2.646   1.043   7.255  0.6947 -0.2512  0.5616
 2300SOL    HW218360   2.688   1.173   7.312  0.1566 -2.2105  1.3397
 2301SOL     OW18361   2.460   0.299  14.831  0.4986 -0.5194 -0.1164
 2301SOL    HW118362   2.446   0.285  14.738  0.9216  1.0238 -0.4086
 2301SOL    HW218363   2.509   0.222  14.862  1.2477 -0.8149 -2.0528
 2302SOL     OW18364   3.665   2.061  12.487  0.1411 -0.3722  0.1743
 2302SOL    HW118365   3.573   2.066  12.515 -0.3042  0.1667 -1.4237
 2302SOL    HW218366   3.656   2.030  12.397  2.6806  0.1569 -0.2503
 2303SOL     OW18367   1.562   1.352   2.064  0.5156 -1.1065 -0.0001
 2303SOL    HW118368   1.500   1.364   2.136  0.9438 -0.4391  0.2554
 2303SOL    HW218369   1.642   1.340   2.115 -0.2402 -1.9770  0.9721
 2304SOL     OW18370   1.879   2.777   7.370  0.6728  0.7120  0.7111
 2304SOL    HW118371   1.956   2.780   7.313 -0.3385  0.4079 -0.6498
 2304SOL    HW218372   1.857   2.869   7.361 -3.2760 -0.3897 -0.8230
 2305SOL     OW18373   0.207   1.104   6.114 -0.4662 -0.0106 -1.0092
 2305SOL    HW118374   0.206   1.010   6.132 -1.6272  0.7089  2.7762
 2305SOL    HW218375   0.151   1.111   6.037 -1.5862  1.9366 -0.0049
 2306SOL     OW18376   0.989   1.046  10.557 -0.1506 -0.4105  0.5350
 2306SOL    HW118377   0.926   0.991  10.603 -0.7017  1.5135  2.0824
 2306SOL    HW218378   1.061   0.987  10.537  1.6443  1.7926  0.3940
 2307SOL     OW18379   2.338   4.261   5.417  0.3232 -0.2943  0.1414
 2307SOL    HW118380   2.390   4.187   5.389  0.9318  0.0892  0.2567
 2307SOL    HW218381   2.267   4.264   5.353  1.0270 -0.6049 -0.6532
 2308SOL     OW18382   0.698   3.485  14.024 -0.1249  0.3774 -0.6383
 2308SOL    HW118383   0.751   3.523  13.954  0.2115 -1.1165 -1.1888
 2308SOL    HW218384   0.650   3.415  13.980 -1.3200  1.2623 -0.7398
 2309SOL     OW18385   3.009   3.056   4.446 -0.6691 -0.4281 -0.0758
 2309SOL    HW118386   2.989   2.971   4.407 -1.0016 -0.3345 -0.1072
 2309SOL    HW218387   3.052   3.022   4.525 -0.7978  0.0630  0.2015
 2310SOL     OW18388   1.943   3.676  12.797 -0.1350 -0.2319 -0.1815
 2310SOL    HW118389   2.000   3.746  12.765 -1.2875  0.7708 -0.0120
 2310SOL    HW218390   1.970   3.669  12.888 -0.7302 -0.5365 -0.0277
 2311SOL     OW18391   0.738   4.366   3.393  0.1230  0.0493 -0.1596
 2311SOL    HW118392   0.749   4.278   3.358  0.9071  0.6882 -1.4997
 2311SOL    HW218393   0.666   4.402   3.341 -0.7580 -1.5989 -0.0898
 2312SOL     OW18394   0.878   0.774   5.185  0.3485 -0.2340 -0.6321
 2312SOL    HW118395   0.915   0.836   5.248  0.8258 -2.6924  1.4521
 2312SOL    HW218396   0.880   0.698   5.242 -2.7599 -0.1655 -0.4550
 2313SOL     OW18397   1.767   3.801   3.073 -0.3583 -0.1512  0.2986
 2313SOL    HW118398   1.756   3.712   3.106 -1.4373  0.5161  1.7943
 2313SOL    HW218399   1.680   3.819   3.037 -0.2741 -0.2918  0.0327
 2314SOL     OW18400   2.671   1.315   7.947  0.0020 -0.6021  0.3021
 2314SOL    HW118401   2.612   1.369   8.000  1.0817  0.5086  0.3635
 2314SOL    HW218402   2.756   1.339   7.983 -0.0995 -0.1912  0.2656
 2315SOL     OW18403   4.649   0.177   0.352 -0.3349  0.6635  0.3031
 2315SOL    HW118404   4.703   0.116   0.402 -0.1051  0.0564 -0.6826
 2315SOL    HW218405   4.614   0.248   0.405  0.5821  0.9725  0.4846
 2316SOL     OW18406   0.068   0.738   3.076  0.4947  0.1777  0.1430
 2316SOL    HW118407   0.161   0.735   3.098  0.7704 -0.6228 -1.1851
 2316SOL    HW218408   0.063   0.811   3.015  1.5690 -0.8707 -1.1811
 2317SOL     OW18409   4.154   4.284  11.903  0.0562  0.2728  0.3073
 2317SOL    HW118410   4.234   4.246  11.868 -1.3781 -1.8244 -0.7215
 2317SOL    HW218411   4.110   4.199  11.899 -1.0253  0.9246 -1.8453
 2318SOL     OW18412   4.404   3.631   4.146 -0.2987 -0.1466  0.3655
 2318SOL    HW118413   4.428   3.712   4.192  0.9227 -0.9126  1.0640
 2318SOL    HW218414   4.409   3.668   4.058 -1.4360 -1.5759 -0.2830
 2319SOL     OW18415   3.578   4.584  12.912 -0.3220 -0.0984 -0.4141
 2319SOL    HW118416   3.568   4.491  12.933  1.4314 -0.5762 -1.7144
 2319SOL    HW218417   3.490   4.613  12.936 -1.0790 -3.4290  0.8111
 2320SOL     OW18418   2.551   0.380  16.123  0.6516 -0.2490 -0.0296
 2320SOL    HW118419   2.587   0.458  16.165 -2.4427  0.0276  2.1421
 2320SOL    HW218420   2.459   0.379  16.148  0.7288  0.9483  0.2757
 2321SOL     OW18421   4.475   3.614   7.086  0.3305 -0.7962  0.6024
 2321SOL    HW118422   4.453   3.596   6.994  0.8931  0.9531  0.1186
 2321SOL    HW218423   4.408   3.565   7.133 -1.2886  0.9665  0.1808
 2322SOL     OW18424   1.162   3.939   3.603  0.4565  0.3331  0.3115
 2322SOL    HW118425   1.142   3.884   3.527 -0.6908 -1.0879  1.6334
 2322SOL    HW218426   1.251   3.915   3.626  0.2354  0.0726  0.8911
 2323SOL     OW18427   3.742   4.505   0.898  0.3061 -0.1459 -0.0112
 2323SOL    HW118428   3.752   4.417   0.861 -1.1889 -0.8126  1.1708
 2323SOL    HW218429   3.829   4.544   0.890 -0.7703  2.1362 -0.4349
 2324SOL     OW18430   3.291   1.125   6.674  0.0362 -0.1494 -0.4104
 2324SOL    HW118431   3.376   1.137   6.633 -0.7400 -1.2976 -2.3172
 2324SOL    HW218432   3.304   1.047   6.728  0.9478 -0.8468 -1.6399
 2325SOL     OW18433   3.343   2.305   7.034 -0.1510  0.1203 -0.4672
 2325SOL    HW118434   3.295   2.241   6.982 -0.9617 -1.6154  2.4608
 2325SOL    HW218435   3.334   2.290   7.128 -3.1444  0.7958 -0.6493
 2326SOL     OW18436   4.385   1.895   5.767 -0.2607  0.3229 -0.1366
 2326SOL    HW118437   4.456   1.860   5.714  0.4922  2.6552 -0.6432
 2326SOL    HW218438   4.407   1.862   5.855  1.0558 -1.4464 -1.1350
 2327SOL     OW18439   2.721   1.784  16.422  0.5460 -0.5363  0.1587
 2327SOL    HW118440   2.737   1.715  16.358  0.2131 -1.6478  1.2760
 2327SOL    HW218441   2.750   1.749  16.506 -1.9747  1.2268  1.7655
 2328SOL     OW18442   1.287   0.525   7.261 -0.5744 -0.4425 -0.6157
 2328SOL    HW118443   1.251   0.487   7.341  1.5265 -0.4378  0.3487
 2328SOL    HW218444   1.370   0.477   7.266  0.1559  0.9970  1.4580
 2329SOL     OW18445   1.323   3.504   1.668 -0.1826 -0.0404 -0.2761
 2329SOL    HW118446   1.281   3.531   1.587 -0.6913  0.5431  0.1840
 2329SOL    HW218447   1.410   3.488   1.632  0.3945 -0.2803  1.2255
 2330SOL     OW18448   0.313   2.810   6.830  0.3289 -0.2457  0.3047
 2330SOL    HW118449   0.381   2.775   6.773 -2.2866 -0.7898 -2.4823
 2330SOL    HW218450   0.282   2.885   6.780  1.7794 -0.8106 -1.4529
 2331SOL     OW18451   4.624   0.733   4.083 -0.2002  0.0230 -0.3169
 2331SOL    HW118452   4.635   0.748   3.990  3.3883 -1.7075 -0.1619
 2331SOL    HW218453   4.673   0.652   4.096  2.1687  1.5618  0.3862
 2332SOL     OW18454   3.134   3.727   0.452  0.2695 -0.4721 -0.2369
 2332SOL    HW118455   3.094   3.732   0.365 -1.2459  1.2669  0.5852
 2332SOL    HW218456   3.130   3.816   0.487  0.0417 -0.9615  0.9718
 2333SOL     OW18457   0.811   3.562   8.312 -0.1919  0.8175 -0.8684
 2333SOL    HW118458   0.802   3.480   8.360 -0.7351 -0.5432 -3.2968
 2333SOL    HW218459   0.811   3.627   8.382 -3.1459 -0.7236  0.5502
 2334SOL     OW18460   0.639   0.160  13.038  1.3622  0.0914 -0.4779
 2334SOL    HW118461   0.550   0.124  13.031  0.2501  2.8777 -0.7812
 2334SOL    HW218462   0.686   0.086  13.001 -0.2958 -0.8157 -0.7593
 2335SOL     OW18463   0.226   3.549   9.684 -0.3712 -0.3737  0.0969
 2335SOL    HW118464   0.163   3.603   9.637 -0.6577  2.6333  3.9815
 2335SOL    HW218465   0.213   3.578   9.774  0.9859  1.1855 -0.2153
 2336SOL     OW18466   2.168   3.206   5.933  0.3879 -0.4927  0.2260
 2336SOL    HW118467   2.193   3.246   5.850 -0.5078 -0.2768  0.0541
 2336SOL    HW218468   2.229   3.252   5.991  2.0416 -1.1706 -0.9942
 2337SOL     OW18469   2.045   4.220   2.243  0.5362  0.7685 -1.3092
 2337SOL    HW118470   1.984   4.278   2.289 -0.5599  0.4312 -2.3269
 2337SOL    HW218471   2.109   4.286   2.215 -0.5301  2.3420 -0.0180
 2338SOL     OW18472   2.633   2.058   5.888 -0.1375  0.0199  0.1794
 2338SOL    HW118473   2.723   2.091   5.883 -0.0924 -0.6115 -3.0574
 2338SOL    HW218474   2.646   1.974   5.843 -1.2990 -1.3109  2.3877
 2339SOL     OW18475   3.325   3.138   3.468 -0.0006 -0.4166  0.8655
 2339SOL    HW118476   3.341   3.087   3.389 -2.7565  1.3836 -0.8374
 2339SOL    HW218477   3.331   3.228   3.434 -0.1070 -0.7636 -0.0867
 2340SOL     OW18478   0.519   3.247   7.810 -0.3745 -0.0999 -0.3069
 2340SOL    HW118479   0.585   3.310   7.838  0.3173 -1.1209  0.3857
 2340SOL    HW218480   0.495   3.274   7.722  2.4966 -0.8876 -1.3249
 2341SOL     OW18481   0.939   1.297  17.178 -0.2080  0.5685  0.1704
 2341SOL    HW118482   0.917   1.218  17.128  1.0457 -0.3258  1.0157
 2341SOL    HW218483   0.905   1.361  17.117 -0.7289  1.4055  1.3389
 2342SOL     OW18484   1.501   4.631   7.103 -0.5278  0.4150 -0.2496
 2342SOL    HW118485   1.476   4.558   7.159  0.9914 -1.2280 -1.6995
 2342SOL    HW218486   1.424   4.679   7.072 -0.5909 -0.6245 -1.7535
 2343SOL     OW18487   1.547   3.389   6.505  0.4154 -0.5931  0.3558
 2343SOL    HW118488   1.547   3.483   6.487  1.1202 -0.3796  1.4473
 2343SOL    HW218489   1.457   3.358   6.491  0.3264  0.5182 -1.4084
 2344SOL     OW18490   4.666   2.388  16.089 -0.4775  0.6595  0.1742
 2344SOL    HW118491   0.029   2.432  16.080 -0.2860  0.5484  1.5356
 2344SOL    HW218492   4.686   2.327  16.160  2.1406  0.7025 -0.5306
 2345SOL     OW18493   0.719   0.790   7.473 -0.3808 -0.3925 -0.4604
 2345SOL    HW118494   0.733   0.855   7.542 -0.5565  0.5779 -1.3445
 2345SOL    HW218495   0.767   0.831   7.402 -2.5874  0.1805 -1.6342
 2346SOL     OW18496   3.970   2.467   0.418  0.2746 -0.3266 -0.1825
 2346SOL    HW118497   4.005   2.425   0.496  1.1604 -1.9525 -1.4752
 2346SOL    HW218498   4.044   2.520   0.389  0.7037  0.0085  1.4780
 2347SOL     OW18499   2.410   1.036  14.380 -0.6405 -0.0650 -0.0564
 2347SOL    HW118500   2.369   1.088  14.311 -0.6665  0.3659  0.2817
 2347SOL    HW218501   2.382   0.947  14.359  2.0483 -1.3987  1.9678
 2348SOL     OW18502   2.537   1.692  10.544 -0.0326 -0.2008 -0.3855
 2348SOL    HW118503   2.487   1.680  10.463 -2.2968  2.5344  0.5818
 2348SOL    HW218504   2.457   1.694  10.596  0.6148 -1.4898  0.6404
 2349SOL     OW18505   4.597   1.740   7.846  0.3601 -0.3463  0.0874
 2349SOL    HW118506   4.600   1.748   7.941 -0.1315  1.0207 -0.0143
 2349SOL    HW218507   4.599   1.645   7.835 -0.2460 -0.5424  1.7154
 2350SOL     OW18508   1.209   0.886  16.706 -0.2600 -0.1951 -0.1329
 2350SOL    HW118509   1.213   0.933  16.789 -0.2085  1.1475 -0.8897
 2350SOL    HW218510   1.178   0.804  16.744 -1.1817 -0.2845 -1.0643
 2351SOL     OW18511   3.256   2.545   6.111  0.0348  0.4131  0.9239
 2351SOL    HW118512   3.329   2.575   6.166  1.7358 -0.9995 -0.5772
 2351SOL    HW218513   3.308   2.528   6.033 -2.1027 -0.9993 -0.1856
 2352SOL     OW18514   4.458   4.559  16.471  0.3550  0.1456 -0.3207
 2352SOL    HW118515   4.377   4.580  16.424  0.6353  1.1992 -0.3223
 2352SOL    HW218516   4.459   4.463  16.466 -0.2811  0.0650  1.0816
 2353SOL     OW18517   3.619   1.937   4.901  0.1744  0.2399 -0.3098
 2353SOL    HW118518   3.542   1.987   4.872 -0.6081 -1.6360 -1.4485
 2353SOL    HW218519   3.647   1.906   4.815  1.9074  0.5957  0.1239
 2354SOL     OW18520   3.547   3.278   8.248 -0.3782  0.3613 -0.2739
 2354SOL    HW118521   3.461   3.237   8.242 -0.1072 -0.1734 -0.5890
 2354SOL    HW218522   3.594   3.220   8.308  1.3249  2.0115 -0.0176
 2355SOL     OW18523   1.965   3.429   5.109 -0.2353 -0.2154  0.1398
 2355SOL    HW118524   1.945   3.420   5.015 -0.4470  0.1109  0.1513
 2355SOL    HW218525   1.928   3.514   5.132  1.9981  0.6258  0.6160
 2356SOL     OW18526   0.255   4.164   0.781  0.2824 -0.1806  0.5000
 2356SOL    HW118527   0.255   4.212   0.865  1.9743 -1.9891  1.5262
 2356SOL    HW218528   0.167   4.172   0.746 -0.1680 -1.2373  1.3988
 2357SOL     OW18529   1.974   3.664   8.488 -0.5837 -0.0364 -0.5854
 2357SOL    HW118530   2.053   3.625   8.451  0.1923  1.9641 -1.0329
 2357SOL    HW218531   2.019   3.736   8.532 -3.4673 -0.5450  3.2155
 2358SOL     OW18532   4.556   1.439  11.516 -0.0971 -0.3946 -0.4795
 2358SOL    HW118533   4.500   1.404  11.447 -0.0743 -0.6118 -0.3898
 2358SOL    HW218534   4.637   1.419  11.469 -0.3960  1.4841 -1.7828
 2359SOL     OW18535   4.631   0.210   3.655  0.3291 -0.2346  0.3560
 2359SOL    HW118536   4.658   0.219   3.564 -3.2342 -0.4385 -0.7250
 2359SOL    HW218537   4.626   0.115   3.662 -0.0198 -0.2412  0.0346
 2360SOL     OW18538   2.173   3.218   8.498 -0.0355  1.0992 -0.2024
 2360SOL    HW118539   2.103   3.229   8.563 -0.2491  1.0763 -0.4254
 2360SOL    HW218540   2.252   3.225   8.550 -0.5954  2.3400  0.4751
 2361SOL     OW18541   3.991   2.128   3.395 -0.0260 -0.3770 -0.4453
 2361SOL    HW118542   3.994   2.142   3.490  2.6289  1.6693 -0.8313
 2361SOL    HW218543   4.086   2.133   3.381  0.5837 -1.0934  3.4195
 2362SOL     OW18544   0.140   2.457   8.451 -0.3594 -0.4478  0.1578
 2362SOL    HW118545   0.052   2.488   8.431 -0.1006  1.7876  2.4950
 2362SOL    HW218546   0.190   2.538   8.462 -1.6945  0.0776  2.3815
 2363SOL     OW18547   0.248   3.661   4.135  0.1141 -0.1480  0.2199
 2363SOL    HW118548   0.177   3.665   4.200 -0.6954 -0.8138 -0.6213
 2363SOL    HW218549   0.196   3.639   4.058  1.2650 -0.3441 -0.4948
 2364SOL     OW18550   4.215   2.396  13.370  0.8079 -0.2016  0.3240
 2364SOL    HW118551   4.128   2.361  13.394  0.5206  0.0471 -0.3737
 2364SOL    HW218552   4.261   2.381  13.453 -1.0605  0.4294  1.4976
 2365SOL     OW18553   3.574   2.638   1.707 -0.0180 -0.1525  0.1201
 2365SOL    HW118554   3.597   2.617   1.617 -1.1379 -2.7598  0.4319
 2365SOL    HW218555   3.561   2.733   1.708  0.4268 -0.1201  2.4426
 2366SOL     OW18556   1.777   3.496   3.570  0.5945 -0.5064  0.2662
 2366SOL    HW118557   1.701   3.495   3.512 -0.2479 -0.7261  1.3731
 2366SOL    HW218558   1.844   3.460   3.512  0.2672 -0.9672  0.1734
 2367SOL     OW18559   2.946   2.920   1.503  0.9961  0.5427 -0.0638
 2367SOL    HW118560   2.923   2.978   1.576  0.6348  0.3046  0.0116
 2367SOL    HW218561   3.006   2.864   1.551  0.1827 -0.5582 -0.3309
 2368SOL     OW18562   3.277   3.229   8.508 -0.0813 -0.7208 -0.5684
 2368SOL    HW118563   3.365   3.254   8.536 -0.6918  0.1082  0.6273
 2368SOL    HW218564   3.300   3.166   8.439 -0.2551  0.0085 -1.2898
 2369SOL     OW18565   2.087   0.978   6.035  0.1695  0.2241 -0.1893
 2369SOL    HW118566   2.097   0.883   6.043  0.4459 -0.0636 -3.6355
 2369SOL    HW218567   2.011   0.994   6.090 -0.0149  2.5894 -1.1304
 2370SOL     OW18568   2.470   3.149   5.841  0.9988 -0.2273 -0.9153
 2370SOL    HW118569   2.527   3.106   5.905 -0.3415 -0.3445  0.1953
 2370SOL    HW218570   2.507   3.236   5.834 -2.5309  1.3221 -0.3191
 2371SOL     OW18571   1.072   0.299  12.304 -0.0633  0.2285 -0.0102
 2371SOL    HW118572   1.135   0.333  12.367 -0.7005 -1.1004  1.3425
 2371SOL    HW218573   0.987   0.318  12.345 -0.8159 -0.0889 -1.4097
 2372SOL     OW18574   1.039   3.913   5.057 -0.7467 -0.1269 -0.4182
 2372SOL    HW118575   1.067   3.914   4.965 -1.2348  0.7616 -0.5566
 2372SOL    HW218576   0.947   3.890   5.048 -1.2157  0.8594  1.8103
 2373SOL     OW18577   4.339   2.438   0.781  0.4542  0.6628 -0.3850
 2373SOL    HW118578   4.410   2.502   0.773 -0.2566  1.3466 -1.1590
 2373SOL    HW218579   4.374   2.368   0.835 -0.3609 -0.3984 -1.2526
 2374SOL     OW18580   1.708   1.513   3.848  0.4050  0.0085 -0.1742
 2374SOL    HW118581   1.736   1.604   3.838  0.1462  0.3679  2.5240
 2374SOL    HW218582   1.774   1.473   3.905  0.6005  1.9603  0.9641
 2375SOL     OW18583   3.816   3.254   1.697  0.3850  0.4005 -0.7702
 2375SOL    HW118584   3.832   3.240   1.604 -0.0065 -0.5127 -0.6936
 2375SOL    HW218585   3.808   3.350   1.698 -3.3527  0.0707 -1.3205
 2376SOL     OW18586   2.494   2.020  14.712 -1.0615 -0.1030 -0.1138
 2376SOL    HW118587   2.466   2.099  14.759  0.3644 -0.6059  1.6026
 2376SOL    HW218588   2.584   2.013  14.744 -1.3352  0.0521  0.6847
 2377SOL     OW18589   2.531   0.865  13.614 -0.2561 -0.7123 -0.0583
 2377SOL    HW118590   2.579   0.853  13.532  1.3167 -1.5941  0.9946
 2377SOL    HW218591   2.611   0.860  13.665  0.3903  0.5949 -0.9420
 2378SOL     OW18592   3.694   3.560   5.821 -0.9834  0.2405  0.8411
 2378SOL    HW118593   3.645   3.493   5.774  1.7615 -0.1479 -1.4493
 2378SOL    HW218594   3.733   3.506   5.890  2.0779  1.9822  0.4634
 2379SOL     OW18595   2.247   0.634   0.584 -0.1820 -0.0348 -0.0799
 2379SOL    HW118596   2.304   0.605   0.655 -0.6545  1.1140  0.7613
 2379SOL    HW218597   2.164   0.643   0.632 -0.1260 -2.4483  0.4656
 2380SOL     OW18598   3.275   4.163  12.281  0.1426 -0.1166  0.1435
 2380SOL    HW118599   3.208   4.107  12.322 -0.4966 -0.1598 -0.9551
 2380SOL    HW218600   3.343   4.096  12.291  0.2390 -0.6534 -4.2650
 2381SOL     OW18601   4.448   0.675   2.228 -0.3872 -0.2739 -0.0879
 2381SOL    HW118602   4.432   0.649   2.137  1.8431  0.6764 -0.7558
 2381SOL    HW218603   4.477   0.595   2.271  0.7849  0.7654  1.0638
 2382SOL     OW18604   0.961   2.702  15.104  0.2656 -0.9373 -0.3217
 2382SOL    HW118605   0.981   2.661  15.021 -2.2470  0.3484 -1.5646
 2382SOL    HW218606   1.011   2.639  15.156  1.0196 -1.6743 -1.9432
 2383SOL     OW18607   2.775   1.829   3.199  0.4845  0.3411 -0.8941
 2383SOL    HW118608   2.709   1.847   3.131 -1.4563 -2.7911  0.1768
 2383SOL    HW218609   2.793   1.915   3.236 -1.6247 -0.0414  1.0168
 2384SOL     OW18610   1.750   2.625  12.823 -0.0367 -0.1057  0.2849
 2384SOL    HW118611   1.745   2.616  12.728  0.9532 -0.0981  0.2260
 2384SOL    HW218612   1.844   2.612  12.838  0.2258  2.1147  0.5759
 2385SOL     OW18613   1.124   0.126   2.831  0.0800 -0.3371  0.3312
 2385SOL    HW118614   1.194   0.079   2.787  0.0992  0.9531 -1.0170
 2385SOL    HW218615   1.179   0.195   2.867  2.5967 -2.5104  0.6352
 2386SOL     OW18616   3.302   1.449   1.748  0.8197  0.3950  0.0945
 2386SOL    HW118617   3.390   1.480   1.770  0.4179  1.9600 -0.5363
 2386SOL    HW218618   3.289   1.498   1.667 -2.0119 -0.8257 -0.1968
 2387SOL     OW18619   0.047   1.348   6.209 -0.4823 -0.0084  0.2360
 2387SOL    HW118620   0.028   1.268   6.258 -2.9855  0.8382  0.6584
 2387SOL    HW218621   0.060   1.422   6.268  0.4818 -0.5421  0.6933
 2388SOL     OW18622   1.380   1.969   4.105 -0.3338 -0.2167  0.4207
 2388SOL    HW118623   1.300   1.918   4.116  0.6249 -1.8499 -0.1376
 2388SOL    HW218624   1.435   1.892   4.090  2.1263  1.3874  1.0881
 2389SOL     OW18625   1.272   2.705  13.198  0.0213  0.5104  0.4385
 2389SOL    HW118626   1.235   2.683  13.284 -2.1646 -0.3977 -0.7349
 2389SOL    HW218627   1.353   2.748  13.225 -0.9791  1.1552  2.4353
 2390SOL     OW18628   0.736   1.095   4.644  0.5751 -0.0158  0.0210
 2390SOL    HW118629   0.680   1.036   4.594 -0.3270 -0.1059  1.1695
 2390SOL    HW218630   0.734   1.170   4.583  0.1462  0.4237  0.5777
 2391SOL     OW18631   1.367   1.766   5.892  0.1321 -0.5579 -0.3861
 2391SOL    HW118632   1.349   1.745   5.800 -2.4671  2.1005 -0.4659
 2391SOL    HW218633   1.347   1.859   5.900 -0.2717 -0.4869 -2.2533
 2392SOL     OW18634   1.014   1.952   0.657 -0.1702 -0.6526  0.2416
 2392SOL    HW118635   1.062   1.914   0.730  0.0896 -1.5517 -0.4033
 2392SOL    HW218636   1.072   1.977   0.585  0.8294 -2.4921  0.4217
 2393SOL     OW18637   1.239   3.594   6.646 -0.3300 -0.1246 -0.1567
 2393SOL    HW118638   1.296   3.522   6.621 -1.8859 -1.3716 -0.1595
 2393SOL    HW218639   1.221   3.633   6.560 -3.5212  1.7598  1.3582
 2394SOL     OW18640   2.033   2.329  13.706 -0.0382 -0.4334  0.4165
 2394SOL    HW118641   1.940   2.351  13.715 -0.1049  0.0513 -1.5648
 2394SOL    HW218642   2.049   2.327  13.801  1.3046  0.0794  0.2034
 2395SOL     OW18643   2.205   0.653  14.160  0.3433  0.0111 -0.5091
 2395SOL    HW118644   2.110   0.663  14.154  0.2852 -0.1371  0.1422
 2395SOL    HW218645   2.223   0.737  14.119 -0.5319  1.7355  2.6521
 2396SOL     OW18646   2.374   0.772   5.067 -0.2261 -0.4553 -0.1305
 2396SOL    HW118647   2.410   0.851   5.107 -1.3408 -1.1666  2.2787
 2396SOL    HW218648   2.321   0.740   5.140 -0.2994 -0.1093 -0.0317
 2397SOL     OW18649   2.807   3.860   4.586 -0.0284  0.7427  0.0671
 2397SOL    HW118650   2.807   3.852   4.491 -1.8145 -2.9678  0.3639
 2397SOL    HW218651   2.897   3.835   4.608  0.0606  0.7074 -0.3386
 2398SOL     OW18652   4.185   0.474   5.902  0.1660  0.1131 -0.0608
 2398SOL    HW118653   4.130   0.514   5.834  0.9912 -0.4689 -1.0804
 2398SOL    HW218654   4.117   0.474   5.969 -0.0917 -1.2574 -0.3116
 2399SOL     OW18655   4.449   0.321   7.665 -0.5506  0.0396  0.1652
 2399SOL    HW118656   4.501   0.394   7.700 -0.9517 -0.2819  1.4162
 2399SOL    HW218657   4.484   0.251   7.719 -1.8372 -1.5613 -1.0791
 2400SOL     OW18658   3.157   2.778   6.270 -0.0009 -0.0191 -0.6636
 2400SOL    HW118659   3.195   2.857   6.232 -1.3632  0.4153 -1.1234
 2400SOL    HW218660   3.163   2.710   6.203 -0.4612 -0.3139 -0.4087
 2401SOL     OW18661   3.553   3.603   8.837  0.1910 -0.3997  0.2088
 2401SOL    HW118662   3.524   3.638   8.921 -2.7111 -1.8218 -0.2122
 2401SOL    HW218663   3.567   3.676   8.777  0.5156 -1.5715 -1.1244
 2402SOL     OW18664   4.173   1.693  10.906 -0.1748  0.2368 -0.6781
 2402SOL    HW118665   4.129   1.705  10.990 -0.0174  0.9729 -0.6975
 2402SOL    HW218666   4.113   1.731  10.842 -1.4161  0.4108  0.5907
 2403SOL     OW18667   0.977   3.469   2.409  0.0220  0.1192 -0.2546
 2403SOL    HW118668   0.969   3.399   2.474 -0.6484  0.4212 -0.0078
 2403SOL    HW218669   1.060   3.509   2.435 -0.8732  1.1285  1.0956
 2404SOL     OW18670   2.428   2.107  16.106  0.5247  0.2350 -0.4135
 2404SOL    HW118671   2.437   2.159  16.186  2.6621 -1.1836  0.2789
 2404SOL    HW218672   2.509   2.144  16.070  0.3608  1.6577  0.6668
 2405SOL     OW18673   1.987   0.330  15.396 -0.2716 -0.5138 -0.0273
 2405SOL    HW118674   2.033   0.249  15.417  0.7207  0.2158  0.5682
 2405SOL    HW218675   1.906   0.287  15.367  0.7225 -1.6424 -1.1476
 2406SOL     OW18676   0.032   4.146   6.824  0.4699 -0.0491 -0.2582
 2406SOL    HW118677   4.695   4.220   6.843 -1.1328 -0.7059 -2.6620
 2406SOL    HW218678   0.040   4.089   6.900  0.1882 -1.9329 -1.6340
 2407SOL     OW18679   2.280   3.456   5.307 -0.5844 -0.3282 -0.0640
 2407SOL    HW118680   2.351   3.436   5.246 -1.5578 -0.9523 -0.9823
 2407SOL    HW218681   2.297   3.400   5.383  3.0987  1.3308  0.3596
 2408SOL     OW18682   1.830   0.444   8.805  0.3743  0.9043 -0.3897
 2408SOL    HW118683   1.872   0.358   8.804 -0.2663  0.5771  0.1817
 2408SOL    HW218684   1.752   0.426   8.752 -0.3819  0.2310  0.9324
 2409SOL     OW18685   0.218   1.389   0.081 -0.2496  0.1974  0.2322
 2409SOL    HW118686   0.312   1.383   0.067 -0.4021  0.2689 -0.8424
 2409SOL    HW218687   0.219   1.410   0.175 -2.0321  1.8032 -0.0995
 2410SOL     OW18688   3.314   2.781   4.701 -0.6555  0.0997  0.4251
 2410SOL    HW118689   3.390   2.818   4.655  0.1177 -2.1472 -0.1620
 2410SOL    HW218690   3.325   2.686   4.691  0.3647  0.4685 -2.0108
 2411SOL     OW18691   0.409   2.771   4.133  0.0362 -0.2146 -0.3302
 2411SOL    HW118692   0.465   2.696   4.113  0.5780  0.2194 -0.4200
 2411SOL    HW218693   0.346   2.726   4.189  2.0972  0.0945  2.2273
 2412SOL     OW18694   0.343   3.849   0.528  0.0556  0.5677  0.5859
 2412SOL    HW118695   0.335   3.943   0.512 -1.3566 -0.2164 -3.1821
 2412SOL    HW218696   0.300   3.841   0.613 -1.7529  1.6512 -0.2250
 2413SOL     OW18697   2.579   4.216   3.328  0.3561 -0.2077 -0.5310
 2413SOL    HW118698   2.607   4.232   3.237  1.6513  3.1973  0.4496
 2413SOL    HW218699   2.560   4.123   3.328  1.2056 -0.3761 -0.5271
 2414SOL     OW18700   2.190   3.041   7.917 -0.0301 -0.8221  0.4158
 2414SOL    HW118701   2.230   3.051   7.831 -2.3481 -1.0482 -0.6752
 2414SOL    HW218702   2.242   3.102   7.970  1.7804  0.4945 -2.8837
 2415SOL     OW18703   2.195   3.580   2.391 -0.7178  0.2469 -0.6148
 2415SOL    HW118704   2.232   3.495   2.416 -2.1424  0.4358  2.1866
 2415SOL    HW218705   2.268   3.636   2.420 -1.6964 -0.0450  2.4352
 2416SOL     OW18706   1.581   1.292   4.888 -0.1526  0.0237  0.2225
 2416SOL    HW118707   1.665   1.249   4.870 -0.3986 -0.5053  0.3617
 2416SOL    HW218708   1.601   1.347   4.964  0.2934 -0.2466  0.3040
 2417SOL     OW18709   2.104   0.744   3.205 -0.0377 -0.5244  0.0946
 2417SOL    HW118710   2.186   0.790   3.224 -0.0721 -0.9921  1.3284
 2417SOL    HW218711   2.106   0.668   3.263 -2.3815 -0.1456  0.6605
 2418SOL     OW18712   3.332   3.298   2.880 -0.4760 -0.0530  0.2524
 2418SOL    HW118713   3.260   3.252   2.923 -0.7853  0.8332  0.6880
 2418SOL    HW218714   3.404   3.236   2.865 -0.0468  0.6336 -0.4793
 2419SOL     OW18715   0.645   2.662  11.282 -0.0960  0.0562 -0.3299
 2419SOL    HW118716   0.584   2.661  11.356 -0.1091  0.1348 -0.3392
 2419SOL    HW218717   0.585   2.686  11.211 -1.5630  1.6298  1.4666
 2420SOL     OW18718   4.330   0.538   8.972  0.8255  0.2046 -0.3216
 2420SOL    HW118719   4.339   0.630   8.949  1.7893 -0.1462 -1.3609
 2420SOL    HW218720   4.235   0.544   8.987  0.9740  2.2524 -0.2874
 2421SOL     OW18721   1.315   0.984   6.087  0.2302 -0.4013  0.4390
 2421SOL    HW118722   1.266   1.065   6.079  2.3701  1.0965  2.6911
 2421SOL    HW218723   1.315   0.951   5.997 -3.9357  1.3679 -0.2056
 2422SOL     OW18724   0.059   0.865   7.420 -0.7491  0.7726 -1.0676
 2422SOL    HW118725   0.122   0.910   7.477 -1.0823 -0.7002  0.4500
 2422SOL    HW218726   0.002   0.941   7.409 -1.5637  0.3921  0.6492
 2423SOL     OW18727   3.835   0.126   3.803  0.1748 -0.6339  0.6019
 2423SOL    HW118728   3.898   0.063   3.837  0.5233 -1.0478 -0.8368
 2423SOL    HW218729   3.758   0.071   3.790 -1.0437  1.1791  0.1068
 2424SOL     OW18730   3.878   3.209  16.056 -0.4725  0.2170  0.2327
 2424SOL    HW118731   3.955   3.264  16.064 -0.4884 -0.0197  2.0658
 2424SOL    HW218732   3.909   3.121  16.076 -0.5950  0.0889 -0.1340
 2425SOL     OW18733   3.825   0.667   6.193  0.1203 -0.2009 -1.0389
 2425SOL    HW118734   3.898   0.679   6.253 -0.1969 -0.2294 -0.6480
 2425SOL    HW218735   3.768   0.738   6.221  1.2154  1.2415 -2.4248
 2426SOL     OW18736   0.966   0.557  10.083  0.0041  0.6909 -0.0110
 2426SOL    HW118737   0.944   0.464  10.086  1.3276  0.3567 -1.1022
 2426SOL    HW218738   0.944   0.582   9.994 -0.1802  0.3842 -0.0518
 2427SOL     OW18739   3.899   0.774  12.864  0.5898 -0.4078 -0.4771
 2427SOL    HW118740   3.895   0.745  12.955  0.0988  0.1038 -0.3340
 2427SOL    HW218741   3.966   0.715  12.829 -0.4264 -1.0708 -1.3102
 2428SOL     OW18742   3.705   3.095   4.068 -0.2539  0.4648  1.0169
 2428SOL    HW118743   3.700   3.162   4.000 -0.4696 -1.7976 -1.1935
 2428SOL    HW218744   3.688   3.019   4.012 -0.5743  0.0528  1.6724
 2429SOL     OW18745   3.942   4.548   5.689  0.0958  0.1389 -0.3658
 2429SOL    HW118746   3.981   4.629   5.656  0.3044  0.0086 -0.4419
 2429SOL    HW218747   4.026   4.507   5.711  1.2163  2.4764 -0.2899
 2430SOL     OW18748   1.178   1.556   4.662  0.0158 -0.1657  0.1510
 2430SOL    HW118749   1.236   1.484   4.685  0.0697 -0.1661  0.0126
 2430SOL    HW218750   1.157   1.548   4.569  0.5575  0.7298 -0.0480
 2431SOL     OW18751   2.607   1.541   5.912  0.2080 -0.1985  0.2923
 2431SOL    HW118752   2.566   1.548   5.999  0.1089 -0.3962  0.2620
 2431SOL    HW218753   2.678   1.604   5.920  0.8427 -0.9355  0.4352
 2432SOL     OW18754   0.045   3.259  12.777 -0.6338 -0.0007 -0.0016
 2432SOL    HW118755   4.679   3.225  12.755 -1.1562  1.2602  0.1298
 2432SOL    HW218756   0.076   3.191  12.836 -1.7462  1.0167  1.7580
 2433SOL     OW18757   2.566   3.749  11.716  0.2055 -0.3287 -0.2111
 2433SOL    HW118758   2.628   3.795  11.772  0.7120  0.3676 -1.3538
 2433SOL    HW218759   2.625   3.694  11.665  0.2729 -0.1399 -0.3350
 2434SOL     OW18760   4.225   3.475   6.715 -0.0410 -0.9758  0.1166
 2434SOL    HW118761   4.166   3.543   6.747  0.6749  0.4974 -1.7557
 2434SOL    HW218762   4.173   3.396   6.733 -3.9135  1.2824 -1.1728
 2435SOL     OW18763   2.898   2.449   4.496  0.2996  0.4311 -0.0316
 2435SOL    HW118764   2.950   2.393   4.438 -1.3666 -2.0675  0.8646
 2435SOL    HW218765   2.958   2.523   4.502  0.2773  0.3951  0.6253
 2436SOL     OW18766   0.153   2.436  17.219  0.9579  0.6123  0.2671
 2436SOL    HW118767   0.241   2.424  17.253  1.9441  0.2142 -2.4159
 2436SOL    HW218768   0.167   2.435  17.124  2.8755 -2.0640  0.5644
 2437SOL     OW18769   2.233   0.322   8.490  0.2954  0.0658 -0.0627
 2437SOL    HW118770   2.301   0.343   8.426  0.0705  0.8082 -0.0597
 2437SOL    HW218771   2.165   0.281   8.437  1.2827  1.0016 -2.0207
 2438SOL     OW18772   4.219   1.994   8.552 -0.2981  0.1021  0.2167
 2438SOL    HW118773   4.129   1.962   8.543 -0.3554  0.4674 -0.4877
 2438SOL    HW218774   4.239   1.988   8.458  0.2874  1.3764  0.2614
 2439SOL     OW18775   4.325   2.014  15.627 -0.2398  0.4387 -0.2833
 2439SOL    HW118776   4.356   2.092  15.581 -1.3138  0.4960 -0.9230
 2439SOL    HW218777   4.245   2.048  15.668 -0.2755  0.1002 -0.0763
 2440SOL     OW18778   0.745   1.587   2.708  0.0401 -0.6842  0.1331
 2440SOL    HW118779   0.732   1.538   2.790  1.2434 -0.4148  0.4913
 2440SOL    HW218780   0.790   1.527   2.648 -0.1532  0.0971 -0.7944
 2441SOL     OW18781   1.049   1.996   4.402 -0.1045  0.5133  0.0171
 2441SOL    HW118782   0.958   2.020   4.385 -0.4239  0.5050  1.7139
 2441SOL    HW218783   1.090   2.082   4.403 -0.1561  0.5240  0.9168
 2442SOL     OW18784   3.845   0.943  16.929  0.4900 -0.1294 -0.1452
 2442SOL    HW118785   3.790   0.992  16.868 -1.4950 -0.8485  1.0788
 2442SOL    HW218786   3.799   0.862  16.952  0.2063 -0.3633 -1.5609
 2443SOL     OW18787   0.613   1.635   2.063 -0.2678 -0.1434 -0.4830
 2443SOL    HW118788   0.678   1.569   2.037  2.2886  1.3831  2.1063
 2443SOL    HW218789   0.624   1.649   2.157  0.0655 -1.1272 -0.3674
 2444SOL     OW18790   4.178   0.801   5.178  0.2582  0.1144  0.2590
 2444SOL    HW118791   4.248   0.745   5.143  0.9358  1.8250 -1.1784
 2444SOL    HW218792   4.124   0.828   5.103  0.7258  2.7671  0.8729
 2445SOL     OW18793   3.781   0.476   8.721 -0.0757  0.1138  0.3295
 2445SOL    HW118794   3.796   0.458   8.814 -0.7442 -1.2327  0.1673
 2445SOL    HW218795   3.844   0.548   8.711 -0.7554  0.9211  1.7774
 2446SOL     OW18796   1.467   1.112   5.479  0.3260 -0.1377 -0.8710
 2446SOL    HW118797   1.488   1.180   5.415  0.7979  0.0557 -0.5159
 2446SOL    HW218798   1.531   1.122   5.550 -0.2298 -0.7671 -0.2786
 2447SOL     OW18799   1.365   4.369   1.307  0.2806  0.3608  0.4077
 2447SOL    HW118800   1.308   4.447   1.310  1.6993  1.2891  2.7997
 2447SOL    HW218801   1.377   4.372   1.212  0.0281  0.5366  0.3804
 2448SOL     OW18802   4.686   2.724   9.139  0.9594 -0.6062  0.1379
 2448SOL    HW118803   0.045   2.738   9.089  0.6398 -1.1663 -0.5237
 2448SOL    HW218804   4.693   2.634   9.170 -1.2642  0.1410  2.8671
 2449SOL     OW18805   0.982   4.140   6.420  0.0004  0.2633 -0.5640
 2449SOL    HW118806   1.053   4.194   6.454  0.5320 -0.9696  0.2884
 2449SOL    HW218807   1.029   4.061   6.446 -0.6045 -0.4814 -1.7303
 2450SOL     OW18808   0.336   4.013  16.012  0.2817  0.3394  0.5555
 2450SOL    HW118809   0.324   3.920  15.993 -2.5102  1.0349 -1.0925
 2450SOL    HW218810   0.254   4.028  16.060 -1.0723  1.0726 -1.9729
 2451SOL     OW18811   3.070   0.770   6.844  0.4390  0.2524  0.4707
 2451SOL    HW118812   2.974   0.769   6.847  0.4738 -1.2591  0.7329
 2451SOL    HW218813   3.093   0.706   6.777 -1.5718 -1.5060  1.4607
 2452SOL     OW18814   3.930   4.674   5.210  0.3820 -0.2128  0.2523
 2452SOL    HW118815   3.968   4.696   5.125 -3.4449  1.4982 -1.0410
 2452SOL    HW218816   3.912   4.582   5.192 -1.0176  0.4810 -1.9406
 2453SOL     OW18817   3.811   0.703   0.156 -0.0048  0.0006 -0.3448
 2453SOL    HW118818   3.716   0.697   0.150  0.0514  2.1678 -3.4239
 2453SOL    HW218819   3.821   0.768   0.086 -3.3358  0.2015 -0.6391
 2454SOL     OW18820   0.453   1.111  15.014  0.0307  0.1170 -0.4299
 2454SOL    HW118821   0.510   1.036  15.029  1.9166  1.3969 -1.0329
 2454SOL    HW218822   0.475   1.164  15.092  0.0070  0.5250 -0.6984
 2455SOL     OW18823   1.619   0.555   7.671  0.3435  0.1869  0.0882
 2455SOL    HW118824   1.545   0.615   7.676 -0.4912 -0.9134  1.1023
 2455SOL    HW218825   1.665   0.584   7.750 -1.9161  2.1308  0.6955
 2456SOL     OW18826   0.447   4.202  12.466  0.3765  0.4609 -0.2340
 2456SOL    HW118827   0.479   4.156  12.543  0.3501 -1.6734 -1.5068
 2456SOL    HW218828   0.522   4.257  12.444  0.2551  0.9011  0.4455
 2457SOL     OW18829   3.308   1.383   6.990 -0.0374 -0.3233  0.2803
 2457SOL    HW118830   3.224   1.346   6.962  0.1348 -0.1225 -0.5168
 2457SOL    HW218831   3.352   1.300   7.010 -0.6767 -0.0615  2.6994
 2458SOL     OW18832   2.646   3.044   2.490  0.9992  0.5082  0.0558
 2458SOL    HW118833   2.705   3.014   2.421 -0.3440  0.8817 -1.2603
 2458SOL    HW218834   2.676   2.987   2.561  0.5714  0.4733  0.2079
 2459SOL     OW18835   3.381   2.719  15.372 -0.2999 -0.0326  0.0160
 2459SOL    HW118836   3.454   2.661  15.353  0.3764  1.0302 -0.6014
 2459SOL    HW218837   3.423   2.801  15.346 -2.7938  1.8413  1.9101
 2460SOL     OW18838   1.480   1.256   3.463  0.1941 -0.2034 -0.2623
 2460SOL    HW118839   1.475   1.289   3.553  2.0889 -1.0459  0.1514
 2460SOL    HW218840   1.535   1.320   3.418 -0.8976  0.6131 -0.4504
 2461SOL     OW18841   2.731   0.049   6.439  0.0001  0.1263  0.0235
 2461SOL    HW118842   2.757   0.133   6.402 -0.4160  1.3158  2.3697
 2461SOL    HW218843   2.725   0.075   6.531  1.7131 -2.0093  0.7314
 2462SOL     OW18844   1.658   2.951   3.359 -0.3195  0.0385  0.4050
 2462SOL    HW118845   1.664   2.929   3.452  1.6284 -3.0394 -0.4565
 2462SOL    HW218846   1.736   2.907   3.327 -0.8840 -1.5923  1.2573
 2463SOL     OW18847   3.059   3.119  13.650  0.0333  0.2285  0.4135
 2463SOL    HW118848   3.061   3.155  13.738 -0.6951 -2.6177  1.5622
 2463SOL    HW218849   2.983   3.170  13.621 -1.7303 -1.4721  2.0951
 2464SOL     OW18850   3.741   1.536   4.187 -0.3635 -0.3276 -0.3977
 2464SOL    HW118851   3.732   1.552   4.281 -4.0078  0.2384 -0.8153
 2464SOL    HW218852   3.689   1.611   4.156  1.1898  0.9623  0.0932
 2465SOL     OW18853   1.504   1.317   6.863 -0.1464  0.1935  0.2814
 2465SOL    HW118854   1.576   1.357   6.814  0.8365 -1.1778  0.6297
 2465SOL    HW218855   1.535   1.229   6.843  1.5515  1.0148 -0.7624
 2466SOL     OW18856   4.209   1.933   1.843  0.1622 -0.5847  0.4560
 2466SOL    HW118857   4.300   1.958   1.856 -0.2810  1.0105  0.4739
 2466SOL    HW218858   4.179   2.015   1.804 -0.0429 -1.1592 -0.5987
 2467SOL     OW18859   3.162   4.645   6.149 -0.5511  0.0910  0.0429
 2467SOL    HW118860   3.156   4.608   6.237  1.4756  1.3799  0.7192
 2467SOL    HW218861   3.111   4.587   6.093 -1.8877  1.7591 -0.4993
 2468SOL     OW18862   1.312   1.206   4.950 -0.4067 -0.4099  0.8595
 2468SOL    HW118863   1.279   1.141   4.888 -0.2261 -1.1560  1.5481
 2468SOL    HW218864   1.407   1.214   4.935 -0.3836  0.6690  1.6103
 2469SOL     OW18865   3.335   0.021   7.954  0.7517 -0.1676  0.1020
 2469SOL    HW118866   3.372   4.696   8.029  0.4078  0.7774  0.8485
 2469SOL    HW218867   3.241   0.013   7.971  0.5891 -1.6567 -1.5002
 2470SOL     OW18868   1.668   0.572  13.626  0.6445 -0.1883 -0.2480
 2470SOL    HW118869   1.753   0.560  13.584  0.5182 -1.6585 -0.0613
 2470SOL    HW218870   1.646   0.659  13.592 -0.4622 -0.6156 -0.6112
 2471SOL     OW18871   0.120   1.784  14.402  0.2738  0.1929  0.1620
 2471SOL    HW118872   0.066   1.723  14.453  2.1078  0.5116  2.4636
 2471SOL    HW218873   0.180   1.808  14.472 -0.7235  0.9173  0.7632
 2472SOL     OW18874   3.008   1.005   0.336  0.0484  0.1580  0.0970
 2472SOL    HW118875   3.058   0.993   0.255  0.5824  3.2993 -0.0125
 2472SOL    HW218876   3.019   0.922   0.383 -1.2302 -0.3185 -0.4465
 2473SOL     OW18877   1.632   0.844   8.704 -0.1687  0.3706  0.4624
 2473SOL    HW118878   1.716   0.887   8.719 -0.3646  1.0243 -0.3115
 2473SOL    HW218879   1.658   0.756   8.680 -1.4891 -0.6829  2.8403
 2474SOL     OW18880   1.748   3.816  14.125  0.0707 -0.3729 -0.4767
 2474SOL    HW118881   1.707   3.820  14.039 -0.8107  2.0996  0.0667
 2474SOL    HW218882   1.676   3.848  14.179 -0.1115 -0.7922 -0.4687
 2475SOL     OW18883   1.488   2.858   4.476  0.1173 -0.3385 -0.0163
 2475SOL    HW118884   1.482   2.853   4.572 -2.2507 -0.2761 -0.1422
 2475SOL    HW218885   1.471   2.952   4.465 -0.0154 -0.2879  0.5828
 2476SOL     OW18886   0.435   0.717   4.481 -0.2565 -0.5889  0.2628
 2476SOL    HW118887   0.394   0.647   4.431 -1.8506  0.4143  0.1825
 2476SOL    HW218888   0.514   0.671   4.511 -1.9897 -3.8230 -0.1569
 2477SOL     OW18889   0.912   3.916   2.295 -0.2570  0.0166  0.0356
 2477SOL    HW118890   0.877   3.835   2.331  0.1224  0.2961  1.0263
 2477SOL    HW218891   0.867   3.911   2.211 -3.0599 -0.4584  1.5928
 2478SOL     OW18892   3.987   4.473   9.625  0.0402 -0.2133  0.1267
 2478SOL    HW118893   4.025   4.443   9.542  0.7612 -0.3677  0.5164
 2478SOL    HW218894   3.914   4.414   9.644 -1.7900  2.7470  2.2547
 2479SOL     OW18895   2.136   0.096   9.236 -0.1122  0.1152  0.2154
 2479SOL    HW118896   2.100   0.016   9.198  0.1429 -0.2326  0.7135
 2479SOL    HW218897   2.131   0.159   9.164 -1.6904  0.5245  0.6913
 2480SOL     OW18898   3.283   1.811  11.015  0.4053 -0.0961  0.4701
 2480SOL    HW118899   3.286   1.772  11.103  0.2549 -0.4210  0.3312
 2480SOL    HW218900   3.348   1.758  10.969 -0.4092 -1.3508  0.7595
 2481SOL     OW18901   1.240   2.845  11.653  0.0077  0.2356 -0.5620
 2481SOL    HW118902   1.150   2.856  11.623 -0.2829 -0.2991  0.0947
 2481SOL    HW218903   1.267   2.937  11.660  0.0414  0.2863 -1.4545
 2482SOL     OW18904   2.195   1.070   3.109  0.1126  0.0340  0.2031
 2482SOL    HW118905   2.221   1.002   3.170 -1.2319 -1.8395 -1.2852
 2482SOL    HW218906   2.136   1.030   3.045 -0.8742 -0.7590  1.6136
 2483SOL     OW18907   4.405   3.800   7.995 -0.3954  0.0979  0.1331
 2483SOL    HW118908   4.446   3.856   7.929 -0.8026  0.3488  0.0946
 2483SOL    HW218909   4.331   3.858   8.015 -0.1991 -0.1919  1.6897
 2484SOL     OW18910   2.112   4.008   7.129 -0.2333 -0.4092  0.1970
 2484SOL    HW118911   2.023   3.999   7.162  0.1623  1.9711  1.8868
 2484SOL    HW218912   2.130   4.102   7.135 -0.4191 -0.4779  1.6520
 2485SOL     OW18913   3.578   1.734  14.826 -0.3547 -0.0296  0.3049
 2485SOL    HW118914   3.544   1.775  14.746 -1.1120 -1.9437 -0.3727
 2485SOL    HW218915   3.496   1.697  14.859 -0.9539  0.0885 -1.0482
 2486SOL     OW18916   1.106   3.434   7.963  0.4725  0.3847 -0.1450
 2486SOL    HW118917   1.158   3.451   7.885 -0.8129  1.6395 -0.7087
 2486SOL    HW218918   1.029   3.485   7.940 -0.4547 -0.5117  0.9529
 2487SOL     OW18919   0.387   3.317  12.527  0.0134 -0.3402 -0.2236
 2487SOL    HW118920   0.397   3.375  12.452 -0.8141  2.7441  2.0392
 2487SOL    HW218921   0.477   3.286  12.541 -0.1464 -1.3674 -1.5560
 2488SOL     OW18922   3.967   2.884   8.424 -0.2394 -0.0998 -0.3863
 2488SOL    HW118923   3.980   2.952   8.357 -1.9967 -0.1210 -0.7468
 2488SOL    HW218924   4.010   2.918   8.503 -0.9794  0.7330 -0.3381
 2489SOL     OW18925   1.954   1.068   5.479  0.5074 -0.2459  0.2460
 2489SOL    HW118926   1.917   1.003   5.539  1.5280 -0.2473  0.8715
 2489SOL    HW218927   1.923   1.149   5.520  0.2307 -0.4646  0.4644
 2490SOL     OW18928   1.503   4.606   9.113 -0.2394  0.5751  0.1050
 2490SOL    HW118929   1.491   4.681   9.171  2.2377  1.2075 -0.1957
 2490SOL    HW218930   1.594   4.583   9.132  0.2784 -1.1789 -4.2917
 2491SOL     OW18931   2.478   0.048   6.851 -0.2700 -0.2771  0.1809
 2491SOL    HW118932   2.402   0.069   6.796  1.1254  0.6216 -1.3836
 2491SOL    HW218933   2.444   4.716   6.923  0.5237  0.0069  0.7560
 2492SOL     OW18934   4.572   0.032  16.604 -0.4180 -0.3076  0.8096
 2492SOL    HW118935   4.526   4.696  16.543  0.5128 -0.4482  0.2357
 2492SOL    HW218936   4.653   0.042  16.554 -0.0616 -0.7498  1.3049
 2493SOL     OW18937   3.930   3.884   8.272  0.3628  0.4283  0.5396
 2493SOL    HW118938   3.926   3.971   8.312 -1.5888  0.2121  0.8062
 2493SOL    HW218939   3.843   3.871   8.233 -0.1866 -0.9975  2.2611
 2494SOL     OW18940   2.669   4.020  17.194  0.6901 -0.2243 -0.0242
 2494SOL    HW118941   2.667   3.934  17.152  0.7171  0.5380 -1.5728
 2494SOL    HW218942   2.700   4.073  17.120 -2.3184 -1.2550 -1.9972
 2495SOL     OW18943   1.959   0.469  12.653  0.3928  0.5944  0.1781
 2495SOL    HW118944   2.005   0.457  12.570  0.0749  0.0433  0.0792
 2495SOL    HW218945   2.003   0.410  12.713 -1.5429 -0.2910  0.7421
 2496SOL     OW18946   0.538   3.599  11.260  0.1842 -0.1245 -0.1364
 2496SOL    HW118947   0.475   3.598  11.188 -1.3984  0.2054  1.2269
 2496SOL    HW218948   0.530   3.690  11.291 -0.7573 -1.3912  3.3595
 2497SOL     OW18949   1.017   0.938   5.354  0.2307 -0.1590  0.3095
 2497SOL    HW118950   1.038   1.031   5.356  1.8445 -0.5181  0.3073
 2497SOL    HW218951   0.989   0.921   5.444 -0.7526  0.6769  0.1514
 2498SOL     OW18952   2.255   2.731   3.455 -0.0406  0.5807  0.3293
 2498SOL    HW118953   2.342   2.705   3.486 -0.1038 -2.7485 -2.2798
 2498SOL    HW218954   2.226   2.791   3.523 -1.5278  0.4559 -0.1927
 2499SOL     OW18955   3.440   1.831   4.480  0.2019  0.1682 -0.1856
 2499SOL    HW118956   3.391   1.903   4.440 -1.2763 -0.7403 -0.0109
 2499SOL    HW218957   3.443   1.770   4.406  1.2552 -0.7208  0.5872
 2500SOL     OW18958   1.007   3.972   7.219 -0.3571  0.0691  0.5174
 2500SOL    HW118959   0.944   3.997   7.287 -2.4721  1.6925 -2.0393
 2500SOL    HW218960   0.944   3.945   7.152  2.1070 -0.2294 -1.6308
 2501SOL     OW18961   3.808   1.665   3.426  0.1483 -0.4808 -0.0971
 2501SOL    HW118962   3.794   1.757   3.407 -1.2029 -0.6246  0.2127
 2501SOL    HW218963   3.724   1.638   3.388  0.0301  1.3327 -1.1048
 2502SOL     OW18964   1.554   1.120  11.758 -0.0710 -0.9999  0.2571
 2502SOL    HW118965   1.578   1.089  11.846  1.0354  2.0389  1.0110
 2502SOL    HW218966   1.556   1.216  11.757 -0.3323 -1.0613 -3.8527
 2503SOL     OW18967   0.194   2.026   9.645 -0.2785  0.1574 -0.1332
 2503SOL    HW118968   0.164   2.041   9.735  0.3960  0.8482 -0.0301
 2503SOL    HW218969   0.267   2.088   9.638 -1.2213  1.3656  0.8240
 2504SOL     OW18970   4.622   2.573   3.340 -0.4488  0.4154 -0.2180
 2504SOL    HW118971   4.676   2.644   3.304  0.2501  1.4836  2.9670
 2504SOL    HW218972   4.545   2.592   3.287 -0.8390  0.8652  0.5156
 2505SOL     OW18973   3.017   3.048   6.748 -0.5279 -0.2749  0.0197
 2505SOL    HW118974   2.933   3.008   6.772 -0.6752  0.1886  0.2885
 2505SOL    HW218975   3.042   2.997   6.671  2.9241  0.9460  0.3638
 2506SOL     OW18976   2.604   1.259   5.857  0.5747 -0.5587 -0.5443
 2506SOL    HW118977   2.655   1.340   5.860 -0.0928 -0.2088  1.3830
 2506SOL    HW218978   2.667   1.197   5.893 -0.4999 -1.1892  0.2400
 2507SOL     OW18979   1.755   0.016   7.195  0.4183  0.2866 -0.2428
 2507SOL    HW118980   1.769   0.094   7.140  1.1346  0.6089  0.4150
 2507SOL    HW218981   1.667   0.001   7.158 -0.7481  4.0203  1.0283
 2508SOL     OW18982   1.808   3.135   0.919  0.0142  0.0174  0.7046
 2508SOL    HW118983   1.807   3.169   0.830  2.0587 -0.9687  0.2950
 2508SOL    HW218984   1.773   3.046   0.907  0.5977  0.5045 -4.4954
 2509SOL     OW18985   0.577   4.615   3.573  0.0452 -0.2799 -0.3709
 2509SOL    HW118986   0.650   4.617   3.511  0.2789  1.7388 -0.0528
 2509SOL    HW218987   0.617   4.573   3.649 -1.2383 -0.7311  0.0558
 2510SOL     OW18988   0.466   3.502  12.776 -0.0251 -0.1609  0.1311
 2510SOL    HW118989   0.445   3.458  12.693  3.7547 -2.2180  0.2540
 2510SOL    HW218990   0.384   3.487  12.823  0.2512  1.1107  1.0167
 2511SOL     OW18991   4.226   0.168  16.741 -0.0532 -0.2491 -0.3017
 2511SOL    HW118992   4.258   0.137  16.655 -3.8989  0.5661 -2.0005
 2511SOL    HW218993   4.278   0.247  16.753  0.7577 -1.1194  1.9903
 2512SOL     OW18994   3.855   0.343  11.972 -0.3382 -0.2114  0.4019
 2512SOL    HW118995   3.799   0.271  12.002 -0.3960 -0.9715 -1.5342
 2512SOL    HW218996   3.804   0.422  11.988 -2.0476 -1.2801  0.1665
 2513SOL     OW18997   3.683   4.514   5.194 -0.2326 -0.1208  0.3188
 2513SOL    HW118998   3.624   4.476   5.259  0.2909  0.9655  1.4261
 2513SOL    HW218999   3.691   4.599   5.236 -0.5294  0.8843 -1.6761
 2514SOL     OW19000   2.183   1.661  17.481  0.1264  0.0581 -0.3711
 2514SOL    HW119001   2.098   1.682  17.518  0.4695  1.0080 -0.1253
 2514SOL    HW219002   2.154   1.595  17.418  2.5722 -2.5393  1.2346
 2515SOL     OW19003   1.164   4.583   8.497  0.2824  0.6264 -0.2759
 2515SOL    HW119004   1.173   4.628   8.413  2.1120  0.3304 -0.2426
 2515SOL    HW219005   1.099   4.515   8.483  0.1932 -0.1546  3.8978
 2516SOL     OW19006   0.005   1.382   4.957  0.0738  0.6287 -0.3514
 2516SOL    HW119007   0.015   1.328   5.035 -3.3627  1.0611  0.3904
 2516SOL    HW219008   0.090   1.427   4.957  1.1343 -1.4312  1.5079
 2517SOL     OW19009   1.645   3.722   3.740 -0.0371 -0.1720  0.6189
 2517SOL    HW119010   1.727   3.698   3.697 -1.2181 -0.3828 -1.4944
 2517SOL    HW219011   1.581   3.653   3.719 -0.4261  0.1530  0.7452
 2518SOL     OW19012   1.898   3.070   6.849  0.3170 -0.4795  0.6398
 2518SOL    HW119013   1.848   3.056   6.930 -1.3720 -1.6191 -0.5857
 2518SOL    HW219014   1.854   3.014   6.785 -0.9605  0.5054  0.6522
 2519SOL     OW19015   2.947   4.649   8.464  0.1811 -0.1155  0.1329
 2519SOL    HW119016   2.974   4.621   8.551 -0.7691  1.6468  0.9855
 2519SOL    HW219017   3.028   4.674   8.420 -1.0174  0.4831 -1.7272
 2520SOL     OW19018   2.461   4.070   0.017 -0.3997  0.1650 -0.3979
 2520SOL    HW119019   2.369   4.044   0.009 -0.1974 -1.1855  1.5325
 2520SOL    HW219020   2.458   4.140  17.641  1.3377  0.1902 -0.4559
 2521SOL     OW19021   2.670   3.664   5.666  0.1621 -0.1068 -0.1898
 2521SOL    HW119022   2.599   3.659   5.603 -0.6577  0.1644  0.7035
 2521SOL    HW219023   2.697   3.573   5.677 -0.7423 -0.0345  2.5617
 2522SOL     OW19024   1.154   2.492   7.400 -0.3930 -0.2528  0.1721
 2522SOL    HW119025   1.133   2.422   7.461 -1.8279  1.2525  1.3895
 2522SOL    HW219026   1.083   2.499   7.336  0.0899 -0.9746 -0.4543
 2523SOL     OW19027   4.461   3.979   2.606 -0.1106  0.0101  0.2912
 2523SOL    HW119028   4.529   3.912   2.611  0.2858  0.5338  2.0420
 2523SOL    HW219029   4.438   3.983   2.513 -0.8734  0.6406  0.5083
 2524SOL     OW19030   1.728   0.535   3.035  0.1341 -0.4133  0.2290
 2524SOL    HW119031   1.754   0.536   3.127 -1.9347 -2.2555  0.8400
 2524SOL    HW219032   1.800   0.476   3.012  1.2476  1.0989 -0.1571
 2525SOL     OW19033   2.087   2.909   8.613 -0.4060 -0.2239 -0.4384
 2525SOL    HW119034   2.035   2.837   8.577  0.9352 -1.0266 -0.7655
 2525SOL    HW219035   2.055   2.912   8.703  1.5722 -0.2286  0.2678
 2526SOL     OW19036   2.657   4.114   9.209 -0.0303 -0.6612 -0.0010
 2526SOL    HW119037   2.609   4.123   9.292  0.3774  0.4442  0.1259
 2526SOL    HW219038   2.747   4.099   9.237  0.8713  1.1008 -1.9216
 2527SOL     OW19039   0.729   4.178   8.601  0.2811  0.0691  0.1738
 2527SOL    HW119040   0.635   4.171   8.584 -0.0679  0.8814  1.7585
 2527SOL    HW219041   0.725   4.273   8.616  0.6200  0.2187 -0.6657
 2528SOL     OW19042   3.852   1.753  14.804  0.3654 -0.0388 -0.4926
 2528SOL    HW119043   3.764   1.748  14.767 -0.3012 -2.6635  1.4580
 2528SOL    HW219044   3.824   1.747  14.896 -3.2050 -0.0859 -1.5589
 2529SOL     OW19045   2.503   2.614   6.415  0.7068  0.5791 -0.6121
 2529SOL    HW119046   2.542   2.661   6.342  2.2098  0.0152 -0.1829
 2529SOL    HW219047   2.519   2.667   6.493  0.8728 -1.7471  0.9592
 2530SOL     OW19048   2.163   0.089  14.335 -0.3337 -0.7193  0.0915
 2530SOL    HW119049   2.077   0.050  14.319 -0.8451 -0.4213  2.0670
 2530SOL    HW219050   2.200   0.033  14.403  1.1006 -0.7790 -0.7246
 2531SOL     OW19051   3.066   3.986  12.367  0.5360  0.7968 -0.1351
 2531SOL    HW119052   3.016   3.930  12.307  3.2700 -0.7375 -0.9556
 2531SOL    HW219053   3.001   4.055  12.383 -1.4477 -0.8635 -1.0449
 2532SOL     OW19054   2.109   0.353   2.353 -0.3631  0.2847 -0.5634
 2532SOL    HW119055   2.184   0.309   2.392 -0.3970  1.1226  0.4734
 2532SOL    HW219056   2.064   0.392   2.429 -1.0953  2.2944 -2.0244
 2533SOL     OW19057   2.731   1.156   2.145  0.0081 -0.2360  0.4671
 2533SOL    HW119058   2.661   1.192   2.199  0.4168 -0.0269  0.8602
 2533SOL    HW219059   2.678   1.089   2.102 -1.2559  1.0665  0.0321
 2534SOL     OW19060   1.859   2.983   5.502 -0.1740  0.4641  0.3891
 2534SOL    HW119061   1.836   2.994   5.410  1.3367  0.9937  0.0893
 2534SOL    HW219062   1.803   3.052   5.537 -0.5965  0.3494 -0.0555
 2535SOL     OW19063   3.371   0.329   2.914 -0.1516  0.0715  0.2887
 2535SOL    HW119064   3.385   0.281   2.832  0.3085 -0.3787  0.6335
 2535SOL    HW219065   3.282   0.363   2.904  0.6959  2.2894  0.2471
 2536SOL     OW19066   0.192   0.773   1.794  0.0066  0.0226  0.1455
 2536SOL    HW119067   0.112   0.809   1.832  0.5561  1.1934  0.1840
 2536SOL    HW219068   0.199   0.697   1.851  0.5315 -0.0448 -0.0025
 2537SOL     OW19069   3.502   0.627  14.165 -0.0666 -0.4678  0.1033
 2537SOL    HW119070   3.497   0.666  14.252  2.6470  0.3937 -0.1313
 2537SOL    HW219071   3.512   0.535  14.191  0.5592 -0.1284  1.0452
 2538SOL     OW19072   3.995   2.186   4.566 -0.0703 -0.5028 -0.0707
 2538SOL    HW119073   3.991   2.276   4.531 -0.0426 -1.3872 -2.3722
 2538SOL    HW219074   3.978   2.135   4.487  2.8691 -1.1701 -0.2577
 2539SOL     OW19075   1.938   0.963   3.654  0.1425  0.5687 -0.4824
 2539SOL    HW119076   1.891   0.938   3.574 -0.5539  0.5969 -0.0840
 2539SOL    HW219077   2.024   0.992   3.623  0.9703 -0.9002  0.4688
 2540SOL     OW19078   2.840   1.676   5.931 -0.5146 -0.2592  0.3349
 2540SOL    HW119079   2.910   1.611   5.918  0.2000  0.7448 -0.8151
 2540SOL    HW219080   2.859   1.733   6.006 -2.7839  0.8177  0.0902
 2541SOL     OW19081   2.221   0.132   6.731  0.0681  0.5833  0.2844
 2541SOL    HW119082   2.187   0.098   6.813 -0.5505 -3.2406 -1.5866
 2541SOL    HW219083   2.198   0.222   6.755 -0.0540  0.1236  1.8885
 2542SOL     OW19084   2.180   3.749   8.112  0.2182 -0.2158 -0.4946
 2542SOL    HW119085   2.233   3.828   8.126  0.4886 -0.8814  2.1799
 2542SOL    HW219086   2.144   3.744   8.201 -1.4525 -1.0222 -1.2232
 2543SOL     OW19087   2.034   0.986   2.571  0.4107 -0.3926 -1.0984
 2543SOL    HW119088   2.113   0.958   2.616 -0.2537 -0.6900 -0.1091
 2543SOL    HW219089   1.997   0.903   2.540  2.3354 -1.3946 -0.6928
 2544SOL     OW19090   0.617   3.029   2.777  0.2361 -0.4166  0.1331
 2544SOL    HW119091   0.586   3.020   2.687  0.7448  0.8049 -0.1741
 2544SOL    HW219092   0.691   2.968   2.784 -0.2910 -1.0940 -0.2340
 2545SOL     OW19093   0.401   0.578   5.918  0.0090  0.5803  0.4954
 2545SOL    HW119094   0.483   0.537   5.892 -0.1992 -0.4005  1.3630
 2545SOL    HW219095   0.340   0.521   5.871  2.2531 -0.5990 -0.9741
 2546SOL     OW19096   0.255   2.058   2.545 -0.3581 -0.5199  0.4644
 2546SOL    HW119097   0.275   1.989   2.608 -0.8340 -1.0317  0.0590
 2546SOL    HW219098   0.162   2.061   2.523 -0.0071 -0.2236 -0.9725
 2547SOL     OW19099   3.692   1.465   2.782 -0.2113  0.1908 -0.3595
 2547SOL    HW119100   3.639   1.540   2.811 -1.1011 -0.8158  0.6136
 2547SOL    HW219101   3.725   1.502   2.701  1.7960  1.5888  1.0875
 2548SOL     OW19102   4.098   2.272   6.782 -0.3811 -0.3416 -0.2685
 2548SOL    HW119103   4.047   2.333   6.835 -0.5917 -0.6908 -0.0676
 2548SOL    HW219104   4.174   2.329   6.779  0.4085 -1.3240  1.1989
 2549SOL     OW19105   1.474   3.569   2.570  0.0088  0.1890  0.2338
 2549SOL    HW119106   1.515   3.634   2.512  1.3686  0.1394  1.1261
 2549SOL    HW219107   1.513   3.490   2.534  0.5438 -0.5804  2.5059
 2550SOL     OW19108   1.528   4.377   6.922  0.5684  0.6239  0.0352
 2550SOL    HW119109   1.575   4.371   6.839  2.5086 -0.5024  1.2297
 2550SOL    HW219110   1.588   4.426   6.977 -0.9847  0.9735  1.4266
 2551SOL     OW19111   2.601   3.723   3.764 -0.4034  0.4316 -0.3603
 2551SOL    HW119112   2.578   3.712   3.856 -2.0219  2.1313 -0.5726
 2551SOL    HW219113   2.520   3.752   3.723 -0.9169  0.1119  0.4397
 2552SOL     OW19114   2.353   2.031   3.606 -0.1647 -0.1338 -0.2317
 2552SOL    HW119115   2.344   1.975   3.530 -0.4515  0.1026 -0.3727
 2552SOL    HW219116   2.375   2.107   3.551  1.3991 -0.0285  0.5147
 2553SOL     OW19117   3.897   1.133  17.347 -0.4494  0.4791  0.0259
 2553SOL    HW119118   3.913   1.039  17.354 -0.6784  0.4057 -0.4376
 2553SOL    HW219119   3.834   1.148  17.277 -2.6209 -2.0917  1.4604
 2554SOL     OW19120   1.687   0.906  14.248  0.4374  0.4974  0.6938
 2554SOL    HW119121   1.772   0.880  14.284 -0.3656  0.6890  2.7721
 2554SOL    HW219122   1.652   0.956  14.322 -0.0169 -0.5626  1.2070
 2555SOL     OW19123   3.340   3.728   6.771  0.0747  0.0687 -0.4202
 2555SOL    HW119124   3.343   3.823   6.784  1.1921 -0.2480  1.5837
 2555SOL    HW219125   3.282   3.696   6.839 -0.4306  1.6901 -0.0894
 2556SOL     OW19126   1.318   2.692   2.672  0.3517 -0.5777  0.7466
 2556SOL    HW119127   1.240   2.717   2.624  1.4177  0.4591 -0.4514
 2556SOL    HW219128   1.282   2.656   2.753  1.5486 -1.1923  1.0187
 2557SOL     OW19129   0.482   2.690   4.767  0.5492  0.0364 -0.0304
 2557SOL    HW119130   0.491   2.627   4.695  2.3262  0.0083  0.2189
 2557SOL    HW219131   0.422   2.755   4.730 -0.9145 -0.4243  1.5478
 2558SOL     OW19132   2.604   3.069  16.860  0.0677 -0.1398  0.2926
 2558SOL    HW119133   2.682   3.121  16.881  0.9827 -1.5160  0.2597
 2558SOL    HW219134   2.639   3.015  16.790  1.7483  1.6193 -0.2368
 2559SOL     OW19135   0.768   1.871   2.115  0.1294  0.7748  0.6052
 2559SOL    HW119136   0.845   1.876   2.057  0.1092 -0.6864  0.4449
 2559SOL    HW219137   0.730   1.789   2.085 -2.1111  1.2531  2.1993
 2560SOL     OW19138   0.703   2.000   3.264 -0.1293 -0.2353 -0.0752
 2560SOL    HW119139   0.632   2.043   3.215 -1.4448 -0.3509  1.7487
 2560SOL    HW219140   0.771   2.065   3.252  0.5665 -0.8242  0.6739
 2561SOL     OW19141   0.803   2.580   1.903  0.3287 -0.6736 -0.2369
 2561SOL    HW119142   0.860   2.514   1.942 -1.0884 -1.1144  1.1184
 2561SOL    HW219143   0.790   2.625   1.986 -1.5414 -0.8759 -0.4021
 2562SOL     OW19144   1.621   3.303  11.101 -0.1280  0.3946 -0.6196
 2562SOL    HW119145   1.550   3.360  11.130 -0.2338 -1.2535  2.3710
 2562SOL    HW219146   1.654   3.344  11.021 -0.4804 -0.8083 -1.3844
 2563SOL     OW19147   1.403   2.778   7.314  0.2393  0.8708  0.0346
 2563SOL    HW119148   1.436   2.829   7.240  2.3310 -0.7862 -0.1738
 2563SOL    HW219149   1.441   2.831   7.384  3.3393 -0.7520 -0.4074
 2564SOL     OW19150   1.510   1.343   3.762 -0.1039  0.0427  0.3098
 2564SOL    HW119151   1.434   1.388   3.801 -0.6854  1.1136 -2.0508
 2564SOL    HW219152   1.578   1.400   3.798 -0.0058 -0.6451  1.1983
 2565SOL     OW19153   1.985   0.671   8.251 -0.0174  0.3906 -0.2297
 2565SOL    HW119154   2.033   0.644   8.330  2.5671 -0.4135 -2.0925
 2565SOL    HW219155   2.016   0.760   8.236  0.3051  0.7123  2.3908
 2566SOL     OW19156   3.009   1.616   4.774  0.0763 -0.0897 -0.3347
 2566SOL    HW119157   3.050   1.566   4.703 -0.5006  1.3390 -1.6805
 2566SOL    HW219158   3.078   1.613   4.840 -1.2729  0.2766  1.0577
 2567SOL     OW19159   4.595   2.167   5.378  0.6401  0.0848 -0.7558
 2567SOL    HW119160   4.611   2.200   5.467  3.5753  0.9827 -1.6132
 2567SOL    HW219161   4.655   2.223   5.328 -0.2146  0.3471 -1.4799
 2568SOL     OW19162   3.904   2.927   6.210  0.1228  0.9409 -0.7105
 2568SOL    HW119163   3.947   2.857   6.161  1.1244  1.2191 -0.2150
 2568SOL    HW219164   3.814   2.900   6.191  0.0993 -0.1741  0.9490
 2569SOL     OW19165   3.255   0.758   8.171 -0.0437  0.4103 -0.0344
 2569SOL    HW119166   3.228   0.774   8.080 -0.1257 -1.0164 -0.2757
 2569SOL    HW219167   3.171   0.760   8.217 -0.0372 -0.0141 -0.0044
 2570SOL     OW19168   2.863   3.302   4.825  0.3696  0.2309 -0.3061
 2570SOL    HW119169   2.819   3.234   4.774  0.7573 -0.0891 -0.2175
 2570SOL    HW219170   2.921   3.347   4.765  0.8967 -1.3886 -1.0228
 2571SOL     OW19171   2.899   2.901   7.105 -0.0477 -0.0870  0.5928
 2571SOL    HW119172   2.859   2.928   7.022 -1.8736  0.6991  1.7122
 2571SOL    HW219173   2.991   2.914   7.084 -0.0690 -1.1950 -0.2067
 2572SOL     OW19174   2.723   0.737   0.796 -0.2866 -0.1039  0.0173
 2572SOL    HW119175   2.818   0.744   0.806 -0.2725  1.5123 -1.1719
 2572SOL    HW219176   2.712   0.696   0.881  1.3877  1.3483  0.9473
 2573SOL     OW19177   0.233   0.567   5.457  0.5412  0.7396  0.4076
 2573SOL    HW119178   0.163   0.595   5.398  1.1450  2.1593  0.3608
 2573SOL    HW219179   0.236   0.472   5.445 -0.6308  0.8637 -0.8932
 2574SOL     OW19180   3.375   3.502  11.733 -0.5965 -0.1113  0.0730
 2574SOL    HW119181   3.421   3.583  11.711 -0.0061 -0.2375  0.8375
 2574SOL    HW219182   3.310   3.536  11.794  0.6373  1.7436  0.3583
 2575SOL     OW19183   3.673   2.588   2.869  0.6940  0.1907 -0.1236
 2575SOL    HW119184   3.617   2.572   2.945 -0.0170  0.4408 -0.5949
 2575SOL    HW219185   3.736   2.516   2.866 -1.3327 -1.5483 -0.9897
 2576SOL     OW19186   1.983   2.706  13.886  0.2546 -0.5843  0.8618
 2576SOL    HW119187   2.044   2.635  13.906 -1.1714 -1.1905  3.0374
 2576SOL    HW219188   2.041   2.782  13.886 -0.2204 -0.2236 -0.0902
 2577SOL     OW19189   2.787   0.995   7.553 -0.5128  0.4161 -0.5421
 2577SOL    HW119190   2.738   1.077   7.563  0.3461  0.7617  0.7640
 2577SOL    HW219191   2.871   1.024   7.517 -0.4292 -1.2627 -1.6908
 2578SOL     OW19192   2.682   0.702   2.643 -0.5293 -0.3586  0.2102
 2578SOL    HW119193   2.651   0.714   2.733 -1.0551  4.3210 -0.6226
 2578SOL    HW219194   2.773   0.730   2.653 -0.7247  0.5194 -0.5458
 2579SOL     OW19195   0.780   4.223   7.609 -0.0375  0.1249 -0.0945
 2579SOL    HW119196   0.691   4.186   7.611 -0.2989  0.8101  1.3932
 2579SOL    HW219197   0.795   4.242   7.702 -0.4397 -1.4731  0.3082
 2580SOL     OW19198   1.917   2.208   6.339  0.3425  0.0781  0.0015
 2580SOL    HW119199   1.908   2.192   6.245  2.4972 -0.8570 -0.0401
 2580SOL    HW219200   1.866   2.138   6.379  0.5671 -0.5671 -0.8189
 2581SOL     OW19201   3.807   2.093   3.885  0.5820  0.4744  0.5041
 2581SOL    HW119202   3.877   2.033   3.913 -0.4274  0.0815  2.1494
 2581SOL    HW219203   3.738   2.029   3.867  0.9911 -0.5064  2.3315
 2582SOL     OW19204   4.142   1.488  16.626 -0.1056 -0.3840  0.1909
 2582SOL    HW119205   4.160   1.577  16.657  2.1609 -0.9149  0.3744
 2582SOL    HW219206   4.061   1.505  16.578 -1.2782 -1.9064  1.6591
 2583SOL     OW19207   4.305   0.433  15.447  0.3738 -0.7141 -0.0363
 2583SOL    HW119208   4.379   0.470  15.497  0.7459  1.7916 -2.4589
 2583SOL    HW219209   4.230   0.472  15.492  0.4241  0.3247 -0.8427
 2584SOL     OW19210   2.268   1.800   1.318 -0.2167  0.0464 -0.0085
 2584SOL    HW119211   2.357   1.765   1.333  0.5069  1.6326 -0.6781
 2584SOL    HW219212   2.219   1.723   1.290  1.1197 -0.3057 -1.4170
 2585SOL     OW19213   4.390   3.452   0.253  0.2534  0.1802 -0.9444
 2585SOL    HW119214   4.394   3.461   0.158  2.2436  2.6683 -0.6565
 2585SOL    HW219215   4.378   3.546   0.269 -0.1411 -0.3195  1.7437
 2586SOL     OW19216   1.498   1.381   9.723 -0.8006  0.4556 -0.2343
 2586SOL    HW119217   1.554   1.423   9.658 -0.1094  1.0195  0.7385
 2586SOL    HW219218   1.411   1.414   9.701 -1.1010 -0.1400  0.0555
 2587SOL     OW19219   1.294   3.976  12.083  0.0765  0.1779  0.1449
 2587SOL    HW119220   1.339   4.060  12.076 -0.9415  0.5598 -1.7793
 2587SOL    HW219221   1.345   3.940  12.156 -2.0311 -0.8743  1.0985
 2588SOL     OW19222   1.920   1.697  12.041  0.6290 -0.3069  0.1842
 2588SOL    HW119223   1.831   1.661  12.041  0.2190  0.6940  0.1834
 2588SOL    HW219224   1.972   1.618  12.025 -2.2958 -1.9057 -1.3686
 2589SOL     OW19225   1.264   2.226   3.420 -0.4528  0.7529  0.4076
 2589SOL    HW119226   1.277   2.267   3.334 -0.5542  1.2325  0.6215
 2589SOL    HW219227   1.309   2.142   3.406  0.8169  1.5119 -0.0191
 2590SOL     OW19228   1.111   4.017   6.915 -0.0113 -0.0181  0.0618
 2590SOL    HW119229   1.181   3.969   6.870  0.0315  1.1210 -1.0747
 2590SOL    HW219230   1.042   4.003   6.851  0.1178  0.3046 -0.1478
 2591SOL     OW19231   3.200   1.248   4.421  0.0255  0.4033  0.2617
 2591SOL    HW119232   3.186   1.334   4.460 -0.7876  0.0939  0.6670
 2591SOL    HW219233   3.248   1.211   4.495 -1.5214  0.3619  1.2471
 2592SOL     OW19234   4.319   4.122   6.748 -0.2303 -0.3496 -0.3331
 2592SOL    HW119235   4.228   4.150   6.737  1.1383  4.7039  0.8569
 2592SOL    HW219236   4.315   4.027   6.743  1.7783 -0.5336  1.6509
 2593SOL     OW19237   4.010   1.732  16.745 -0.3650  0.0855 -0.8282
 2593SOL    HW119238   4.033   1.814  16.789 -1.6296 -0.6656  1.2254
 2593SOL    HW219239   4.003   1.671  16.818  0.7472 -2.4691 -2.8327
 2594SOL     OW19240   2.901   2.823   8.405  0.4267  0.1237  0.7282
 2594SOL    HW119241   2.968   2.757   8.388 -0.7015 -1.0986  1.0372
 2594SOL    HW219242   2.863   2.827   8.317  2.4724  0.6485 -0.1559
 2595SOL     OW19243   0.884   4.684   6.375  0.0099  0.1840  0.4500
 2595SOL    HW119244   0.870   4.601   6.329 -0.1998  0.2931  0.3190
 2595SOL    HW219245   0.832   0.027   6.327  0.8815  0.7194  0.2157
 2596SOL     OW19246   1.965   1.987   5.816  0.1741  0.2205  0.2333
 2596SOL    HW119247   2.033   2.023   5.759  0.3887 -1.3371 -0.5122
 2596SOL    HW219248   1.987   1.895   5.803  2.1039  0.7612 -0.2514
 2597SOL     OW19249   2.233   1.165   7.459 -0.2541  0.7494  0.3534
 2597SOL    HW119250   2.220   1.161   7.364  1.1918 -1.8897  0.2763
 2597SOL    HW219251   2.319   1.201   7.477  0.3720 -0.0037 -1.1310
 2598SOL     OW19252   0.734   3.557   2.651  0.1553  0.0755 -0.1030
 2598SOL    HW119253   0.648   3.596   2.657  0.5854  1.2209 -1.4137
 2598SOL    HW219254   0.707   3.465   2.649  3.1243 -0.7993 -0.3938
 2599SOL     OW19255   3.898   0.331   3.239  0.0758 -0.7279 -0.1107
 2599SOL    HW119256   3.928   0.334   3.148 -3.0896  1.4516 -1.0867
 2599SOL    HW219257   3.969   0.279   3.277 -0.9549 -2.1009 -0.0477
 2600SOL     OW19258   2.199   1.318   7.780  0.0419  0.0745  0.0192
 2600SOL    HW119259   2.209   1.222   7.776 -1.3734 -0.0442 -0.5444
 2600SOL    HW219260   2.162   1.318   7.868  0.1797  1.4667  0.0769
 2601SOL     OW19261   3.250   2.741   3.957  0.3487  0.4360 -0.4652
 2601SOL    HW119262   3.305   2.686   3.900  0.3349 -0.0238 -0.0382
 2601SOL    HW219263   3.171   2.726   3.906  0.1866  0.3045 -0.1731
 2602SOL     OW19264   3.073   3.030   0.535  0.5812  0.3852 -0.3556
 2602SOL    HW119265   3.116   2.992   0.612  2.8067 -2.3596 -2.9517
 2602SOL    HW219266   3.004   2.966   0.518 -1.0305  2.4808 -1.5379
 2603SOL     OW19267   1.037   1.954   4.772 -0.0498  0.0670 -0.4110
 2603SOL    HW119268   1.112   1.986   4.722 -1.1631 -0.0327 -2.1933
 2603SOL    HW219269   1.042   2.003   4.854  0.6541  1.9465 -1.5644
 2604SOL     OW19270   4.673   0.518   1.679 -0.6118 -0.4062 -0.3959
 2604SOL    HW119271   4.626   0.594   1.713  0.5876  0.0040  0.3279
 2604SOL    HW219272   4.656   0.515   1.585 -1.1000  1.0181 -0.3514
 2605SOL     OW19273   4.037   3.042   2.835 -0.4088 -0.0734  0.3391
 2605SOL    HW119274   4.009   2.961   2.792  0.9820  0.6446 -1.9530
 2605SOL    HW219275   4.081   3.093   2.767 -2.4301 -0.7450 -1.4811
 2606SOL     OW19276   4.149   4.332   4.275 -0.2345  0.7736 -0.2261
 2606SOL    HW119277   4.103   4.357   4.195 -1.3251  0.1946  0.2326
 2606SOL    HW219278   4.078   4.303   4.332  1.0721  1.5197  1.7873
 2607SOL     OW19279   3.336   0.511   4.930  0.3355 -0.3796  0.1667
 2607SOL    HW119280   3.359   0.591   4.977  1.6625 -0.2037 -0.7842
 2607SOL    HW219281   3.259   0.538   4.879  0.4658  0.3103  0.3353
 2608SOL     OW19282   3.762   0.108   7.043 -0.2191  0.2101  0.0316
 2608SOL    HW119283   3.811   0.190   7.048  1.3805 -0.6794 -1.2188
 2608SOL    HW219284   3.751   0.090   7.136 -0.4089 -1.9084 -0.4005
 2609SOL     OW19285   2.170   1.573   1.190  0.6172  0.2182  0.0974
 2609SOL    HW119286   2.164   1.537   1.102  3.3844 -1.3699  0.5753
 2609SOL    HW219287   2.125   1.503   1.239  1.1839 -0.1487  0.0881
 2610SOL     OW19288   1.385   1.614   2.705  0.1792  1.4248 -0.5276
 2610SOL    HW119289   1.458   1.618   2.643  0.1967 -1.1482 -0.6574
 2610SOL    HW219290   1.380   1.698   2.750 -2.1640  1.3899 -0.6835
 2611SOL     OW19291   4.409   3.791   3.328  0.1114 -0.0019 -0.2808
 2611SOL    HW119292   4.373   3.766   3.243  3.4804 -0.1757 -1.6810
 2611SOL    HW219293   4.497   3.757   3.312  0.8503  1.0856  1.4961
 2612SOL     OW19294   0.917   2.266  17.659 -0.2635  0.0612 -0.3286
 2612SOL    HW119295   0.836   2.280   0.020  0.9740  0.1424  1.6770
 2612SOL    HW219296   0.882   2.209  17.591  0.7703 -2.9165  1.6686
 2613SOL     OW19297   1.010   0.571  13.948 -0.1122  0.3615 -0.1431
 2613SOL    HW119298   0.963   0.633  13.892  1.2207  1.0976 -0.4450
 2613SOL    HW219299   0.944   0.514  13.988  1.0158 -0.5005  0.4781
 2614SOL     OW19300   3.293   1.115   4.655  0.0391  0.1885  0.1004
 2614SOL    HW119301   3.384   1.139   4.674  0.2480  1.1814 -2.1421
 2614SOL    HW219302   3.304   1.020   4.651 -3.3686 -0.1471 -1.3764
 2615SOL     OW19303   0.314   0.106   8.669  0.3331 -0.0747 -0.5879
 2615SOL    HW119304   0.372   0.161   8.616 -0.9363  0.5695 -1.3168
 2615SOL    HW219305   0.370   0.087   8.743 -1.5995 -0.8433  0.6954
 2616SOL     OW19306   4.275   3.407  10.938 -0.3570 -0.1075 -0.5837
 2616SOL    HW119307   4.362   3.441  10.958  0.4973 -2.5888  0.0284
 2616SOL    HW219308   4.277   3.313  10.959 -0.1265  0.2361  0.8658
 2617SOL     OW19309   2.585   1.472  11.947  0.0439  0.2889  0.6507
 2617SOL    HW119310   2.635   1.505  11.872  1.9961 -1.5604  1.1176
 2617SOL    HW219311   2.561   1.549  11.997 -1.7382  0.4904 -0.5345
 2618SOL     OW19312   4.325   2.002   6.051  0.1692  0.5019  0.0982
 2618SOL    HW119313   4.360   1.913   6.045 -2.1418 -0.4448  0.5184
 2618SOL    HW219314   4.398   2.057   6.022  1.9507 -1.6373  0.5390
 2619SOL     OW19315   0.293   1.217   2.562  0.1729 -0.2653  0.0236
 2619SOL    HW119316   0.221   1.158   2.539 -0.4218 -0.3174  2.0708
 2619SOL    HW219317   0.295   1.213   2.657  1.9129 -1.0939 -0.0568
 2620SOL     OW19318   1.967   3.585   6.097  0.1939  0.1689  0.4958
 2620SOL    HW119319   2.021   3.536   6.159  1.0814 -1.4925 -1.5658
 2620SOL    HW219320   1.986   3.674   6.125 -1.0633 -0.4949  3.4233
 2621SOL     OW19321   3.948   0.161   2.770  0.2688  0.5733 -0.1049
 2621SOL    HW119322   3.918   0.173   2.860  0.1839  1.1723 -0.2102
 2621SOL    HW219323   4.015   0.094   2.781 -0.4252 -0.3037 -1.2329
 2622SOL     OW19324   0.382   4.271   0.284 -0.4468  0.3763  0.1213
 2622SOL    HW119325   0.313   4.334   0.263  0.4035  2.6280  3.9893
 2622SOL    HW219326   0.359   4.225   0.365 -2.4211 -0.5094 -0.9547
 2623SOL     OW19327   4.687   0.718   0.651 -0.2284  0.3233  0.0478
 2623SOL    HW119328   4.680   0.635   0.697  0.4299  0.0614 -0.3297
 2623SOL    HW219329   0.032   0.695   0.587  0.4428  1.1002  0.4673
 2624SOL     OW19330   0.466   2.490   2.889 -0.0537 -0.0348 -0.3732
 2624SOL    HW119331   0.399   2.535   2.836  0.6565  1.8418  0.3545
 2624SOL    HW219332   0.415   2.481   2.969 -0.4139  2.5525 -0.3169
 2625SOL     OW19333   0.944   1.727  15.655  0.0266 -0.5117  0.1392
 2625SOL    HW119334   0.951   1.780  15.735  0.2530 -1.6451  0.8709
 2625SOL    HW219335   0.849   1.733  15.642 -0.1076  1.2492  1.9889
 2626SOL     OW19336   3.632   4.523  16.821 -0.6005  0.2515  0.8238
 2626SOL    HW119337   3.719   4.506  16.857 -1.9843 -2.4460  2.8533
 2626SOL    HW219338   3.647   4.591  16.755 -0.2345 -1.4185 -0.8321
 2627SOL     OW19339   2.835   0.857   8.523  0.2404  0.2714  0.4431
 2627SOL    HW119340   2.760   0.903   8.485 -0.0374  0.7055  1.5135
 2627SOL    HW219341   2.826   0.881   8.615 -1.2095 -2.1697  0.9631
 2628SOL     OW19342   4.001   0.649   2.810 -0.7020  0.0425 -0.3721
 2628SOL    HW119343   3.931   0.641   2.746 -2.6353 -0.2806  1.7826
 2628SOL    HW219344   4.056   0.724   2.787 -1.8798  0.6859 -1.0645
 2629SOL     OW19345   0.175   2.083   4.782 -0.1210  0.2650 -0.1321
 2629SOL    HW119346   0.270   2.087   4.769 -0.2218 -0.0795 -0.9724
 2629SOL    HW219347   0.154   2.109   4.692 -1.4480  0.0285  0.1167
 2630SOL     OW19348   3.003   0.949   5.620  0.1028 -0.0836  0.2765
 2630SOL    HW119349   2.980   1.040   5.604 -2.2748 -0.9221 -1.0493
 2630SOL    HW219350   3.023   0.926   5.529 -2.5518 -1.6479  0.1014
 2631SOL     OW19351   2.871   2.512   8.592  0.0205  0.4581  0.5409
 2631SOL    HW119352   2.787   2.558   8.598 -0.9843 -1.3652  0.4378
 2631SOL    HW219353   2.894   2.504   8.684  0.3608 -1.4654  0.2702
 2632SOL     OW19354   1.414   1.458  16.983  0.1608 -0.1223  0.0451
 2632SOL    HW119355   1.395   1.435  17.074  1.4521  2.4752  0.9577
 2632SOL    HW219356   1.407   1.553  16.992 -2.5210 -0.0979 -2.4091
 2633SOL     OW19357   1.620   0.997  14.002  0.3234  0.3067  0.3916
 2633SOL    HW119358   1.650   0.963  14.086  0.3853 -0.4222  0.0704
 2633SOL    HW219359   1.529   0.969  13.997  0.5768 -0.1745 -1.7529
 2634SOL     OW19360   3.697   4.045   9.506 -0.3477  0.0205 -0.2715
 2634SOL    HW119361   3.731   4.133   9.522 -0.6118 -0.1979  1.4824
 2634SOL    HW219362   3.712   4.009   9.593  0.7452 -0.2040 -0.5469
 2635SOL     OW19363   2.455   4.055   1.669  0.1791 -0.6739 -0.5371
 2635SOL    HW119364   2.464   4.127   1.732 -0.4882  1.1859 -2.5941
 2635SOL    HW219365   2.462   4.094   1.582  1.3586 -2.4468 -1.2437
 2636SOL     OW19366   0.751   2.532  17.572  0.0592  0.5096 -0.0577
 2636SOL    HW119367   0.743   2.597  17.642  2.2737  0.6040  0.1065
 2636SOL    HW219368   0.705   2.456  17.607 -1.5569  0.6635 -1.7921
 2637SOL     OW19369   1.313   4.202   4.922  0.2312 -0.2402 -0.6894
 2637SOL    HW119370   1.400   4.234   4.944  0.7433 -1.8068 -0.4422
 2637SOL    HW219371   1.288   4.214   5.014  1.2783 -0.0299 -0.4337
 2638SOL     OW19372   4.246   3.928   5.917  0.2910  0.3012 -0.2053
 2638SOL    HW119373   4.253   3.839   5.881  2.1879  0.9780 -1.5258
 2638SOL    HW219374   4.151   3.930   5.911  0.2138 -2.2957  0.2059
 2639SOL     OW19375   1.904   0.456   8.112 -0.2996  0.1366 -0.4064
 2639SOL    HW119376   1.973   0.463   8.046 -0.7964  2.1487 -0.7327
 2639SOL    HW219377   1.926   0.521   8.179 -1.1152 -1.3148  1.2730
 2640SOL     OW19378   0.497   2.366  17.420  0.4918 -0.0890 -0.2335
 2640SOL    HW119379   0.413   2.401  17.390  0.1416 -0.1623  0.6487
 2640SOL    HW219380   0.561   2.425  17.382  1.0085  1.6983  3.4257
 2641SOL     OW19381   1.012   0.390   8.289 -0.6298 -0.4317 -0.1233
 2641SOL    HW119382   1.103   0.362   8.297 -0.6907 -0.3100  0.9796
 2641SOL    HW219383   0.997   0.367   8.197 -0.3840 -0.4395 -0.1630
 2642SOL     OW19384   0.693   4.381  10.924 -0.4398  0.8113  0.4473
 2642SOL    HW119385   0.736   4.381  10.839  0.4864  1.4915  0.9093
 2642SOL    HW219386   0.607   4.342  10.907  0.0805 -0.5556  0.9690
 2643SOL     OW19387   4.708   0.798   7.065  0.2101  0.7750  0.2588
 2643SOL    HW119388   0.035   0.740   7.124 -0.2661  0.7952  0.6762
 2643SOL    HW219389   0.056   0.857   7.034 -0.1213  0.1549 -1.6391
 2644SOL     OW19390   2.478   3.447   8.478 -0.0328 -0.2303  0.3140
 2644SOL    HW119391   2.544   3.503   8.521 -0.3715 -0.4763  1.1577
 2644SOL    HW219392   2.424   3.433   8.556  1.1847 -0.6113  1.0988
 2645SOL     OW19393   1.684   4.547  10.577  0.6378  0.3277 -0.1039
 2645SOL    HW119394   1.632   4.518  10.502 -1.4879  1.6282  0.8648
 2645SOL    HW219395   1.673   4.642  10.571 -0.3814  0.2218  0.1412
 2646SOL     OW19396   4.208   4.180   8.773  0.0843  0.2516  0.0214
 2646SOL    HW119397   4.265   4.125   8.720 -0.6167  0.6036 -1.0970
 2646SOL    HW219398   4.250   4.173   8.859 -1.8326 -0.6664  0.8775
 2647SOL     OW19399   1.618   2.869   5.614 -0.0185 -0.1619 -0.0249
 2647SOL    HW119400   1.610   2.785   5.660 -2.0947 -1.9723 -3.6947
 2647SOL    HW219401   1.655   2.842   5.529  1.0081 -0.0294  0.3779
 2648SOL     OW19402   3.692   1.412  13.248 -0.0039  0.2167  0.3177
 2648SOL    HW119403   3.618   1.432  13.306 -0.4895 -2.5204  0.6886
 2648SOL    HW219404   3.745   1.355  13.304  0.6518  1.2907  0.7876
 2649SOL     OW19405   3.431   0.599  10.781 -0.0561  0.1347 -0.3594
 2649SOL    HW119406   3.464   0.689  10.778 -2.1932  0.9053 -0.3804
 2649SOL    HW219407   3.336   0.604  10.790  0.1784  1.3827  1.4425
 2650SOL     OW19408   3.856   2.876   5.141 -0.0739 -0.2300  0.0272
 2650SOL    HW119409   3.901   2.868   5.225  0.6584 -0.3544 -0.3694
 2650SOL    HW219410   3.904   2.943   5.093 -0.0814  1.6728  2.7075
 2651SOL     OW19411   0.174   1.846   3.275  0.0917  0.1849  0.5682
 2651SOL    HW119412   0.083   1.866   3.251 -0.5507 -0.6731  2.2724
 2651SOL    HW219413   0.161   1.774   3.337 -0.6714  0.1104  0.3291
 2652SOL     OW19414   3.498   0.270   6.038  0.1069 -0.6989  0.5265
 2652SOL    HW119415   3.459   0.347   5.997 -1.2010 -2.3115 -1.2383
 2652SOL    HW219416   3.534   0.222   5.964 -2.5105 -1.6703 -0.0848
 2653SOL     OW19417   2.595   2.010   2.366 -0.1499 -0.1763 -0.9249
 2653SOL    HW119418   2.674   1.965   2.338  0.8732  2.3109 -2.0276
 2653SOL    HW219419   2.571   2.067   2.293  0.4113 -1.1258 -1.8486
 2654SOL     OW19420   3.020   2.480   7.262 -0.1850  0.0735 -0.2753
 2654SOL    HW119421   3.068   2.514   7.187 -0.1786  0.9504  0.1232
 2654SOL    HW219422   3.042   2.390   7.287  1.4996  0.0680 -1.7765
 2655SOL     OW19423   1.660   2.772   0.341  0.4282  0.0816  0.4491
 2655SOL    HW119424   1.670   2.718   0.420  0.6186 -1.6350 -0.7515
 2655SOL    HW219425   1.727   2.836   0.368  1.3601  1.1688 -4.3992
 2656SOL     OW19426   3.281   3.311  15.822  0.1202  0.2409 -0.7342
 2656SOL    HW119427   3.321   3.232  15.785  0.2838  1.0888 -2.3713
 2656SOL    HW219428   3.361   3.363  15.827 -0.3044  0.9106 -0.9324
 2657SOL     OW19429   3.412   2.856  15.724 -0.4385 -0.1200  0.2880
 2657SOL    HW119430   3.474   2.803  15.673 -0.4450 -0.5320  0.7092
 2657SOL    HW219431   3.369   2.786  15.772  1.8057 -0.4661  1.7993
 2658SOL     OW19432   3.099   4.388   4.223 -0.0296 -0.3615  0.3782
 2658SOL    HW119433   3.069   4.297   4.212 -1.3260  0.0881  0.2147
 2658SOL    HW219434   3.012   4.425   4.237 -0.2592 -0.8822  0.3421
 2659SOL     OW19435   4.689   2.357  15.301 -0.3346  0.5982 -0.3241
 2659SOL    HW119436   4.655   2.435  15.344 -0.2976  0.7680 -0.6067
 2659SOL    HW219437   0.047   2.338  15.352 -0.4100  0.7385 -0.1549
 2660SOL     OW19438   1.400   0.689   6.510  0.2931  0.4495  0.4665
 2660SOL    HW119439   1.311   0.661   6.491 -0.0292  1.2971  0.7226
 2660SOL    HW219440   1.395   0.784   6.501 -0.5864  0.2852 -0.6993
 2661SOL     OW19441   0.504   0.166   6.689  0.2488 -0.1995 -0.1110
 2661SOL    HW119442   0.434   0.231   6.681  0.0221 -0.6678 -1.7549
 2661SOL    HW219443   0.459   0.099   6.740 -0.1204  1.3572  1.6276
 2662SOL     OW19444   4.197   3.328   1.434  0.1357 -0.7853  0.2878
 2662SOL    HW119445   4.233   3.275   1.505 -0.7165 -4.6715 -2.1969
 2662SOL    HW219446   4.251   3.405   1.453 -1.3571  0.0227  1.2942
 2663SOL     OW19447   3.875   3.917   5.498  0.0331  0.0162 -0.0961
 2663SOL    HW119448   3.880   3.844   5.560  1.0333  0.4657  0.3497
 2663SOL    HW219449   3.801   3.901   5.440 -0.6642 -0.0491  0.8135
 2664SOL     OW19450   0.274   1.049  16.589 -0.2281 -0.0007  0.4567
 2664SOL    HW119451   0.299   1.054  16.496 -0.0581  1.3841  0.5786
 2664SOL    HW219452   0.317   0.969  16.617  2.0364  1.0047 -0.1305
 2665SOL     OW19453   2.925   1.695  15.150  0.2402 -0.1505 -0.3654
 2665SOL    HW119454   2.953   1.766  15.208  0.2316 -1.1149  0.8167
 2665SOL    HW219455   2.925   1.738  15.064  0.8180  0.4089 -0.0820
 2666SOL     OW19456   4.425   2.152   4.033 -0.3809  0.4080 -0.3688
 2666SOL    HW119457   4.406   2.133   4.125 -0.6871 -2.3398 -1.0237
 2666SOL    HW219458   4.519   2.138   4.026 -0.4537 -0.9191  1.5183
 2667SOL     OW19459   3.982   1.294   7.647 -0.3263 -0.2672  0.6802
 2667SOL    HW119460   3.968   1.209   7.687  0.9142  0.7696  3.3360
 2667SOL    HW219461   4.068   1.283   7.608  0.5928  3.6699  1.5466
 2668SOL     OW19462   1.782   2.971   4.769  0.7855  0.2166 -0.0802
 2668SOL    HW119463   1.748   3.061   4.772  3.2972  1.1695 -0.3554
 2668SOL    HW219464   1.691   2.941   4.765  0.7849  0.2453 -0.2640
 2669SOL     OW19465   1.038   4.367   4.763  0.1694 -0.0720 -0.9320
 2669SOL    HW119466   1.001   4.386   4.849  0.9938  0.4152 -0.6777
 2669SOL    HW219467   1.095   4.441   4.743 -0.2281  0.7923  1.1336
 2670SOL     OW19468   2.185   0.537   8.648  0.0081  0.2547 -0.3482
 2670SOL    HW119469   2.213   0.598   8.580  0.0800 -1.1189 -1.5549
 2670SOL    HW219470   2.192   0.456   8.598 -1.8543  0.8040 -1.5019
 2671SOL     OW19471   4.199   4.200   5.129  0.2705 -0.0470 -0.0675
 2671SOL    HW119472   4.108   4.193   5.100 -0.3234 -0.6694  1.9877
 2671SOL    HW219473   4.184   4.274   5.187  2.8861  0.2547  0.2104
 2672SOL     OW19474   1.975   0.498  12.190  0.4212  0.1132  0.6014
 2672SOL    HW119475   1.896   0.499  12.137  0.4310 -0.0294  0.5819
 2672SOL    HW219476   2.037   0.458  12.129 -0.6465  0.0005 -0.4070
 2673SOL     OW19477   3.954   1.078   3.254  0.6216  0.0745  0.2618
 2673SOL    HW119478   3.950   1.019   3.179  1.1145 -1.7333  1.6774
 2673SOL    HW219479   3.954   1.163   3.211  0.1793 -0.9274 -1.7055
 2674SOL     OW19480   0.602   0.195  16.348  0.0009 -0.2839  0.0698
 2674SOL    HW119481   0.615   0.254  16.274 -1.7021  0.1410  0.1044
 2674SOL    HW219482   0.656   0.238  16.414  1.3897 -1.3289 -0.3974
 2675SOL     OW19483   1.740   4.242  17.442  0.1006 -0.4552 -0.9751
 2675SOL    HW119484   1.828   4.262  17.408  0.2656  1.6887  0.6722
 2675SOL    HW219485   1.683   4.309  17.405  1.6715  0.8890 -0.9902
 2676SOL     OW19486   4.147   1.822   4.302  0.2384 -0.2178 -0.2880
 2676SOL    HW119487   4.106   1.737   4.317 -1.3200  0.6987  0.5980
 2676SOL    HW219488   4.215   1.814   4.369  0.0367 -1.1729 -0.1906
 2677SOL     OW19489   0.118   2.211   5.993  0.5149  0.9325 -0.3570
 2677SOL    HW119490   0.212   2.203   6.010  0.2623  0.6004  0.9288
 2677SOL    HW219491   0.094   2.138   6.051 -3.5180  1.3270 -1.5931
 2678SOL     OW19492   2.965   2.893  16.742  0.0847  0.0718  0.6559
 2678SOL    HW119493   3.010   2.921  16.822  0.9774  1.1693 -0.2115
 2678SOL    HW219494   2.919   2.813  16.766  1.5473 -0.8271  0.4647
 2679SOL     OW19495   1.129   0.891  14.404 -0.1616 -0.5546 -0.2646
 2679SOL    HW119496   1.215   0.915  14.369 -0.1660 -0.7971 -0.4430
 2679SOL    HW219497   1.124   0.797  14.386 -2.4253 -0.9241  2.4230
 2680SOL     OW19498   2.735   4.602  15.331  0.1267  0.1410 -0.6757
 2680SOL    HW119499   2.683   4.624  15.408 -0.9974 -0.1737 -1.3456
 2680SOL    HW219500   2.819   4.642  15.353  0.8977 -1.2783 -1.0604
 2681SOL     OW19501   2.065   3.439   3.140  0.2265  0.5935  0.0928
 2681SOL    HW119502   2.099   3.364   3.091  0.3946  0.9978 -0.4062
 2681SOL    HW219503   2.004   3.476   3.076  0.7852 -0.1303 -0.8574
 2682SOL     OW19504   0.895   1.104   5.937  0.5619 -0.3075  0.2442
 2682SOL    HW119505   0.926   1.174   5.995  0.7495  0.7610 -1.1420
 2682SOL    HW219506   0.963   1.088   5.872  0.4588 -0.6848  0.2308
 2683SOL     OW19507   1.015   3.706   3.167  0.1065  0.0525 -0.7335
 2683SOL    HW119508   0.981   3.750   3.089 -1.4918 -2.1135 -1.2656
 2683SOL    HW219509   0.994   3.618   3.135  1.7182 -0.3393 -0.7075
 2684SOL     OW19510   3.467   4.404   9.123 -0.4800 -0.2725  0.2228
 2684SOL    HW119511   3.458   4.351   9.044 -1.5379  1.2416 -0.6807
 2684SOL    HW219512   3.455   4.340   9.193  0.3466 -1.3027 -0.5825
 2685SOL     OW19513   4.473   3.010   3.387 -0.3700  0.1652 -0.5873
 2685SOL    HW119514   4.391   2.966   3.365 -0.5858 -0.3002  1.2070
 2685SOL    HW219515   4.531   2.989   3.313 -1.6888 -0.0206 -1.5807
 2686SOL     OW19516   1.550   2.791   2.443 -0.0065 -0.0278 -0.2495
 2686SOL    HW119517   1.556   2.847   2.365  1.0838 -2.0786 -1.6352
 2686SOL    HW219518   1.552   2.705   2.402  0.4328 -0.6194  1.0377
 2687SOL     OW19519   2.783   4.706   3.781  0.4838 -0.1999  0.0926
 2687SOL    HW119520   2.747   4.721   3.869  1.4191  1.2564  0.2208
 2687SOL    HW219521   2.785   4.611   3.788 -0.0654 -0.1134  1.5331
 2688SOL     OW19522   0.503   4.022   5.575 -0.6866 -0.5674  0.0265
 2688SOL    HW119523   0.439   4.021   5.504  0.2786  1.2091 -0.8814
 2688SOL    HW219524   0.540   3.934   5.573  1.4896  0.2951  1.7986
 2689SOL     OW19525   2.313   3.987  10.788 -0.3244  0.1709 -0.0978
 2689SOL    HW119526   2.320   3.960  10.696  0.3567 -1.4662  0.4324
 2689SOL    HW219527   2.258   3.921  10.831 -1.4191  1.0140 -0.1890
 2690SOL     OW19528   0.269   2.515   5.203  0.3463  0.2363  0.2738
 2690SOL    HW119529   0.302   2.557   5.124 -1.2741 -0.7221 -0.9104
 2690SOL    HW219530   0.177   2.523   5.180 -0.3822 -1.1515  2.7188
 2691SOL     OW19531   4.413   0.395   5.154 -0.2835  0.5372  0.4237
 2691SOL    HW119532   4.494   0.360   5.191 -1.8461 -2.0969  1.3056
 2691SOL    HW219533   4.341   0.340   5.186 -0.8477  1.3664  0.5905
 2692SOL     OW19534   4.199   1.476  15.078 -0.0232  0.7813  0.2423
 2692SOL    HW119535   4.279   1.434  15.048 -1.3474 -0.6358 -1.3541
 2692SOL    HW219536   4.149   1.472  14.996 -0.5926 -1.1963  0.6679
 2693SOL     OW19537   1.565   1.320   8.270 -0.5030 -0.5645  0.5047
 2693SOL    HW119538   1.576   1.260   8.344 -3.3044  0.8984  2.1316
 2693SOL    HW219539   1.540   1.402   8.313  0.5459 -1.2715  2.4930
 2694SOL     OW19540   1.384   1.939   4.905  0.1193  0.2885 -0.4297
 2694SOL    HW119541   1.344   1.910   4.822  0.1916 -0.1869 -0.2986
 2694SOL    HW219542   1.306   1.962   4.955 -0.0016  2.9749 -1.8521
 2695SOL     OW19543   0.519   4.178   4.316 -0.3030  0.0807  0.8689
 2695SOL    HW119544   0.581   4.233   4.267  0.1917 -0.8658  0.4100
 2695SOL    HW219545   0.543   4.201   4.405 -1.2190  1.2385  0.8056
 2696SOL     OW19546   4.004   1.735   1.825 -0.6232  0.0069  0.8210
 2696SOL    HW119547   4.056   1.654   1.835  0.0205  0.4451  1.0229
 2696SOL    HW219548   4.060   1.800   1.867 -1.1677  0.0597  1.4531
 2697SOL     OW19549   3.152   3.650   6.128 -0.2580  0.1206 -0.2982
 2697SOL    HW119550   3.221   3.696   6.176 -0.0774  0.2063 -0.6423
 2697SOL    HW219551   3.086   3.623   6.192 -2.5320 -0.8684 -3.0961
 2698SOL     OW19552   2.686   2.522   5.634 -0.1669  0.0100  0.1281
 2698SOL    HW119553   2.698   2.522   5.729 -0.7568 -0.3611  0.2011
 2698SOL    HW219554   2.771   2.562   5.616 -1.5297  1.3518 -3.3569
 2699SOL     OW19555   3.176   2.790   8.621  0.0657  0.1036 -0.0835
 2699SOL    HW119556   3.196   2.726   8.689 -0.0291  0.1746  0.0103
 2699SOL    HW219557   3.121   2.853   8.667  0.9362  1.5417 -1.0008
 2700SOL     OW19558   0.140   4.578  13.966  0.1073 -0.1562  0.1196
 2700SOL    HW119559   0.045   4.589  13.975 -0.0225  0.6484 -2.2821
 2700SOL    HW219560   0.167   4.661  13.927 -0.3024 -1.5924 -3.1403
 2701SOL     OW19561   1.710   0.285   3.419 -0.4231 -0.0173  0.1320
 2701SOL    HW119562   1.615   0.273   3.430 -0.5261 -0.2215 -1.0300
 2701SOL    HW219563   1.730   0.321   3.505  1.1335 -1.4923  0.3952
 2702SOL     OW19564   4.073   3.614   1.807 -0.0749 -0.6677  0.1541
 2702SOL    HW119565   4.111   3.546   1.752  0.4686  1.5041 -2.1385
 2702SOL    HW219566   4.144   3.631   1.870  0.2952 -0.9772 -0.1833
 2703SOL     OW19567   3.499   4.348   7.618  0.1446 -0.4750  0.3950
 2703SOL    HW119568   3.587   4.370   7.647 -0.7243  1.2863  1.7141
 2703SOL    HW219569   3.491   4.259   7.653 -0.5943 -0.3759  0.4836
 2704SOL     OW19570   2.387   4.540  17.286  0.3350 -0.8716  0.4218
 2704SOL    HW119571   2.425   4.619  17.248 -1.1732  0.4640  1.6876
 2704SOL    HW219572   2.303   4.543  17.242  0.0118  1.2612  1.1819
 2705SOL     OW19573   0.611   1.345   0.730 -0.1450  0.4765 -0.6473
 2705SOL    HW119574   0.573   1.261   0.703  0.1126  0.3019 -0.4717
 2705SOL    HW219575   0.684   1.307   0.777  0.3103  1.0047 -0.9287
 2706SOL     OW19576   1.396   2.481   6.608 -0.1775 -0.2511  0.0109
 2706SOL    HW119577   1.477   2.430   6.607  0.1856  0.3620 -1.3909
 2706SOL    HW219578   1.347   2.432   6.542 -4.4328  2.2071  1.3674
 2707SOL     OW19579   3.642   3.221   0.597 -0.3315 -0.3400 -0.1250
 2707SOL    HW119580   3.610   3.150   0.652 -2.3434  0.9740  0.3810
 2707SOL    HW219581   3.601   3.290   0.648 -1.5997 -0.1295 -1.4432
 2708SOL     OW19582   1.304   3.924  13.982  0.1127  0.3534  0.0287
 2708SOL    HW119583   1.321   3.992  13.916 -0.4945  0.2631 -0.2218
 2708SOL    HW219584   1.211   3.917  13.960  0.4891 -0.0725 -1.4920
 2709SOL     OW19585   3.277   2.202  15.658 -0.3430 -0.0307  0.0324
 2709SOL    HW119586   3.301   2.131  15.599 -2.1144  0.3395 -1.1258
 2709SOL    HW219587   3.186   2.221  15.634  0.0043  0.5493 -0.8161
 2710SOL     OW19588   2.200   3.056  10.608  0.7155  0.4307  0.1055
 2710SOL    HW119589   2.231   2.973  10.571  0.7399  0.5265 -0.0918
 2710SOL    HW219590   2.242   3.121  10.552  0.6813  0.5843  0.2584
 2711SOL     OW19591   4.078   1.420   2.117  0.0250  0.4160  0.1037
 2711SOL    HW119592   4.157   1.370   2.096 -2.0656 -2.2855 -1.3051
 2711SOL    HW219593   4.068   1.481   2.044 -0.8531  0.7940  0.5417
 2712SOL     OW19594   0.837   0.060  17.383 -0.2767 -0.1901 -0.0928
 2712SOL    HW119595   0.807   0.102  17.464  2.0842 -1.7939  1.6327
 2712SOL    HW219596   0.927   0.094  17.382 -0.6368  0.7736  0.8090
 2713SOL     OW19597   1.137   4.455   7.280 -0.1533  0.0978  0.6766
 2713SOL    HW119598   1.172   4.520   7.341 -0.6030  0.4108  0.6010
 2713SOL    HW219599   1.135   4.513   7.205  2.5420 -0.7224 -0.0324
 2714SOL     OW19600   1.712   2.409   6.036  0.4409 -0.1670 -0.2433
 2714SOL    HW119601   1.772   2.427   6.109 -0.5959 -1.7185  1.0033
 2714SOL    HW219602   1.715   2.492   5.989 -0.9040 -0.1470 -0.2846
 2715SOL     OW19603   0.932   1.385  10.050 -0.2173 -0.1234  0.6367
 2715SOL    HW119604   0.950   1.353  10.139 -0.9331  0.1236  0.8742
 2715SOL    HW219605   0.990   1.336   9.992  1.1877  1.3416  0.8107
 2716SOL     OW19606   3.373   4.060  15.690 -0.2576  0.7455  0.7238
 2716SOL    HW119607   3.369   4.024  15.779  0.4350  1.5968  1.0948
 2716SOL    HW219608   3.284   4.095  15.694 -0.0454  1.4830 -1.1151
 2717SOL     OW19609   3.968   1.761  10.741 -0.2146 -0.3659  0.2526
 2717SOL    HW119610   3.971   1.780  10.647  0.4356  0.0421  0.3558
 2717SOL    HW219611   3.895   1.812  10.775 -0.0256  2.1877 -3.2199
 2718SOL     OW19612   2.379   4.601   7.066  0.6373 -0.1652 -0.0016
 2718SOL    HW119613   2.374   4.615   7.160  0.8097 -0.7180  0.0899
 2718SOL    HW219614   2.445   4.532   7.068  1.5036  0.6987  0.6714
 2719SOL     OW19615   2.478   3.096   3.714  0.0652  0.4087 -0.0535
 2719SOL    HW119616   2.507   3.170   3.768 -1.2223 -0.1666  1.4375
 2719SOL    HW219617   2.556   3.042   3.730 -0.7930 -0.3937  1.4667
 2720SOL     OW19618   0.123   0.972   2.470  0.2569 -0.4302 -0.0094
 2720SOL    HW119619   0.028   0.972   2.467  0.2338 -1.6650  0.5945
 2720SOL    HW219620   0.129   0.913   2.545 -0.2767  1.3374  1.4054
 2721SOL     OW19621   2.299   0.125  12.313 -0.4119 -0.0913  0.1851
 2721SOL    HW119622   2.374   0.069  12.333 -0.8457 -1.4685 -1.9676
 2721SOL    HW219623   2.285   0.112  12.219 -1.2981 -0.4396  0.3647
 2722SOL     OW19624   0.632   1.695   8.289 -0.2388  0.3714 -0.3619
 2722SOL    HW119625   0.546   1.731   8.311 -0.3307  0.7555 -1.3085
 2722SOL    HW219626   0.684   1.759   8.337  0.8176 -0.4082 -0.4891
 2723SOL     OW19627   2.933   3.094   6.424  0.1569  0.3920 -0.5958
 2723SOL    HW119628   2.933   3.117   6.331  0.8881  2.4245 -0.0968
 2723SOL    HW219629   3.021   3.061   6.446 -0.5445 -1.7184 -0.9082
 2724SOL     OW19630   2.077   2.787   0.568  0.0224  0.4466  0.5597
 2724SOL    HW119631   2.034   2.713   0.525 -0.0777  1.7876 -1.6585
 2724SOL    HW219632   2.109   2.832   0.490 -1.2438  0.7182  0.2028
 2725SOL     OW19633   3.246   0.828  13.269 -0.4919  0.1813  0.3238
 2725SOL    HW119634   3.250   0.876  13.351 -2.4827  0.7444  0.0981
 2725SOL    HW219635   3.285   0.893  13.210 -0.1178 -1.4851 -1.2833
 2726SOL     OW19636   1.206   1.460  15.397 -0.3296  0.2043  0.0881
 2726SOL    HW119637   1.219   1.552  15.417 -0.0578  0.2158 -0.1541
 2726SOL    HW219638   1.281   1.410  15.430 -0.8690 -1.2786 -0.9092
 2727SOL     OW19639   0.383   0.463   4.737 -0.3675  0.2232  0.1743
 2727SOL    HW119640   0.459   0.450   4.794 -0.4532  4.2644  1.2237
 2727SOL    HW219641   0.424   0.440   4.654 -0.6389 -0.5133  0.2494
 2728SOL     OW19642   0.274   0.167   3.418  0.0256 -0.5057 -0.8260
 2728SOL    HW119643   0.333   0.150   3.345 -1.3630 -0.6512 -1.9204
 2728SOL    HW219644   0.189   0.136   3.387  0.1097 -1.2353 -0.3305
 2729SOL     OW19645   1.210   3.570   2.434 -0.1029 -0.2375  0.0363
 2729SOL    HW119646   1.283   3.589   2.374  0.5106 -0.6328  0.6654
 2729SOL    HW219647   1.242   3.611   2.514 -0.7184 -0.0193  0.1654
 2730SOL     OW19648   1.909   1.851   1.456  0.0377 -0.2161 -0.4476
 2730SOL    HW119649   1.991   1.897   1.470  0.0367 -0.5034  0.5586
 2730SOL    HW219650   1.847   1.896   1.513  1.0093 -0.4702  0.8108
 2731SOL     OW19651   0.718   1.064   7.385 -0.1049  0.5187 -0.4270
 2731SOL    HW119652   0.775   1.090   7.312 -1.7622  1.5115 -1.3509
 2731SOL    HW219653   0.736   1.134   7.448  1.1504 -0.0496 -0.1453
 2732SOL     OW19654   1.090   4.251   9.721 -0.1060  0.2383 -0.2580
 2732SOL    HW119655   1.125   4.173   9.678 -3.0871 -1.3703  0.2516
 2732SOL    HW219656   1.110   4.316   9.653  1.7765 -0.6181 -0.5371
 2733SOL     OW19657   2.076   4.206   0.567  0.2276 -0.6243 -0.3269
 2733SOL    HW119658   2.033   4.190   0.483  1.2258 -0.6554 -0.8255
 2733SOL    HW219659   2.165   4.228   0.541  0.7671 -0.9672  1.1936
 2734SOL     OW19660   3.921   4.560   9.273 -0.7776  0.0565 -0.2933
 2734SOL    HW119661   3.970   4.633   9.235 -1.0988 -0.1171 -1.0297
 2734SOL    HW219662   3.944   4.492   9.210  0.1563  2.4762 -2.5721
 2735SOL     OW19663   0.647   4.162   5.857  0.0071  0.1521  0.4893
 2735SOL    HW119664   0.615   4.148   5.768  0.8624 -4.1473  0.8352
 2735SOL    HW219665   0.599   4.101   5.913  0.6958 -0.3789  0.5110
 2736SOL     OW19666   0.655   1.168   1.095  0.0705  0.9302  0.2410
 2736SOL    HW119667   0.746   1.138   1.089  0.3566  1.8657 -0.1117
 2736SOL    HW219668   0.646   1.180   1.189  1.0982  0.1733  0.4321
 2737SOL     OW19669   2.648   4.686   4.312  0.3353 -0.5643  0.2514
 2737SOL    HW119670   2.637   4.661   4.404  4.3985 -2.7221  0.1822
 2737SOL    HW219671   2.699   0.046   4.313  0.1776 -0.4998  2.0649
 2738SOL     OW19672   3.541   3.173   4.306  0.1905 -0.3788 -0.0517
 2738SOL    HW119673   3.616   3.217   4.347  0.5016  0.1131 -1.1502
 2738SOL    HW219674   3.573   3.136   4.224 -0.5328  1.0511 -0.9728
 2739SOL     OW19675   0.465   4.019   6.008  0.6242 -0.1951 -0.1221
 2739SOL    HW119676   0.457   3.984   5.919  0.6344  3.8512 -1.7360
 2739SOL    HW219677   0.392   3.992   6.063  0.4352  0.5799  0.0053
 2740SOL     OW19678   1.759   3.002   7.340  0.2774  0.3590 -0.5548
 2740SOL    HW119679   1.668   2.981   7.362  0.9209 -2.1288 -0.2922
 2740SOL    HW219680   1.761   3.091   7.376 -0.5862  0.1808 -0.0619
 2741SOL     OW19681   0.439   1.871   2.363 -0.0100  0.2726  0.2323
 2741SOL    HW119682   0.513   1.826   2.402  0.2087  0.7116  0.3245
 2741SOL    HW219683   0.482   1.938   2.311  1.3827 -1.6013 -1.0123
 2742SOL     OW19684   3.422   2.262   8.488  0.4719 -0.2321  0.2059
 2742SOL    HW119685   3.431   2.168   8.500 -2.8590 -0.5274  0.3650
 2742SOL    HW219686   3.457   2.284   8.575 -1.3177  0.9199  0.6668
 2743SOL     OW19687   0.087   1.437   4.607  0.0148 -0.2879  0.0936
 2743SOL    HW119688   0.128   1.523   4.597  1.3328 -0.7356  1.6406
 2743SOL    HW219689   0.157   1.390   4.653 -1.1276 -2.5188 -0.4769
 2744SOL     OW19690   0.921   2.471   5.389 -0.3840 -0.2717 -0.8536
 2744SOL    HW119691   0.871   2.545   5.423 -2.0944 -1.7431 -0.1949
 2744SOL    HW219692   0.970   2.514   5.319  0.7306  0.3697  0.3189
 2745SOL     OW19693   1.396   0.707   7.630  0.1515 -0.2049  0.1127
 2745SOL    HW119694   1.341   0.642   7.585  0.5661 -0.3486 -0.1889
 2745SOL    HW219695   1.337   0.780   7.648  1.0631  0.4401  0.4594
 2746SOL     OW19696   2.379   2.339   5.759  0.2235  0.6718  0.2587
 2746SOL    HW119697   2.346   2.428   5.760 -1.2814  0.1047  0.6758
 2746SOL    HW219698   2.436   2.345   5.836  2.2079 -0.2166 -1.1261
 2747SOL     OW19699   0.443   1.010   9.451  0.1492  0.2888  0.0316
 2747SOL    HW119700   0.406   1.067   9.518 -1.3818  1.1372 -1.5651
 2747SOL    HW219701   0.388   0.931   9.452 -1.7556  1.6370  0.4186
 2748SOL     OW19702   0.353   3.013   7.808 -0.1443 -0.3380 -0.0177
 2748SOL    HW119703   0.265   3.048   7.817  0.6039  1.6052 -0.4446
 2748SOL    HW219704   0.411   3.088   7.800  1.1313 -1.3536 -0.3592
 2749SOL     OW19705   3.283   0.660   4.147 -0.6278  0.3075  0.2741
 2749SOL    HW119706   3.285   0.620   4.234  0.9976 -0.7320 -0.2346
 2749SOL    HW219707   3.350   0.728   4.154 -0.5452  0.2860 -0.2712
 2750SOL     OW19708   3.422   4.359   3.363 -1.1313  0.1638 -0.1576
 2750SOL    HW119709   3.426   4.455   3.357 -0.8676  0.1752  0.1654
 2750SOL    HW219710   3.344   4.334   3.314 -1.5418 -0.2095  0.6918
 2751SOL     OW19711   1.542   2.704   5.027  0.3315  0.0934  0.2144
 2751SOL    HW119712   1.522   2.612   5.007  0.6512 -0.0273  0.4457
 2751SOL    HW219713   1.525   2.758   4.950  1.4304  2.1224  1.3976
 2752SOL     OW19714   2.216   1.782   4.376  0.0629 -0.0493  0.2179
 2752SOL    HW119715   2.254   1.833   4.448 -0.6077 -0.4572  0.8600
 2752SOL    HW219716   2.127   1.816   4.384  1.3424  3.1107  0.9913
 2753SOL     OW19717   3.903   3.461   0.701 -0.2783  0.2726  0.0827
 2753SOL    HW119718   3.941   3.394   0.644 -1.7750  0.9913 -1.7540
 2753SOL    HW219719   3.842   3.515   0.651 -1.7645 -1.7668 -0.3265
 2754SOL     OW19720   1.209   3.271   5.112 -0.2642  1.1881  0.1850
 2754SOL    HW119721   1.276   3.206   5.093 -1.7708 -0.4406  0.4415
 2754SOL    HW219722   1.246   3.310   5.192 -0.8975 -1.1589  1.6433
 2755SOL     OW19723   2.709   3.592   7.643  0.8636  0.1140  0.3816
 2755SOL    HW119724   2.632   3.555   7.688  0.9300 -1.0033 -0.4174
 2755SOL    HW219725   2.665   3.653   7.584  1.1241 -1.5915 -1.5981
 2756SOL     OW19726   2.555   1.566   6.760  0.3668 -0.1957  0.4994
 2756SOL    HW119727   2.493   1.595   6.693 -2.4409 -0.8752  2.8495
 2756SOL    HW219728   2.495   1.540   6.830 -3.1287  2.3284 -1.5635
 2757SOL     OW19729   2.969   2.659  11.956 -0.7301 -0.9456  0.1475
 2757SOL    HW119730   3.013   2.698  11.880 -2.5472 -0.6469 -0.7444
 2757SOL    HW219731   2.999   2.570  11.937  0.8593  0.1965 -2.6971
 2758SOL     OW19732   2.671   0.007   5.706 -0.0210  0.1284  0.6404
 2758SOL    HW119733   2.659   4.679   5.625  0.9012 -1.3618  1.4169
 2758SOL    HW219734   2.584   0.007   5.747 -0.8801 -0.4079 -1.1681
 2759SOL     OW19735   3.981   0.707   6.909 -0.2869  0.4843  0.0964
 2759SOL    HW119736   4.011   0.636   6.852  0.3522  0.6485  0.2319
 2759SOL    HW219737   3.953   0.771   6.844 -0.5374 -0.4000 -0.6666
 2760SOL     OW19738   4.696   0.123   5.488  0.2687  0.1190 -0.2678
 2760SOL    HW119739   4.626   0.109   5.552  0.6889 -3.3216 -0.5529
 2760SOL    HW219740   0.004   0.036   5.461  1.9817 -0.2181  2.7032
 2761SOL     OW19741   4.663   3.971   6.651  0.7585  0.0709  0.4257
 2761SOL    HW119742   4.693   4.043   6.707 -0.7607  0.5410  0.6333
 2761SOL    HW219743   4.629   3.909   6.716  2.2707 -2.0972 -0.8734
 2762SOL     OW19744   2.272   3.661  12.448  0.6774 -0.0141 -0.8808
 2762SOL    HW119745   2.335   3.653  12.520 -0.8238 -1.8088  0.2434
 2762SOL    HW219746   2.323   3.694  12.374 -0.2043  0.3918 -1.3075
 2763SOL     OW19747   1.032   4.497   4.293 -0.3035  0.6844 -0.3185
 2763SOL    HW119748   1.022   4.474   4.200  1.4511 -0.9171 -0.1120
 2763SOL    HW219749   1.004   4.412   4.328 -0.5290  1.7016  1.9189
 2764SOL     OW19750   2.273   3.903  16.896 -0.2852 -0.3566  0.7573
 2764SOL    HW119751   2.322   3.851  16.960  0.6325  2.6001  2.4384
 2764SOL    HW219752   2.266   3.991  16.931  1.4288  0.7143 -1.5780
 2765SOL     OW19753   3.060   3.411   9.877 -0.1531  0.0697  0.0299
 2765SOL    HW119754   3.098   3.403   9.964 -1.9690 -1.3516  0.6657
 2765SOL    HW219755   3.000   3.337   9.883 -1.4638  1.1734  0.4707
 2766SOL     OW19756   3.887   2.437   3.488 -0.6170  0.1153 -0.0920
 2766SOL    HW119757   3.980   2.452   3.472 -0.4862 -1.8994 -1.1734
 2766SOL    HW219758   3.887   2.366   3.551 -1.4985 -1.0528 -1.4201
 2767SOL     OW19759   4.130   4.308   6.496 -0.1016 -0.2960 -0.8251
 2767SOL    HW119760   4.202   4.370   6.512  0.0220 -0.1721 -1.8315
 2767SOL    HW219761   4.167   4.284   6.411  3.2274  1.5550  0.1027
 2768SOL     OW19762   0.277   1.869   2.748 -0.4164 -0.3144  0.3692
 2768SOL    HW119763   0.283   1.878   2.843  1.2351  0.8516  0.1667
 2768SOL    HW219764   0.364   1.840   2.719 -0.7543 -1.1218  0.1669
 2769SOL     OW19765   1.673   2.347   2.289  0.2782  0.8070 -0.1386
 2769SOL    HW119766   1.654   2.437   2.260  1.4199  0.8342 -0.8086
 2769SOL    HW219767   1.592   2.327   2.336 -0.0315 -2.4054 -2.0140
 2770SOL     OW19768   2.376   2.894  16.018 -0.2721  0.2286  0.1086
 2770SOL    HW119769   2.284   2.920  16.023  0.4433  2.5095  1.0730
 2770SOL    HW219770   2.388   2.852  16.103  0.1178 -1.9613 -1.0068
 2771SOL     OW19771   2.014   0.717   6.011  0.4005  0.5311  0.0387
 2771SOL    HW119772   1.925   0.751   5.999 -0.9780 -2.9755  0.4165
 2771SOL    HW219773   2.010   0.638   6.065 -1.3596  0.7247  0.1923
 2772SOL     OW19774   0.343   2.912   8.353 -0.2092  0.3739  0.2651
 2772SOL    HW119775   0.332   2.838   8.413  0.6382 -0.4750 -0.6275
 2772SOL    HW219776   0.409   2.882   8.290 -1.0328 -1.4694  0.2767
 2773SOL     OW19777   1.631   1.914   1.996 -0.5064  0.3266 -0.3230
 2773SOL    HW119778   1.557   1.857   2.019 -0.5159 -0.6429 -2.7687
 2773SOL    HW219779   1.576   1.989   1.971  1.0597  0.7678 -2.4154
 2774SOL     OW19780   1.274   1.132   8.910  0.0062 -0.5726  0.3129
 2774SOL    HW119781   1.313   1.073   8.844 -0.1007  2.0673 -2.0931
 2774SOL    HW219782   1.265   1.067   8.980  2.5375 -2.8004 -1.3898
 2775SOL     OW19783   3.739   3.625   5.047  0.2574  0.1125 -0.3400
 2775SOL    HW119784   3.672   3.656   5.108 -0.3719  1.0986 -1.5208
 2775SOL    HW219785   3.812   3.680   5.074  2.0872 -1.5940 -1.8165
 2776SOL     OW19786   2.579   3.108   1.684 -0.0406  0.3800  0.4985
 2776SOL    HW119787   2.501   3.147   1.722 -1.2317 -0.7656 -0.7782
 2776SOL    HW219788   2.555   3.016   1.683 -0.6569  0.4839  5.0993
 2777SOL     OW19789   2.931   2.047  15.667 -0.2000  0.6508  0.0815
 2777SOL    HW119790   2.952   2.137  15.645  3.1012  0.2351  1.3758
 2777SOL    HW219791   2.934   2.002  15.583  0.4354  1.6189 -0.4093
 2778SOL     OW19792   1.295   1.162   3.260 -0.2898 -0.2532 -0.3340
 2778SOL    HW119793   1.213   1.188   3.300  0.1834  0.1327  0.3741
 2778SOL    HW219794   1.363   1.189   3.322  1.5936 -0.9306 -2.0884
 2779SOL     OW19795   3.223   1.999   7.267 -0.2431  0.2167 -0.0381
 2779SOL    HW119796   3.127   2.002   7.265 -0.2884  0.9347  3.0582
 2779SOL    HW219797   3.242   2.091   7.251  3.3667 -0.2100  1.6922
 2780SOL     OW19798   0.528   4.528   0.235  0.6841  0.4142 -0.5168
 2780SOL    HW119799   0.489   4.464   0.294 -0.6323  0.9042 -0.8697
 2780SOL    HW219800   0.590   4.467   0.194 -0.7088  0.0682 -2.1009
 2781SOL     OW19801   1.945   1.595   9.853  0.2905 -0.3665 -0.3579
 2781SOL    HW119802   1.962   1.668   9.912 -1.4540 -0.7713  0.6590
 2781SOL    HW219803   1.890   1.542   9.910  2.2043 -3.2115 -1.1369
 2782SOL     OW19804   4.059   4.058   6.226 -0.3415 -0.1131 -0.2512
 2782SOL    HW119805   4.000   3.994   6.267  1.7031 -0.1717  2.5259
 2782SOL    HW219806   3.998   4.126   6.195 -1.7080 -1.4788 -0.5823
 2783SOL     OW19807   0.366   0.337  13.150 -0.5125  0.1445 -0.4499
 2783SOL    HW119808   0.370   0.262  13.091  0.8753  0.1065 -0.3225
 2783SOL    HW219809   0.347   0.407  13.087  1.0905 -0.0061 -1.1229
 2784SOL     OW19810   2.211   2.274   4.908  0.1798 -0.0126 -0.2668
 2784SOL    HW119811   2.279   2.332   4.874 -1.7357  0.6512 -3.0265
 2784SOL    HW219812   2.128   2.319   4.892 -1.2545 -3.2560 -2.0314
 2785SOL     OW19813   3.358   0.620  12.155  0.6884  0.1000 -0.5171
 2785SOL    HW119814   3.349   0.525  12.148 -0.0807  0.1146  0.3171
 2785SOL    HW219815   3.285   0.653  12.208  0.8694  2.4908 -1.7259
 2786SOL     OW19816   0.293   0.530  13.000  0.2314 -0.3049 -0.0039
 2786SOL    HW119817   0.220   0.586  12.974  1.1804  1.0006  0.1562
 2786SOL    HW219818   0.365   0.591  13.012  1.0299 -1.5933  1.7404
 2787SOL     OW19819   1.403   3.054   5.572 -1.1101 -0.2740 -0.1353
 2787SOL    HW119820   1.455   2.975   5.585 -0.4001  0.0325 -1.1201
 2787SOL    HW219821   1.434   3.104   5.648  0.1906  1.2049 -1.6627
 2788SOL     OW19822   0.845   1.086   3.524  0.1249  0.0177  0.0792
 2788SOL    HW119823   0.847   1.033   3.604 -0.1283  0.7160  0.5513
 2788SOL    HW219824   0.798   1.021   3.472  0.2431  1.2204 -1.5155
 2789SOL     OW19825   1.968   1.012   4.689  0.2564 -0.2481 -0.3835
 2789SOL    HW119826   1.980   1.091   4.636  1.2418 -1.8053 -2.4577
 2789SOL    HW219827   2.021   1.034   4.766 -2.4965  0.9279  1.2173
 2790SOL     OW19828   0.382   4.314   6.320  0.1029  0.3415 -0.2904
 2790SOL    HW119829   0.459   4.301   6.265  0.6365  0.2813  0.4863
 2790SOL    HW219830   0.305   4.310   6.263  0.0211 -1.3387 -0.0474
 2791SOL     OW19831   2.073   2.315  13.032  0.0612 -0.1754 -0.2287
 2791SOL    HW119832   2.076   2.231  12.987  3.7324  0.2997 -0.9105
 2791SOL    HW219833   2.155   2.324  13.081  0.5756  1.9469 -1.5046
 2792SOL     OW19834   2.852   4.101   0.441 -0.2692  0.2236  0.6627
 2792SOL    HW119835   2.829   4.067   0.354  0.8191  1.3206 -0.0717
 2792SOL    HW219836   2.818   4.033   0.498 -1.1840  3.3920  3.8937
 2793SOL     OW19837   4.350   3.559   5.400  0.3400 -0.1772  0.4310
 2793SOL    HW119838   4.343   3.548   5.495  0.7743  1.0188  0.5952
 2793SOL    HW219839   4.372   3.471   5.370  1.9299  0.0286  1.0316
 2794SOL     OW19840   1.519   0.530   6.164  0.3983  0.0358 -0.2541
 2794SOL    HW119841   1.570   0.567   6.236  0.4082 -0.9511  0.2468
 2794SOL    HW219842   1.447   0.594   6.163  0.0138 -0.4254 -1.4806
 2795SOL     OW19843   2.830   1.348   3.277  0.0947  0.7748 -0.3219
 2795SOL    HW119844   2.852   1.427   3.325 -0.7003  1.8493 -1.7001
 2795SOL    HW219845   2.771   1.300   3.336  0.4623  0.7720  0.0380
 2796SOL     OW19846   0.822   3.344   6.806  0.0367  0.2277 -0.6044
 2796SOL    HW119847   0.877   3.419   6.785 -1.1309  1.4404  0.6048
 2796SOL    HW219848   0.886   3.277   6.831 -0.5539 -0.0529  0.1968
 2797SOL     OW19849   2.703   0.901   4.241 -0.0489  0.4323  0.3931
 2797SOL    HW119850   2.650   0.831   4.278  0.2313 -0.2747 -0.5566
 2797SOL    HW219851   2.695   0.881   4.147 -0.9378  0.1795  0.5250
 2798SOL     OW19852   2.329   3.395   6.084 -0.7718  0.0263  0.3013
 2798SOL    HW119853   2.420   3.371   6.101 -0.4136  0.6440 -0.6918
 2798SOL    HW219854   2.293   3.422   6.168 -0.6382  1.2090 -0.0258
 2799SOL     OW19855   3.980   1.056   4.699 -0.0554 -0.5198  0.5001
 2799SOL    HW119856   4.025   1.054   4.614  0.2864  0.9505  0.6539
 2799SOL    HW219857   3.889   1.044   4.672 -1.2612  2.0250  3.4323
 2800SOL     OW19858   3.323   2.578  11.838  0.0886  0.2782 -0.3300
 2800SOL    HW119859   3.270   2.657  11.831  2.5680  1.9602 -0.3642
 2800SOL    HW219860   3.289   2.526  11.765  1.1856  1.0937 -1.4136
 2801SOL     OW19861   4.518   1.730   4.280  0.2432  0.0940  0.0397
 2801SOL    HW119862   4.486   1.742   4.191 -0.3385  2.8803  0.6142
 2801SOL    HW219863   4.461   1.661   4.314  0.4826 -0.1038  0.0392
 2802SOL     OW19864   3.083   3.408   9.570  0.2282  0.1017  0.3763
 2802SOL    HW119865   3.163   3.453   9.544  1.2652 -1.6257  0.6081
 2802SOL    HW219866   3.110   3.393   9.661 -1.7562  0.0018  0.9620
 2803SOL     OW19867   4.034   1.928   9.045 -0.5682  0.3685 -0.5572
 2803SOL    HW119868   3.956   1.927   9.101  2.6901 -2.0338  3.9354
 2803SOL    HW219869   4.046   2.019   9.020 -0.0564  0.3691 -0.3040
 2804SOL     OW19870   2.473   0.292  14.554 -0.5901 -0.4598  0.0420
 2804SOL    HW119871   2.454   0.356  14.486 -2.8297  0.8930  1.9647
 2804SOL    HW219872   2.549   0.246  14.518  0.8498  2.0644 -0.1450
 2805SOL     OW19873   4.239   4.025   7.616  0.2351 -0.1285 -0.3017
 2805SOL    HW119874   4.258   4.018   7.710  0.8661 -0.2891 -0.4399
 2805SOL    HW219875   4.225   4.119   7.603  0.9639  0.2612  1.6910
 2806SOL     OW19876   1.780   3.238  12.965 -0.1291 -0.5415 -0.4426
 2806SOL    HW119877   1.860   3.266  13.009 -0.8042 -0.5635  0.8295
 2806SOL    HW219878   1.814   3.166  12.911  2.3917  0.0345  0.3853
 2807SOL     OW19879   2.030   1.323  10.892  0.1353  0.0866 -0.1753
 2807SOL    HW119880   2.106   1.381  10.892  0.4702 -0.3736  1.9564
 2807SOL    HW219881   2.004   1.333  10.983  0.1464  0.5165 -0.2212
 2808SOL     OW19882   1.969   2.090   5.164  0.0108 -0.1425 -0.1940
 2808SOL    HW119883   1.900   2.038   5.123 -2.1012  0.5981  2.4138
 2808SOL    HW219884   2.040   2.079   5.101  1.7852 -2.6478  2.2257
 2809SOL     OW19885   2.826   4.712  11.710 -0.6928 -0.2058  0.1025
 2809SOL    HW119886   2.840   4.617  11.706  0.4974 -0.0518  0.8003
 2809SOL    HW219887   2.735   4.705  11.681 -0.2469 -0.4862 -1.2454
 2810SOL     OW19888   4.383   3.899   6.191 -0.4855  0.0303 -0.6337
 2810SOL    HW119889   4.462   3.932   6.147 -1.1347  1.8084 -0.4650
 2810SOL    HW219890   4.329   3.904   6.112 -0.4023  0.7956 -0.6442
 2811SOL     OW19891   4.718   3.797   2.265  0.2631 -0.2964  0.3954
 2811SOL    HW119892   0.075   3.847   2.288  1.8082 -2.4112 -0.2825
 2811SOL    HW219893   0.008   3.782   2.171  0.0492 -1.6225  0.5847
 2812SOL     OW19894   1.083   2.621  17.080  0.3734 -0.1908 -0.4452
 2812SOL    HW119895   1.071   2.576  17.164  1.0924 -3.8693 -2.3218
 2812SOL    HW219896   1.040   2.705  17.095  0.2982 -0.0388 -1.5120
 2813SOL     OW19897   0.010   0.893   2.119  0.0092  0.5399  0.2623
 2813SOL    HW119898   4.704   0.923   2.032 -0.2670  1.2923  0.6102
 2813SOL    HW219899   0.085   0.950   2.130 -0.1989  0.8049  0.3161
 2814SOL     OW19900   0.320   1.458  15.111 -0.1007 -0.5116  0.5404
 2814SOL    HW119901   0.389   1.441  15.047  0.5612 -0.1631  1.1566
 2814SOL    HW219902   0.287   1.368  15.109  3.6143 -1.9169  2.8939
 2815SOL     OW19903   0.525   3.401   8.239 -0.0698 -0.0689  0.3213
 2815SOL    HW119904   0.502   3.310   8.220  1.2624 -0.3871  0.2461
 2815SOL    HW219905   0.609   3.400   8.286  0.6956 -2.0904 -1.1120
 2816SOL     OW19906   3.459   2.967   7.880  0.6152 -0.5697 -0.4771
 2816SOL    HW119907   3.490   2.974   7.971 -0.9004  1.1231 -0.1044
 2816SOL    HW219908   3.416   2.881   7.876 -0.4471 -0.0702  0.1621
 2817SOL     OW19909   1.761   4.493   5.453  0.1452 -0.6073  0.2824
 2817SOL    HW119910   1.756   4.472   5.359 -0.6226 -0.1435  0.2184
 2817SOL    HW219911   1.694   4.561   5.458  1.3212  0.5435  0.6907
 2818SOL     OW19912   2.333   4.409   3.096  0.9699  0.2716  0.2397
 2818SOL    HW119913   2.295   4.338   3.043  1.2677  0.8885 -0.7883
 2818SOL    HW219914   2.427   4.392   3.100  0.8444 -0.2013  1.2977
 2819SOL     OW19915   0.287   0.741   9.419 -0.0624 -0.1872  0.1703
 2819SOL    HW119916   0.351   0.757   9.349  2.0655  0.2014  2.1872
 2819SOL    HW219917   0.213   0.700   9.373 -1.8392  1.5721  1.4902
 2820SOL     OW19918   3.785   2.223  11.859  0.2209 -0.0326 -0.1727
 2820SOL    HW119919   3.711   2.183  11.812 -1.0815  1.6099  0.5121
 2820SOL    HW219920   3.751   2.271  11.934 -0.9938  0.2218 -0.8746
 2821SOL     OW19921   4.347   2.448  15.428  0.2019 -0.2605  0.8156
 2821SOL    HW119922   4.308   2.362  15.443 -2.4310  1.0560  1.4867
 2821SOL    HW219923   4.367   2.470  15.519  0.9025  0.4788  0.4875
 2822SOL     OW19924   1.050   4.572   3.197 -0.1751  0.0769  0.5682
 2822SOL    HW119925   1.012   4.588   3.111  1.1526 -0.6885 -0.1548
 2822SOL    HW219926   1.071   4.480   3.179  0.5873  0.1381  1.1403
 2823SOL     OW19927   2.234   2.053   7.790 -0.3485 -0.5125 -0.4483
 2823SOL    HW119928   2.155   2.100   7.762 -0.3849 -0.3315 -0.0407
 2823SOL    HW219929   2.279   2.029   7.709 -1.9131  0.2473 -1.5427
 2824SOL     OW19930   3.369   1.681  16.447 -0.2152  0.3401  0.4744
 2824SOL    HW119931   3.351   1.763  16.401  0.7623  0.7514  0.8293
 2824SOL    HW219932   3.327   1.696  16.532  0.6965  0.4068  0.9069
 2825SOL     OW19933   0.231   4.172  16.833  0.3557 -0.4661  0.5615
 2825SOL    HW119934   0.247   4.267  16.833  0.0877 -0.4254  1.2120
 2825SOL    HW219935   0.255   4.158  16.741  0.9532  0.6962  0.5368
 2826SOL     OW19936   4.697   3.211  10.300  0.5915 -0.6094  0.1492
 2826SOL    HW119937   0.005   3.262  10.376 -0.3586  0.1463  0.0160
 2826SOL    HW219938   4.648   3.139  10.340  2.8340 -2.8542 -1.1740
 2827SOL     OW19939   2.864   4.710  12.157 -0.5354  0.5420 -0.4997
 2827SOL    HW119940   2.814   4.632  12.181 -0.2528  0.7829  0.8720
 2827SOL    HW219941   2.917   0.001  12.236  0.9282 -1.4722 -1.1590
 2828SOL     OW19942   0.655   2.542   9.224  0.0906 -0.0637 -0.1560
 2828SOL    HW119943   0.707   2.552   9.304 -0.0089  4.6733 -0.7050
 2828SOL    HW219944   0.718   2.567   9.156 -0.4861 -1.4821 -1.2044
 2829SOL     OW19945   2.402   3.201   1.309 -0.1485  0.1678 -0.1983
 2829SOL    HW119946   2.486   3.196   1.355  1.0143 -2.3949 -2.6238
 2829SOL    HW219947   2.427   3.170   1.222  2.1192  0.6173  0.2891
 2830SOL     OW19948   2.194   3.904   0.344 -0.4935 -0.8963 -0.0882
 2830SOL    HW119949   2.173   3.838   0.410 -3.7522  0.2993  0.1187
 2830SOL    HW219950   2.278   3.929   0.381 -0.4871 -0.8355 -0.1427
 2831SOL     OW19951   2.927   0.294  15.677  0.4882 -0.2491  0.4083
 2831SOL    HW119952   2.921   0.281  15.583  1.4711 -2.8101  0.6858
 2831SOL    HW219953   2.878   0.376  15.680 -1.7589 -1.5406 -0.4512
 2832SOL     OW19954   3.999   4.059   3.623 -0.0638 -0.0775 -0.7693
 2832SOL    HW119955   3.938   4.090   3.691  2.5305  1.1371  1.0112
 2832SOL    HW219956   4.085   4.061   3.664 -0.1609 -3.4491 -0.4509
 2833SOL     OW19957   2.208   1.539   7.400  0.0134  0.0823  0.5063
 2833SOL    HW119958   2.257   1.593   7.461  0.5960  0.4963 -0.3409
 2833SOL    HW219959   2.257   1.544   7.318 -0.7021  0.1719  0.0740
 2834SOL     OW19960   1.617   3.827  14.917 -0.1311  0.1236 -0.1786
 2834SOL    HW119961   1.551   3.816  14.986 -0.2040 -0.0770 -0.2835
 2834SOL    HW219962   1.583   3.769  14.850  1.9369 -0.8478 -0.3891
 2835SOL     OW19963   4.329   2.790   8.413 -0.4443 -0.2436 -0.5397
 2835SOL    HW119964   4.284   2.865   8.451  1.4395  1.6532 -2.1279
 2835SOL    HW219965   4.411   2.824   8.377  0.2723 -1.2773  0.1046
 2836SOL     OW19966   1.615   2.882   7.950 -0.5577 -0.3500  0.2945
 2836SOL    HW119967   1.659   2.813   7.899 -0.4860  0.4932 -0.7987
 2836SOL    HW219968   1.618   2.828   8.029  0.4184 -2.3876 -1.1259
 2837SOL     OW19969   3.803   2.191   8.179 -0.0579  0.0974 -0.3338
 2837SOL    HW119970   3.827   2.098   8.177  0.9978  0.3498  0.9353
 2837SOL    HW219971   3.849   2.215   8.259 -0.5569  1.0122 -0.3189
 2838SOL     OW19972   0.919   2.090  14.430  0.1107 -0.0411  0.5354
 2838SOL    HW119973   0.923   1.994  14.427  1.3488 -0.0193  1.4763
 2838SOL    HW219974   0.983   2.101  14.500 -0.2988 -2.6229  1.3093
 2839SOL     OW19975   0.896   0.499   1.251 -0.4844 -0.4437 -0.9254
 2839SOL    HW119976   0.898   0.407   1.277  1.3712 -0.2240 -0.2658
 2839SOL    HW219977   0.983   0.521   1.284 -0.9092 -2.3762  1.4919
 2840SOL     OW19978   1.192   3.291   1.281 -0.7407  0.8731  0.1828
 2840SOL    HW119979   1.138   3.334   1.215 -0.3696  0.6506 -0.2679
 2840SOL    HW219980   1.230   3.365   1.328  2.5410  0.6587 -2.0486
 2841SOL     OW19981   1.830   3.095  12.279  0.5051  0.3987 -0.2119
 2841SOL    HW119982   1.853   3.107  12.187 -0.3498  1.6910 -0.2523
 2841SOL    HW219983   1.843   3.186  12.304 -1.9390  1.3258 -2.3894
 2842SOL     OW19984   3.055   1.469   4.535  0.0495  0.3540 -0.1780
 2842SOL    HW119985   2.960   1.458   4.529 -0.0397  0.0316  1.8915
 2842SOL    HW219986   3.066   1.533   4.465 -2.3903  0.2379 -0.6808
 2843SOL     OW19987   2.324   3.562   6.399 -0.4034  0.7460 -0.0019
 2843SOL    HW119988   2.392   3.559   6.332  0.5724 -1.5128  1.0780
 2843SOL    HW219989   2.365   3.538   6.482  0.2190  1.3189 -0.1533
 2844SOL     OW19990   0.212   0.215  16.561 -0.8791 -0.1989 -0.5343
 2844SOL    HW119991   0.149   0.274  16.518 -0.6712  0.4912  0.1084
 2844SOL    HW219992   0.216   0.259  16.646  0.5222 -1.0039 -0.1897
 2845SOL     OW19993   2.355   3.829   3.684 -0.2948 -0.0950 -0.2695
 2845SOL    HW119994   2.261   3.824   3.703 -0.2450  1.7159  0.5137
 2845SOL    HW219995   2.349   3.811   3.590  3.3761  0.9723 -0.6905
 2846SOL     OW19996   1.969   1.914   4.392 -0.0485 -0.0621 -0.0464
 2846SOL    HW119997   1.965   2.001   4.432 -0.1217  0.4953 -1.2745
 2846SOL    HW219998   1.918   1.927   4.312 -1.0048 -2.7395  0.1194
 2847SOL     OW19999   3.746   2.972  14.454 -0.4953 -0.3101  0.3537
 2847SOL    HW120000   3.778   3.015  14.534  1.5154  0.7637 -1.0440
 2847SOL    HW220001   3.791   2.888  14.450 -0.4158 -0.2457 -0.0945
 2848SOL     OW20002   4.679   3.807  11.495  0.6628  0.7349 -0.8381
 2848SOL    HW120003   0.031   3.788  11.437  0.5983 -2.5064  0.0903
 2848SOL    HW220004   4.675   3.727  11.548  1.1014 -0.3959 -2.5253
 2849SOL     OW20005   3.453   1.406   2.601  0.2793 -0.7298  0.2001
 2849SOL    HW120006   3.440   1.334   2.662  1.1116 -0.1673  1.0289
 2849SOL    HW220007   3.549   1.402   2.596  0.4552  0.6659  2.6231
 2850SOL     OW20008   2.398   0.735   6.735  0.0340 -0.6174  0.1810
 2850SOL    HW120009   2.425   0.819   6.698 -0.7353  0.9565  3.1740
 2850SOL    HW220010   2.411   0.756   6.827  0.5881  1.6003 -0.3984
 2851SOL     OW20011   1.033   4.176   5.938  0.1143  0.4014 -0.0230
 2851SOL    HW120012   0.980   4.162   6.017  0.0699 -1.3671 -0.3602
 2851SOL    HW220013   1.114   4.132   5.963 -0.4059 -2.0842 -2.7382
 2852SOL     OW20014   2.782   3.129  10.733 -0.2163  0.2577 -0.1243
 2852SOL    HW120015   2.748   3.200  10.678 -0.2808  0.8273  0.6526
 2852SOL    HW220016   2.850   3.102  10.671  1.3083 -0.2049  1.7735
 2853SOL     OW20017   0.624   0.172  10.015  0.8036 -0.3219  0.1396
 2853SOL    HW120018   0.599   0.251  10.064 -0.4743  1.1293 -2.8616
 2853SOL    HW220019   0.538   0.131  10.006  0.7820 -0.1075 -0.6614
 2854SOL     OW20020   3.495   3.612   6.110 -0.0941  0.0392  0.0489
 2854SOL    HW120021   3.571   3.589   6.163  1.1175 -3.8121 -3.3850
 2854SOL    HW220022   3.428   3.563   6.159 -1.0067  0.7879 -0.4480
 2855SOL     OW20023   4.318   1.834  16.932  0.2122  0.6416  0.1419
 2855SOL    HW120024   4.331   1.771  17.003 -0.0530  0.2491 -0.1649
 2855SOL    HW220025   4.225   1.855  16.945  0.2292 -0.2190  1.6304
 2856SOL     OW20026   3.713   1.522  16.331 -0.4005  0.8784 -0.5765
 2856SOL    HW120027   3.743   1.511  16.241  0.3010 -0.6829 -0.1482
 2856SOL    HW220028   3.624   1.487  16.324  0.1347 -0.4337 -0.7065
 2857SOL     OW20029   4.662   3.558  10.403  0.0290 -0.1664 -0.4620
 2857SOL    HW120030   0.023   3.607  10.399 -1.5487  2.4086 -2.1766
 2857SOL    HW220031   4.690   3.490  10.463  1.2132  1.4690  0.8054
 2858SOL     OW20032   0.738   0.095   4.171  0.2794  0.5329 -0.4326
 2858SOL    HW120033   0.756   0.189   4.157 -1.0578  1.4877  4.5090
 2858SOL    HW220034   0.643   0.087   4.171  0.0943  2.7229 -0.7459
 2859SOL     OW20035   3.031   2.120   0.971  0.2935  0.4098  0.0154
 2859SOL    HW120036   2.951   2.079   0.940  0.2373  0.3106  0.2871
 2859SOL    HW220037   3.093   2.046   0.975  0.5858  0.6221 -0.5905
 2860SOL     OW20038   3.063   3.740  10.436  0.1549  0.2136  0.0040
 2860SOL    HW120039   3.141   3.763  10.486 -0.4598 -0.2315  1.1631
 2860SOL    HW220040   3.003   3.808  10.466 -0.3446 -0.6909  1.0369
 2861SOL     OW20041   3.877   0.508  14.199 -0.1351 -0.4052 -0.1663
 2861SOL    HW120042   3.840   0.420  14.204 -2.5267  0.6416  0.9051
 2861SOL    HW220043   3.955   0.500  14.254  0.9457 -1.1182 -1.8091
 2862SOL     OW20044   3.177   3.171  13.038  0.0873  0.8326  0.7789
 2862SOL    HW120045   3.246   3.169  12.972 -0.8105  1.2774 -0.1622
 2862SOL    HW220046   3.221   3.206  13.115  0.3745 -0.5702  1.2471
 2863SOL     OW20047   0.543   2.881   1.062  0.4255 -0.3306  0.4582
 2863SOL    HW120048   0.504   2.947   1.119  2.6601 -0.4168  2.0757
 2863SOL    HW220049   0.633   2.911   1.047 -0.5234  1.7309 -1.0291
 2864SOL     OW20050   0.991   2.032   5.265  0.2603 -0.2160 -0.6121
 2864SOL    HW120051   0.955   1.943   5.261 -0.4527  0.1429 -2.0022
 2864SOL    HW220052   0.938   2.074   5.332 -0.1193 -1.6274 -0.0140
 2865SOL     OW20053   2.794   0.826  16.512 -0.0427 -0.1705 -0.5922
 2865SOL    HW120054   2.889   0.828  16.516 -0.1525  0.2448  1.9671
 2865SOL    HW220055   2.788   0.761  16.442  0.6563  1.2713 -1.9922
 2866SOL     OW20056   3.643   0.271   2.065  0.1390  0.2543 -0.1500
 2866SOL    HW120057   3.713   0.208   2.082 -2.6380 -2.7326  0.1515
 2866SOL    HW220058   3.693   0.352   2.055 -0.3188  0.5905  0.2757
 2867SOL     OW20059   1.025   2.772   3.452 -0.5586 -0.7165 -0.2522
 2867SOL    HW120060   0.975   2.695   3.482 -2.9831  1.0255  0.1959
 2867SOL    HW220061   1.026   2.754   3.358 -0.1856 -0.7837 -0.2337
 2868SOL     OW20062   3.143   3.395   8.317  0.1286  0.3573 -0.5283
 2868SOL    HW120063   3.060   3.347   8.321  0.2790  0.2903  1.4659
 2868SOL    HW220064   3.189   3.349   8.387  0.2002  1.8513  0.4122
 2869SOL     OW20065   2.156   1.203   1.150 -0.0079  0.0467  0.0312
 2869SOL    HW120066   2.104   1.266   1.200 -0.3918 -0.2826  0.0504
 2869SOL    HW220067   2.246   1.221   1.177 -0.7120  2.5936  0.6311
 2870SOL     OW20068   2.094   1.274   8.041  0.0379  0.9242  0.2079
 2870SOL    HW120069   2.163   1.226   8.087 -0.3641 -0.2325 -0.4085
 2870SOL    HW220070   2.017   1.246   8.089  1.0449  0.8056  1.7444
 2871SOL     OW20071   0.028   3.056   5.494  0.3564  0.0300 -0.2121
 2871SOL    HW120072   0.113   3.083   5.530 -0.1145  1.8742 -0.5062
 2871SOL    HW220073   0.027   3.096   5.407  0.8880 -2.4314 -1.3581
 2872SOL     OW20074   0.600   0.659   7.271 -0.2321  0.2797  0.4608
 2872SOL    HW120075   0.602   0.724   7.201  1.3745 -1.4895 -1.0929
 2872SOL    HW220076   0.643   0.704   7.344  2.9434  0.5992 -1.6485
 2873SOL     OW20077   4.227   2.221   0.465  0.2880  0.0232 -0.1954
 2873SOL    HW120078   4.270   2.149   0.511  0.4184 -0.7427 -1.5098
 2873SOL    HW220079   4.170   2.176   0.402 -1.2818 -0.1806  1.3579
 2874SOL     OW20080   3.269   0.327   4.261 -0.4032  0.6402 -0.3017
 2874SOL    HW120081   3.268   0.398   4.324  0.0498  1.2882 -1.0186
 2874SOL    HW220082   3.179   0.294   4.259 -1.0503  2.4107 -0.0494
 2875SOL     OW20083   0.673   1.305   3.436  0.4897  0.3193  0.3122
 2875SOL    HW120084   0.696   1.227   3.488  1.0361  0.2348 -0.0529
 2875SOL    HW220085   0.739   1.303   3.367 -0.9664 -2.2768 -0.9835
 2876SOL     OW20086   2.257   1.337   6.723  0.2771  0.2605  0.7952
 2876SOL    HW120087   2.184   1.289   6.684  1.0052  2.3361 -3.2310
 2876SOL    HW220088   2.327   1.291   6.676  0.7162  0.3552  1.3625
 2877SOL     OW20089   0.722   1.185   4.901  0.1515 -0.3393  0.0571
 2877SOL    HW120090   0.717   1.142   4.816  1.4239  0.3263 -0.3435
 2877SOL    HW220091   0.644   1.161   4.952 -1.8216  0.5147 -2.5714
 2878SOL     OW20092   4.588   3.518   4.846  0.2056  0.1388 -0.1574
 2878SOL    HW120093   4.530   3.536   4.772  1.1706  0.3263 -0.8609
 2878SOL    HW220094   4.526   3.500   4.917  0.5397  1.7452  0.5428
 2879SOL     OW20095   2.588   4.225  12.392 -0.6550 -0.5124 -0.3055
 2879SOL    HW120096   2.498   4.243  12.419 -0.5372 -1.9292  1.0763
 2879SOL    HW220097   2.578   4.136  12.358 -0.2928  0.2439 -2.3713
 2880SOL     OW20098   0.697   4.527   7.691  0.4163 -0.3123  0.5508
 2880SOL    HW120099   0.642   4.494   7.762  0.1865 -1.8612 -0.3470
 2880SOL    HW220100   0.638   4.599   7.668  1.0445 -0.2842 -1.0060
 2881SOL     OW20101   2.402   2.597   6.737  0.6248  0.3471  0.2976
 2881SOL    HW120102   2.489   2.623   6.706  1.2277 -0.9106  0.9325
 2881SOL    HW220103   2.406   2.626   6.829  1.1058  0.1736  0.3306
 2882SOL     OW20104   3.308   1.659   3.298  0.3795  0.2591  0.2826
 2882SOL    HW120105   3.356   1.653   3.215 -0.3101  1.4169 -0.1945
 2882SOL    HW220106   3.231   1.708   3.270  0.8950  0.7298 -0.3266
 2883SOL     OW20107   1.625   0.164  10.251 -0.0281 -0.1959 -0.4129
 2883SOL    HW120108   1.556   0.100  10.266 -0.0537 -0.4322 -1.4825
 2883SOL    HW220109   1.650   0.156  10.158 -0.5125 -0.6166 -0.5044
 2884SOL     OW20110   1.642   4.469  11.367 -0.0309  0.1226  0.1773
 2884SOL    HW120111   1.658   4.509  11.281  0.2144 -2.2071 -0.8645
 2884SOL    HW220112   1.548   4.457  11.379  0.1792 -0.5506  1.1057
 2885SOL     OW20113   4.561   1.671   3.248 -0.0717  0.0828 -0.1255
 2885SOL    HW120114   4.559   1.683   3.343 -0.5002 -0.5038 -0.0548
 2885SOL    HW220115   4.593   1.758   3.227 -0.8942 -0.0966 -2.0824
 2886SOL     OW20116   2.365   3.222   8.675  0.1425 -0.4518 -0.5823
 2886SOL    HW120117   2.322   3.152   8.723  1.1648 -1.0302 -0.5084
 2886SOL    HW220118   2.397   3.273   8.750 -0.9805  0.3595 -0.6439
 2887SOL     OW20119   3.034   2.567   8.377 -0.4072  0.0972  0.3083
 2887SOL    HW120120   2.972   2.534   8.442 -1.6541 -0.5094 -1.2152
 2887SOL    HW220121   3.093   2.493   8.369 -1.4784 -0.5648 -1.3201
 2888SOL     OW20122   1.880   2.160   8.539  0.0301  0.1300 -0.1094
 2888SOL    HW120123   1.962   2.206   8.520 -0.1865  0.9292  0.9123
 2888SOL    HW220124   1.903   2.068   8.525 -1.0788 -0.3022  0.9806
 2889SOL     OW20125   2.838   3.793   5.965  0.0213 -0.9025 -0.1210
 2889SOL    HW120126   2.753   3.815   5.927  0.5010  2.8227  0.9326
 2889SOL    HW220127   2.830   3.801   6.060  0.1712  0.0225 -0.1855
 2890SOL     OW20128   3.427   0.969   5.302 -0.2369 -0.9389  0.5205
 2890SOL    HW120129   3.374   0.986   5.224 -1.9179  2.2995  2.3503
 2890SOL    HW220130   3.427   1.056   5.343 -0.5353 -0.5369 -0.3243
 2891SOL     OW20131   2.473   3.204  11.850  0.3652 -0.7265  0.0601
 2891SOL    HW120132   2.542   3.242  11.795 -0.0958  1.3896  0.9395
 2891SOL    HW220133   2.512   3.179  11.934  1.5056 -1.9002 -0.8201
 2892SOL     OW20134   4.090   1.291  10.641  0.6445  0.4368 -0.2208
 2892SOL    HW120135   4.129   1.276  10.727 -2.0908 -2.0557  0.5885
 2892SOL    HW220136   4.012   1.343  10.662  0.0267 -0.4566 -0.3111
 2893SOL     OW20137   1.000   3.894   4.727 -0.6059 -0.1109  0.1865
 2893SOL    HW120138   1.060   3.969   4.731  0.4557 -1.0292  1.3877
 2893SOL    HW220139   0.941   3.924   4.658 -0.2251 -0.8203 -0.4456
 2894SOL     OW20140   3.369   3.527   4.922 -0.2325  0.3046 -0.3413
 2894SOL    HW120141   3.339   3.611   4.956 -0.6388 -0.3992  1.0321
 2894SOL    HW220142   3.305   3.518   4.850 -1.1039  0.8544  0.3714
 2895SOL     OW20143   0.112   4.590   3.509 -0.7093  0.2079  0.4463
 2895SOL    HW120144   0.117   4.629   3.421  1.4414  1.0146  0.9346
 2895SOL    HW220145   0.205   4.575   3.521 -0.9093 -1.2348  0.1458
 2896SOL     OW20146   3.419   0.246   7.266 -0.2387  0.2086 -0.4400
 2896SOL    HW120147   3.362   0.174   7.291  1.2710 -0.8496  0.0003
 2896SOL    HW220148   3.431   0.283   7.354 -0.6211 -0.4692 -0.0973
 2897SOL     OW20149   1.388   3.130   9.489 -0.1637  0.1085  0.0292
 2897SOL    HW120150   1.323   3.153   9.424  1.5013  0.7155 -1.4206
 2897SOL    HW220151   1.462   3.131   9.428 -1.1108  0.4414 -1.1074
 2898SOL     OW20152   1.958   2.905   6.548  0.3106  0.4883  0.2495
 2898SOL    HW120153   2.001   2.846   6.485 -1.6181  0.4645 -1.0663
 2898SOL    HW220154   1.977   2.858   6.629 -0.4096  0.3317  0.3273
 2899SOL     OW20155   0.957   3.138   8.817  0.4255 -0.4842  0.1892
 2899SOL    HW120156   0.936   3.045   8.811  2.0760 -0.6111 -3.5083
 2899SOL    HW220157   0.994   3.142   8.729  0.1174 -0.1378  0.0685
 2900SOL     OW20158   1.937   0.381   0.259 -0.3834  0.7930 -0.4130
 2900SOL    HW120159   1.886   0.317   0.309 -1.1343  2.7376  1.3115
 2900SOL    HW220160   1.886   0.460   0.274 -2.2663 -0.7659  1.4959
 2901SOL     OW20161   2.053   0.155   7.882 -0.3699  0.5398 -0.0022
 2901SOL    HW120162   2.080   0.240   7.916  0.3778 -0.0812  0.9609
 2901SOL    HW220163   1.965   0.156   7.918 -0.4228  2.0764 -0.1582
 2902SOL     OW20164   2.929   2.412   6.901 -0.2613  0.1438  0.1624
 2902SOL    HW120165   2.950   2.494   6.857  0.2655  0.2937  0.6979
 2902SOL    HW220166   2.989   2.358   6.849 -3.4806 -0.8976 -2.4635
 2903SOL     OW20167   1.725   3.687  12.568 -0.8283  0.7505  0.2427
 2903SOL    HW120168   1.765   3.627  12.505 -0.0561  2.3363 -0.7837
 2903SOL    HW220169   1.780   3.679  12.646 -2.3376 -0.0755  1.2164
 2904SOL     OW20170   2.426   1.961   3.268  0.2599 -0.7122 -0.3120
 2904SOL    HW120171   2.411   2.055   3.262  1.3669 -0.3833  2.1964
 2904SOL    HW220172   2.465   1.931   3.186 -0.0821  0.5709 -0.9402
 2905SOL     OW20173   2.557   1.496   6.442 -0.1368 -0.6735  0.0369
 2905SOL    HW120174   2.599   1.492   6.357  0.9299  0.7225  0.4939
 2905SOL    HW220175   2.606   1.561   6.493 -0.8364  0.1227 -0.3149
 2906SOL     OW20176   4.317   3.315   7.730 -0.9715 -0.2217 -0.1607
 2906SOL    HW120177   4.323   3.225   7.761 -0.8628 -0.8589 -2.0901
 2906SOL    HW220178   4.223   3.326   7.721 -1.3124 -1.8421  1.4993
 2907SOL     OW20179   0.235   1.626   3.456  0.2158 -0.3944 -0.0320
 2907SOL    HW120180   0.310   1.609   3.399  1.1759 -0.2800  1.1700
 2907SOL    HW220181   0.263   1.599   3.544  0.2998  1.5156  0.5367
 2908SOL     OW20182   2.159   0.259   4.672  0.0167 -0.4227  0.5445
 2908SOL    HW120183   2.067   0.233   4.680 -0.5423  0.7947 -1.9358
 2908SOL    HW220184   2.201   0.176   4.651  1.3209  0.1041  1.0967
 2909SOL     OW20185   0.267   2.949   2.239 -0.5291 -0.3986 -0.1146
 2909SOL    HW120186   0.283   2.875   2.180  0.4736  0.9199 -1.4919
 2909SOL    HW220187   0.197   2.996   2.193  1.1823  1.5048 -0.7558
 2910SOL     OW20188   3.034   3.695   5.787 -0.2394 -0.0635  0.2980
 2910SOL    HW120189   2.972   3.712   5.858 -0.2059 -0.6850  0.4761
 2910SOL    HW220190   3.053   3.601   5.783 -1.8871 -0.4452  1.8507
 2911SOL     OW20191   1.738   2.769   3.080 -0.0481 -0.0779  0.2941
 2911SOL    HW120192   1.692   2.793   3.000  2.6656 -0.9411 -1.5187
 2911SOL    HW220193   1.698   2.682   3.087 -1.3058  0.4369 -0.4477
 2912SOL     OW20194   3.024   2.909   1.254  0.4787  0.0065  0.2395
 2912SOL    HW120195   2.994   2.949   1.336 -3.0167  1.7387 -1.8683
 2912SOL    HW220196   3.003   2.980   1.194  0.9984  0.5349  0.6889
 2913SOL     OW20197   0.879   2.971   3.963 -0.0983 -0.0620  0.1966
 2913SOL    HW120198   0.802   2.917   3.948 -1.0182  0.3264  3.5728
 2913SOL    HW220199   0.931   2.914   4.019 -0.7419 -0.8492 -0.0056
 2914SOL     OW20200   2.600   0.331  17.342  0.4700 -0.3019  0.8759
 2914SOL    HW120201   2.678   0.286  17.308 -0.4623 -0.6702 -0.7977
 2914SOL    HW220202   2.597   0.301  17.433  1.6754 -0.5964  0.8190
 2915SOL     OW20203   2.173   1.155  13.735  0.1639  0.4924  0.9522
 2915SOL    HW120204   2.217   1.181  13.816  0.1483 -1.2661  1.5108
 2915SOL    HW220205   2.100   1.118  13.783 -1.0499 -0.8707 -1.9704
 2916SOL     OW20206   3.749   4.601   2.980  0.4002 -0.7940 -0.0165
 2916SOL    HW120207   3.788   4.643   3.057  1.8846  0.3981 -1.4007
 2916SOL    HW220208   3.725   4.513   3.009 -0.5550 -0.4098  0.3671
 2917SOL     OW20209   1.220   1.300   0.430  0.6481 -0.4210 -0.0846
 2917SOL    HW120210   1.308   1.318   0.397 -0.3359  1.8491 -1.5181
 2917SOL    HW220211   1.173   1.263   0.355  1.4729  1.5048 -1.5567
 2918SOL     OW20212   3.587   4.212  15.585 -0.1809 -0.4046 -1.0984
 2918SOL    HW120213   3.631   4.173  15.661 -0.3254  1.6000  0.0309
 2918SOL    HW220214   3.500   4.175  15.598 -0.7860  1.1284 -0.8175
 2919SOL     OW20215   2.398   2.260   3.257  0.0410  0.9030 -0.6154
 2919SOL    HW120216   2.328   2.273   3.321 -0.0097  1.1004 -0.7117
 2919SOL    HW220217   2.476   2.298   3.295 -1.1108 -0.7536  3.4318
 2920SOL     OW20218   1.335   2.704   5.757 -0.3756 -0.2053  0.6167
 2920SOL    HW120219   1.313   2.747   5.675  0.9129 -0.1833  0.2782
 2920SOL    HW220220   1.282   2.755   5.818 -1.8159  0.6419 -1.3533
 2921SOL     OW20221   0.719   1.258  12.618  0.0965 -0.1802 -0.2820
 2921SOL    HW120222   0.785   1.307  12.668 -0.9063  0.7430  0.1445
 2921SOL    HW220223   0.653   1.254  12.688 -1.9339 -0.6096 -2.2486
 2922SOL     OW20224   0.978   1.447  15.557 -0.1294 -0.4363  0.4310
 2922SOL    HW120225   1.060   1.421  15.516 -0.9647 -0.8301 -1.0192
 2922SOL    HW220226   0.974   1.541  15.576 -2.0844 -1.0396  3.0296
 2923SOL     OW20227   3.041   3.704   9.837  0.3196  0.3029 -0.1784
 2923SOL    HW120228   3.075   3.616   9.851  0.5063  0.2402 -1.0406
 2923SOL    HW220229   2.965   3.691   9.781  0.9759 -1.2463 -0.7108
 2924SOL     OW20230   3.558   1.010   4.325 -0.2122 -0.1405 -0.0613
 2924SOL    HW120231   3.532   0.960   4.248  0.2764 -0.0633 -0.2777
 2924SOL    HW220232   3.624   0.961   4.374 -0.5804 -1.1223 -0.5513
 2925SOL     OW20233   2.355   2.749  16.875  0.5253  0.1366 -0.7099
 2925SOL    HW120234   2.335   2.823  16.818 -0.8992  0.4209  0.1406
 2925SOL    HW220235   2.449   2.738  16.866  0.6118 -0.7423  1.4322
 2926SOL     OW20236   0.210   3.842  11.024  0.2917  0.6535 -0.2459
 2926SOL    HW120237   0.210   3.808  10.935 -4.2707  0.1055 -0.0408
 2926SOL    HW220238   0.218   3.936  11.011  0.8980  0.9216  2.0163
 2927SOL     OW20239   3.166   0.009   4.805 -0.1585 -0.5592  0.4488
 2927SOL    HW120240   3.180   0.019   4.899 -0.6606 -0.4449  0.5117
 2927SOL    HW220241   3.072   4.713   4.806 -0.1988 -0.4415 -1.7355
 2928SOL     OW20242   1.774   2.761   1.361  0.0708 -0.1812 -0.0433
 2928SOL    HW120243   1.688   2.783   1.395 -0.5076  0.0257 -1.6438
 2928SOL    HW220244   1.814   2.847   1.347 -1.7089  0.9121  1.6412
 2929SOL     OW20245   2.022   0.518   9.361  0.6844  0.5041 -0.7173
 2929SOL    HW120246   2.071   0.598   9.380 -1.9971  2.6119 -2.7617
 2929SOL    HW220247   2.063   0.484   9.282 -1.8388 -2.9342 -0.5702
 2930SOL     OW20248   0.508   0.998  11.378 -0.2149 -0.1243 -0.5043
 2930SOL    HW120249   0.501   1.006  11.474 -2.7211 -0.3381 -0.6730
 2930SOL    HW220250   0.501   0.903  11.367 -0.7665 -0.0555 -0.7527
 2931SOL     OW20251   4.526   2.254  11.773 -0.5842  0.6425 -0.3112
 2931SOL    HW120252   4.432   2.250  11.787 -0.8643  0.2668 -2.2713
 2931SOL    HW220253   4.541   2.340  11.732  2.3338  0.4213  0.2901
 2932SOL     OW20254   2.100   1.382   9.687 -0.1622 -0.1882  0.2322
 2932SOL    HW120255   2.112   1.415   9.598 -1.4160 -2.5047 -0.8072
 2932SOL    HW220256   2.041   1.447   9.726  0.1757  0.6229 -0.6116
 2933SOL     OW20257   3.144   4.007  10.339 -0.2889 -0.6752  0.3958
 2933SOL    HW120258   3.202   3.957  10.281 -1.1502  0.2109 -1.2480
 2933SOL    HW220259   3.168   3.983  10.428 -0.0003 -1.1044  0.1986
 2934SOL     OW20260   1.136   4.531   3.438 -0.8327 -0.0903 -0.5365
 2934SOL    HW120261   1.080   4.581   3.497  1.3807  1.9788 -0.2209
 2934SOL    HW220262   1.114   4.570   3.353 -1.3462  0.3403 -0.1987
 2935SOL     OW20263   1.944   1.908   1.188 -0.1884 -0.0491  0.1501
 2935SOL    HW120264   1.866   1.953   1.221 -0.5449 -0.0421 -0.7049
 2935SOL    HW220265   1.959   1.855   1.266  1.1206  0.4023  0.2007
 2936SOL     OW20266   4.195   1.640  16.213 -0.0860 -0.6025 -0.0672
 2936SOL    HW120267   4.196   1.722  16.262 -1.4274 -0.7145  0.1434
 2936SOL    HW220268   4.283   1.612  16.237  0.2486 -0.1863 -0.8108
 2937SOL     OW20269   3.166   2.876  15.547 -0.3024 -0.5632 -0.2202
 2937SOL    HW120270   3.240   2.855  15.491 -0.5052  1.4771 -1.2630
 2937SOL    HW220271   3.210   2.930  15.613 -0.9312  2.0189 -1.9202
 2938SOL     OW20272   4.378   1.074   0.856 -0.3358  0.0778  0.1295
 2938SOL    HW120273   4.301   1.031   0.820  0.6343  0.6352 -2.6835
 2938SOL    HW220274   4.385   1.034   0.942 -0.6705  1.6033  0.8752
 2939SOL     OW20275   0.075   1.133  16.002 -0.9240  0.6935 -0.3763
 2939SOL    HW120276   0.165   1.124  16.032 -1.2800 -0.9924  0.2012
 2939SOL    HW220277   0.090   1.139  15.908 -1.8188  2.0251 -0.4343
 2940SOL     OW20278   3.396   0.659   6.172  0.0872 -0.0065  0.7417
 2940SOL    HW120279   3.337   0.682   6.100 -0.7126 -0.5627  1.2275
 2940SOL    HW220280   3.408   0.565   6.160 -2.4242 -0.1770 -0.4452
 2941SOL     OW20281   2.589   0.219   1.565  0.4187 -0.1588 -0.0954
 2941SOL    HW120282   2.604   0.313   1.552  0.3024  0.2167  2.3597
 2941SOL    HW220283   2.527   0.211   1.493  0.9210 -2.2975 -0.2934
 2942SOL     OW20284   0.148   3.778   5.460  0.2514 -0.4377  0.2387
 2942SOL    HW120285   0.054   3.791   5.472  0.4697  3.0358 -1.7587
 2942SOL    HW220286   0.175   3.772   5.551  0.2502  1.2636  0.3458
 2943SOL     OW20287   0.980   0.105   7.176  0.4829  0.1464  0.2195
 2943SOL    HW120288   0.923   0.029   7.191  1.8832 -0.9276  0.0934
 2943SOL    HW220289   1.038   0.094   7.251  0.5360  1.8488  0.4384
 2944SOL     OW20290   3.006   0.269   6.562 -0.2726 -0.1034  0.2853
 2944SOL    HW120291   2.986   0.362   6.569 -0.8317 -0.1738 -0.3629
 2944SOL    HW220292   2.974   0.254   6.473  0.6174  2.5344 -0.4671
 2945SOL     OW20293   1.419   1.484   8.949  0.4052  0.7088  0.2151
 2945SOL    HW120294   1.324   1.487   8.946  0.4924  1.8366 -1.0589
 2945SOL    HW220295   1.466   1.509   8.870 -0.3875 -1.2633 -0.8897
 2946SOL     OW20296   3.250   3.739   8.743  0.2104 -0.1889 -0.5345
 2946SOL    HW120297   3.316   3.806   8.759  0.9232 -0.2443 -3.1807
 2946SOL    HW220298   3.176   3.800   8.750 -0.5303 -1.6707  4.0462
 2947SOL     OW20299   2.341   0.185   2.191  0.2503  0.0021 -0.5240
 2947SOL    HW120300   2.294   0.231   2.260 -0.0181 -1.9132  0.5779
 2947SOL    HW220301   2.358   0.255   2.128  2.7896 -0.5088 -0.3857
 2948SOL     OW20302   2.673   2.940  10.517 -0.1648  0.4269  0.1349
 2948SOL    HW120303   2.747   2.919  10.575 -0.5881 -3.2333 -0.6549
 2948SOL    HW220304   2.636   2.856  10.490  2.1136  0.2687 -2.5999
 2949SOL     OW20305   4.533   2.741   0.096  0.0033  0.5375  0.7890
 2949SOL    HW120306   4.577   2.681   0.037 -0.2242 -1.1647  2.3670
 2949SOL    HW220307   4.505   2.683   0.167  1.5349 -0.9302  0.1853
 2950SOL     OW20308   2.022   1.752   5.437  0.2044 -0.3281 -0.0772
 2950SOL    HW120309   1.968   1.824   5.406  2.2707  1.6454  0.8765
 2950SOL    HW220310   2.086   1.747   5.366 -0.5996 -0.4066 -0.7994
 2951SOL     OW20311   3.043   4.401   7.953 -0.5600 -0.1694 -0.2146
 2951SOL    HW120312   3.057   4.306   7.955 -2.8150 -0.4809  0.7025
 2951SOL    HW220313   3.122   4.428   8.001 -0.0957 -0.9303 -0.5465
 2952SOL     OW20314   4.215   2.185   7.739  0.6349  0.0790  0.3073
 2952SOL    HW120315   4.147   2.118   7.743  0.5014  0.4055  3.5808
 2952SOL    HW220316   4.156   2.260   7.728 -0.2438 -0.2627  2.7144
 2953SOL     OW20317   3.050   0.147  14.592 -0.0392 -0.5231  0.1156
 2953SOL    HW120318   2.987   0.192  14.648 -0.6763 -0.9286 -0.2701
 2953SOL    HW220319   3.032   0.059  14.625 -1.8408  0.0806  0.7378
 2954SOL     OW20320   1.023   1.984   7.609  0.6805 -0.2363  0.5263
 2954SOL    HW120321   0.958   1.915   7.603  0.3186  0.0102  1.5550
 2954SOL    HW220322   1.090   1.948   7.668 -0.6752 -3.6070 -0.0400
 2955SOL     OW20323   1.981   1.882  13.400 -0.0173 -0.4867 -0.3783
 2955SOL    HW120324   2.040   1.809  13.380  0.1927 -0.1591 -0.9342
 2955SOL    HW220325   1.899   1.835  13.384 -1.4285  1.8070  0.0834
 2956SOL     OW20326   3.382   0.760   5.039 -0.2244  0.3448  0.5148
 2956SOL    HW120327   3.439   0.819   4.990  1.2447 -0.4599  1.2673
 2956SOL    HW220328   3.333   0.828   5.085  0.3576 -0.0852  1.7789
 2957SOL     OW20329   3.912   4.012  13.624 -0.6004 -0.4506 -0.1598
 2957SOL    HW120330   3.889   4.076  13.558  0.5361  2.0902  1.9173
 2957SOL    HW220331   3.829   4.019  13.672  0.4248 -2.0278  1.8796
 2958SOL     OW20332   3.625   0.884  12.841 -0.0762 -0.2081  0.1632
 2958SOL    HW120333   3.546   0.843  12.807  0.6599 -1.3547 -0.1858
 2958SOL    HW220334   3.683   0.808  12.851  2.8583  2.1171  0.7045
 2959SOL     OW20335   2.833   3.746   2.629  0.0689  0.0544  0.0898
 2959SOL    HW120336   2.892   3.759   2.555 -0.1001  0.1789 -0.0222
 2959SOL    HW220337   2.798   3.835   2.639  0.2265 -0.0741  1.8967
 2960SOL     OW20338   3.622   3.939  10.953  0.1422 -0.0319 -0.5231
 2960SOL    HW120339   3.656   3.884  11.024 -1.2058  0.6485  0.6595
 2960SOL    HW220340   3.557   3.983  11.008 -1.7066 -0.7207 -2.1697
 2961SOL     OW20341   3.904   2.668   3.669  0.0913 -0.2025  0.2105
 2961SOL    HW120342   3.881   2.593   3.614  1.1393  0.2596 -0.8703
 2961SOL    HW220343   3.818   2.675   3.710 -1.2025  1.6038 -2.7552
 2962SOL     OW20344   3.990   1.316   7.979 -0.3995  0.2997  0.0737
 2962SOL    HW120345   3.900   1.347   7.990  0.2823  2.4301 -0.3471
 2962SOL    HW220346   3.970   1.225   7.956  0.1153  0.8450 -2.5801
 2963SOL     OW20347   1.187   3.312   3.192 -0.6118 -0.6249 -0.1199
 2963SOL    HW120348   1.249   3.258   3.240  0.8790  3.8443  2.9920
 2963SOL    HW220349   1.231   3.297   3.108  0.2890 -0.1739  0.2754
 2964SOL     OW20350   3.812   2.501   9.358 -0.2614 -0.2932  0.0252
 2964SOL    HW120351   3.899   2.509   9.320  0.2566  0.5066  1.4108
 2964SOL    HW220352   3.766   2.581   9.333 -0.4262 -0.5671 -0.5585
 2965SOL     OW20353   2.422   2.927   5.419 -0.1047 -0.3353  0.2718
 2965SOL    HW120354   2.361   2.985   5.373  1.7407  1.2501 -0.1683
 2965SOL    HW220355   2.401   2.937   5.511 -0.7872  1.9684 -0.1218
 2966SOL     OW20356   3.284   2.801   0.614  0.7721  0.1712  0.2366
 2966SOL    HW120357   3.369   2.760   0.603  0.5792 -0.3272  0.5965
 2966SOL    HW220358   3.297   2.885   0.570 -1.5560  0.6628  0.4772
 2967SOL     OW20359   3.645   4.198  14.792  0.3513  0.2641 -0.5714
 2967SOL    HW120360   3.725   4.188  14.843  0.7958  2.8538 -0.7684
 2967SOL    HW220361   3.576   4.206  14.858 -0.1296  1.7586 -1.2509
 2968SOL     OW20362   0.966   4.084  10.794  0.7894 -0.0912  0.0863
 2968SOL    HW120363   0.986   3.990  10.788  0.5300 -0.1669  0.3788
 2968SOL    HW220364   1.054   4.119  10.785 -0.3145  2.6470  0.1466
 2969SOL     OW20365   4.185   3.278   7.041  0.2835  0.5094  0.7619
 2969SOL    HW120366   4.247   3.206   7.049  0.0929  0.1334 -1.2232
 2969SOL    HW220367   4.102   3.232   7.028  0.8661 -0.8186  1.8203
 2970SOL     OW20368   2.190   1.698  11.700 -0.3638 -0.1564 -0.6870
 2970SOL    HW120369   2.132   1.762  11.741  0.9855  0.1149  0.7701
 2970SOL    HW220370   2.146   1.687  11.615  0.3587  0.9345 -1.1927
 2971SOL     OW20371   3.773   3.658  16.787 -0.5079  0.1692 -0.5204
 2971SOL    HW120372   3.690   3.646  16.832 -0.2073  1.4630  0.3849
 2971SOL    HW220373   3.792   3.733  16.843  0.0654 -0.2592 -0.1405
 2972SOL     OW20374   3.301   2.511   1.208 -0.3640 -0.6311 -0.3629
 2972SOL    HW120375   3.391   2.544   1.203 -1.2011  1.7435  0.1802
 2972SOL    HW220376   3.281   2.503   1.115  0.0542 -1.1839 -0.4040
 2973SOL     OW20377   2.248   1.927  17.442 -0.1291 -0.1326  0.0120
 2973SOL    HW120378   2.330   1.913  17.393  0.3057  0.6346  0.5136
 2973SOL    HW220379   2.221   1.837  17.461  1.2426 -0.7490 -0.8952
 2974SOL     OW20380   0.548   4.179  16.066  0.0483  0.6170 -0.1346
 2974SOL    HW120381   0.512   4.253  16.017  0.7297  0.8052 -0.3616
 2974SOL    HW220382   0.479   4.117  16.043  1.2473 -1.0578  0.8213
 2975SOL     OW20383   4.195   0.075   6.858  0.1165  0.4197 -0.0129
 2975SOL    HW120384   4.169   0.034   6.776 -2.5729  3.9780 -0.9396
 2975SOL    HW220385   4.242   0.004   6.903 -1.2429 -1.4419 -1.5437
 2976SOL     OW20386   3.419   2.180   6.409 -0.2984  0.6261  0.5145
 2976SOL    HW120387   3.405   2.180   6.314  0.0126 -1.8725  0.4531
 2976SOL    HW220388   3.512   2.202   6.418 -0.7766  1.8226  2.3519
 2977SOL     OW20389   2.618   4.632  15.576  0.0205  0.0821  0.1537
 2977SOL    HW120390   2.592   4.570  15.645 -1.9718 -0.0327 -0.7038
 2977SOL    HW220391   2.671   4.697  15.621  1.4657 -0.5732 -0.6261
 2978SOL     OW20392   1.800   4.465   5.146  0.0473 -0.3748  0.5112
 2978SOL    HW120393   1.730   4.529   5.135  2.3279  2.0376  0.0551
 2978SOL    HW220394   1.872   4.510   5.104  0.9887 -1.4870  0.9089
 2979SOL     OW20395   2.331   3.035   7.678 -0.2369  0.1869 -0.1845
 2979SOL    HW120396   2.361   3.049   7.588  1.1824 -0.0580  0.2626
 2979SOL    HW220397   2.384   2.958   7.698 -0.4469 -0.1407 -0.8701
 2980SOL     OW20398   2.704   2.686  15.978 -0.7377  0.4289  0.3799
 2980SOL    HW120399   2.702   2.595  15.949  0.8913  1.1854 -2.1494
 2980SOL    HW220400   2.730   2.674  16.069 -1.0848 -1.0375  0.2736
 2981SOL     OW20401   2.558   0.612   4.932 -0.1953 -0.3894  0.1803
 2981SOL    HW120402   2.525   0.655   5.011 -1.1751  1.2210 -1.1039
 2981SOL    HW220403   2.478   0.621   4.880 -0.0578 -1.2165 -0.1741
 2982SOL     OW20404   3.376   3.019   7.284 -0.0656 -0.5690 -0.1997
 2982SOL    HW120405   3.301   2.980   7.328 -1.3703  2.4309  0.2082
 2982SOL    HW220406   3.400   2.965   7.208 -1.6928  0.3547 -1.3761
 2983SOL     OW20407   0.353   3.233   2.665  0.4590  0.6468 -0.7014
 2983SOL    HW120408   0.423   3.221   2.601  2.7157 -1.2445  2.1077
 2983SOL    HW220409   0.277   3.212   2.611 -0.1361 -0.6520  0.6483
 2984SOL     OW20410   1.280   2.676   8.692 -0.7496  0.3632  0.5116
 2984SOL    HW120411   1.283   2.665   8.787  1.7910 -1.4832  0.2318
 2984SOL    HW220412   1.240   2.593   8.665 -1.4309  1.1131 -0.7752
 2985SOL     OW20413   1.310   1.753   5.614  0.5213 -0.2091  0.0687
 2985SOL    HW120414   1.338   1.840   5.585 -0.3984  0.4814  1.2943
 2985SOL    HW220415   1.228   1.733   5.569  0.1830 -1.2920  1.1733
 2986SOL     OW20416   3.431   4.606   8.201 -0.3725 -0.1132  0.0727
 2986SOL    HW120417   3.507   4.618   8.258 -0.7145  0.3759  0.4286
 2986SOL    HW220418   3.449   4.526   8.153 -1.8296 -0.6041  0.3294
 2987SOL     OW20419   2.074   4.351   6.150  0.3054 -0.2432  0.1165
 2987SOL    HW120420   2.007   4.295   6.111  0.1473  0.6993 -0.9760
 2987SOL    HW220421   2.095   4.403   6.073 -0.4555 -0.3754 -0.1829
 2988SOL     OW20422   2.948   4.396   0.395  0.4736 -0.1366  0.0039
 2988SOL    HW120423   2.883   4.462   0.421  1.8513  0.5774  1.6774
 2988SOL    HW220424   2.905   4.318   0.430 -0.5565  0.2307 -0.4436
 2989SOL     OW20425   3.955   0.667   4.372  0.0013  0.0155  0.7719
 2989SOL    HW120426   4.036   0.685   4.420  1.1707  1.6539 -1.8403
 2989SOL    HW220427   3.986   0.678   4.282  0.1653  0.4491  0.8830
 2990SOL     OW20428   4.126   3.878  17.616 -0.3055  0.4198  0.4668
 2990SOL    HW120429   4.076   3.938  17.561  2.6906  0.0278 -2.6456
 2990SOL    HW220430   4.063   3.854  17.685 -3.0725  1.1765 -1.7916
 2991SOL     OW20431   2.858   2.119  15.260 -0.7515 -0.7359  0.3341
 2991SOL    HW120432   2.895   2.200  15.296 -1.0098 -1.5493  2.4335
 2991SOL    HW220433   2.915   2.049  15.292 -1.3114 -1.1851  0.3563
 2992SOL     OW20434   2.500   1.748   4.901  0.1803  0.0642  0.3536
 2992SOL    HW120435   2.443   1.685   4.856  1.9223 -1.3214  0.1016
 2992SOL    HW220436   2.584   1.706   4.883 -0.5722 -0.5816 -1.6453
 2993SOL     OW20437   0.758   3.483   3.291 -0.2502  0.0935  0.0421
 2993SOL    HW120438   0.712   3.400   3.277  2.3252 -1.5392  1.1401
 2993SOL    HW220439   0.788   3.499   3.202 -1.5255 -0.7491 -0.5362
 2994SOL     OW20440   4.640   0.200   4.604  0.7867  0.8238 -0.3729
 2994SOL    HW120441   4.560   0.220   4.654  0.8270  0.4505 -0.1589
 2994SOL    HW220442   4.712   0.213   4.665 -1.0681  0.4718  1.8821
 2995SOL     OW20443   2.444   3.790  14.868  0.3536  0.2228 -0.1551
 2995SOL    HW120444   2.472   3.836  14.947 -1.4824  1.3091 -0.1303
 2995SOL    HW220445   2.355   3.826  14.859  0.1779 -0.7757 -2.3886
 2996SOL     OW20446   2.976   0.737   4.409 -0.5841 -0.1481  0.9266
 2996SOL    HW120447   2.966   0.765   4.500  1.1400  1.6363  0.5569
 2996SOL    HW220448   2.989   0.818   4.359 -0.9793  0.0477  1.1393
 2997SOL     OW20449   3.754   2.747  12.090 -0.1722 -0.4630  0.5077
 2997SOL    HW120450   3.745   2.652  12.083  1.2359 -0.4464 -1.2738
 2997SOL    HW220451   3.680   2.775  12.036 -0.1119 -3.5501 -1.2099
 2998SOL     OW20452   2.611   0.313   3.211  0.0133  0.2862 -0.4628
 2998SOL    HW120453   2.591   0.223   3.185  1.2770 -0.1619  0.1537
 2998SOL    HW220454   2.704   0.328   3.198  0.7058 -1.8181  2.0718
 2999SOL     OW20455   0.652   2.100   6.674  0.2409 -0.1207 -0.0523
 2999SOL    HW120456   0.569   2.055   6.692  0.5404 -0.5191  0.3515
 2999SOL    HW220457   0.627   2.168   6.612 -0.0529 -1.7519 -1.7298
 3000SOL     OW20458   0.012   3.601   8.780  0.0433 -0.0272  0.1283
 3000SOL    HW120459   4.668   3.663   8.749  0.3629  0.1442 -0.2067
 3000SOL    HW220460   0.027   3.633   8.869 -0.6059 -1.8120  0.8886
 3001SOL     OW20461   3.759   3.600  10.967 -0.4145 -0.6588  0.0934
 3001SOL    HW120462   3.753   3.674  11.028 -2.6902  1.3036 -2.4697
 3001SOL    HW220463   3.853   3.582  10.966 -0.0565  1.2061 -0.6198
 3002SOL     OW20464   4.661   3.392   5.545 -0.0694 -0.0354  0.1025
 3002SOL    HW120465   4.665   3.468   5.487  0.3463 -1.1301 -1.3023
 3002SOL    HW220466   4.589   3.412   5.605 -0.4038  0.7135 -0.5461
 3003SOL     OW20467   1.839   4.360   2.358 -0.2434  0.1983 -0.5154
 3003SOL    HW120468   1.804   4.428   2.415 -2.7006 -1.2800 -0.2608
 3003SOL    HW220469   1.867   4.409   2.281  1.5879  2.1073  1.3521
 3004SOL     OW20470   2.363   4.111   4.672 -0.0188  0.0656  0.3847
 3004SOL    HW120471   2.457   4.102   4.660  0.1174  0.8145  0.9007
 3004SOL    HW220472   2.337   4.096   4.581  2.8594 -1.6499 -0.1572
 3005SOL     OW20473   1.679   3.609   4.035 -0.4536 -0.0605 -0.3179
 3005SOL    HW120474   1.670   3.580   3.944  2.0697  0.2034 -0.6687
 3005SOL    HW220475   1.640   3.696   4.029 -0.3808 -0.1189 -1.6238
 3006SOL     OW20476   1.911   0.170   8.789 -0.0632  0.2468 -0.1532
 3006SOL    HW120477   1.953   0.103   8.736  0.2901 -0.0427  0.5009
 3006SOL    HW220478   1.838   0.118   8.823 -2.0167  2.5247 -0.8367
 3007SOL     OW20479   0.609   2.366   2.470 -0.4233  0.0999  0.0382
 3007SOL    HW120480   0.585   2.456   2.494 -1.0052 -0.7106  2.5341
 3007SOL    HW220481   0.550   2.314   2.525  0.1405 -3.1795 -2.4398
 3008SOL     OW20482   0.867   3.280   5.369  0.3013  0.1598  0.0803
 3008SOL    HW120483   0.933   3.307   5.433  0.4848  1.2869 -0.5899
 3008SOL    HW220484   0.832   3.357   5.324 -0.9767 -1.3207 -1.5137
 3009SOL     OW20485   4.473   2.704   8.731 -0.2082 -0.2942  0.1628
 3009SOL    HW120486   4.548   2.647   8.748  0.0476 -0.0169 -0.0346
 3009SOL    HW220487   4.517   2.788   8.746  1.0765 -0.3917 -3.0276
 3010SOL     OW20488   1.372   2.055   5.880  0.3814 -0.4011  0.5053
 3010SOL    HW120489   1.362   2.148   5.861  0.4245 -0.4169  0.4036
 3010SOL    HW220490   1.434   2.030   5.811  0.0297  1.8371 -0.5965
 3011SOL     OW20491   2.880   4.366   5.711  0.0529 -0.3786  0.1871
 3011SOL    HW120492   2.805   4.364   5.772 -0.1646  0.2375 -0.0586
 3011SOL    HW220493   2.904   4.275   5.697 -1.5917 -1.0115  1.4291
 3012SOL     OW20494   2.920   4.609  15.971 -0.0001 -0.0010 -0.3840
 3012SOL    HW120495   2.886   4.635  16.056  0.4595 -0.4525 -0.0597
 3012SOL    HW220496   2.891   4.685  15.921  1.9910  0.7367 -0.3941
 3013SOL     OW20497   4.505   3.546   9.904  0.2063 -0.4046  0.4733
 3013SOL    HW120498   4.410   3.550   9.892  0.3720 -1.7010 -1.3055
 3013SOL    HW220499   4.509   3.558   9.998 -1.3968  0.1854  0.4656
 3014SOL     OW20500   0.888   3.571   7.855  0.4393 -0.3752  0.1408
 3014SOL    HW120501   0.882   3.649   7.800  1.9760 -0.2019  0.2184
 3014SOL    HW220502   0.833   3.592   7.930  1.1353  1.6786  0.0604
 3015SOL     OW20503   0.057   0.493   4.042 -0.2820 -0.1384 -0.3298
 3015SOL    HW120504   0.068   0.448   3.958 -0.7736  0.4752 -0.7217
 3015SOL    HW220505   0.034   0.424   4.105 -1.4318 -0.1209 -0.7276
 3016SOL     OW20506   4.216   3.573   4.437 -0.9191 -0.3889 -0.6855
 3016SOL    HW120507   4.235   3.644   4.498  2.0632  0.1545 -2.2532
 3016SOL    HW220508   4.121   3.576   4.435 -0.7945  1.7479 -2.8409
 3017SOL     OW20509   2.444   3.815   8.314 -0.0058 -0.5312  0.4953
 3017SOL    HW120510   2.402   3.829   8.399  1.1691 -1.0273  1.1605
 3017SOL    HW220511   2.534   3.794   8.337 -0.0090 -0.9954  0.0802
 3018SOL     OW20512   1.073   2.527   1.431 -0.7660  0.2621 -0.5269
 3018SOL    HW120513   1.087   2.456   1.494  0.9051  1.7904  0.8396
 3018SOL    HW220514   0.995   2.559   1.477 -0.0788  1.3054 -0.0947
 3019SOL     OW20515   1.993   4.000   6.055  0.4654 -0.2735  0.5945
 3019SOL    HW120516   1.931   4.072   6.071 -0.9360 -1.3200 -0.1030
 3019SOL    HW220517   1.970   3.962   5.970 -0.4409  1.9345 -0.1496
 3020SOL     OW20518   2.258   1.132   8.221  0.3077  0.2378 -0.9033
 3020SOL    HW120519   2.327   1.142   8.287  2.0919 -0.4834 -2.6537
 3020SOL    HW220520   2.183   1.128   8.280  2.1994  0.6260  1.5383
 3021SOL     OW20521   4.061   3.773   9.209 -0.8393  0.4809  0.1646
 3021SOL    HW120522   4.094   3.690   9.246  1.0932  1.0049 -0.3711
 3021SOL    HW220523   4.003   3.807   9.276  0.9015  1.0653  1.3946
 3022SOL     OW20524   3.865   2.165   7.224 -0.6154  0.0754 -0.3671
 3022SOL    HW120525   3.779   2.153   7.184 -0.3107  2.4792 -1.7413
 3022SOL    HW220526   3.839   2.166   7.316  0.1044 -0.0786 -0.1648
 3023SOL     OW20527   1.251   2.688   6.546 -0.3345 -0.6788 -0.2276
 3023SOL    HW120528   1.315   2.739   6.496 -0.1924 -1.4437 -0.8081
 3023SOL    HW220529   1.307   2.613   6.567  0.2860  0.2310  1.3873
 3024SOL     OW20530   2.365   3.359   2.604  0.1526  0.3077 -0.4077
 3024SOL    HW120531   2.451   3.346   2.564  1.2635 -0.7259  2.2897
 3024SOL    HW220532   2.337   3.270   2.626  0.4564  0.3759  0.2469
 3025SOL     OW20533   2.885   1.746   8.225 -0.2067  0.0321  0.4730
 3025SOL    HW120534   2.974   1.748   8.189 -0.5464  0.0826 -0.3615
 3025SOL    HW220535   2.838   1.684   8.169  0.3999  3.3244 -3.6972
 3026SOL     OW20536   1.742   2.147   5.442 -0.2686 -0.0085  0.4404
 3026SOL    HW120537   1.833   2.176   5.436 -0.0170 -0.9219 -0.2049
 3026SOL    HW220538   1.715   2.149   5.534  0.0835 -0.1474  0.5455
 3027SOL     OW20539   3.940   4.710   9.717 -0.1240 -0.1500 -0.3886
 3027SOL    HW120540   3.970   4.716   9.808 -0.9073  0.1837 -0.1516
 3027SOL    HW220541   3.958   4.619   9.695  1.3743  0.1965 -0.5488
 3028SOL     OW20542   0.735   3.105   5.582  0.8886  0.0097 -0.6077
 3028SOL    HW120543   0.779   3.186   5.554 -0.6523  0.2653 -2.2957
 3028SOL    HW220544   0.798   3.062   5.639  2.4311 -0.4341 -2.6763
 3029SOL     OW20545   4.081   4.154   9.694 -0.2857 -0.0077 -0.2856
 3029SOL    HW120546   4.149   4.220   9.686  0.4382 -0.2778  3.6409
 3029SOL    HW220547   4.036   4.185   9.772  0.2840 -0.4177  0.2032
 3030SOL     OW20548   0.473   2.381  17.106 -0.2045  0.5871  0.6590
 3030SOL    HW120549   0.520   2.454  17.065 -1.8204  1.7302  0.8190
 3030SOL    HW220550   0.534   2.363  17.178 -0.8511 -2.1674  0.4995
 3031SOL     OW20551   2.086   4.021   7.989 -0.2648 -0.1591  0.4222
 3031SOL    HW120552   1.996   4.011   8.020 -0.5197 -2.1610 -0.9835
 3031SOL    HW220553   2.139   3.977   8.055 -0.2920  1.1650  1.3088
 3032SOL     OW20554   1.236   3.568   3.008  0.3875  0.5992 -0.2780
 3032SOL    HW120555   1.331   3.557   3.005  0.1829 -1.5843  1.2945
 3032SOL    HW220556   1.222   3.612   2.924  2.6700 -0.7762 -1.3757
 3033SOL     OW20557   0.062   1.589   2.620  0.0033  0.1512  0.1866
 3033SOL    HW120558   0.151   1.601   2.587  0.4825  0.4480  1.6294
 3033SOL    HW220559   0.013   1.610   2.540 -2.5046 -1.1609  1.3811
 3034SOL     OW20560   0.467   1.308   6.869 -0.1779  0.2434 -0.2446
 3034SOL    HW120561   0.522   1.374   6.826  1.1368 -0.2680  0.6372
 3034SOL    HW220562   0.376   1.335   6.859 -0.5555 -0.6990  0.6078
 3035SOL     OW20563   2.838   4.472   2.878  0.2606  0.6280 -0.7420
 3035SOL    HW120564   2.846   4.402   2.813  2.5285 -1.4516  1.7462
 3035SOL    HW220565   2.927   4.468   2.913 -0.8515 -2.5529  1.7570
 3036SOL     OW20566   4.519   3.526   3.313  0.5694 -0.2051  0.3658
 3036SOL    HW120567   4.452   3.531   3.245  1.8868  1.0429 -0.8492
 3036SOL    HW220568   4.486   3.582   3.383 -0.4626 -2.7037  1.8598
 3037SOL     OW20569   0.035   0.396  16.930 -0.1775  0.0235  0.5194
 3037SOL    HW120570   0.097   0.414  16.859  1.0656 -0.2005  1.5404
 3037SOL    HW220571   4.688   0.345  16.886  1.3337  0.2520 -2.1234
 3038SOL     OW20572   0.254   4.102  13.346 -0.2436 -1.0493 -0.0192
 3038SOL    HW120573   0.269   4.149  13.264  0.5803  0.4147  0.9608
 3038SOL    HW220574   0.330   4.044  13.347  0.3563 -0.2828 -0.1336
 3039SOL     OW20575   2.510   0.310   0.926  0.5757 -0.4658 -0.6745
 3039SOL    HW120576   2.483   0.393   0.887  0.1289 -0.0267  0.5945
 3039SOL    HW220577   2.550   0.346   1.005 -2.1618 -0.0690  0.5270
 3040SOL     OW20578   4.594   4.013  17.017 -0.4418 -0.0264  0.2307
 3040SOL    HW120579   4.645   4.084  16.978  1.2927 -0.6258  1.4005
 3040SOL    HW220580   4.551   3.984  16.936 -2.3985  1.6541  0.6601
 3041SOL     OW20581   1.755   4.486   7.073 -0.2099  0.2426 -0.1750
 3041SOL    HW120582   1.770   4.567   7.121 -0.5179 -0.6460  1.4125
 3041SOL    HW220583   1.716   4.421   7.131  2.0669 -1.2547 -0.2783
 3042SOL     OW20584   2.687   2.145  11.666 -0.3698  0.0307 -0.1008
 3042SOL    HW120585   2.675   2.176  11.577 -2.0449  0.4356  0.2830
 3042SOL    HW220586   2.631   2.068  11.661  1.1886 -1.1288 -0.0684
 3043SOL     OW20587   3.153   1.293   5.518  0.0485  0.2853 -0.1584
 3043SOL    HW120588   3.059   1.274   5.527  0.3734 -1.8574 -1.1690
 3043SOL    HW220589   3.148   1.363   5.453  0.5021  1.7124  1.3336
 3044SOL     OW20590   1.488   2.960  10.764  0.0852  0.2956  0.9052
 3044SOL    HW120591   1.556   3.027  10.770 -0.0689  0.5087  0.2098
 3044SOL    HW220592   1.514   2.910  10.842  1.0846 -0.0975  0.3169
 3045SOL     OW20593   0.290   1.655  10.583  0.3047  0.2941  0.0413
 3045SOL    HW120594   0.234   1.732  10.595  0.2184  0.4990 -1.7014
 3045SOL    HW220595   0.224   1.585  10.579  0.2495  0.5011 -2.5416
 3046SOL     OW20596   2.742   1.791   2.266  0.5238  0.6821 -0.2368
 3046SOL    HW120597   2.780   1.747   2.342  1.2207  1.5988 -0.0619
 3046SOL    HW220598   2.813   1.777   2.203 -2.2439 -2.7532 -2.6258
 3047SOL     OW20599   4.664   2.557  10.355 -0.2730  0.3087 -0.4570
 3047SOL    HW120600   4.601   2.521  10.418  0.7527 -0.4477  0.1403
 3047SOL    HW220601   4.679   2.480  10.300  0.0862 -0.6351  0.9350
 3048SOL     OW20602   4.483   2.450   3.533  0.0715 -0.0675  0.1681
 3048SOL    HW120603   4.523   2.461   3.446  1.0523  0.0342  0.6372
 3048SOL    HW220604   4.425   2.525   3.531  0.1955  0.0286  0.1862
 3049SOL     OW20605   3.496   3.344   0.818  0.0869  0.2055  0.8395
 3049SOL    HW120606   3.531   3.424   0.858 -0.2557 -0.4625  2.4734
 3049SOL    HW220607   3.531   3.273   0.873 -0.6005 -1.5659 -1.0046
 3050SOL     OW20608   4.342   2.477   4.409 -0.4403  0.7002 -0.0858
 3050SOL    HW120609   4.359   2.569   4.427  2.7452  0.1657 -0.2718
 3050SOL    HW220610   4.309   2.477   4.319  1.3539 -0.4076 -0.7544
 3051SOL     OW20611   1.850   2.607  11.104  0.3619  0.4690  0.5317
 3051SOL    HW120612   1.782   2.637  11.043  1.0814 -1.0330 -1.0114
 3051SOL    HW220613   1.825   2.657  11.182 -0.7679  0.6253  0.0746
 3052SOL     OW20614   3.088   0.092   3.072  0.3139  0.2308  0.0894
 3052SOL    HW120615   3.181   0.113   3.081  0.3463 -0.5853  1.5336
 3052SOL    HW220616   3.062   0.110   3.162  0.8721 -0.1474  0.3197
 3053SOL     OW20617   0.179   2.861   6.268  0.8350  0.0130 -0.4292
 3053SOL    HW120618   0.227   2.939   6.297  0.1039  0.0277  0.7048
 3053SOL    HW220619   0.116   2.837   6.336 -2.4095  0.1730 -3.3911
 3054SOL     OW20620   0.125   0.280   4.790 -0.4030 -0.2004  0.4794
 3054SOL    HW120621   0.202   0.337   4.796  0.6813 -1.8494  2.5478
 3054SOL    HW220622   0.100   0.286   4.882  0.5919 -1.8864  0.8587
 3055SOL     OW20623   0.251   1.929   7.334  0.1297  0.0041 -0.0353
 3055SOL    HW120624   0.263   1.836   7.350 -1.6110 -0.3883 -0.9590
 3055SOL    HW220625   0.305   1.953   7.410  2.2724 -0.7693 -1.3362
 3056SOL     OW20626   0.489   0.697  16.064 -0.3948 -0.2367  0.2966
 3056SOL    HW120627   0.394   0.709  16.068 -0.2796  1.3662 -1.9471
 3056SOL    HW220628   0.492   0.635  15.991 -0.2868 -1.4634  1.3497
 3057SOL     OW20629   0.632   0.354  12.847 -0.0445 -0.4312 -0.5799
 3057SOL    HW120630   0.544   0.320  12.829  0.0534 -1.4557  0.9308
 3057SOL    HW220631   0.648   0.308  12.929 -1.8913 -0.2417 -0.1127
 3058SOL     OW20632   2.386   4.655   0.423  0.1584 -0.1162 -0.3926
 3058SOL    HW120633   2.385   0.018   0.378 -1.4814  0.8865  1.5733
 3058SOL    HW220634   2.349   4.677   0.508  0.4332  2.2124 -0.8985
 3059SOL     OW20635   2.280   4.645   8.591 -0.1869 -0.7084  0.0200
 3059SOL    HW120636   2.287   4.566   8.537  2.2329  0.1696 -0.9303
 3059SOL    HW220637   2.332   4.712   8.549 -1.6940 -0.1256 -0.9151
 3060SOL     OW20638   3.880   2.366   5.293  0.0209 -0.9380  0.3250
 3060SOL    HW120639   3.973   2.362   5.315 -0.0608 -1.3176  0.6050
 3060SOL    HW220640   3.878   2.432   5.224  0.7657 -0.3070  0.8982
 3061SOL     OW20641   1.088   3.637   4.453  0.3130  0.0822  0.1094
 3061SOL    HW120642   1.122   3.617   4.366 -2.4377 -0.4524 -0.8411
 3061SOL    HW220643   1.167   3.668   4.496  1.2844 -0.7281 -1.0900
 3062SOL     OW20644   3.042   0.818   2.370  0.4567  0.3181  0.3472
 3062SOL    HW120645   3.016   0.728   2.349 -1.6279  1.1381 -0.5664
 3062SOL    HW220646   3.023   0.813   2.464  0.8590  2.9919  0.5621
 3063SOL     OW20647   2.263   2.924   6.331  0.4421 -0.0634  0.3164
 3063SOL    HW120648   2.226   2.858   6.389  1.9662 -0.2546  1.0583
 3063SOL    HW220649   2.212   2.913   6.250 -2.4265 -0.0608  2.1347
 3064SOL     OW20650   0.524   4.329   1.540 -0.2053  0.3270  0.3765
 3064SOL    HW120651   0.602   4.362   1.586 -0.3931  1.6872 -0.3049
 3064SOL    HW220652   0.526   4.393   1.469  1.2648 -0.7031 -0.5248
 3065SOL     OW20653   2.685   2.426  11.521 -0.0999 -0.2473  0.0219
 3065SOL    HW120654   2.668   2.339  11.485 -0.5663 -1.1438  2.3553
 3065SOL    HW220655   2.658   2.487  11.452  0.6602  0.7791  0.6255
 3066SOL     OW20656   1.318   0.256   6.548 -0.0453  0.1632 -0.0529
 3066SOL    HW120657   1.306   0.298   6.634 -1.4405  0.9232 -0.6149
 3066SOL    HW220658   1.227   0.237   6.524 -0.7924 -0.6484  3.3594
 3067SOL     OW20659   4.689   2.522   3.687 -0.2694 -0.9256 -0.2217
 3067SOL    HW120660   4.638   2.527   3.767  3.5563  2.9252  1.9286
 3067SOL    HW220661   4.622   2.479   3.633 -2.2272 -0.3296  1.7568
 3068SOL     OW20662   2.203   3.535   7.577  0.4800 -0.0416 -0.1242
 3068SOL    HW120663   2.142   3.574   7.640  0.4206 -2.9256  1.6013
 3068SOL    HW220664   2.235   3.458   7.624 -1.1167 -0.2500  0.6259
 3069SOL     OW20665   1.578   0.773   2.997 -0.0610 -0.2129 -0.1522
 3069SOL    HW120666   1.634   0.702   3.028 -1.8255 -1.1562  0.8707
 3069SOL    HW220667   1.530   0.723   2.930 -0.3160 -0.6522  0.3602
 3070SOL     OW20668   2.258   2.056   9.624  0.1721 -0.1435  0.1788
 3070SOL    HW120669   2.273   2.073   9.717  0.5738 -1.9107  0.4299
 3070SOL    HW220670   2.220   1.971   9.647 -1.5631  0.2013 -1.3601
 3071SOL     OW20671   3.890   3.535  10.366 -0.7399  0.4265  0.5869
 3071SOL    HW120672   3.957   3.485  10.319 -0.5223  0.7548  0.5468
 3071SOL    HW220673   3.939   3.566  10.442  2.5889 -0.9466 -0.9584
 3072SOL     OW20674   1.687   2.592   6.769 -0.2752 -0.2708  0.4884
 3072SOL    HW120675   1.667   2.541   6.848 -1.3955 -1.3665 -0.5056
 3072SOL    HW220676   1.629   2.666   6.788 -1.7663 -1.6100  1.1754
 3073SOL     OW20677   3.053   0.939  13.893 -0.4899  0.3942  0.5642
 3073SOL    HW120678   3.058   0.894  13.808 -2.5673  1.1660  0.0227
 3073SOL    HW220679   2.979   0.998  13.881 -0.3714  0.4978  0.3471
 3074SOL     OW20680   2.267   2.130  10.146 -0.6623 -0.0908  0.2304
 3074SOL    HW120681   2.272   2.108  10.239  0.0115  0.0211  0.2236
 3074SOL    HW220682   2.279   2.225  10.138  0.7085 -0.1930  1.0507
 3075SOL     OW20683   2.475   4.094   9.410 -0.2386 -0.2905  0.7462
 3075SOL    HW120684   2.457   4.000   9.406  0.1579 -0.3466  0.3222
 3075SOL    HW220685   2.421   4.127   9.482 -1.2548 -1.9197  0.7215
 3076SOL     OW20686   4.589   4.275   6.155 -0.3898 -0.1338  0.2245
 3076SOL    HW120687   4.509   4.253   6.106  0.8289 -1.3916 -1.2054
 3076SOL    HW220688   4.594   4.222   6.234  0.9757 -1.8649 -1.0202
 3077SOL     OW20689   4.328   0.046  13.818 -0.5830  0.1605 -0.0307
 3077SOL    HW120690   4.275   0.111  13.773  0.0241  0.4547 -0.3285
 3077SOL    HW220691   4.380   0.011  13.746  0.3078  0.3976  0.4986
 3078SOL     OW20692   2.089   1.887   6.694 -0.0826  0.1311 -0.7140
 3078SOL    HW120693   2.130   1.803   6.716 -0.1633  0.6707  1.5393
 3078SOL    HW220694   2.083   1.929   6.780  0.1582  0.9923 -1.1238
 3079SOL     OW20695   2.900   1.775   3.857  0.0615 -0.1023  1.1178
 3079SOL    HW120696   2.863   1.712   3.918  2.6405 -1.6389  1.0801
 3079SOL    HW220697   2.813   1.808   3.833 -0.0574 -0.1123  1.5405
 3080SOL     OW20698   4.015   4.417   7.855 -0.5552  0.1122  0.5617
 3080SOL    HW120699   4.045   4.430   7.944  0.8918  1.6725 -0.1527
 3080SOL    HW220700   4.060   4.485   7.804  0.2606 -1.0753 -0.3283
 3081SOL     OW20701   2.598   1.825   5.179  0.4452 -0.4891  0.2054
 3081SOL    HW120702   2.550   1.842   5.099  1.9042  1.2085 -0.2861
 3081SOL    HW220703   2.655   1.752   5.154  2.3386  0.8223  0.7347
 3082SOL     OW20704   2.007   0.826  17.269  0.1346  0.4953  0.1901
 3082SOL    HW120705   1.991   0.884  17.344 -0.4905  0.0224  0.4302
 3082SOL    HW220706   2.101   0.814  17.277  0.0783 -0.4046 -0.5478
 3083SOL     OW20707   1.103   2.058   5.590  1.0393  0.1287 -0.1614
 3083SOL    HW120708   1.041   2.000   5.635  1.9411 -0.0548  0.8610
 3083SOL    HW220709   1.039   2.112   5.545 -0.8650 -0.8410  1.4024
 3084SOL     OW20710   0.180   2.509  15.963  0.0186  0.0040  0.3652
 3084SOL    HW120711   0.241   2.554  16.020  0.6152  0.8970 -0.9721
 3084SOL    HW220712   0.236   2.431  15.954 -0.0320 -0.1821  1.8075
 3085SOL     OW20713   4.295   2.282   5.122  0.3526  0.4714  0.0019
 3085SOL    HW120714   4.234   2.229   5.174 -0.7728  0.4807 -1.3040
 3085SOL    HW220715   4.333   2.214   5.066  2.4350  1.9501 -0.3505
 3086SOL     OW20716   3.794   3.623  15.066  0.7389  0.4058  0.1483
 3086SOL    HW120717   3.831   3.559  15.005  0.1578 -0.3227  0.5665
 3086SOL    HW220718   3.830   3.577  15.142  0.4563 -1.9915 -1.1729
 3087SOL     OW20719   0.501   1.067   0.880  0.2404 -0.4649 -0.4108
 3087SOL    HW120720   0.462   0.996   0.930 -0.4986  0.9626  1.0567
 3087SOL    HW220721   0.534   1.125   0.948 -2.2773 -0.4669  0.7939
 3088SOL     OW20722   4.438   3.158  12.930 -0.2879  0.3321 -0.3446
 3088SOL    HW120723   4.506   3.170  12.996 -2.9391 -2.0027  2.7797
 3088SOL    HW220724   4.356   3.166  12.977 -1.0712 -0.2845 -1.5983
 3089SOL     OW20725   4.126   4.331  14.265  0.3036  0.2433  0.2943
 3089SOL    HW120726   4.118   4.243  14.228  0.0949 -0.0494  1.0398
 3089SOL    HW220727   4.108   4.317  14.358 -1.2820 -0.1754 -0.0876
 3090SOL     OW20728   0.342   2.004   5.862 -0.0021  0.4247  0.1906
 3090SOL    HW120729   0.362   2.013   5.956 -0.7088  1.0352  0.2795
 3090SOL    HW220730   0.318   2.094   5.841  0.1426  0.7557  1.4078
 3091SOL     OW20731   3.159   0.571   5.766 -0.0827 -0.5867 -0.4306
 3091SOL    HW120732   3.065   0.557   5.757 -0.2029  0.1433 -0.3012
 3091SOL    HW220733   3.184   0.595   5.677 -1.3213  0.3116 -0.5418
 3092SOL     OW20734   1.330   0.080   6.974 -0.5727  0.3474 -0.2474
 3092SOL    HW120735   1.269   0.143   6.935  0.5521  2.4763  1.4445
 3092SOL    HW220736   1.395   0.092   6.905  0.5098 -2.3425  0.2971
 3093SOL     OW20737   1.747   3.007   8.440  0.1046 -0.6033 -0.1332
 3093SOL    HW120738   1.758   3.099   8.466 -2.1437 -0.0541 -1.1530
 3093SOL    HW220739   1.795   3.011   8.357  0.8065  1.7338  0.3631
 3094SOL     OW20740   4.010   4.451   2.064 -0.0531  0.5323 -0.9120
 3094SOL    HW120741   4.048   4.407   2.139 -1.6943 -1.2741 -1.1249
 3094SOL    HW220742   4.032   4.542   2.082 -2.8230  1.1074 -0.3820
 3095SOL     OW20743   0.547   3.721  11.563 -0.2962  0.6912  0.0368
 3095SOL    HW120744   0.582   3.765  11.640  2.0500  1.8717 -1.7099
 3095SOL    HW220745   0.529   3.803  11.516  1.7964  0.8928 -0.3812
 3096SOL     OW20746   0.804   0.041  14.783 -0.4835 -0.0544  0.1657
 3096SOL    HW120747   0.797   4.668  14.789  0.2498 -0.1697 -0.7975
 3096SOL    HW220748   0.809   0.054  14.688  2.0242  1.3501  0.4913
 3097SOL     OW20749   3.894   1.325   7.356 -0.1123 -0.1636 -0.1791
 3097SOL    HW120750   3.802   1.303   7.342 -0.3145  0.7084 -0.2529
 3097SOL    HW220751   3.903   1.297   7.447  2.8370 -2.4526 -1.2066
 3098SOL     OW20752   3.927   2.168   7.863  0.0424 -0.4450 -0.0719
 3098SOL    HW120753   3.922   2.087   7.811  0.4453  0.4423 -1.4813
 3098SOL    HW220754   3.861   2.136   7.926  0.0407  1.8674  1.1040
 3099SOL     OW20755   0.696   3.617   8.575  0.0901 -0.4387  0.1612
 3099SOL    HW120756   0.662   3.706   8.572 -0.0961 -0.5053  0.3320
 3099SOL    HW220757   0.663   3.580   8.657 -0.5604  0.2203  0.2007
 3100SOL     OW20758   4.717   1.516   3.576  0.3174  0.4557 -0.0105
 3100SOL    HW120759   0.072   1.543   3.525 -0.5043 -0.8578 -1.9521
 3100SOL    HW220760   0.040   1.471   3.647 -1.1499 -0.7820  0.1128
 3101SOL     OW20761   3.727   1.491   6.339 -0.0673 -0.3789 -0.4783
 3101SOL    HW120762   3.687   1.578   6.326 -0.7660 -0.8476 -1.4727
 3101SOL    HW220763   3.792   1.481   6.270 -0.0917 -0.8241 -0.4311
 3102SOL     OW20764   4.025   2.152   0.291 -0.5991  0.1463 -0.0571
 3102SOL    HW120765   3.987   2.219   0.234  1.0887  0.5875 -0.6814
 3102SOL    HW220766   3.992   2.071   0.253  0.9013 -0.5566  0.1182
 3103SOL     OW20767   3.723   0.710  16.926 -0.2988 -0.3919 -0.3930
 3103SOL    HW120768   3.640   0.679  16.962  0.3921 -0.6352  0.9876
 3103SOL    HW220769   3.721   0.671  16.838  0.0191 -1.1206 -0.0809
 3104SOL     OW20770   3.675   4.457  13.834 -0.6312 -0.4981  0.4249
 3104SOL    HW120771   3.630   4.388  13.786  0.4478  0.1003 -1.4532
 3104SOL    HW220772   3.602   4.518  13.847 -0.1178 -0.1411  1.6149
 3105SOL     OW20773   2.108   2.817  17.295 -0.6154 -0.3879 -0.0138
 3105SOL    HW120774   2.100   2.761  17.218 -1.0077  1.7108 -1.5240
 3105SOL    HW220775   2.201   2.806  17.315 -0.7916 -0.9675  0.4913
 3106SOL     OW20776   1.106   0.617   7.845 -0.3020  0.7220 -0.0671
 3106SOL    HW120777   1.020   0.621   7.887  0.1999  2.0204  0.8329
 3106SOL    HW220778   1.126   0.710   7.853  1.6997  0.2283  0.6089
 3107SOL     OW20779   2.364   2.312   6.655 -0.7277 -0.2454  0.5173
 3107SOL    HW120780   2.396   2.400   6.632 -1.5590  0.0130  0.3327
 3107SOL    HW220781   2.305   2.286   6.584 -1.9323 -0.4149  1.5882
 3108SOL     OW20782   3.228   2.930   3.127  0.0828  0.5199  0.4836
 3108SOL    HW120783   3.138   2.900   3.114 -0.9489  3.1331  1.6094
 3108SOL    HW220784   3.269   2.861   3.073 -0.8216 -0.2610  0.8074
 3109SOL     OW20785   2.622   4.675  11.122  0.1847  0.1957  0.4366
 3109SOL    HW120786   2.680   4.627  11.064 -2.2352 -0.7586 -1.2067
 3109SOL    HW220787   2.542   4.622  11.122  2.2025 -2.8160  0.7101
 3110SOL     OW20788   0.314   3.384   6.537  0.4854 -0.1418  0.2831
 3110SOL    HW120789   0.396   3.336   6.544 -0.5618 -1.8876  0.5810
 3110SOL    HW220790   0.300   3.373   6.443  1.4481  1.3180 -0.0384
 3111SOL     OW20791   0.788   0.226   6.672 -0.1832  0.7750 -0.3154
 3111SOL    HW120792   0.827   0.139   6.671  1.2627  1.4302 -0.4184
 3111SOL    HW220793   0.700   0.209   6.636 -0.4478  0.5993  0.4022
 3112SOL     OW20794   2.727   1.510   6.197 -0.0659  0.9297 -0.0189
 3112SOL    HW120795   2.723   1.436   6.136  2.4491  0.9240 -0.1992
 3112SOL    HW220796   2.817   1.496   6.227  0.2341  0.3281 -1.1878
 3113SOL     OW20797   3.500   1.132  11.279  0.1830  0.0084  0.0860
 3113SOL    HW120798   3.450   1.102  11.354 -2.2039 -2.0626 -2.3163
 3113SOL    HW220799   3.584   1.088  11.285  0.0968 -0.0870  0.5548
 3114SOL     OW20800   1.111   1.426   3.394  0.2577  0.7913 -0.4986
 3114SOL    HW120801   1.170   1.482   3.345  1.2318  0.0387 -0.1759
 3114SOL    HW220802   1.071   1.487   3.457 -0.3445  0.3935 -0.4966
 3115SOL     OW20803   1.272   3.011  17.508  0.1616 -0.4246 -0.8808
 3115SOL    HW120804   1.274   3.107  17.499 -0.8125 -0.1463  1.9362
 3115SOL    HW220805   1.204   2.996  17.442 -1.5122  1.2448  0.4401
 3116SOL     OW20806   1.181   1.106   1.952  0.0276 -0.0445  0.2385
 3116SOL    HW120807   1.217   1.034   2.004  2.8735  1.1054 -0.1396
 3116SOL    HW220808   1.258   1.153   1.921  1.4127 -1.4050  1.6065
 3117SOL     OW20809   0.553   3.929   3.122 -0.2633  1.0026 -0.7699
 3117SOL    HW120810   0.551   3.835   3.104 -1.7409  0.8378  0.2327
 3117SOL    HW220811   0.476   3.935   3.178 -0.5594  0.7612 -1.1454
 3118SOL     OW20812   2.664   0.083   4.014 -0.0853 -0.1287  0.3744
 3118SOL    HW120813   2.589   0.035   3.980  0.2255 -0.1429 -0.3084
 3118SOL    HW220814   2.626   0.158   4.060 -1.0348  1.0404 -2.2823
 3119SOL     OW20815   1.801   1.207   5.722  0.6411  0.0668  0.3989
 3119SOL    HW120816   1.768   1.276   5.779 -0.1345 -1.6000  1.9530
 3119SOL    HW220817   1.877   1.173   5.770  1.2813  0.0147 -0.6351
 3120SOL     OW20818   1.096   0.834  13.625  0.1457  0.4461  1.0893
 3120SOL    HW120819   1.054   0.786  13.553  1.3463  3.0853 -1.3739
 3120SOL    HW220820   1.151   0.893  13.573 -1.5512  0.7512 -0.3583
 3121SOL     OW20821   4.022   1.685  15.462  0.2987 -0.1419  0.1870
 3121SOL    HW120822   4.099   1.671  15.406 -0.9208 -2.4810 -0.8938
 3121SOL    HW220823   4.064   1.678  15.547  2.0084  2.2748 -0.4434
 3122SOL     OW20824   3.885   3.096   4.965 -0.1135  0.2257  0.5641
 3122SOL    HW120825   3.910   3.188   4.973 -0.0808  0.3456 -1.0480
 3122SOL    HW220826   3.791   3.105   4.981 -0.5700  0.7247 -2.5525
 3123SOL     OW20827   2.056   1.610   6.766 -0.0089 -0.1640  0.3035
 3123SOL    HW120828   1.967   1.639   6.789  0.2644 -0.3075  1.5793
 3123SOL    HW220829   2.042   1.537   6.705  0.2351 -0.4242  0.5545
 3124SOL     OW20830   1.902   1.994   2.117  0.2763  0.3726 -0.2710
 3124SOL    HW120831   1.909   2.085   2.087 -1.6816  1.0971  1.4809
 3124SOL    HW220832   1.820   2.009   2.163 -0.5063  0.5636 -1.7123
 3125SOL     OW20833   2.678   4.317   4.938  0.4197  0.2970 -0.2324
 3125SOL    HW120834   2.720   4.269   5.010 -1.5075  0.0738  0.7428
 3125SOL    HW220835   2.603   4.343   4.992 -0.8017 -0.0120 -1.8115
 3126SOL     OW20836   4.351   0.678  15.863  0.1396 -0.0085  0.3336
 3126SOL    HW120837   4.318   0.600  15.818  2.7056 -0.2137 -1.2376
 3126SOL    HW220838   4.348   0.734  15.786  1.5085 -0.5142 -0.0910
 3127SOL     OW20839   2.499   3.641   1.617 -0.3427 -0.6676 -0.1414
 3127SOL    HW120840   2.506   3.545   1.613 -2.2284 -0.9352  3.2698
 3127SOL    HW220841   2.528   3.661   1.706  0.5856  0.9982 -0.8137
 3128SOL     OW20842   1.345   4.641   4.675  0.0129  0.2570 -0.2680
 3128SOL    HW120843   1.291   4.597   4.609  1.3900  0.1984 -1.3581
 3128SOL    HW220844   1.314   0.010   4.670 -1.5497 -0.1839  1.5355
 3129SOL     OW20845   2.069   4.417  17.532  0.5573  0.3350 -0.4812
 3129SOL    HW120846   2.026   4.500  17.552 -0.7958 -0.7451  1.1276
 3129SOL    HW220847   2.078   4.445  17.441  0.3949 -1.4039 -1.0343
 3130SOL     OW20848   3.796   2.849  17.124  0.2422  0.1772 -0.1098
 3130SOL    HW120849   3.866   2.914  17.109  1.6405 -1.6682 -1.6685
 3130SOL    HW220850   3.738   2.871  17.051 -1.3764  0.5367  1.2820
 3131SOL     OW20851   2.540   3.482  16.213 -0.2805  0.2610  0.0621
 3131SOL    HW120852   2.542   3.390  16.186  0.0175  0.8722 -2.0234
 3131SOL    HW220853   2.483   3.514  16.143  0.3737 -1.5194 -1.2810
 3132SOL     OW20854   0.320   0.693   0.802  0.2787 -0.4697  0.2495
 3132SOL    HW120855   0.243   0.742   0.774  0.1234 -1.4148 -0.9716
 3132SOL    HW220856   0.345   0.743   0.879  0.0991 -0.5840  0.3832
 3133SOL     OW20857   1.562   3.474   1.529  0.3246  0.9924 -0.4027
 3133SOL    HW120858   1.653   3.503   1.530  1.0904 -1.4279 -0.3505
 3133SOL    HW220859   1.553   3.499   1.437 -1.7891  1.5403 -0.0357
 3134SOL     OW20860   1.314   1.452  11.847 -0.0115  0.2451  0.0806
 3134SOL    HW120861   1.397   1.439  11.892 -0.2926 -1.1063  0.2003
 3134SOL    HW220862   1.255   1.405  11.905 -2.3386  1.6304 -1.1426
 3135SOL     OW20863   3.468   0.422  13.685 -0.3762 -0.5352 -1.0356
 3135SOL    HW120864   3.474   0.373  13.767  1.1623 -0.6913 -1.2403
 3135SOL    HW220865   3.562   0.423  13.667 -0.0100  0.9157  0.9970
 3136SOL     OW20866   4.670   1.691   6.604  0.4074  0.0483  0.9706
 3136SOL    HW120867   4.632   1.654   6.524 -0.8630  3.1478  0.1301
 3136SOL    HW220868   4.623   1.654   6.678  3.1679 -0.5061  2.4476
 3137SOL     OW20869   4.331   2.291   3.823  0.3588  0.6107  0.2105
 3137SOL    HW120870   4.240   2.322   3.825 -0.2752 -1.0748 -2.9421
 3137SOL    HW220871   4.348   2.241   3.903  1.2328  1.5621  0.6222
 3138SOL     OW20872   2.877   3.862   8.600 -0.3137 -0.4289 -0.3394
 3138SOL    HW120873   2.967   3.880   8.574  0.7752  0.3161  3.8803
 3138SOL    HW220874   2.837   3.948   8.615  1.2151  0.4965 -1.5630
 3139SOL     OW20875   2.005   0.981   7.547 -0.1917 -0.1929 -0.2967
 3139SOL    HW120876   2.012   1.073   7.522  1.3475 -0.0680  0.6440
 3139SOL    HW220877   2.088   0.968   7.592 -0.7128 -3.4721 -0.2981
 3140SOL     OW20878   3.930   2.884  11.690  0.8820  0.5610 -0.3682
 3140SOL    HW120879   3.959   2.936  11.765  2.4140 -1.4573  0.4533
 3140SOL    HW220880   3.932   2.944  11.616  0.3657  1.5863  0.4659
 3141SOL     OW20881   2.852   3.014   1.066  0.2730  0.3553 -0.5195
 3141SOL    HW120882   2.773   3.067   1.059  1.3931  2.3119  1.7714
 3141SOL    HW220883   2.821   2.937   1.019 -1.2048  0.7137 -0.1278
 3142SOL     OW20884   3.189   1.010   5.120 -0.0370 -0.2047  0.2242
 3142SOL    HW120885   3.124   0.963   5.068 -0.9276  2.2114 -0.8110
 3142SOL    HW220886   3.192   1.099   5.086 -0.6734 -0.0648  0.5415
 3143SOL     OW20887   4.246   3.526   9.036 -0.0766  0.1665  1.0005
 3143SOL    HW120888   4.325   3.474   9.019 -0.3855 -0.5444  1.7739
 3143SOL    HW220889   4.267   3.559   9.123 -1.0307 -0.9030  1.6397
 3144SOL     OW20890   3.450   3.439   7.195 -0.1803 -0.4420 -0.2825
 3144SOL    HW120891   3.381   3.506   7.192  1.6883  1.4950  0.3414
 3144SOL    HW220892   3.444   3.392   7.277 -3.1786  2.2068  1.0312
 3145SOL     OW20893   3.506   0.279   7.797 -0.1082  0.0136 -0.5429
 3145SOL    HW120894   3.546   0.359   7.763 -0.0367  0.4525  0.5556
 3145SOL    HW220895   3.490   0.302   7.889 -2.7087 -2.5642 -0.3464
 3146SOL     OW20896   2.069   4.453   5.863  0.6092 -0.1721  0.4493
 3146SOL    HW120897   2.011   4.378   5.865  1.8698 -1.1801 -0.7760
 3146SOL    HW220898   2.022   4.511   5.803  0.2412 -1.5053 -0.5507
 3147SOL     OW20899   4.259   3.076   6.248 -0.5873 -0.0740 -0.6807
 3147SOL    HW120900   4.297   2.989   6.264  4.3992  2.0961 -0.7193
 3147SOL    HW220901   4.181   3.088   6.301  1.1061 -3.7263  2.6522
 3148SOL     OW20902   0.187   1.350  13.701  0.2213 -0.2251 -0.2380
 3148SOL    HW120903   0.158   1.426  13.652  0.3299  0.1912  0.3437
 3148SOL    HW220904   0.282   1.353  13.688 -0.1747  1.2043 -2.8054
 3149SOL     OW20905   1.561   4.630   9.988 -0.4327 -0.6102 -0.2061
 3149SOL    HW120906   1.526   4.701  10.042  0.5310  1.1873 -1.9281
 3149SOL    HW220907   1.487   4.580   9.953 -0.0110 -3.8155  3.5228
 3150SOL     OW20908   2.648   1.483   7.106  0.5531  0.1685  0.3820
 3150SOL    HW120909   2.707   1.539   7.055 -0.9752  1.7419  0.3445
 3150SOL    HW220910   2.715   1.435   7.155  0.6606  1.7736  1.8038
 3151SOL     OW20911   4.291   1.982  14.495  0.1711 -0.3788 -0.2815
 3151SOL    HW120912   4.316   2.017  14.410 -1.6209 -0.5639 -0.8871
 3151SOL    HW220913   4.350   1.909  14.512  0.8741  0.1863 -0.3327
 3152SOL     OW20914   1.576   4.211   2.010  0.3927 -0.4781  0.2394
 3152SOL    HW120915   1.656   4.159   2.015  1.1373  0.8426  2.4967
 3152SOL    HW220916   1.598   4.298   2.044  3.9769 -0.6395 -1.6732
 3153SOL     OW20917   2.595   1.913  17.103 -0.9190 -0.3774  0.2787
 3153SOL    HW120918   2.537   1.840  17.122  1.0815 -1.5775  1.7770
 3153SOL    HW220919   2.543   1.991  17.121 -2.8650 -2.1297  2.1391
 3154SOL     OW20920   1.696   3.323   9.981  0.3225 -0.1226  0.5920
 3154SOL    HW120921   1.754   3.388   9.941  2.7677 -1.4875  1.9036
 3154SOL    HW220922   1.645   3.379  10.039  0.6802 -0.0356  0.8268
 3155SOL     OW20923   2.176   3.135  17.021 -0.1276  0.3867  0.0792
 3155SOL    HW120924   2.271   3.127  17.034  0.2114  1.5317 -1.8024
 3155SOL    HW220925   2.187   3.122  16.927  1.9430  0.1789  0.3449
 3156SOL     OW20926   4.658   3.103   4.713  0.1386  0.0405 -0.2284
 3156SOL    HW120927   4.634   3.172   4.651  0.0505  0.3786  0.1862
 3156SOL    HW220928   0.032   3.103   4.707  0.1296 -0.7394 -0.3874
 3157SOL     OW20929   1.696   2.102   9.164  0.6244  0.3265 -0.7702
 3157SOL    HW120930   1.723   2.059   9.246  1.4395  0.3902 -1.0035
 3157SOL    HW220931   1.607   2.068   9.160 -0.0525  2.0158  0.0610
 3158SOL     OW20932   3.315   1.755   7.792 -0.1547 -1.0489 -0.4878
 3158SOL    HW120933   3.368   1.829   7.761 -0.8325  0.5312  2.1019
 3158SOL    HW220934   3.265   1.804   7.856 -0.4262 -2.1070  0.1075
 3159SOL     OW20935   1.565   0.358   8.712 -0.1547  0.2369 -0.2797
 3159SOL    HW120936   1.504   0.431   8.714  0.8651  1.0436  2.0671
 3159SOL    HW220937   1.549   0.308   8.792  1.6069  1.1054  0.6172
 3160SOL     OW20938   2.239   3.828  11.688 -0.3382  0.7060  0.6751
 3160SOL    HW120939   2.191   3.841  11.605  1.0190 -2.3854 -0.6089
 3160SOL    HW220940   2.295   3.905  11.690 -0.6579  0.9520  0.3609
 3161SOL     OW20941   2.992   3.552   5.411  0.3384 -0.1599  1.0926
 3161SOL    HW120942   3.030   3.600   5.338 -0.8791  1.0944  1.2781
 3161SOL    HW220943   3.057   3.485   5.429 -1.7179 -2.4668 -0.0933
 3162SOL     OW20944   1.087   2.942   5.000 -0.1936  0.0472  0.0336
 3162SOL    HW120945   1.026   2.986   4.942  1.8639  1.0945 -1.3343
 3162SOL    HW220946   1.071   2.989   5.082 -2.6085  0.5717 -0.7727
 3163SOL     OW20947   4.630   3.442   2.879  0.3013 -0.0478  0.2498
 3163SOL    HW120948   4.638   3.536   2.894  0.1188 -0.1450  0.9621
 3163SOL    HW220949   4.666   3.411   2.962  2.1112  0.2461 -0.4378
 3164SOL     OW20950   4.614   3.258   7.648  0.2021  0.1138  0.3694
 3164SOL    HW120951   4.591   3.229   7.736  0.0016  0.0324  0.2918
 3164SOL    HW220952   4.567   3.341   7.651 -0.7162 -0.3217 -1.3249
 3165SOL     OW20953   4.085   2.228  13.068 -0.0520 -0.7524 -0.3349
 3165SOL    HW120954   4.143   2.288  13.021  0.5224  0.3036  1.6998
 3165SOL    HW220955   4.002   2.250  13.026 -0.8520 -0.8395  1.2097
 3166SOL     OW20956   0.499   1.461   1.018 -0.9113  0.0799 -0.0730
 3166SOL    HW120957   0.492   1.517   1.095 -0.7425 -1.9873  1.4343
 3166SOL    HW220958   0.535   1.384   1.062 -1.6877 -0.5437 -0.5332
 3167SOL     OW20959   1.476   4.632   8.263  0.1775 -0.1642  0.1216
 3167SOL    HW120960   1.413   4.607   8.195 -1.0312 -0.6446  1.4137
 3167SOL    HW220961   1.447   4.572   8.332 -1.0014 -2.3878 -2.3115
 3168SOL     OW20962   4.718   2.620   3.981 -0.2080 -0.3635 -0.1070
 3168SOL    HW120963   0.024   2.711   3.971  1.1688 -0.6509  1.0355
 3168SOL    HW220964   4.636   2.601   3.937 -0.9558 -1.1987  1.6426
 3169SOL     OW20965   1.249   2.629  13.988 -0.0237 -0.5414  0.1658
 3169SOL    HW120966   1.334   2.674  13.991  0.4625 -1.3970 -0.7642
 3169SOL    HW220967   1.194   2.688  14.040 -0.7045 -1.3774  0.3771
 3170SOL     OW20968   4.481   0.152  14.037 -0.7934 -0.3762  0.2783
 3170SOL    HW120969   4.426   0.168  14.114 -1.2515  0.5775 -0.2591
 3170SOL    HW220970   4.414   0.138  13.971 -1.1384  0.4650  0.4486
 3171SOL     OW20971   1.712   2.363   3.425 -0.4588  0.0111  0.2213
 3171SOL    HW120972   1.792   2.398   3.386 -0.4703 -1.3378 -1.0129
 3171SOL    HW220973   1.677   2.438   3.473 -2.1248 -1.9001  1.9877
 3172SOL     OW20974   0.176   0.633   2.807  0.0421 -0.0184 -0.9291
 3172SOL    HW120975   0.182   0.561   2.745 -1.0308 -0.9332  0.0156
 3172SOL    HW220976   0.156   0.584   2.887  2.5174  1.1374  0.4107
 3173SOL     OW20977   2.619   3.256   8.310  0.7264  0.7566 -0.3494
 3173SOL    HW120978   2.601   3.308   8.388 -2.7239  0.1230 -0.7115
 3173SOL    HW220979   2.533   3.219   8.287  2.0920 -3.6632  1.6813
 3174SOL     OW20980   4.095   3.969   3.923 -0.1975 -0.2296  0.5268
 3174SOL    HW120981   4.045   3.899   3.882 -0.7905  1.5305 -1.7510
 3174SOL    HW220982   4.187   3.944   3.932  0.1501  0.3980 -1.3712
 3175SOL     OW20983   1.198   3.605   8.426  0.2940  0.1657 -0.5711
 3175SOL    HW120984   1.173   3.554   8.349  0.3451  0.3437 -0.7051
 3175SOL    HW220985   1.293   3.600   8.417  0.4319 -1.5848  1.9018
 3176SOL     OW20986   0.069   3.741   3.879 -0.3803 -0.4966  0.2048
 3176SOL    HW120987   0.032   3.653   3.894 -0.0884 -0.4662  1.1010
 3176SOL    HW220988   0.057   3.750   3.785 -2.3953  3.2081  0.8205
 3177SOL     OW20989   0.241   3.353   2.916 -0.6867  0.0516  0.5666
 3177SOL    HW120990   0.190   3.274   2.933  2.0619 -1.8449  0.0980
 3177SOL    HW220991   0.273   3.318   2.832  1.1943  2.4472  0.2821
 3178SOL     OW20992   2.584   2.838  16.426 -0.4311  0.4725 -0.2483
 3178SOL    HW120993   2.566   2.804  16.338  0.0751 -0.9938  0.2131
 3178SOL    HW220994   2.659   2.784  16.450  1.2854  2.0193 -2.1024
 3179SOL     OW20995   3.040   0.293   7.248 -0.0771  0.1476 -0.6591
 3179SOL    HW120996   3.056   0.335   7.163 -0.0311  0.2708 -0.5881
 3179SOL    HW220997   3.095   0.356   7.293  1.8863 -1.6438 -0.5282
 3180SOL     OW20998   0.161   0.217  16.191 -0.6335  0.6179  0.3574
 3180SOL    HW120999   0.151   0.155  16.263 -1.7091 -0.6878 -0.9017
 3180SOL    HW221000   0.229   0.281  16.213 -0.3584  0.7194 -0.7662
 3181SOL     OW21001   0.524   3.403   7.588  0.4711 -0.0051  0.0003
 3181SOL    HW121002   0.580   3.440   7.520  0.5424  0.7521  0.4792
 3181SOL    HW221003   0.458   3.468   7.609 -1.5722 -1.9327 -0.4247
 3182SOL     OW21004   1.939   4.628   8.377  0.0108 -0.6441  0.7455
 3182SOL    HW121005   1.888   4.571   8.320 -1.6302  1.2721  0.2762
 3182SOL    HW221006   2.006   4.667   8.320 -0.9466  0.5432  0.4094
 3183SOL     OW21007   0.175   1.452   0.320 -0.5054  0.3413 -0.4100
 3183SOL    HW121008   0.169   1.503   0.401 -0.0668 -0.8405  0.3587
 3183SOL    HW221009   0.111   1.390   0.355 -1.9640  1.1402 -1.6471
 3184SOL     OW21010   1.465   2.128   4.485 -0.1786 -0.2136 -0.2787
 3184SOL    HW121011   1.398   2.149   4.549  0.7168 -1.4807  1.0809
 3184SOL    HW221012   1.412   2.080   4.421  0.0791  1.4491 -1.7587
 3185SOL     OW21013   2.672   1.962   4.272 -0.1253  0.0383 -0.2813
 3185SOL    HW121014   2.726   2.036   4.246 -0.5623 -0.1319 -1.6327
 3185SOL    HW221015   2.583   1.990   4.252  0.3688  0.7333 -1.5010
 3186SOL     OW21016   3.743   2.692   5.618 -0.3396 -0.6261  0.4401
 3186SOL    HW121017   3.819   2.652   5.661 -0.8929 -0.3107  1.7397
 3186SOL    HW221018   3.673   2.639   5.657 -1.8878  2.3396  1.7525
 3187SOL     OW21019   4.286   3.492   2.353  0.4835 -0.4875  0.2473
 3187SOL    HW121020   4.312   3.538   2.433  0.1449  1.5493 -0.7888
 3187SOL    HW221021   4.204   3.540   2.338 -0.0893 -1.4684  0.2828
 3188SOL     OW21022   2.418   3.336  10.941 -0.4326  0.2152 -0.4485
 3188SOL    HW121023   2.450   3.270  11.003  1.1256  1.1432 -0.2735
 3188SOL    HW221024   2.459   3.413  10.980  0.3100 -1.9478  3.0728
 3189SOL     OW21025   2.659   0.270   0.204 -0.5354  0.2445  0.4217
 3189SOL    HW121026   2.602   0.345   0.192 -0.0746  0.7161  1.1908
 3189SOL    HW221027   2.631   0.224   0.283  0.8813 -2.5073 -0.6480
 3190SOL     OW21028   1.005   0.352   6.259  0.1525  0.0106 -0.2614
 3190SOL    HW121029   0.989   0.376   6.351  0.0555  0.2675 -0.3442
 3190SOL    HW221030   0.989   0.438   6.218  0.4497 -0.5849 -1.6103
 3191SOL     OW21031   0.807   2.054   8.724 -0.2380  0.4548 -0.4150
 3191SOL    HW121032   0.853   2.136   8.702  0.1329  0.6123  0.9584
 3191SOL    HW221033   0.847   1.991   8.664 -1.9847 -2.8323  1.8929
 3192SOL     OW21034   0.702   2.037   3.657 -0.0988  0.3098 -0.0790
 3192SOL    HW121035   0.781   1.983   3.660 -0.5017 -0.1333  2.4719
 3192SOL    HW221036   0.655   2.008   3.579  0.5179 -0.4387 -0.1719
 3193SOL     OW21037   0.420   3.162   2.920 -0.4452 -0.8054 -0.1897
 3193SOL    HW121038   0.451   3.072   2.907  2.0290  0.1932 -1.1424
 3193SOL    HW221039   0.405   3.185   2.828  0.6550 -0.3962 -0.2632
 3194SOL     OW21040   2.483   0.535  13.715 -0.0268 -0.0811 -0.0245
 3194SOL    HW121041   2.446   0.506  13.799 -0.8145  1.4615  0.1633
 3194SOL    HW221042   2.568   0.568  13.744 -0.3266  0.6043  0.0772
 3195SOL     OW21043   2.114   3.893   8.562  0.5487 -0.2408  0.3523
 3195SOL    HW121044   2.208   3.885   8.573  0.6324  2.0596  1.1815
 3195SOL    HW221045   2.097   3.977   8.604  1.7103 -0.3378  1.0040
 3196SOL     OW21046   0.445   1.880   6.677 -0.1816 -0.3548  0.0298
 3196SOL    HW121047   0.355   1.863   6.650 -0.3579  0.6223  0.0026
 3196SOL    HW221048   0.477   1.790   6.684  1.7216  0.3863  0.8652
 3197SOL     OW21049   2.478   4.630   4.597  0.7812 -0.0528 -0.2114
 3197SOL    HW121050   2.476   4.554   4.655 -2.6854 -2.6336 -3.6967
 3197SOL    HW221051   2.564   4.672   4.601  1.1823 -0.7035 -2.2838
 3198SOL     OW21052   3.992   4.377  13.662  0.6079 -0.1196 -0.5226
 3198SOL    HW121053   3.987   4.424  13.579 -0.1071 -1.3663 -1.1906
 3198SOL    HW221054   4.062   4.312  13.650  0.7906 -0.2854  1.4518
 3199SOL     OW21055   3.023   3.097   7.759 -0.7492  0.9340  0.5390
 3199SOL    HW121056   2.998   3.084   7.668  1.0164 -0.1004  0.2149
 3199SOL    HW221057   3.097   3.158   7.755 -0.8501  1.1152  1.3160
 3200SOL     OW21058   0.231   3.299  11.296  0.0717 -0.0815 -0.1123
 3200SOL    HW121059   0.183   3.356  11.355 -0.4440 -0.4265 -0.1964
 3200SOL    HW221060   0.195   3.334  11.214 -2.0144  0.3393  0.9982
 3201SOL     OW21061   4.132   4.418   6.044  0.1421 -0.0095  0.2256
 3201SOL    HW121062   4.080   4.361   5.988  0.8372 -0.2544 -0.1706
 3201SOL    HW221063   4.217   4.375   6.049  1.4347  2.2958 -1.6593
 3202SOL     OW21064   2.603   3.276   3.898 -0.3059  0.6276  0.1312
 3202SOL    HW121065   2.550   3.281   3.978  0.6154  1.3429  0.7037
 3202SOL    HW221066   2.664   3.346   3.920  0.8073 -0.2340 -0.2175
 3203SOL     OW21067   2.767   0.805   5.105  0.2372  0.1532  0.1838
 3203SOL    HW121068   2.685   0.854   5.104  0.3617  0.3266 -1.8642
 3203SOL    HW221069   2.753   0.738   5.172  2.0303 -0.8383 -0.4111
 3204SOL     OW21070   4.394   2.615   3.209 -0.2707 -0.6507 -0.3129
 3204SOL    HW121071   4.419   2.655   3.125  2.1699 -0.4523  0.5335
 3204SOL    HW221072   4.338   2.687   3.238  1.6284  0.5861  0.2637
 3205SOL     OW21073   4.233   3.149   7.970 -0.5380  0.1761 -0.5287
 3205SOL    HW121074   4.157   3.092   7.982  0.1652 -0.8771 -1.0338
 3205SOL    HW221075   4.243   3.185   8.058 -1.5233  0.4444 -0.5317
 3206SOL     OW21076   2.666   1.650  12.543 -0.0431 -0.0447  0.5246
 3206SOL    HW121077   2.679   1.643  12.448 -1.5949 -0.5050  0.3386
 3206SOL    HW221078   2.604   1.723  12.545  0.4945  0.3880  1.0876
 3207SOL     OW21079   3.650   1.723  10.345 -0.3111 -0.1394  0.0464
 3207SOL    HW121080   3.721   1.667  10.314  0.7559  0.3430  1.6170
 3207SOL    HW221081   3.675   1.801  10.296 -1.7517  0.2462 -0.0538
 3208SOL     OW21082   3.614   4.382  17.251 -0.2806  0.3355 -0.0167
 3208SOL    HW121083   3.677   4.448  17.280  1.1946 -0.3910 -1.5496
 3208SOL    HW221084   3.571   4.431  17.181 -2.5923 -0.2566  0.9845
 3209SOL     OW21085   1.725   3.688   6.257  0.6029  0.1747 -0.1734
 3209SOL    HW121086   1.696   3.778   6.242  2.8746  0.6733 -1.4425
 3209SOL    HW221087   1.815   3.706   6.282 -0.2309  3.0009  0.8842
 3210SOL     OW21088   0.022   1.437   4.219 -0.1588  0.1465  0.2124
 3210SOL    HW121089   0.021   1.359   4.274  0.8680  0.4247  0.6118
 3210SOL    HW221090   0.099   1.467   4.267 -0.6045  0.4433  0.7438
 3211SOL     OW21091   1.156   0.518   1.297 -0.4584  0.0076  0.4619
 3211SOL    HW121092   1.210   0.477   1.229  0.5858  1.6477  0.2963
 3211SOL    HW221093   1.214   0.498   1.370 -1.3609  1.3668  1.5604
 3212SOL     OW21094   0.281   2.157   3.092 -0.1428 -0.0491  0.8206
 3212SOL    HW121095   0.195   2.199   3.099  1.2100  2.5257  1.9506
 3212SOL    HW221096   0.337   2.232   3.113 -0.9706  0.6933  0.3987
 3213SOL     OW21097   0.973   4.423  15.085  0.1485  0.2997 -0.3208
 3213SOL    HW121098   0.962   4.388  15.173 -2.3076  0.0811 -0.6880
 3213SOL    HW221099   0.970   4.518  15.094  0.6688  0.0973  1.7850
 3214SOL     OW21100   0.575   0.354   7.650  0.0855  0.2964  0.0071
 3214SOL    HW121101   0.513   0.427   7.652  0.5874  0.6833  1.2370
 3214SOL    HW221102   0.579   0.340   7.555  0.3830  1.7167 -0.1912
 3215SOL     OW21103   2.283   3.098  11.569  0.4709  0.0131  0.2060
 3215SOL    HW121104   2.237   3.022  11.604 -0.8121 -0.3896 -2.3457
 3215SOL    HW221105   2.287   3.070  11.477 -0.9763  0.9764 -0.1433
 3216SOL     OW21106   3.462   1.936   7.402 -0.3281 -0.4459 -0.2016
 3216SOL    HW121107   3.387   1.960   7.347  0.2841 -0.0184 -0.8365
 3216SOL    HW221108   3.491   2.023   7.430 -0.9411 -0.5633  0.8018
 3217SOL     OW21109   0.493   4.431  15.926  0.0642 -0.2864 -0.0457
 3217SOL    HW121110   0.549   4.505  15.951 -0.5914  0.1154  0.2305
 3217SOL    HW221111   0.532   4.424  15.838  1.5644  4.0547  0.2536
 3218SOL     OW21112   0.955   3.127   4.872 -0.0522  0.7615 -0.0841
 3218SOL    HW121113   0.877   3.181   4.882 -0.5007 -0.0568  0.8180
 3218SOL    HW221114   1.003   3.192   4.820  1.7439 -0.9072 -0.5037
 3219SOL     OW21115   2.542   1.553   7.364  0.9694  0.2400 -0.2216
 3219SOL    HW121116   2.591   1.575   7.443 -0.0382  0.2524  0.4018
 3219SOL    HW221117   2.601   1.482   7.339  0.9881 -0.7245  2.5580
 3220SOL     OW21118   2.815   1.802   4.528 -0.7749 -0.1379 -0.0337
 3220SOL    HW121119   2.908   1.780   4.540 -0.6863  0.2099 -0.0770
 3220SOL    HW221120   2.816   1.896   4.514  0.1398  0.2319  2.4828
 3221SOL     OW21121   4.261   0.098  16.461 -0.0253  0.3779 -0.4030
 3221SOL    HW121122   4.239   0.005  16.454 -0.8887  0.4658  1.0095
 3221SOL    HW221123   4.325   0.114  16.392  0.0021 -0.8864 -0.6727
 3222SOL     OW21124   1.185   0.367  12.040 -0.5011  0.5191 -0.7147
 3222SOL    HW121125   1.247   0.295  12.031  0.8619  1.6045 -0.0528
 3222SOL    HW221126   1.141   0.350  12.123  0.8868  2.5447  0.4373
 3223SOL     OW21127   4.581   3.350  15.964 -0.0176  0.0616  0.5756
 3223SOL    HW121128   4.622   3.369  16.048  0.6472  0.2730  0.2007
 3223SOL    HW221129   4.567   3.436  15.926 -1.4420 -0.0361  0.8801
 3224SOL     OW21130   1.294   4.616   8.916 -0.5011 -0.2058 -0.2098
 3224SOL    HW121131   1.356   4.601   8.987  0.0736  0.9560 -0.4658
 3224SOL    HW221132   1.362   4.583   8.856 -1.7707 -4.7032  0.8362
 3225SOL     OW21133   4.154   1.164  16.408  0.1781  0.0570  0.0656
 3225SOL    HW121134   4.102   1.120  16.340  0.8715 -1.5084  0.5604
 3225SOL    HW221135   4.135   1.255  16.382  1.1167  0.4177  0.6368
 3226SOL     OW21136   2.890   0.812   5.956  0.2654  0.1076  0.3563
 3226SOL    HW121137   2.822   0.823   6.022 -1.7228 -0.4673 -1.5830
 3226SOL    HW221138   2.973   0.817   6.003  0.3094  0.2519  0.2643
 3227SOL     OW21139   2.376   2.511   4.300 -0.7531  1.0198  0.2739
 3227SOL    HW121140   2.364   2.606   4.299  0.8339  1.2182  0.1680
 3227SOL    HW221141   2.464   2.502   4.336 -0.9823 -0.1283  0.5366
 3228SOL     OW21142   2.605   2.256   1.633 -0.2492 -0.7807  0.0218
 3228SOL    HW121143   2.649   2.252   1.548  0.8998  0.6392  0.5622
 3228SOL    HW221144   2.659   2.186   1.670  0.4801  0.1529  0.7118
 3229SOL     OW21145   1.281   2.877   9.606  0.4028  0.6608 -0.6222
 3229SOL    HW121146   1.323   2.963   9.598  1.3409  0.2215 -0.4955
 3229SOL    HW221147   1.231   2.854   9.528  0.9185  1.0901 -1.0840
 3230SOL     OW21148   2.115   0.931  14.165 -0.1445 -0.4023  0.1757
 3230SOL    HW121149   2.110   0.965  14.254 -2.1936  2.5165 -1.0381
 3230SOL    HW221150   2.030   0.888  14.156 -1.6079  2.3476  1.0247
 3231SOL     OW21151   4.300   1.455  12.088  0.6351  0.1760 -0.3186
 3231SOL    HW121152   4.394   1.446  12.072  1.3323  2.3907  2.4458
 3231SOL    HW221153   4.260   1.431  12.005 -0.0878 -1.4913  0.5112
 3232SOL     OW21154   1.038   1.812   6.923  0.2077 -0.0425 -0.5330
 3232SOL    HW121155   1.107   1.864   6.963  0.2823 -1.8752  1.6552
 3232SOL    HW221156   0.970   1.878   6.935 -0.6627 -1.4003  1.9359
 3233SOL     OW21157   4.479   2.916   3.915 -0.4261  0.2355 -0.1838
 3233SOL    HW121158   4.471   2.940   3.823  3.4208  1.4935 -0.2001
 3233SOL    HW221159   4.569   2.884   3.911 -1.0469 -1.7080  1.3710
 3234SOL     OW21160   2.134   0.925  16.426 -0.0707  0.0541 -0.9889
 3234SOL    HW121161   2.066   0.861  16.446  0.1503  0.1529  0.1068
 3234SOL    HW221162   2.185   0.934  16.507 -0.1952 -0.2980 -0.8713
 3235SOL     OW21163   3.962   0.804   4.953 -0.2304  0.4717  0.1871
 3235SOL    HW121164   3.885   0.834   5.003 -1.1135 -2.1333  0.4027
 3235SOL    HW221165   3.928   0.785   4.866  1.0436 -3.8228  0.5970
 3236SOL     OW21166   2.558   2.215   3.043  0.1923  0.0620  0.5782
 3236SOL    HW121167   2.483   2.218   3.102 -1.4023 -0.2365 -1.4660
 3236SOL    HW221168   2.523   2.266   2.970  2.3827 -0.5085 -0.8806
 3237SOL     OW21169   0.415   2.483   6.369  0.5441 -0.1952  0.1720
 3237SOL    HW121170   0.509   2.481   6.351  1.0670  1.2651  2.7070
 3237SOL    HW221171   0.371   2.476   6.284  0.0471 -1.6952  0.5669
 3238SOL     OW21172   1.064   1.778   2.323  0.2632  0.1175  0.1552
 3238SOL    HW121173   1.034   1.728   2.248  0.1200 -0.8089  0.8343
 3238SOL    HW221174   1.072   1.720   2.398  0.7251  0.3736  0.3032
 3239SOL     OW21175   4.590   4.420   5.396 -0.8637 -0.4724  0.7456
 3239SOL    HW121176   4.546   4.465   5.324 -1.3506  0.5150  1.6451
 3239SOL    HW221177   4.678   4.455   5.387 -0.8526 -0.0638  2.2914
 3240SOL     OW21178   0.474   1.013  12.504 -0.2089  0.0219 -0.2866
 3240SOL    HW121179   0.474   1.043  12.595 -0.5467  0.0077 -0.2813
 3240SOL    HW221180   0.407   1.072  12.469  1.8150  1.6675 -1.4017
 3241SOL     OW21181   3.400   2.912   8.533  0.4668  0.0341  0.7830
 3241SOL    HW121182   3.335   2.873   8.592  0.8935 -1.2884  0.3818
 3241SOL    HW221183   3.348   2.903   8.454  0.4029  0.4991  0.7749
 3242SOL     OW21184   2.661   4.183   2.846 -0.3318 -0.1317  0.1043
 3242SOL    HW121185   2.712   4.162   2.924  1.0642 -0.6844 -0.9338
 3242SOL    HW221186   2.740   4.217   2.802 -0.3189  0.8890  0.9107
 3243SOL     OW21187   0.599   2.470   6.847  0.1795 -0.2732 -0.9099
 3243SOL    HW121188   0.693   2.451   6.850 -0.1427 -1.8914 -0.9417
 3243SOL    HW221189   0.576   2.446   6.936  1.1682  0.6268 -0.4088
 3244SOL     OW21190   0.584   1.350  13.917  0.6155 -0.3814  1.3716
 3244SOL    HW121191   0.538   1.427  13.950 -1.2300 -0.6901 -0.5058
 3244SOL    HW221192   0.582   1.294  13.995  2.6464 -1.6886  0.4977
 3245SOL     OW21193   0.256   1.812  15.996 -0.0878 -0.1646  0.4346
 3245SOL    HW121194   0.238   1.905  16.007 -1.2356 -0.6966  2.8428
 3245SOL    HW221195   0.179   1.779  16.041 -0.1490 -0.4785  0.1006
 3246SOL     OW21196   1.194   3.395   2.740  0.2863  0.8045  0.3756
 3246SOL    HW121197   1.256   3.411   2.669 -1.4306  0.7522 -1.1387
 3246SOL    HW221198   1.165   3.486   2.751 -2.3434  0.0788 -0.4075
 3247SOL     OW21199   3.906   4.611   7.288  0.2563 -0.3360  0.0749
 3247SOL    HW121200   3.944   4.622   7.201 -2.6355  1.2231 -0.9704
 3247SOL    HW221201   3.866   4.697   7.297 -0.0592 -0.4165 -0.5919
 3248SOL     OW21202   3.676   0.129   8.109 -0.2018 -0.2743 -0.1351
 3248SOL    HW121203   3.587   0.101   8.127  0.3358 -2.3012 -0.6004
 3248SOL    HW221204   3.700   0.163   8.195  0.6039 -2.3066  0.4233
 3249SOL     OW21205   0.772   3.105   2.425 -0.1142  0.6898  0.3472
 3249SOL    HW121206   0.845   3.127   2.483 -0.4644 -0.6194  1.2740
 3249SOL    HW221207   0.790   3.170   2.358  1.2062  0.0826  0.1118
 3250SOL     OW21208   3.348   4.041  16.046 -0.0456  0.2846  0.3438
 3250SOL    HW121209   3.264   4.083  16.026  0.6653  2.4068  1.8094
 3250SOL    HW221210   3.322   3.950  16.035 -2.0899  1.1629 -2.0303
 3251SOL     OW21211   2.198   1.864  17.090  0.4392  0.0706  0.0444
 3251SOL    HW121212   2.269   1.800  17.081  0.6257 -0.0552  2.3125
 3251SOL    HW221213   2.243   1.937  17.132  0.1980 -0.1202  0.6356
 3252SOL     OW21214   1.342   1.187   6.372  0.6859  0.1343  0.0027
 3252SOL    HW121215   1.377   1.250   6.310 -0.8099 -0.2710 -1.2592
 3252SOL    HW221216   1.296   1.122   6.318  1.0202 -1.2828  1.4009
 3253SOL     OW21217   2.899   4.633   7.097  0.3551  0.2619  0.3363
 3253SOL    HW121218   2.831   4.696   7.075 -0.7488 -0.9362  0.2943
 3253SOL    HW221219   2.972   4.686   7.065 -1.4036  0.8797 -2.7411
 3254SOL     OW21220   2.303   0.232   2.487  0.1770  0.0496 -0.1808
 3254SOL    HW121221   2.357   0.298   2.530 -0.2901 -1.6087  2.9692
 3254SOL    HW221222   2.361   0.157   2.504 -0.3413 -0.6099 -1.3336
 3255SOL     OW21223   0.473   3.726   5.452  0.3495  0.0650  0.2348
 3255SOL    HW121224   0.563   3.757   5.458 -0.0032  1.0026  0.8280
 3255SOL    HW221225   0.443   3.757   5.366  0.9015 -0.5358 -0.1644
 3256SOL     OW21226   0.329   0.829   5.540 -0.5200 -0.1000 -0.2209
 3256SOL    HW121227   0.422   0.829   5.520 -0.8290  1.7915 -1.6015
 3256SOL    HW221228   0.305   0.752   5.488  2.4626 -0.8196 -0.5031
 3257SOL     OW21229   2.350   2.217   1.208 -0.5051  0.1368  0.3260
 3257SOL    HW121230   2.259   2.196   1.187 -0.6295  3.3323 -2.2447
 3257SOL    HW221231   2.384   2.241   1.123  0.0501 -1.7534  0.0169
 3258SOL     OW21232   4.287   1.573   7.084  0.4005  0.3089  0.3366
 3258SOL    HW121233   4.224   1.627   7.036  0.8217 -0.5501 -1.1776
 3258SOL    HW221234   4.358   1.575   7.020 -0.2858 -1.5611 -0.4836
 3259SOL     OW21235   0.737   0.130   7.979  0.0743  0.0468  0.6990
 3259SOL    HW121236   0.746   0.181   7.898  0.6990 -0.9261  0.1459
 3259SOL    HW221237   0.814   0.073   7.985 -0.2891 -0.5970 -0.6025
 3260SOL     OW21238   2.855   1.093  15.032  0.1627 -0.4637  0.2634
 3260SOL    HW121239   2.786   1.100  14.966  0.1760 -0.1772  0.2795
 3260SOL    HW221240   2.878   1.186  15.040 -0.9580 -0.1900  0.2886
 3261SOL     OW21241   1.453   3.418  17.205 -0.7264 -0.0502  0.0948
 3261SOL    HW121242   1.547   3.432  17.209 -0.9141  1.1079  0.3045
 3261SOL    HW221243   1.426   3.493  17.153  2.3425  0.4721 -0.7303
 3262SOL     OW21244   2.735   1.286   6.732  0.1981  0.2800  0.5613
 3262SOL    HW121245   2.795   1.357   6.755 -1.7752  1.6526  1.4243
 3262SOL    HW221246   2.791   1.241   6.669 -1.0611 -2.3072  1.3014
 3263SOL     OW21247   3.292   4.459   2.479 -0.3951  0.4632 -0.5480
 3263SOL    HW121248   3.287   4.549   2.445 -1.8415  0.4728 -0.2965
 3263SOL    HW221249   3.221   4.422   2.427  0.5448 -0.0720 -1.4669
 3264SOL     OW21250   1.660   1.373   7.378  0.0575  0.0507  0.4763
 3264SOL    HW121251   1.726   1.313   7.413  1.6273 -0.8046 -3.9234
 3264SOL    HW221252   1.658   1.437   7.449  1.3726  1.2753 -0.5853
 3265SOL     OW21253   1.736   0.526   7.431 -0.1543  0.5971 -0.2308
 3265SOL    HW121254   1.709   0.549   7.520 -0.2203 -0.4759  0.0209
 3265SOL    HW221255   1.738   0.431   7.441 -2.5842  0.4827 -1.0377
 3266SOL     OW21256   1.690   0.896  16.322 -0.7481  0.1224 -0.2259
 3266SOL    HW121257   1.732   0.955  16.260 -1.2427  0.7578  0.0397
 3266SOL    HW221258   1.597   0.912  16.303 -0.8489 -0.9145 -0.5899
 3267SOL     OW21259   3.363   2.220  11.793 -0.2160 -0.1518  0.4155
 3267SOL    HW121260   3.294   2.283  11.773  1.1710  1.1092 -0.3770
 3267SOL    HW221261   3.331   2.147  11.847  1.2081 -0.7396  0.4538
 3268SOL     OW21262   0.845   3.630   4.914  0.4164  0.2286  0.3597
 3268SOL    HW121263   0.786   3.630   4.838  2.0487  0.9139 -0.9043
 3268SOL    HW221264   0.922   3.601   4.865 -0.9816  1.4728 -2.5413
 3269SOL     OW21265   1.969   0.410  13.005 -0.2278 -0.1344 -0.2619
 3269SOL    HW121266   2.039   0.474  13.016  1.4590 -1.9677 -0.3199
 3269SOL    HW221267   2.020   0.344  12.957 -0.2492 -0.5705  0.3136
 3270SOL     OW21268   4.699   1.015   3.871  0.1343  0.2574 -0.2955
 3270SOL    HW121269   0.005   0.992   3.960  2.2126 -0.5192 -1.1372
 3270SOL    HW221270   4.674   0.929   3.838 -1.8331  1.5008 -2.0537
 3271SOL     OW21271   4.566   0.950   7.864 -0.4699 -0.3551 -0.0478
 3271SOL    HW121272   4.660   0.971   7.873 -1.1358  1.8203  1.9076
 3271SOL    HW221273   4.525   1.034   7.885  0.3171  0.6715 -2.6148
 3272SOL     OW21274   3.923   3.092   1.092  0.1491  0.0766 -0.5944
 3272SOL    HW121275   3.882   3.168   1.049  1.1985 -0.3163 -2.2781
 3272SOL    HW221276   3.948   3.123   1.179 -0.9922  0.9139 -0.5608
 3273SOL     OW21277   0.436   0.704   5.211  0.4381 -0.0927  0.0033
 3273SOL    HW121278   0.488   0.627   5.233  3.1702  1.3206 -1.6370
 3273SOL    HW221279   0.504   0.769   5.197 -0.3537  0.3234 -1.9119
 3274SOL     OW21280   3.554   0.111   5.325  0.2640 -0.1270 -0.2451
 3274SOL    HW121281   3.555   0.204   5.350  0.5770  0.1163 -1.1575
 3274SOL    HW221282   3.554   0.118   5.230 -0.4049  1.4583 -0.1388
 3275SOL     OW21283   0.268   1.472   3.684  0.0466  0.3598  0.3509
 3275SOL    HW121284   0.347   1.438   3.642 -0.7735  0.1315 -1.0041
 3275SOL    HW221285   0.253   1.397   3.741  0.4712  0.8064  1.0431
 3276SOL     OW21286   1.310   3.846   6.808 -0.7420  0.2744 -0.0279
 3276SOL    HW121287   1.397   3.820   6.779 -1.3388 -1.4066 -0.3034
 3276SOL    HW221288   1.263   3.776   6.763 -1.5093  1.5307 -1.1840
 3277SOL     OW21289   0.232   3.287   4.865  0.1014 -0.0847  0.3607
 3277SOL    HW121290   0.326   3.293   4.884  0.4155 -0.4336 -1.0944
 3277SOL    HW221291   0.216   3.353   4.797 -2.2902 -1.4017 -0.3311
 3278SOL     OW21292   3.515   3.695   2.877  0.5709  0.2562  0.6138
 3278SOL    HW121293   3.611   3.699   2.871  0.5541 -1.4364 -0.6210
 3278SOL    HW221294   3.503   3.617   2.824  1.4238  1.2044 -1.0005
 3279SOL     OW21295   4.048   1.891   5.190 -0.3889  0.4508 -0.0937
 3279SOL    HW121296   4.108   1.836   5.139  1.2572 -0.0230  2.3697
 3279SOL    HW221297   3.971   1.873   5.135  0.9451  1.0197 -2.1574
 3280SOL     OW21298   4.417   2.495   7.365  0.0135  0.6224 -0.2478
 3280SOL    HW121299   4.364   2.565   7.325  0.9140  0.0749 -2.3505
 3280SOL    HW221300   4.456   2.463   7.285 -1.2640 -2.4134  0.3568
 3281SOL     OW21301   4.705   3.854   6.253 -0.3827  0.6814  0.5436
 3281SOL    HW121302   4.681   3.768   6.286 -0.2889  1.0140  1.4759
 3281SOL    HW221303   4.654   3.911   6.311 -3.9813 -2.9009  0.8550
 3282SOL     OW21304   1.276   4.548   1.700  0.3967  0.2184  0.4000
 3282SOL    HW121305   1.255   4.585   1.786 -1.0781 -0.1458  0.1909
 3282SOL    HW221306   1.307   4.623   1.650 -2.0607  2.3397  2.0281
 3283SOL     OW21307   2.360   2.913  16.583  0.4967  0.6141 -0.3421
 3283SOL    HW121308   2.305   2.965  16.526 -0.6110  1.7497  1.7836
 3283SOL    HW221309   2.434   2.895  16.525  0.0489  0.1986 -0.7909
 3284SOL     OW21310   2.988   3.316   1.052  0.5173  0.2930 -0.1670
 3284SOL    HW121311   2.955   3.269   1.128  2.0664 -0.0102  0.3297
 3284SOL    HW221312   2.951   3.263   0.982  0.4211 -0.0625  0.1539
 3285SOL     OW21313   4.012   1.639   8.138  0.0343 -0.1602 -0.2086
 3285SOL    HW121314   3.938   1.628   8.198  0.9297  0.4325  1.0025
 3285SOL    HW221315   4.064   1.563   8.162 -1.5621 -0.9203  0.8635
 3286SOL     OW21316   1.651   3.830  12.973  0.4832  0.2533  0.3593
 3286SOL    HW121317   1.655   3.914  13.019  0.7218  0.7683 -0.6023
 3286SOL    HW221318   1.736   3.818  12.931 -0.2645  1.3112 -1.4657
 3287SOL     OW21319   1.997   4.185   4.024 -0.5959  0.5968  0.1992
 3287SOL    HW121320   2.070   4.227   4.070  2.0149 -4.1236  0.4146
 3287SOL    HW221321   1.960   4.264   3.985 -0.0386 -0.1149 -1.8200
 3288SOL     OW21322   1.172   2.442   1.164  0.2202  0.6258 -0.1273
 3288SOL    HW121323   1.131   2.476   1.243 -1.2858  1.0336 -1.0810
 3288SOL    HW221324   1.096   2.403   1.122  0.4295  0.0381  0.0371
 3289SOL     OW21325   2.363   3.749   2.521  0.3747  0.3477 -0.8214
 3289SOL    HW121326   2.449   3.717   2.495  0.4552  0.4060 -0.6282
 3289SOL    HW221327   2.378   3.749   2.616  0.7427 -2.2218 -0.8802
 3290SOL     OW21328   4.708   2.738   9.402  0.1706 -0.5202 -0.0769
 3290SOL    HW121329   4.622   2.700   9.416  0.2861 -2.3463 -4.3199
 3290SOL    HW221330   4.703   2.746   9.306  0.9496  3.2036  0.1853
 3291SOL     OW21331   0.692   0.547   4.312 -0.3557 -0.2805 -0.3488
 3291SOL    HW121332   0.723   0.488   4.243  1.6248  0.5871 -0.1686
 3291SOL    HW221333   0.753   0.615   4.285  0.4403 -0.5611  0.7675
 3292SOL     OW21334   2.863   2.018  11.163 -0.3154 -0.3765 -0.5309
 3292SOL    HW121335   2.871   2.038  11.256 -0.2028  0.8710 -0.8157
 3292SOL    HW221336   2.773   2.049  11.165 -0.6667 -1.3977 -0.4765
 3293SOL     OW21337   2.406   0.270   6.545 -0.0024  0.4600 -0.8797
 3293SOL    HW121338   2.406   0.260   6.450  0.2197  2.5544 -1.1011
 3293SOL    HW221339   2.320   0.231   6.557  1.1963 -1.7929  0.4206
 3294SOL     OW21340   2.377   0.750  15.460  0.8049 -0.0762 -0.1648
 3294SOL    HW121341   2.393   0.829  15.511 -2.9211 -1.0119  2.4626
 3294SOL    HW221342   2.328   0.789  15.387  1.3252 -1.3371 -1.1833
 3295SOL     OW21343   4.325   4.428   4.778  0.2483 -0.0297  0.3068
 3295SOL    HW121344   4.323   4.442   4.684 -4.0307  1.0130  0.5197
 3295SOL    HW221345   4.238   4.390   4.791  0.2896  0.0582  0.8738
 3296SOL     OW21346   3.855   0.731   7.628  0.0971  0.2987  0.4553
 3296SOL    HW121347   3.898   0.651   7.657 -0.0508  0.3157  0.7187
 3296SOL    HW221348   3.878   0.734   7.535  2.6786  0.4608  1.1043
 3297SOL     OW21349   1.125   4.597   7.042 -0.5692  0.1869  0.0153
 3297SOL    HW121350   1.187   4.662   7.009 -0.3212 -0.5122 -0.9122
 3297SOL    HW221351   1.047   4.652   7.040 -1.0011 -0.4183  0.1456
 3298SOL     OW21352   4.393   4.458   3.746 -0.4328  0.1303 -0.2088
 3298SOL    HW121353   4.472   4.512   3.738  2.0391 -2.9194  3.4078
 3298SOL    HW221354   4.378   4.458   3.841 -1.6525 -0.4356 -0.3992
 3299SOL     OW21355   1.671   1.287  12.312 -0.4315 -0.0552  0.0799
 3299SOL    HW121356   1.590   1.280  12.363 -0.5562  2.9142  0.3101
 3299SOL    HW221357   1.744   1.268  12.371 -0.5078  0.7065  0.4262
 3300SOL     OW21358   3.737   1.191  10.796 -0.5400 -0.0042  0.5568
 3300SOL    HW121359   3.749   1.197  10.701 -0.5017  0.8068  0.6142
 3300SOL    HW221360   3.716   1.283  10.812 -2.5840  0.0796 -2.5392
 3301SOL     OW21361   2.986   3.019  11.842  0.2185 -0.5510  0.1454
 3301SOL    HW121362   3.004   3.109  11.871  0.0781 -0.0782 -1.2572
 3301SOL    HW221363   2.991   2.967  11.922 -0.3973 -2.6084 -1.1615
 3302SOL     OW21364   2.311   1.782   3.864 -0.1853  0.3966  0.1053
 3302SOL    HW121365   2.245   1.736   3.917  1.0059  0.7287  1.8604
 3302SOL    HW221366   2.310   1.733   3.782 -1.4861 -0.2562  0.5025
 3303SOL     OW21367   3.453   2.521   5.887  0.9332  0.1426 -0.3381
 3303SOL    HW121368   3.470   2.613   5.871 -2.5970  1.0595  1.0735
 3303SOL    HW221369   3.498   2.480   5.813 -0.7306 -0.3034 -1.0979
 3304SOL     OW21370   3.405   1.518  12.364 -0.6232 -0.5102 -0.5784
 3304SOL    HW121371   3.434   1.465  12.289  5.1506  1.5462  0.2192
 3304SOL    HW221372   3.392   1.455  12.435 -1.9677 -0.6029 -0.9142
 3305SOL     OW21373   0.578   1.136   7.727  0.7601 -0.3119 -0.1995
 3305SOL    HW121374   0.551   1.086   7.804  1.0457 -0.7854 -0.3997
 3305SOL    HW221375   0.500   1.191   7.724  1.4684  0.6806 -0.3959
 3306SOL     OW21376   0.477   3.302  14.011 -0.4622 -0.0456  0.0627
 3306SOL    HW121377   0.491   3.316  13.918  0.2577  0.9309  0.3198
 3306SOL    HW221378   0.386   3.275  14.022 -0.5344 -0.1482 -0.7651
 3307SOL     OW21379   0.358   4.247   2.578 -0.3041 -0.0045 -0.4868
 3307SOL    HW121380   0.349   4.317   2.643  0.3349 -0.5486  0.1914
 3307SOL    HW221381   0.272   4.207   2.565 -0.0355 -0.5324 -0.6148
 3308SOL     OW21382   0.708   1.541   5.537  0.0993  0.1255  0.2677
 3308SOL    HW121383   0.780   1.501   5.586 -0.0946 -1.4117 -0.7023
 3308SOL    HW221384   0.757   1.546   5.454 -2.4407  1.5151 -1.1481
 3309SOL     OW21385   4.318   2.888   2.052 -0.1011 -0.2760 -0.5300
 3309SOL    HW121386   4.325   2.841   2.135  0.6589 -0.7718 -0.8707
 3309SOL    HW221387   4.408   2.870   2.023 -0.3090 -2.1699 -0.0090
 3310SOL     OW21388   0.313   0.348  13.402  0.0175 -0.1980  0.3402
 3310SOL    HW121389   0.354   0.353  13.316 -3.4014  3.4415 -1.0335
 3310SOL    HW221390   0.222   0.334  13.377  1.0014 -1.8492 -2.3811
 3311SOL     OW21391   2.194   0.230  14.669  0.1261  0.3840  0.3532
 3311SOL    HW121392   2.262   0.182  14.621 -0.6022 -1.4583  1.1977
 3311SOL    HW221393   2.141   0.152  14.683 -1.5513  1.5506  0.4553
 3312SOL     OW21394   0.934   1.578   9.731 -0.4160 -0.5094  0.0909
 3312SOL    HW121395   0.888   1.657   9.701 -0.6476 -0.8052 -0.3369
 3312SOL    HW221396   0.930   1.600   9.824  1.9189 -0.3901  0.1688
 3313SOL     OW21397   3.903   2.450  15.093  0.0306 -0.2843  0.4663
 3313SOL    HW121398   3.924   2.366  15.053 -1.0162 -0.3517  0.0457
 3313SOL    HW221399   3.823   2.431  15.142 -0.0088  1.1068  0.9337
 3314SOL     OW21400   0.802   2.880  10.903  0.0608  0.0971 -0.2981
 3314SOL    HW121401   0.888   2.867  10.943 -0.8092 -1.4044  1.1018
 3314SOL    HW221402   0.825   2.855  10.814 -0.1118 -1.9709  0.2261
 3315SOL     OW21403   0.491   1.547   2.516  0.9382  0.2532  0.0909
 3315SOL    HW121404   0.413   1.528   2.463 -0.0462  0.2914  1.5403
 3315SOL    HW221405   0.479   1.636   2.548 -0.6457  0.5448 -1.2759
 3316SOL     OW21406   1.543   2.974   2.111 -0.1724 -0.6991  0.0883
 3316SOL    HW121407   1.516   2.976   2.019 -1.4012  0.2984  0.4661
 3316SOL    HW221408   1.465   2.932   2.148  0.4770 -1.7407  0.2548
 3317SOL     OW21409   0.064   2.585   6.284  0.0405 -0.3491  0.1179
 3317SOL    HW121410   0.129   2.655   6.289 -0.6468  0.4792 -2.5824
 3317SOL    HW221411   0.079   2.542   6.368  0.0615  0.4477  0.5227
 3318SOL     OW21412   0.332   4.252   8.264  0.2390 -0.6109 -0.2362
 3318SOL    HW121413   0.275   4.242   8.340 -1.4648 -2.3222 -1.7445
 3318SOL    HW221414   0.276   4.206   8.201 -0.8374  0.8024 -0.3162
 3319SOL     OW21415   2.307   3.564   0.467  0.0665 -0.5763  0.2568
 3319SOL    HW121416   2.392   3.558   0.511  0.4722  3.3720  0.0096
 3319SOL    HW221417   2.345   3.553   0.380  2.8091  0.5994  1.3157
 3320SOL     OW21418   0.879   4.041   3.092  0.6040  0.5690  0.6831
 3320SOL    HW121419   0.972   4.015   3.092  0.3214 -0.4935  2.5853
 3320SOL    HW221420   0.839   3.960   3.060  0.8814  0.4138  0.7178
 3321SOL     OW21421   1.984   2.110  15.791  0.3296  0.5688  0.3711
 3321SOL    HW121422   2.061   2.059  15.764  0.8692  1.4132  0.3253
 3321SOL    HW221423   1.913   2.071  15.740  0.3797  0.8512  0.0834
 3322SOL     OW21424   4.137   1.643  15.734 -0.0853 -0.3744 -0.2467
 3322SOL    HW121425   4.185   1.574  15.688 -2.4615 -2.4970  0.4706
 3322SOL    HW221426   4.130   1.598  15.818 -1.4090  1.9170  0.8609
 3323SOL     OW21427   1.130   1.344   5.098  0.2726 -0.5339 -0.0867
 3323SOL    HW121428   1.204   1.299   5.057  0.5646  1.5961 -1.9642
 3323SOL    HW221429   1.053   1.310   5.053  1.5969  1.0858 -3.6081
 3324SOL     OW21430   4.666   4.654   3.706  0.2274 -0.4303 -0.4080
 3324SOL    HW121431   0.006   4.630   3.636  2.8055 -0.4245  1.8310
 3324SOL    HW221432   0.000   4.622   3.777  1.1044 -0.8006 -1.2505
 3325SOL     OW21433   1.489   0.427   9.139  0.0853 -0.1727  0.3865
 3325SOL    HW121434   1.525   0.516   9.135 -0.8609  0.2548  1.4417
 3325SOL    HW221435   1.421   0.450   9.202 -1.6434 -1.8076 -0.8732
 3326SOL     OW21436   3.862   3.546   6.671 -1.0458 -0.1554 -0.1252
 3326SOL    HW121437   3.838   3.480   6.736  0.5442 -1.3248 -0.7353
 3326SOL    HW221438   3.925   3.597   6.724  1.9311 -1.9465 -1.9615
 3327SOL     OW21439   0.299   4.232   1.379 -0.3348 -0.5525 -0.2528
 3327SOL    HW121440   0.219   4.281   1.400  0.6401  2.0151 -2.5182
 3327SOL    HW221441   0.342   4.247   1.463  0.5111 -1.4848 -0.5220
 3328SOL     OW21442   0.166   0.920  10.546 -0.2982  0.2608  0.4221
 3328SOL    HW121443   0.107   0.992  10.569 -2.1269 -1.1974  0.2663
 3328SOL    HW221444   0.211   0.905  10.629 -2.3254  1.7941  1.7952
 3329SOL     OW21445   4.357   1.576   3.587 -0.3002 -0.1693 -0.1091
 3329SOL    HW121446   4.281   1.527   3.553 -0.1178 -0.3772 -0.2180
 3329SOL    HW221447   4.395   1.504   3.637 -1.0457 -1.0606 -0.8137
 3330SOL     OW21448   3.904   3.070  10.161 -0.1026 -0.2309 -0.3875
 3330SOL    HW121449   3.895   3.165  10.161 -0.1400 -0.2322 -1.4463
 3330SOL    HW221450   3.976   3.044  10.218  0.0121  0.1593 -0.3503
 3331SOL     OW21451   1.025   4.561   3.716 -0.2654  0.1491  0.4088
 3331SOL    HW121452   1.098   4.501   3.729 -2.2413 -2.2018  0.6916
 3331SOL    HW221453   1.024   4.619   3.792  1.5860  2.0276 -1.0072
 3332SOL     OW21454   4.662   3.340   8.795  0.0346  0.5295 -0.1907
 3332SOL    HW121455   0.009   3.290   8.841 -2.3733  0.7695  3.6397
 3332SOL    HW221456   4.694   3.429   8.812  0.6323  0.8030 -2.8385
 3333SOL     OW21457   0.725   3.301   8.435  0.4876 -0.2812 -0.0637
 3333SOL    HW121458   0.668   3.271   8.505 -1.3872 -1.5092 -2.1111
 3333SOL    HW221459   0.752   3.221   8.388  0.5462  0.3772 -1.1572
 3334SOL     OW21460   1.657   4.205  11.720  0.3712 -0.1647  0.5120
 3334SOL    HW121461   1.715   4.136  11.688  1.4300  1.4088 -0.9883
 3334SOL    HW221462   1.700   4.286  11.690 -0.1075 -0.6619 -1.5109
 3335SOL     OW21463   3.930   3.944  13.991  0.1687  0.0900  0.0316
 3335SOL    HW121464   4.013   3.941  13.944 -0.0526  2.2333 -0.4967
 3335SOL    HW221465   3.955   3.994  14.068  1.4577  1.5996 -1.3543
 3336SOL     OW21466   0.899   0.793  13.848 -0.0975  0.0308 -0.2151
 3336SOL    HW121467   0.951   0.816  13.771  2.0295  2.8337  2.0761
 3336SOL    HW221468   0.923   0.870  13.899 -1.2597  0.2642 -0.0195
 3337SOL     OW21469   0.521   4.384   6.719 -0.7207  0.0455 -0.1518
 3337SOL    HW121470   0.430   4.356   6.727 -0.0174 -2.5650 -1.4065
 3337SOL    HW221471   0.564   4.329   6.784  1.3006  0.7941 -0.8737
 3338SOL     OW21472   4.664   4.058   5.565  0.1291 -0.1015 -0.1362
 3338SOL    HW121473   4.601   4.026   5.630  0.1710 -1.4015 -0.7390
 3338SOL    HW221474   4.626   4.004   5.496 -1.2684 -1.4544  1.6846
 3339SOL     OW21475   3.005   4.711  15.335  0.0995  0.3917 -0.5296
 3339SOL    HW121476   2.942   0.061  15.324  0.7484  1.1608  0.7564
 3339SOL    HW221477   3.037   4.704  15.246  0.9315  2.3436 -0.3651
 3340SOL     OW21478   1.704   2.427   5.628  0.2312 -0.0905 -0.6019
 3340SOL    HW121479   1.730   2.472   5.547 -3.4593  1.1858 -1.0564
 3340SOL    HW221480   1.794   2.409   5.656  0.3296 -0.7253 -1.3365
 3341SOL     OW21481   1.336   2.450   4.716 -0.3819  0.5536  0.6178
 3341SOL    HW121482   1.325   2.510   4.643 -1.1902 -1.5264 -0.9552
 3341SOL    HW221483   1.402   2.389   4.683 -1.0774  1.3522 -2.2290
 3342SOL     OW21484   2.155   0.518   6.246  0.2238  0.2145  0.1208
 3342SOL    HW121485   2.167   0.573   6.324 -0.6650 -0.8169  0.9771
 3342SOL    HW221486   2.062   0.511   6.227  0.3227 -0.0918 -0.2492
 3343SOL     OW21487   1.028   1.180   2.837  0.0578 -0.1133 -0.0850
 3343SOL    HW121488   1.112   1.140   2.813  0.8514  1.0983  0.6714
 3343SOL    HW221489   1.071   1.247   2.891  0.0765 -0.8205  0.7800
 3344SOL     OW21490   3.734   1.886  10.750 -0.2509  0.3834 -0.6181
 3344SOL    HW121491   3.685   1.847  10.822  2.6823  0.6707  1.5403
 3344SOL    HW221492   3.667   1.928  10.697 -0.3486  1.0495  0.0379
 3345SOL     OW21493   4.636   1.657  10.646  0.0572 -0.8502 -0.0687
 3345SOL    HW121494   4.540   1.655  10.642  0.1064 -1.5606 -0.9803
 3345SOL    HW221495   4.647   1.744  10.684 -0.8451 -0.8648  0.2320
 3346SOL     OW21496   1.935   0.495  11.154 -0.5306 -0.2342  0.3959
 3346SOL    HW121497   1.846   0.529  11.157 -0.5881 -0.4298  0.8433
 3346SOL    HW221498   1.938   0.479  11.059 -1.8503  0.5976  0.2182
 3347SOL     OW21499   2.864   2.997   1.763  0.5431 -0.3691  0.0806
 3347SOL    HW121500   2.788   2.938   1.771  0.4674 -0.4529 -1.4103
 3347SOL    HW221501   2.814   3.067   1.806  1.1524  1.8422 -2.8650
 3348SOL     OW21502   3.363   0.318   4.626  0.5005 -0.6311 -0.3211
 3348SOL    HW121503   3.413   0.384   4.579  0.2682  0.7136  1.3247
 3348SOL    HW221504   3.366   0.342   4.718  2.3254 -2.0273 -0.0144
 3349SOL     OW21505   2.811   2.888  12.871  0.5200 -0.8067 -0.4261
 3349SOL    HW121506   2.759   2.949  12.819  0.0887  0.2420  1.2741
 3349SOL    HW221507   2.891   2.921  12.829 -0.1236 -1.2715 -2.0425
 3350SOL     OW21508   1.786   4.320   8.012 -0.0649 -0.1937  0.0126
 3350SOL    HW121509   1.849   4.377   8.057 -0.8256  0.7380 -0.0870
 3350SOL    HW221510   1.721   4.388   7.991  1.2146  1.1013  0.2353
 3351SOL     OW21511   3.640   0.134   8.554 -0.6976  0.1521 -0.5016
 3351SOL    HW121512   3.563   0.118   8.500 -0.9238  0.4444 -0.2653
 3351SOL    HW221513   3.707   0.137   8.485 -0.0870  1.7526  0.1618
 3352SOL     OW21514   2.015   2.134   9.456 -0.0327  0.0007 -0.0391
 3352SOL    HW121515   2.088   2.126   9.518 -0.3202  2.7540  0.6450
 3352SOL    HW221516   1.949   2.077   9.496  1.3031 -1.4837  0.0501
 3353SOL     OW21517   3.163   0.551   6.650  0.5198  0.0411 -0.3523
 3353SOL    HW121518   3.157   0.576   6.558  0.9258  1.3031 -0.0300
 3353SOL    HW221519   3.254   0.522   6.660  0.3490 -1.4659 -3.3219
 3354SOL     OW21520   3.344   4.596   1.595  0.1140 -0.1588 -0.1882
 3354SOL    HW121521   3.422   4.543   1.577  0.8696  0.5054  1.1504
 3354SOL    HW221522   3.359   4.670   1.536 -0.8793  0.6243  0.5674
 3355SOL     OW21523   4.632   2.371  15.771  0.1174 -0.5638 -0.1731
 3355SOL    HW121524   4.644   2.458  15.811 -0.8470 -0.3788 -0.2961
 3355SOL    HW221525   4.647   2.316  15.847  0.4967 -0.4428 -0.1601
 3356SOL     OW21526   2.438   0.039   5.855 -0.9397 -0.7959 -0.2405
 3356SOL    HW121527   2.405   4.678   5.891 -2.1874 -0.4520 -0.5771
 3356SOL    HW221528   2.364   0.099   5.850  0.4189  0.9215  0.3418
 3357SOL     OW21529   4.311   3.255   6.519 -0.6448 -0.1400 -0.0977
 3357SOL    HW121530   4.244   3.217   6.462 -1.2611  1.4254 -0.4197
 3357SOL    HW221531   4.261   3.316   6.575  1.5599  1.4653  0.1072
 3358SOL     OW21532   3.573   2.195   9.475 -0.5415  0.0464 -0.0141
 3358SOL    HW121533   3.668   2.190   9.483 -0.6920 -3.3922 -0.2469
 3358SOL    HW221534   3.555   2.288   9.489  2.9780  0.7403 -0.1209
 3359SOL     OW21535   4.528   3.744  17.162 -0.5230  0.3453 -0.3123
 3359SOL    HW121536   4.558   3.830  17.131  0.5843  0.3546  0.7925
 3359SOL    HW221537   4.614   3.720  17.195  0.2178 -0.9420 -3.2420
 3360SOL     OW21538   3.771   0.249   6.530  0.0966 -0.3079  0.3505
 3360SOL    HW121539   3.839   0.294   6.480 -0.4642  0.0777 -0.0607
 3360SOL    HW221540   3.695   0.303   6.512  1.0705  0.2755 -1.9968
 3361SOL     OW21541   3.612   3.831   3.596  0.3737  0.2263 -0.0892
 3361SOL    HW121542   3.635   3.832   3.689  0.7232 -0.4332 -0.1648
 3361SOL    HW221543   3.605   3.738   3.574  2.4627 -0.4516  2.1010
 3362SOL     OW21544   2.023   2.224   4.434 -0.7909  0.0176 -0.5412
 3362SOL    HW121545   2.021   2.320   4.438  0.1439 -0.0264  0.6501
 3362SOL    HW221546   2.096   2.208   4.374  0.6730 -0.6925  1.4391
 3363SOL     OW21547   4.542   0.269   6.834  0.2066  0.0053  0.3246
 3363SOL    HW121548   4.614   0.322   6.867  0.7500 -0.8672  0.5173
 3363SOL    HW221549   4.573   0.248   6.746 -1.7042 -1.9998  0.1126
 3364SOL     OW21550   4.593   0.099   1.680  0.2444  0.4140  0.1060
 3364SOL    HW121551   4.588   0.020   1.626  1.5471 -0.2236  0.9163
 3364SOL    HW221552   4.578   0.164   1.610 -1.2689 -0.2921 -0.2182
 3365SOL     OW21553   2.385   0.798   1.997  0.3121 -0.3619  0.3082
 3365SOL    HW121554   2.464   0.852   1.990  0.5230 -0.9068 -1.5736
 3365SOL    HW221555   2.391   0.727   1.932  0.4616  1.1646 -1.3307
 3366SOL     OW21556   4.216   4.697   8.766 -0.1513 -0.1096  0.3080
 3366SOL    HW121557   4.127   4.718   8.797 -0.6354  0.2277 -1.3243
 3366SOL    HW221558   4.245   4.652   8.845  2.8976  0.7963 -0.3075
 3367SOL     OW21559   0.876   1.045  17.080  0.4325  0.2320  0.2881
 3367SOL    HW121560   0.895   0.964  17.128 -0.1056  1.1626  2.0562
 3367SOL    HW221561   0.835   1.006  17.003  0.9813  0.2873 -0.0290
 3368SOL     OW21562   2.630   0.676  10.933  0.5173 -0.6956 -0.7675
 3368SOL    HW121563   2.548   0.651  10.976  1.2845 -0.0256  1.0731
 3368SOL    HW221564   2.610   0.649  10.844 -0.6901 -1.3126 -0.3170
 3369SOL     OW21565   1.532   2.255   3.250  1.0294 -0.2769  0.3498
 3369SOL    HW121566   1.588   2.271   3.325  1.8805 -2.2548  0.1453
 3369SOL    HW221567   1.606   2.204   3.217  1.8664  2.8806 -2.5976
 3370SOL     OW21568   2.102   0.452  12.417  1.0379 -0.9521  0.5257
 3370SOL    HW121569   2.168   0.518  12.395 -2.0988  0.4546 -4.7635
 3370SOL    HW221570   2.053   0.458  12.335  1.6232 -0.5443  0.2069
 3371SOL     OW21571   3.511   2.226  14.594 -0.0102  0.0723  0.4907
 3371SOL    HW121572   3.587   2.234  14.535  0.8966 -1.1700  1.4872
 3371SOL    HW221573   3.454   2.189  14.526  1.5012  2.7690 -2.2571
 3372SOL     OW21574   3.168   3.638   2.536 -0.0073 -0.1707 -0.1638
 3372SOL    HW121575   3.214   3.556   2.552  1.6074  0.0664 -3.5054
 3372SOL    HW221576   3.137   3.631   2.445  1.0645  0.1695 -0.5549
 3373SOL     OW21577   2.189   0.158   5.753 -0.2995 -0.5586 -0.2695
 3373SOL    HW121578   2.100   0.172   5.722  0.2018  2.9024 -0.2113
 3373SOL    HW221579   2.218   0.250   5.751 -1.6427 -0.1066  0.7079
 3374SOL     OW21580   0.429   1.070   8.884  0.5962  0.4064 -0.0532
 3374SOL    HW121581   0.361   1.114   8.833 -1.1065 -3.7276 -1.3126
 3374SOL    HW221582   0.478   1.143   8.922 -1.9163  1.5592  0.9638
 3375SOL     OW21583   0.506   2.195   4.982  0.0377  0.6781 -0.0801
 3375SOL    HW121584   0.434   2.197   5.045  0.5808 -2.0181  0.6606
 3375SOL    HW221585   0.575   2.230   5.038  0.3962  0.7264 -0.5491
 3376SOL     OW21586   3.556   1.267   4.437 -0.3664 -0.0896 -0.8818
 3376SOL    HW121587   3.538   1.184   4.393  0.3779 -1.1575  0.8679
 3376SOL    HW221588   3.548   1.249   4.530 -1.1800  1.1837 -0.7022
 3377SOL     OW21589   2.108   1.671   5.088 -0.2170 -0.6471  0.4305
 3377SOL    HW121590   2.128   1.578   5.076 -0.0999 -0.6271  0.4695
 3377SOL    HW221591   2.188   1.694   5.136 -0.0181  0.0324 -0.2271
 3378SOL     OW21592   4.287   2.279   9.458  0.5150 -0.0127 -0.1714
 3378SOL    HW121593   4.328   2.363   9.476 -1.3804  0.5817  1.4162
 3378SOL    HW221594   4.236   2.268   9.538  1.0846 -0.9249  0.0609
 3379SOL     OW21595   1.004   0.260   7.613 -0.2051  0.0346  0.7346
 3379SOL    HW121596   0.959   0.260   7.698  0.7774 -1.0357  1.2513
 3379SOL    HW221597   0.950   0.194   7.570  0.0281  0.0889  0.3644
 3380SOL     OW21598   1.143   4.305  10.858 -0.3994  0.2012 -0.0113
 3380SOL    HW121599   1.150   4.337  10.948 -0.5492  1.8865 -0.5962
 3380SOL    HW221600   1.225   4.336  10.820  0.0029 -2.3387 -1.1945
 3381SOL     OW21601   3.515   3.587   9.845 -0.0444 -0.2214 -0.6633
 3381SOL    HW121602   3.495   3.501   9.881 -2.0690  1.4270  2.1171
 3381SOL    HW221603   3.441   3.639   9.875 -1.1390 -0.7595 -2.3993
 3382SOL     OW21604   4.527   1.522   5.342 -0.0930 -0.2896  0.1360
 3382SOL    HW121605   4.550   1.589   5.278 -1.3776 -0.4090 -0.4510
 3382SOL    HW221606   4.546   1.444   5.290  1.3850 -1.3138  2.2399
 3383SOL     OW21607   3.224   1.900  16.614 -0.0198  0.3517 -0.1957
 3383SOL    HW121608   3.152   1.918  16.674  0.9720  1.1512  0.7566
 3383SOL    HW221609   3.182   1.905  16.528 -2.0735 -0.1190  0.7836
 3384SOL     OW21610   4.298   1.342   3.343  0.1790 -0.5406  0.5590
 3384SOL    HW121611   4.228   1.363   3.404 -0.2052 -0.4757  0.0961
 3384SOL    HW221612   4.315   1.250   3.363 -1.3622 -1.0336 -0.3863
 3385SOL     OW21613   3.850   4.496   6.390 -0.4855  0.1556 -0.2716
 3385SOL    HW121614   3.937   4.461   6.411  0.6774  1.2880 -3.2039
 3385SOL    HW221615   3.823   4.549   6.466  1.6178 -0.2990  0.7880
 3386SOL     OW21616   1.750   4.490   2.900 -0.4032  0.7973 -0.2296
 3386SOL    HW121617   1.839   4.523   2.910 -0.1232 -0.2315  0.7307
 3386SOL    HW221618   1.717   4.473   2.988  2.3529  0.4967  0.7469
 3387SOL     OW21619   3.042   1.915   0.325  0.4449  0.1876 -0.1176
 3387SOL    HW121620   2.980   1.878   0.261  0.4980 -0.6830  0.3305
 3387SOL    HW221621   3.075   1.834   0.364 -2.5228 -0.7153  0.5535
 3388SOL     OW21622   1.979   0.246   0.938 -0.0257 -0.2548 -0.3081
 3388SOL    HW121623   2.073   0.252   0.919  0.3990 -0.0260  1.8493
 3388SOL    HW221624   1.983   0.206   1.025  1.1977 -0.9731 -0.6908
 3389SOL     OW21625   0.766   4.153   2.666  0.4318 -0.7521  0.0606
 3389SOL    HW121626   0.689   4.099   2.647  0.1776 -0.5812  0.6047
 3389SOL    HW221627   0.797   4.172   2.577  1.2029 -0.3596  0.4142
 3390SOL     OW21628   0.174   1.171   8.379  0.1713  0.2909  0.5671
 3390SOL    HW121629   0.258   1.174   8.424 -0.5285 -1.2285  1.9452
 3390SOL    HW221630   0.193   1.253   8.333 -0.7399 -1.0125 -2.1433
 3391SOL     OW21631   2.040   0.727  11.027 -0.5125  0.2725 -0.9094
 3391SOL    HW121632   2.044   0.636  11.056  0.0826  0.8429  0.7599
 3391SOL    HW221633   2.100   0.720  10.952  1.4868  0.0139  0.7333
 3392SOL     OW21634   3.890   0.516   5.534 -0.1411  0.0464 -0.1606
 3392SOL    HW121635   3.889   0.586   5.468  0.2989  0.2070  0.0045
 3392SOL    HW221636   3.800   0.528   5.565 -0.0566  0.4952 -0.0917
 3393SOL     OW21637   3.620   2.219  15.849  0.0813  0.1802  0.1409
 3393SOL    HW121638   3.603   2.247  15.759 -2.3808  0.2099  0.6275
 3393SOL    HW221639   3.530   2.214  15.881 -0.7907 -0.8564 -2.4341
 3394SOL     OW21640   1.309   1.585  15.675  0.6373 -0.1691  0.3838
 3394SOL    HW121641   1.300   1.679  15.690  0.4776 -0.2476  0.7569
 3394SOL    HW221642   1.384   1.571  15.616  0.6475  0.3882  0.2573
 3395SOL     OW21643   2.040   3.715  10.205 -0.0332 -0.0911 -0.1142
 3395SOL    HW121644   2.075   3.781  10.146  1.5411 -0.9976 -0.1854
 3395SOL    HW221645   2.045   3.764  10.287 -0.6142  0.6997 -0.5498
 3396SOL     OW21646   3.702   4.106   3.478 -0.1167 -0.2419  0.2623
 3396SOL    HW121647   3.721   4.144   3.564 -0.4881 -0.2147  0.3345
 3396SOL    HW221648   3.676   4.016   3.499  1.3192 -0.4096  1.2796
 3397SOL     OW21649   3.311   4.052   4.139 -0.3585  0.3559  0.5538
 3397SOL    HW121650   3.312   4.001   4.220 -1.7619  0.5953  0.7223
 3397SOL    HW221651   3.220   4.078   4.128  0.4342  2.5909 -0.7333
 3398SOL     OW21652   3.594   2.825   4.602  0.0073 -0.6967 -0.4131
 3398SOL    HW121653   3.585   2.755   4.537 -1.1476  0.2187 -1.2361
 3398SOL    HW221654   3.602   2.773   4.682  1.3193 -0.1721 -0.1924
 3399SOL     OW21655   3.042   0.378   9.127 -0.0821  0.2458 -0.0221
 3399SOL    HW121656   3.057   0.299   9.074  1.6748 -0.7362  1.9527
 3399SOL    HW221657   3.115   0.359   9.186  0.9617  0.3462 -1.2885
 3400SOL     OW21658   0.079   3.306  11.684  0.1924 -0.3743  0.6250
 3400SOL    HW121659   0.124   3.390  11.672 -3.2312  1.6974  2.0409
 3400SOL    HW221660   0.079   3.298  11.780 -1.0077  2.1251  0.8547
 3401SOL     OW21661   0.473   1.099   4.979 -0.1769 -0.1873 -0.6463
 3401SOL    HW121662   0.439   1.123   5.065  1.3993 -3.2264  0.7914
 3401SOL    HW221663   0.424   1.021   4.954 -0.6381  0.2357 -1.0743
 3402SOL     OW21664   4.268   0.231   2.478  0.3221  0.4235  0.0401
 3402SOL    HW121665   4.316   0.180   2.543 -1.8204 -1.8487 -0.1505
 3402SOL    HW221666   4.236   0.298   2.539  0.6219  1.6557 -1.1673
 3403SOL     OW21667   1.178   3.296   6.720  0.2569 -0.2236  0.0079
 3403SOL    HW121668   1.204   3.377   6.764  2.8979 -1.5607  0.9173
 3403SOL    HW221669   1.223   3.238   6.781  0.6791  1.0743  0.9247
 3404SOL     OW21670   1.709   0.162   9.948  0.2387  0.3392 -0.1386
 3404SOL    HW121671   1.759   0.243   9.956 -0.6486  0.7999  0.8470
 3404SOL    HW221672   1.670   0.181   9.863  2.2074 -0.1686 -1.1638
 3405SOL     OW21673   3.463   0.792   7.775  0.6109 -0.3581  0.1159
 3405SOL    HW121674   3.470   0.779   7.869 -1.9890 -1.6438  0.1259
 3405SOL    HW221675   3.420   0.712   7.746 -0.1337 -0.0884  0.4537
 3406SOL     OW21676   3.341   2.025   3.356  0.5055  0.4676  0.3435
 3406SOL    HW121677   3.424   2.025   3.307  1.2153 -1.4083  1.5378
 3406SOL    HW221678   3.357   1.983   3.441  3.7425 -1.3045 -1.1416
 3407SOL     OW21679   3.175   3.885  12.049  0.7112 -0.3068  0.5798
 3407SOL    HW121680   3.217   3.820  12.104 -0.3410 -1.6479 -0.1828
 3407SOL    HW221681   3.091   3.893  12.094  0.1108 -0.1378 -0.5537
 3408SOL     OW21682   4.592   3.523  12.387  0.4031 -0.3564 -0.2442
 3408SOL    HW121683   4.639   3.560  12.462 -3.0872  0.1051  1.6974
 3408SOL    HW221684   4.610   3.430  12.404 -0.8111 -0.4529  0.4734
 3409SOL     OW21685   3.610   1.808   0.259  0.1571  0.2395 -0.1267
 3409SOL    HW121686   3.632   1.736   0.319  0.6374  0.4122 -0.0953
 3409SOL    HW221687   3.516   1.822   0.265  0.1392  0.6767 -1.5184
 3410SOL     OW21688   1.687   4.142   2.388  0.4199  0.0778 -0.0231
 3410SOL    HW121689   1.737   4.222   2.370 -2.0605  2.2340  2.4906
 3410SOL    HW221690   1.737   4.128   2.469 -1.3639 -1.3894  0.8159
 3411SOL     OW21691   4.494   1.025   8.489  0.3957 -0.3776  0.4301
 3411SOL    HW121692   4.401   1.003   8.484 -0.2797  2.2984  1.2926
 3411SOL    HW221693   4.476   1.119   8.493 -0.6470 -0.6576  2.3989
 3412SOL     OW21694   1.261   0.619   3.594  0.1428 -0.0897 -0.5123
 3412SOL    HW121695   1.286   0.537   3.551 -4.6109 -1.8342  0.0734
 3412SOL    HW221696   1.349   0.652   3.612 -0.2854  1.5364 -1.4370
 3413SOL     OW21697   4.514   3.502   7.879 -0.1599  0.0240  0.3425
 3413SOL    HW121698   4.427   3.464   7.870 -0.2860  0.4311 -0.1567
 3413SOL    HW221699   4.506   3.584   7.830 -0.8311 -2.1234 -3.1101
 3414SOL     OW21700   2.160   4.645   4.148  0.1045  0.0284  0.0595
 3414SOL    HW121701   2.120   4.587   4.213 -1.3044  1.5968  0.5690
 3414SOL    HW221702   2.254   4.623   4.145  0.0434 -0.3285  0.7434
 3415SOL     OW21703   2.145   1.210  16.331  0.4799  0.3327  0.3189
 3415SOL    HW121704   2.081   1.205  16.260  2.4877  2.4434 -1.6333
 3415SOL    HW221705   2.168   1.118  16.344 -1.3801  0.1304  2.0980
 3416SOL     OW21706   4.464   0.725   5.865 -0.2098 -0.6463 -0.0060
 3416SOL    HW121707   4.373   0.754   5.863  0.4702  1.5318  0.2359
 3416SOL    HW221708   4.488   0.691   5.779 -2.0966 -0.1573 -0.7308
 3417SOL     OW21709   4.127   2.783   6.860  0.4093  0.1288  0.3361
 3417SOL    HW121710   4.176   2.855   6.818 -1.9099  1.3224 -0.3190
 3417SOL    HW221711   4.184   2.765   6.934  3.1515 -2.9637 -2.5232
 3418SOL     OW21712   3.968   2.989   1.517 -0.2236  0.3413 -0.2067
 3418SOL    HW121713   3.892   2.964   1.568 -0.7489 -1.9599 -2.0884
 3418SOL    HW221714   4.029   2.994   1.591 -0.6493  0.1268  0.1553
 3419SOL     OW21715   4.567   1.246   5.835  0.3560  0.0781 -0.3830
 3419SOL    HW121716   4.617   1.306   5.889  0.5266  0.2190 -0.6964
 3419SOL    HW221717   4.620   1.170   5.861  2.7004  1.1823 -1.9353
 3420SOL     OW21718   3.310   3.737   9.952 -0.6693 -0.0240  0.2445
 3420SOL    HW121719   3.225   3.723   9.911  0.1590 -3.6994 -0.2192
 3420SOL    HW221720   3.292   3.753  10.045 -0.4660  0.0113  0.2799
 3421SOL     OW21721   2.485   3.284   4.149  0.1536 -0.2708  0.0331
 3421SOL    HW121722   2.402   3.242   4.126  0.3473 -0.3447 -0.5328
 3421SOL    HW221723   2.461   3.323   4.233 -2.4701 -0.5088 -0.5910
 3422SOL     OW21724   0.466   0.933   7.387  0.5690  0.0474  0.6202
 3422SOL    HW121725   0.549   0.979   7.385 -0.5342  1.8859 -1.5957
 3422SOL    HW221726   0.479   0.853   7.439  2.9739  0.7377  1.0611
 3423SOL     OW21727   0.560   1.621   7.272 -0.4001  0.9362 -0.1647
 3423SOL    HW121728   0.496   1.601   7.340 -1.4932  1.9567 -0.8915
 3423SOL    HW221729   0.507   1.655   7.200  2.2547  2.2257 -1.5100
 3424SOL     OW21730   0.356   1.512  10.257 -0.2732 -0.4755 -0.3428
 3424SOL    HW121731   0.407   1.455  10.314 -0.6767  0.9304  1.4252
 3424SOL    HW221732   0.417   1.521  10.184 -1.1197 -1.2471 -1.1446
 3425SOL     OW21733   1.387   2.591   9.265 -0.7725 -0.3128  0.8542
 3425SOL    HW121734   1.454   2.628   9.323 -1.8697  0.3855  1.6847
 3425SOL    HW221735   1.424   2.510   9.230 -0.2812  0.6148 -0.7662
 3426SOL     OW21736   1.373   0.982   4.658 -0.3201  0.4640  0.2902
 3426SOL    HW121737   1.406   0.893   4.675  1.0104  0.5693 -1.7100
 3426SOL    HW221738   1.418   1.006   4.577  1.1592  0.3379  1.0720
 3427SOL     OW21739   0.856   2.333   6.928 -0.0859 -0.0213 -0.2243
 3427SOL    HW121740   0.871   2.271   6.857 -1.6538 -1.9393  1.1281
 3427SOL    HW221741   0.853   2.281   7.008  0.3856 -1.0097 -0.8584
 3428SOL     OW21742   3.044   4.657  11.946 -0.5610 -0.7986  0.6055
 3428SOL    HW121743   3.003   4.672  11.861 -0.2191  0.1173  0.6106
 3428SOL    HW221744   2.963   4.669  11.996  0.0345  0.0565  1.3474
 3429SOL     OW21745   4.233   1.548   7.636 -0.5467 -0.1648  0.2532
 3429SOL    HW121746   4.194   1.543   7.549  0.5099  3.7421 -0.4781
 3429SOL    HW221747   4.325   1.536   7.614 -0.2151  2.5632  0.1271
 3430SOL     OW21748   3.375   4.090   6.437 -0.3811 -0.6697 -0.4132
 3430SOL    HW121749   3.441   4.036   6.481  0.0566  1.2141  1.2085
 3430SOL    HW221750   3.415   4.117   6.354  1.2843  0.9729  0.9240
 3431SOL     OW21751   2.046   3.166   1.089 -0.2053  0.3045  0.1279
 3431SOL    HW121752   2.009   3.204   1.168 -0.3413  0.5655 -0.0607
 3431SOL    HW221753   1.978   3.169   1.022 -0.2763  1.6949  0.2427
 3432SOL     OW21754   3.779   2.976   1.692 -0.4640 -0.6380  0.0662
 3432SOL    HW121755   3.693   2.949   1.724 -1.2263  0.1418 -1.3712
 3432SOL    HW221756   3.777   3.069   1.713 -0.8349 -0.2909 -1.4931
 3433SOL     OW21757   1.665   0.490   9.417  0.2615  0.0952 -0.0488
 3433SOL    HW121758   1.640   0.500   9.508  0.2396 -0.0560 -0.0373
 3433SOL    HW221759   1.637   0.400   9.398 -0.4031  0.1079  0.8966
 3434SOL     OW21760   2.999   3.424  11.176 -0.7032 -0.1533  0.2529
 3434SOL    HW121761   3.030   3.429  11.085 -1.5397  1.0400  0.0357
 3434SOL    HW221762   3.071   3.374  11.215 -0.1019  1.4495  1.1800
 3435SOL     OW21763   0.957   3.698  11.907 -0.2527  0.7812  0.4393
 3435SOL    HW121764   0.930   3.740  11.825  0.5330  0.4267 -0.0046
 3435SOL    HW221765   0.947   3.774  11.965 -1.0474  0.7033  0.4025
 3436SOL     OW21766   1.872   0.121   3.258 -0.6021  0.2979  0.4313
 3436SOL    HW121767   1.825   0.164   3.329 -1.6904  1.3433 -0.9343
 3436SOL    HW221768   1.798   0.098   3.202 -0.1769 -2.0201  0.7961
 3437SOL     OW21769   3.673   0.490   8.349  0.1383  0.4039  0.3596
 3437SOL    HW121770   3.592   0.532   8.380 -1.0865 -1.4140 -0.3360
 3437SOL    HW221771   3.747   0.542   8.380 -0.3061 -0.2843  2.5709
 3438SOL     OW21772   1.142   3.579   9.011  0.0064 -0.1311  0.0840
 3438SOL    HW121773   1.086   3.609   9.083  3.2225  1.2173  1.9982
 3438SOL    HW221774   1.116   3.487   9.006 -0.9594  0.1380  0.0130
 3439SOL     OW21775   1.748   3.575   9.513 -0.4750  0.0826  0.5635
 3439SOL    HW121776   1.663   3.530   9.512 -0.4401  0.0362 -0.0958
 3439SOL    HW221777   1.767   3.565   9.606 -0.1163 -2.0671  0.2789
 3440SOL     OW21778   1.376   4.513   0.526 -0.3284 -0.5115  0.6225
 3440SOL    HW121779   1.340   4.433   0.488 -4.0180  0.7568  1.4936
 3440SOL    HW221780   1.454   4.532   0.473  0.7546 -0.8385  2.0959
 3441SOL     OW21781   1.387   3.867   5.645 -0.4230  0.1931 -0.4999
 3441SOL    HW121782   1.423   3.810   5.712 -1.0118 -0.7547 -0.9865
 3441SOL    HW221783   1.334   3.806   5.593  1.4986 -2.9668  1.2884
 3442SOL     OW21784   0.875   1.436   7.810  0.7180  0.4256  0.2034
 3442SOL    HW121785   0.795   1.487   7.824 -0.0612 -0.4652 -1.0142
 3442SOL    HW221786   0.922   1.496   7.752 -2.5605  0.6203 -2.2456
 3443SOL     OW21787   2.087   3.391   9.302  0.3907  0.1899 -0.0221
 3443SOL    HW121788   2.125   3.422   9.384 -1.0700  1.2107  0.2679
 3443SOL    HW221789   2.108   3.464   9.243  1.3736  1.3334  1.7162
 3444SOL     OW21790   0.653   1.755   3.121  0.0967  0.5638  0.1621
 3444SOL    HW121791   0.688   1.718   3.040 -4.6623 -0.3899 -1.4728
 3444SOL    HW221792   0.633   1.846   3.099  0.3485  1.0641  1.9441
 3445SOL     OW21793   3.880   3.240  10.506  0.5501 -0.0510 -0.3544
 3445SOL    HW121794   3.846   3.294  10.577 -0.3495  0.8211 -1.4461
 3445SOL    HW221795   3.961   3.196  10.532 -0.9725 -1.8074  1.4211
 3446SOL     OW21796   3.205   4.307   6.540 -0.2458  0.1784  0.1409
 3446SOL    HW121797   3.179   4.334   6.452 -1.2040 -1.1867 -0.0014
 3446SOL    HW221798   3.268   4.238   6.521  0.8759  1.7425 -1.7668
 3447SOL     OW21799   0.535   0.863  10.049 -0.4905  0.2294  0.6954
 3447SOL    HW121800   0.470   0.932  10.061  0.2257  0.5045  2.9866
 3447SOL    HW221801   0.613   0.913  10.027 -0.3667 -0.3528 -0.2009
 3448SOL     OW21802   0.928   3.116   3.724 -0.2606  0.3777  0.2278
 3448SOL    HW121803   0.900   3.052   3.659 -0.4622  1.2874 -0.5741
 3448SOL    HW221804   0.906   3.062   3.801 -1.0406  0.8140  0.3093
 3449SOL     OW21805   2.467   0.301   8.611  0.4050 -0.0969  0.1664
 3449SOL    HW121806   2.485   0.364   8.681 -0.8068 -0.2072  0.5857
 3449SOL    HW221807   2.373   0.299   8.590  0.6271 -3.0110 -0.5545
 3450SOL     OW21808   4.239   0.125   7.749  0.3568  0.2010 -0.1451
 3450SOL    HW121809   4.239   0.150   7.841 -0.9664 -1.6114  0.3451
 3450SOL    HW221810   4.154   0.082   7.749  0.6391 -0.3456 -2.4018
 3451SOL     OW21811   4.156   3.598  17.628  0.1625 -0.2964 -0.0012
 3451SOL    HW121812   4.240   3.553  17.634 -1.3175 -3.0303  0.2693
 3451SOL    HW221813   4.186   3.689  17.623  1.4032 -0.6372  1.2725
 3452SOL     OW21814   4.470   3.529   6.778 -0.1262  0.4565 -0.4153
 3452SOL    HW121815   4.386   3.498   6.744 -0.7650  0.9069  0.7762
 3452SOL    HW221816   4.531   3.457   6.762 -0.2106 -0.1237  1.9571
 3453SOL     OW21817   1.165   1.803   6.639  0.2182 -0.2770  0.1142
 3453SOL    HW121818   1.130   1.760   6.717 -1.3756  0.0489 -0.4341
 3453SOL    HW221819   1.257   1.820   6.661  0.2651 -1.3059  0.7268
 3454SOL     OW21820   2.355   0.409   1.993 -0.0369  0.4443  0.4828
 3454SOL    HW121821   2.402   0.472   1.937  2.0953 -0.2079  1.5490
 3454SOL    HW221822   2.268   0.449   1.997  0.1187  1.0286 -1.9932
 3455SOL     OW21823   1.240   2.533   6.149  0.3547 -0.5685  0.2428
 3455SOL    HW121824   1.242   2.629   6.152 -1.1256 -0.5251 -0.2916
 3455SOL    HW221825   1.277   2.514   6.063  2.1606 -1.1793  1.1565
 3456SOL     OW21826   3.028   1.906   2.477 -0.0995 -0.7155  0.8434
 3456SOL    HW121827   3.063   1.834   2.425 -1.5019 -1.1525  0.4942
 3456SOL    HW221828   2.967   1.851   2.526 -1.2408  0.5697  0.8642
 3457SOL     OW21829   3.982   1.269  10.369 -0.0445  0.2048  0.1945
 3457SOL    HW121830   3.920   1.212  10.415 -0.8058  1.0303  0.1891
 3457SOL    HW221831   4.050   1.275  10.436 -0.6698 -0.0633  0.8487
 3458SOL     OW21832   1.197   4.516   4.495  0.0606  0.0674  0.2732
 3458SOL    HW121833   1.218   4.425   4.477  2.7570  0.2790  2.4300
 3458SOL    HW221834   1.151   4.535   4.413 -0.5668  1.0002  0.8338
 3459SOL     OW21835   0.408   3.097  16.041  0.1028 -0.3019 -0.1842
 3459SOL    HW121836   0.467   3.127  16.109  1.3039 -1.1442 -0.8660
 3459SOL    HW221837   0.452   3.016  16.017 -1.4587 -1.4029  0.6487
 3460SOL     OW21838   3.634   4.598   9.137  0.0458  0.3353  0.1950
 3460SOL    HW121839   3.573   4.527   9.116  2.3768 -0.8036 -2.8162
 3460SOL    HW221840   3.711   4.579   9.083 -0.8898 -1.1279 -0.6288
 3461SOL     OW21841   2.705   0.173   7.079 -0.0287  0.1861  0.3705
 3461SOL    HW121842   2.619   0.177   7.037  1.1540  1.5008 -1.9249
 3461SOL    HW221843   2.740   0.258   7.054  1.0814  0.1661  1.8723
 3462SOL     OW21844   0.571   2.630   8.433  0.5078 -0.0202  0.2006
 3462SOL    HW121845   0.617   2.579   8.366  2.0351  0.6323  0.7441
 3462SOL    HW221846   0.626   2.708   8.431 -0.3241  0.5820  0.8914
 3463SOL     OW21847   1.144   0.485   7.509  0.0771 -0.1266 -0.6678
 3463SOL    HW121848   1.104   0.572   7.510  1.4041  0.4773  0.8099
 3463SOL    HW221849   1.074   0.420   7.508 -0.6079  0.6013  0.0151
 3464SOL     OW21850   2.066   2.186   3.049 -0.1722 -0.1520  0.1501
 3464SOL    HW121851   2.107   2.233   2.976  1.0323 -0.1597  0.8370
 3464SOL    HW221852   1.975   2.217   3.045 -0.0407  0.4457  2.1433
 3465SOL     OW21853   3.699   1.386   0.995 -0.3129  0.3300  0.0080
 3465SOL    HW121854   3.650   1.391   1.077  0.3016 -2.4385  0.5318
 3465SOL    HW221855   3.788   1.399   1.027 -0.5740  3.1814 -0.4185
 3466SOL     OW21856   1.747   1.874   6.307 -0.3223 -0.0377  0.2666
 3466SOL    HW121857   1.687   1.906   6.240  1.9934 -1.1957 -2.3540
 3466SOL    HW221858   1.832   1.856   6.266  0.2443 -0.8385  1.7918
 3467SOL     OW21859   3.037   3.285   2.427 -0.5319 -0.2804  0.9573
 3467SOL    HW121860   2.996   3.366   2.399 -0.6364 -0.8047 -0.4568
 3467SOL    HW221861   3.121   3.316   2.462 -0.6992  1.2386  0.0149
 3468SOL     OW21862   2.293   3.577   3.310  0.3572 -0.6109  0.0457
 3468SOL    HW121863   2.228   3.538   3.251 -0.4726  2.0150 -0.7717
 3468SOL    HW221864   2.302   3.510   3.378  1.0084 -1.1321 -0.5551
 3469SOL     OW21865   2.199   0.682   0.148 -0.2644 -0.5386 -0.0954
 3469SOL    HW121866   2.208   0.617   0.218  2.0112 -0.6541 -0.4933
 3469SOL    HW221867   2.156   0.627   0.081 -1.1255 -2.6225  2.1879
 3470SOL     OW21868   2.616   4.568   6.287  0.4380  0.1509  0.2138
 3470SOL    HW121869   2.693   4.556   6.232 -0.0891 -0.1130 -0.4644
 3470SOL    HW221870   2.652   4.642   6.336 -0.3413 -0.3836  1.6007
 3471SOL     OW21871   4.310   1.672   6.590 -0.6482 -0.1819  0.5468
 3471SOL    HW121872   4.240   1.730   6.622  0.3818  0.0380  2.4383
 3471SOL    HW221873   4.288   1.689   6.499  0.1090 -1.8831  0.0551
 3472SOL     OW21874   0.656   4.269  15.243 -0.6035 -0.3095 -0.3535
 3472SOL    HW121875   0.666   4.285  15.149  2.0182 -0.5369 -0.1076
 3472SOL    HW221876   0.744   4.300  15.267 -1.8946  0.6431  3.0376
 3473SOL     OW21877   3.430   1.128   6.993 -0.1918 -0.0537 -0.3643
 3473SOL    HW121878   3.447   1.054   7.050 -1.6810 -0.5790 -0.5817
 3473SOL    HW221879   3.375   1.083   6.928 -1.5691 -0.2711  0.9396
 3474SOL     OW21880   3.329   1.826   0.260  0.5159  0.0092  0.0623
 3474SOL    HW121881   3.263   1.763   0.289  1.5695 -1.4471 -0.7527
 3474SOL    HW221882   3.288   1.846   0.176  3.7495  1.0514 -1.2729
 3475SOL     OW21883   3.520   1.883   6.691 -0.1698  0.1186  0.0410
 3475SOL    HW121884   3.436   1.839   6.703  0.4713 -1.2324 -0.4363
 3475SOL    HW221885   3.504   1.975   6.667  0.7960  0.4203  0.5589
 3476SOL     OW21886   1.950   3.466   7.467 -0.0975  0.2244  0.9696
 3476SOL    HW121887   2.037   3.474   7.507  1.0676 -1.0475 -1.3218
 3476SOL    HW221888   1.911   3.547   7.501  1.6558  1.7208 -0.6031
 3477SOL     OW21889   0.199   2.638  12.380  0.2526  0.4966 -0.0739
 3477SOL    HW121890   0.242   2.562  12.420  0.4911  0.8766  0.4044
 3477SOL    HW221891   0.249   2.707  12.425 -0.4862  2.0226 -1.6152
 3478SOL     OW21892   0.497   3.654   3.983 -0.2394  0.2669 -0.0758
 3478SOL    HW121893   0.428   3.665   4.049 -1.2379 -1.9742 -0.7551
 3478SOL    HW221894   0.555   3.588   4.020  0.4062 -0.1980 -1.9161
 3479SOL     OW21895   0.168   0.092   4.463  0.0102  0.0875 -0.5497
 3479SOL    HW121896   0.164   0.009   4.511 -0.7096 -0.3175 -1.3190
 3479SOL    HW221897   0.094   0.142   4.497 -1.1336 -1.6748 -0.4515
 3480SOL     OW21898   2.649   4.411   4.035 -0.3071 -0.0766  0.4193
 3480SOL    HW121899   2.625   4.319   4.024  1.4219 -0.6521  1.3614
 3480SOL    HW221900   2.686   4.428   3.949  0.4759  2.1509  1.1888
 3481SOL     OW21901   3.160   1.099   9.349  0.2426  0.2223  0.0305
 3481SOL    HW121902   3.226   1.095   9.280  0.0253 -1.7256 -0.0813
 3481SOL    HW221903   3.139   1.191   9.337 -0.4011  0.3830  2.6231
 3482SOL     OW21904   2.975   3.255   7.132 -0.1622  0.4801 -0.5403
 3482SOL    HW121905   2.933   3.190   7.188  0.0494  2.0296  1.4188
 3482SOL    HW221906   3.038   3.194   7.094 -1.7430  0.5909 -3.3983
 3483SOL     OW21907   0.572   0.823   7.040  0.4286  0.4733 -0.3351
 3483SOL    HW121908   0.477   0.823   7.028  0.1039  2.2350  2.2439
 3483SOL    HW221909   0.598   0.914   7.031 -2.3613  1.3464  0.5919
 3484SOL     OW21910   2.824   3.718   3.171 -0.4816 -0.4359  0.1342
 3484SOL    HW121911   2.739   3.674   3.181 -1.4110  1.1904 -0.6859
 3484SOL    HW221912   2.833   3.730   3.077  2.2639  0.2566  0.4855
 3485SOL     OW21913   3.912   0.622  13.983  0.3957  0.2365  0.3021
 3485SOL    HW121914   4.006   0.640  13.971  0.1474 -0.3465 -2.6613
 3485SOL    HW221915   3.901   0.600  14.075  0.5510  0.2546  0.3249
 3486SOL     OW21916   2.961   2.660   2.985  0.1041 -0.0459 -0.3180
 3486SOL    HW121917   2.932   2.728   3.046  0.2861  0.4157 -0.7372
 3486SOL    HW221918   3.042   2.622   3.018 -1.0290  0.2459  2.7676
 3487SOL     OW21919   0.383   2.627   3.643  0.3953 -0.4044 -0.2234
 3487SOL    HW121920   0.360   2.583   3.561 -1.4556  1.1458 -0.5463
 3487SOL    HW221921   0.332   2.590   3.715  1.6732 -1.0557  0.3446
 3488SOL     OW21922   2.970   3.210   4.206 -0.3273  0.1761 -0.7549
 3488SOL    HW121923   3.041   3.156   4.170  2.1199  2.3467  0.7936
 3488SOL    HW221924   2.964   3.167   4.292  0.2534  0.1754 -0.7156
 3489SOL     OW21925   4.029   2.492   3.037 -0.4118 -0.7304  0.0174
 3489SOL    HW121926   4.073   2.411   3.062  0.8905  0.7091  2.2690
 3489SOL    HW221927   4.043   2.486   2.942 -2.4752  0.9768 -0.3977
 3490SOL     OW21928   2.886   2.882   9.007 -0.3694 -0.2403  0.6889
 3490SOL    HW121929   2.837   2.955   8.970 -0.9471 -0.5679  0.8160
 3490SOL    HW221930   2.923   2.922   9.086  1.0173  1.0880 -0.6223
 3491SOL     OW21931   1.958   1.513   8.756 -0.1457 -0.3999 -0.0972
 3491SOL    HW121932   1.973   1.607   8.760 -0.8353 -0.3803  1.9149
 3491SOL    HW221933   2.039   1.486   8.801 -0.0983  0.0493  0.0822
 3492SOL     OW21934   1.101   0.625   9.277 -0.0576 -0.2536  0.2010
 3492SOL    HW121935   1.187   0.604   9.313 -0.0728 -1.1766 -0.3185
 3492SOL    HW221936   1.070   0.691   9.339  0.1352 -2.1514  2.3111
 3493SOL     OW21937   1.327   1.049   1.326  0.2169  0.1640  0.0012
 3493SOL    HW121938   1.411   1.067   1.284  1.0216 -1.9025  0.7406
 3493SOL    HW221939   1.350   0.981   1.389  0.6084  1.8863  1.7241
 3494SOL     OW21940   3.370   4.517  11.690 -0.2419 -0.2712 -0.0295
 3494SOL    HW121941   3.403   4.433  11.659  0.9253  0.4204 -0.6591
 3494SOL    HW221942   3.296   4.491  11.746 -0.0504 -0.6377  0.0583
 3495SOL     OW21943   3.908   1.440   5.426  0.3524  0.2013  0.2904
 3495SOL    HW121944   3.823   1.456   5.467 -0.4332  1.6604 -1.9497
 3495SOL    HW221945   3.969   1.469   5.493 -0.5167  3.5370 -0.3620
 3496SOL     OW21946   3.758   1.401   5.035 -0.0030 -0.1577 -0.1528
 3496SOL    HW121947   3.688   1.336   5.033 -1.1863  1.0802  1.1607
 3496SOL    HW221948   3.739   1.429   5.125  0.2382 -1.9324  0.4532
 3497SOL     OW21949   2.515   3.476  11.926 -0.0811  0.2275  0.2548
 3497SOL    HW121950   2.592   3.477  11.983  3.0769 -0.5789 -4.0096
 3497SOL    HW221951   2.461   3.406  11.962 -0.2132 -0.3467 -1.0587
 3498SOL     OW21952   2.106   0.923   4.909 -0.3086  0.2591  0.3617
 3498SOL    HW121953   2.100   0.834   4.876 -1.3918  0.8064 -0.8849
 3498SOL    HW221954   2.200   0.936   4.901 -0.3789  0.9517  0.5729
 3499SOL     OW21955   3.874   1.544   4.671 -0.2447 -0.0661  0.1007
 3499SOL    HW121956   3.946   1.506   4.621  0.4740  1.8061 -0.2589
 3499SOL    HW221957   3.915   1.552   4.757  2.9825 -2.1216 -1.2685
 3500SOL     OW21958   3.146   2.154   6.070  0.2399 -0.2259  0.7241
 3500SOL    HW121959   3.222   2.102   6.044  0.1940  0.3522 -0.5906
 3500SOL    HW221960   3.175   2.185   6.156  0.2237 -1.9106  1.3358
 3501SOL     OW21961   3.053   0.138  17.087 -0.2650 -0.0019 -0.0302
 3501SOL    HW121962   3.060   0.096  17.001  2.2722  0.6209 -0.1116
 3501SOL    HW221963   3.137   0.113  17.125  0.5305  2.2086 -0.3608
 3502SOL     OW21964   2.362   3.569  15.009  0.0990  0.4770 -0.4666
 3502SOL    HW121965   2.342   3.537  14.921 -1.0478 -1.6506  0.5860
 3502SOL    HW221966   2.378   3.661  14.988  0.2318  0.7731  0.9889
 3503SOL     OW21967   3.624   3.140  10.390  0.4447 -0.2666 -1.4104
 3503SOL    HW121968   3.719   3.145  10.392  0.5087 -1.7892 -0.6265
 3503SOL    HW221969   3.610   3.226  10.350 -0.6789 -0.5694 -1.6674
 3504SOL     OW21970   0.625   1.103   5.853  0.4293  0.2647  0.0100
 3504SOL    HW121971   0.716   1.092   5.882  0.3870 -0.1757 -0.0234
 3504SOL    HW221972   0.581   1.038   5.909  0.2205  0.7144  0.3676
 3505SOL     OW21973   1.228   3.268   4.401  0.4702 -0.3463 -0.1121
 3505SOL    HW121974   1.175   3.340   4.367  1.3800  0.1654 -0.4697
 3505SOL    HW221975   1.294   3.327   4.439 -1.5493  0.0759  2.7965
 3506SOL     OW21976   2.834   2.164  13.137  0.2205  0.5208  0.1539
 3506SOL    HW121977   2.832   2.237  13.198  1.4802  0.6903  0.0017
 3506SOL    HW221978   2.854   2.091  13.195  2.0384 -0.1379 -1.2749
 3507SOL     OW21979   0.763   0.641   3.393  0.2662  0.2629 -0.2352
 3507SOL    HW121980   0.850   0.602   3.383  0.1434 -0.2685  0.8758
 3507SOL    HW221981   0.736   0.604   3.476  0.9538  0.3400  0.0223
 3508SOL     OW21982   3.057   4.674  12.373  0.1172 -0.6626 -0.2531
 3508SOL    HW121983   3.005   4.594  12.379  0.1999 -0.7438 -0.6468
 3508SOL    HW221984   3.136   4.637  12.336  0.8456  0.1679  0.4701
 3509SOL     OW21985   3.392   4.571   1.304 -0.3765  0.0476  0.3539
 3509SOL    HW121986   3.478   4.529   1.296  0.2819  1.2882  0.9839
 3509SOL    HW221987   3.373   4.603   1.215  1.5011 -0.0128 -0.0630
 3510SOL     OW21988   2.729   2.959   7.312  0.5885  0.4549 -0.4617
 3510SOL    HW121989   2.706   2.868   7.328  0.6816  0.9065  2.2319
 3510SOL    HW221990   2.768   2.942   7.226 -0.6019  0.1326 -0.9426
 3511SOL     OW21991   3.287   4.052   9.088  0.4360 -0.0687  0.4496
 3511SOL    HW121992   3.240   4.069   9.169 -0.4909  1.9426 -0.5071
 3511SOL    HW221993   3.224   4.001   9.036 -1.9443  1.1638  2.1219
 3512SOL     OW21994   3.287   2.389   5.221 -0.1993 -0.1754  0.0437
 3512SOL    HW121995   3.302   2.376   5.315 -0.1189  1.8692  0.3182
 3512SOL    HW221996   3.378   2.400   5.194 -0.8494  2.3239 -1.0837
 3513SOL     OW21997   4.310   2.576  12.607  0.0950  0.2981  0.1167
 3513SOL    HW121998   4.302   2.502  12.546 -0.1076 -1.4273  2.2266
 3513SOL    HW221999   4.220   2.598  12.631  0.4155  0.9998  0.6796
 3514SOL     OW22000   3.918   3.505   9.164 -0.1158  0.3834 -0.4725
 3514SOL    HW122001   3.832   3.466   9.147 -0.0554 -0.3154  0.8523
 3514SOL    HW222002   3.923   3.492   9.258  0.8974  0.3056 -0.5348
 3515SOL     OW22003   4.400   4.027  16.791  0.1702 -0.3286  0.5862
 3515SOL    HW122004   4.311   4.062  16.789  0.7742  1.1264 -0.3792
 3515SOL    HW222005   4.448   4.104  16.762 -1.7595 -0.2631 -2.3699
 3516SOL     OW22006   3.255   3.701  11.867 -0.2913  0.0787 -0.1281
 3516SOL    HW122007   3.324   3.710  11.933 -0.3140  0.1291 -0.1110
 3516SOL    HW222008   3.189   3.763  11.899 -1.4724 -0.2970 -1.8613
 3517SOL     OW22009   1.648   2.841   2.818  0.0565 -0.2145  0.3791
 3517SOL    HW122010   1.699   2.913   2.782 -2.3744  2.0000  1.4387
 3517SOL    HW222011   1.572   2.848   2.759  0.1847 -1.4188  0.0522
 3518SOL     OW22012   2.820   4.098   5.558  0.6745 -0.4301 -0.0115
 3518SOL    HW122013   2.750   4.163   5.555  2.3672  1.4080 -0.3568
 3518SOL    HW222014   2.800   4.036   5.628 -0.1497  0.8545  0.8859
 3519SOL     OW22015   1.156   3.786   8.839 -0.0935 -0.5918 -0.4658
 3519SOL    HW122016   1.168   3.711   8.899 -2.2683  0.5155  1.3780
 3519SOL    HW222017   1.103   3.839   8.899  0.0604  1.3685 -2.0943
 3520SOL     OW22018   1.185   0.266  15.661 -0.0999 -0.2759 -0.2310
 3520SOL    HW122019   1.181   0.274  15.566 -0.9843  2.0333 -0.0105
 3520SOL    HW222020   1.253   0.199  15.665 -1.2862 -1.4618  0.0723
 3521SOL     OW22021   4.222   3.508   9.878  0.1777  0.8421  0.9477
 3521SOL    HW122022   4.132   3.522   9.850  0.3063  0.9291  0.5845
 3521SOL    HW222023   4.216   3.414   9.899  0.7595 -0.1956 -3.6096
 3522SOL     OW22024   3.960   3.326   8.116  0.1825  0.1703 -0.2266
 3522SOL    HW122025   3.885   3.273   8.089  0.8699  0.2835 -2.3503
 3522SOL    HW222026   4.001   3.360   8.037  0.9250  0.0736  0.1100
 3523SOL     OW22027   4.349   3.614   3.093  0.6545  0.2753 -0.0843
 3523SOL    HW122028   4.374   3.562   3.016  0.7785  0.4261 -0.1455
 3523SOL    HW222029   4.345   3.700   3.050  0.3394 -1.3311 -3.3250
 3524SOL     OW22030   3.469   0.508   3.209  0.5519 -0.0012 -0.6501
 3524SOL    HW122031   3.454   0.573   3.277 -0.9447 -0.5485 -0.4621
 3524SOL    HW222032   3.431   0.556   3.135 -0.4328 -0.5260 -0.4759
 3525SOL     OW22033   1.535   0.753   3.556 -0.3015  0.2702  0.2084
 3525SOL    HW122034   1.564   0.835   3.517 -0.2165  0.1766  0.0740
 3525SOL    HW222035   1.527   0.707   3.472  1.2616  2.0550 -0.9296
 3526SOL     OW22036   1.116   1.320   1.663  0.5009 -0.1477  0.1150
 3526SOL    HW122037   1.065   1.240   1.676 -0.8824  0.5856 -0.8182
 3526SOL    HW222038   1.207   1.290   1.665  1.3997  2.3800 -3.3422
 3527SOL     OW22039   0.436   0.486   4.294 -0.1258 -0.1861 -0.2908
 3527SOL    HW122040   0.527   0.505   4.315  0.2165 -1.7188 -0.3850
 3527SOL    HW222041   0.424   0.403   4.341  0.5615  0.5615  1.2262
 3528SOL     OW22042   1.753   0.809   5.973  0.0008 -0.0873 -0.3316
 3528SOL    HW122043   1.674   0.861   5.961  0.0428  0.2595  0.8927
 3528SOL    HW222044   1.727   0.731   5.924  2.8312 -0.3512 -1.4294
 3529SOL     OW22045   0.769   1.846   6.580 -0.7596  0.1562  0.3555
 3529SOL    HW122046   0.782   1.806   6.666  2.1837 -0.1386 -0.2378
 3529SOL    HW222047   0.721   1.925   6.609 -2.7483 -1.3609  1.1944
 3530SOL     OW22048   4.056   1.482   8.574 -0.1118 -0.0205  0.1866
 3530SOL    HW122049   4.059   1.396   8.615  2.7651 -0.6668 -1.3799
 3530SOL    HW222050   4.049   1.540   8.649 -0.0030  0.2077  0.0209
 3531SOL     OW22051   3.969   3.880   2.784  0.1992 -0.3309 -0.1234
 3531SOL    HW122052   3.906   3.818   2.819 -1.2660  2.0023  1.4086
 3531SOL    HW222053   3.961   3.947   2.852  0.0926  1.6574 -2.0764
 3532SOL     OW22054   1.200   0.924  12.151  0.2551 -0.0217 -0.0506
 3532SOL    HW122055   1.137   0.948  12.219  2.3537  3.6210  0.6186
 3532SOL    HW222056   1.160   0.841  12.125 -1.7168  1.1955 -0.9521
 3533SOL     OW22057   0.337   3.695   6.373 -0.1335 -0.2681  0.0073
 3533SOL    HW122058   0.267   3.633   6.396 -0.9968  0.3617 -0.9153
 3533SOL    HW222059   0.314   3.768   6.430 -0.2703  1.1136 -1.8082
 3534SOL     OW22060   0.748   2.549  16.859  0.4284  0.1587 -0.1393
 3534SOL    HW122061   0.732   2.575  16.950 -0.3625  0.4968 -0.3789
 3534SOL    HW222062   0.667   2.506  16.834  0.9821 -0.4458 -0.8949
 3535SOL     OW22063   3.138   2.877  11.290 -0.2753 -0.2860  0.2652
 3535SOL    HW122064   3.203   2.847  11.354  0.1229 -0.5356 -0.2574
 3535SOL    HW222065   3.058   2.887  11.342  0.7535 -0.7489  1.9522
 3536SOL     OW22066   0.473   2.188   0.144  0.1930  0.0139 -0.1073
 3536SOL    HW122067   0.422   2.114   0.176  0.9820 -0.6924 -0.4869
 3536SOL    HW222068   0.459   2.237   0.224  1.2929  0.2644 -0.0641
 3537SOL     OW22069   0.873   1.086   2.379  0.3529  0.4470 -0.4615
 3537SOL    HW122070   0.888   1.135   2.460  0.5793  0.0601 -0.2686
 3537SOL    HW222071   0.792   1.129   2.353 -0.0333 -1.0240 -1.6421
 3538SOL     OW22072   1.412   0.646   0.306  0.4117 -0.4498  0.1276
 3538SOL    HW122073   1.325   0.642   0.267 -0.4744 -1.1263  2.2047
 3538SOL    HW222074   1.455   0.716   0.256  0.6222 -0.8720 -0.2820
 3539SOL     OW22075   1.737   0.599   5.790  0.0732 -0.2490 -0.0847
 3539SOL    HW122076   1.806   0.532   5.797 -0.5171 -0.6658  1.7039
 3539SOL    HW222077   1.666   0.537   5.809 -0.9502  1.3711  1.3014
 3540SOL     OW22078   2.703   1.267  17.392  0.0030 -0.2123 -0.2733
 3540SOL    HW122079   2.751   1.275  17.309 -0.1188  1.9102 -0.1231
 3540SOL    HW222080   2.623   1.317  17.383  0.6436  0.5571 -1.6701
 3541SOL     OW22081   3.597   2.011   8.869 -0.3242 -0.4931  0.1308
 3541SOL    HW122082   3.591   1.916   8.882 -1.4584 -0.5538 -0.8683
 3541SOL    HW222083   3.685   2.006   8.833 -1.1642  0.7267 -2.0730
 3542SOL     OW22084   1.474   3.788   5.285 -0.2960  0.5929 -0.2763
 3542SOL    HW122085   1.407   3.773   5.218 -1.2500  1.1684  0.5474
 3542SOL    HW222086   1.488   3.696   5.306  4.5207  1.4571  0.2243
 3543SOL     OW22087   0.216   0.447   8.694 -0.6326  0.0324  0.8981
 3543SOL    HW122088   0.296   0.437   8.745 -0.0612 -1.7554 -0.3426
 3543SOL    HW222089   0.234   0.421   8.604 -0.6971 -0.3162  0.9889
 3544SOL     OW22090   0.393   3.332   9.613 -0.1592  0.2923 -0.0153
 3544SOL    HW122091   0.446   3.363   9.539  1.2544  0.0146  0.8831
 3544SOL    HW222092   0.343   3.404   9.649  0.0745  0.0254  0.8467
 3545SOL     OW22093   3.710   3.580   5.472 -0.7757 -0.6641 -0.2536
 3545SOL    HW122094   3.701   3.643   5.401  0.3224  0.7545  0.8753
 3545SOL    HW222095   3.626   3.535   5.475  0.3787 -2.8875 -0.5139
 3546SOL     OW22096   0.394   0.257   6.349 -0.3337  0.7127  0.1902
 3546SOL    HW122097   0.365   0.167   6.329 -0.8669  1.1449 -1.0338
 3546SOL    HW222098   0.481   0.244   6.387 -0.3599 -1.2411 -0.3891
 3547SOL     OW22099   0.893   1.623   8.747 -0.3997  0.3149 -0.7012
 3547SOL    HW122100   0.810   1.612   8.700 -1.0310 -1.1326  0.7410
 3547SOL    HW222101   0.927   1.535   8.729  0.6609  0.7608 -0.8760
 3548SOL     OW22102   4.456   0.651   5.120 -0.6824  0.5795  0.2817
 3548SOL    HW122103   4.429   0.562   5.140  0.9472 -0.1470 -0.7282
 3548SOL    HW222104   4.463   0.659   5.025  2.4216 -1.4380  0.3380
 3549SOL     OW22105   3.975   3.937   5.958  0.2123 -0.2854  0.4192
 3549SOL    HW122106   3.898   3.879   5.954 -0.5027  0.5010  3.1455
 3549SOL    HW222107   3.980   3.942   6.053  1.4962 -1.3587  0.3977
 3550SOL     OW22108   3.762   1.047   4.559 -0.0791 -0.1111 -0.5162
 3550SOL    HW122109   3.807   1.090   4.486  0.8101 -0.4314 -0.1611
 3550SOL    HW222110   3.755   0.958   4.523 -0.7604 -0.5449  0.6900
 3551SOL     OW22111   2.704   3.417  11.314 -0.7901 -0.6056 -0.0454
 3551SOL    HW122112   2.731   3.500  11.354  0.8559 -1.8251  1.3804
 3551SOL    HW222113   2.711   3.448  11.224 -0.4239  3.4355  1.3607
 3552SOL     OW22114   2.164   1.417   4.259 -0.6884 -0.2083  0.2628
 3552SOL    HW122115   2.112   1.339   4.236  0.8771 -0.6972 -1.6164
 3552SOL    HW222116   2.248   1.377   4.235 -0.6409  0.4044 -0.5818
 3553SOL     OW22117   4.425   2.058   2.836  0.5637  0.7690 -0.0735
 3553SOL    HW122118   4.449   2.010   2.757  0.2022  2.1169 -1.0061
 3553SOL    HW222119   4.365   1.995   2.876  1.6516  0.2227  0.7064
 3554SOL     OW22120   3.313   1.203   5.733 -0.3831 -0.1675  0.2693
 3554SOL    HW122121   3.249   1.221   5.665 -0.6721 -1.5725  0.1712
 3554SOL    HW222122   3.297   1.271   5.799  0.8490  3.1043 -2.8321
 3555SOL     OW22123   1.276   0.135   7.581 -0.3264  0.2347 -0.4452
 3555SOL    HW122124   1.231   0.209   7.621 -1.1959 -0.9893  0.8374
 3555SOL    HW222125   1.369   0.159   7.582  0.0399 -1.1995  0.3237
 3556SOL     OW22126   2.677   4.068  13.635 -0.1124 -0.4682  0.0018
 3556SOL    HW122127   2.664   4.047  13.728 -0.5552  0.1406  0.0695
 3556SOL    HW222128   2.664   3.984  13.591  0.4121 -1.6840  2.1338
 3557SOL     OW22129   4.231   3.525  10.720  0.0648  0.0821  0.0687
 3557SOL    HW122130   4.302   3.589  10.715 -0.9832  1.2593  0.2149
 3557SOL    HW222131   4.256   3.482  10.802 -1.6696 -1.9294 -0.4741
 3558SOL     OW22132   1.285   3.461   0.845  0.1077 -0.5066  0.2508
 3558SOL    HW122133   1.345   3.430   0.912  0.4013  0.3551  0.3951
 3558SOL    HW222134   1.228   3.513   0.902 -0.4018  0.2973 -0.9868
 3559SOL     OW22135   1.302   4.307   9.094 -0.1531 -0.3543  0.0798
 3559SOL    HW122136   1.396   4.323   9.086  0.0378 -2.5680 -2.0192
 3559SOL    HW222137   1.273   4.368   9.162 -1.2007 -0.8871  0.1091
 3560SOL     OW22138   3.156   2.122   8.259  0.2298  0.2770 -0.8955
 3560SOL    HW122139   3.224   2.069   8.300 -0.0876  0.8112  0.2969
 3560SOL    HW222140   3.085   2.113   8.322  1.4874 -0.4657  0.4166
 3561SOL     OW22141   4.318   4.634   6.155 -0.5574  0.1496  0.2799
 3561SOL    HW122142   4.346   4.618   6.245 -0.1321  0.9705  0.2966
 3561SOL    HW222143   4.248   4.569   6.153 -0.1831 -0.1429 -4.1646
 3562SOL     OW22144   1.528   0.929  11.562 -0.1866 -0.1945 -0.0834
 3562SOL    HW122145   1.480   0.982  11.498  2.1189  0.3009 -1.4123
 3562SOL    HW222146   1.540   0.996  11.629  1.7509 -0.6601  0.0461
 3563SOL     OW22147   3.666   1.787  16.350 -0.4341 -0.0659 -0.2531
 3563SOL    HW122148   3.759   1.805  16.336 -0.0938  0.9930  3.2137
 3563SOL    HW222149   3.665   1.695  16.327 -4.0489 -0.1517  0.1851
 3564SOL     OW22150   1.916   3.688   7.978 -0.2508 -0.2944  0.0873
 3564SOL    HW122151   1.918   3.595   8.000 -2.1957  0.0068  1.5372
 3564SOL    HW222152   2.008   3.715   7.983 -0.9532  1.9848  1.0175
 3565SOL     OW22153   0.189   0.348   1.145 -0.4093  0.1049 -0.9423
 3565SOL    HW122154   0.169   0.441   1.142  0.5245  0.2420 -2.9014
 3565SOL    HW222155   0.237   0.362   1.227 -1.8377 -2.2137  0.3023
 3566SOL     OW22156   1.869   0.069   7.594  0.1460  0.2498 -0.3420
 3566SOL    HW122157   1.861   0.141   7.657 -0.5902  0.0049 -0.1460
 3566SOL    HW222158   1.960   0.073   7.566  0.5723 -1.4303  0.7530
 3567SOL     OW22159   0.875   2.524   4.910 -0.2953  0.5117 -0.3121
 3567SOL    HW122160   0.842   2.611   4.932  1.0259  1.3408 -1.6397
 3567SOL    HW222161   0.862   2.524   4.816  0.3986  3.1696 -0.4011
 3568SOL     OW22162   1.020   0.012   8.014  0.2718 -0.3650 -0.3534
 3568SOL    HW122163   1.065   0.097   8.013 -0.0835 -0.1901 -1.5785
 3568SOL    HW222164   1.063   4.680   7.946 -0.2008  2.4400 -2.8659
 3569SOL     OW22165   4.522   1.868   7.592 -0.1745 -0.0091 -0.4726
 3569SOL    HW122166   4.554   1.779   7.604  0.7596  0.2650 -0.9204
 3569SOL    HW222167   4.460   1.870   7.664 -1.1537  1.1440 -1.3482
 3570SOL     OW22168   2.647   4.621  12.966  0.6449 -0.5213 -0.0372
 3570SOL    HW122169   2.560   4.651  12.995  1.3857  2.0520 -0.4438
 3570SOL    HW222170   2.649   4.540  13.017  1.9077 -0.0691  0.6149
 3571SOL     OW22171   2.246   0.283   5.381  0.2277 -0.3294 -0.2952
 3571SOL    HW122172   2.206   0.315   5.463  0.3212 -2.9350  0.7700
 3571SOL    HW222173   2.288   0.203   5.413 -0.9383 -0.4269  1.0316
 3572SOL     OW22174   2.707   1.635   7.572 -0.0807  0.2959  0.3140
 3572SOL    HW122175   2.699   1.731   7.566  0.1780  0.2122 -1.5226
 3572SOL    HW222176   2.798   1.630   7.599 -0.4066  0.2477  1.4138
 3573SOL     OW22177   3.165   2.713   5.599  0.0864  0.7600 -0.0768
 3573SOL    HW122178   3.234   2.759   5.552  2.2961 -2.7818 -0.2972
 3573SOL    HW222179   3.105   2.783   5.626  0.9959  1.5841 -0.1933
 3574SOL     OW22180   3.707   2.857   2.901 -0.4212 -0.0115 -0.3168
 3574SOL    HW122181   3.711   2.762   2.897 -0.0648  0.0869 -1.9927
 3574SOL    HW222182   3.687   2.868   2.994 -1.3462  0.9237 -0.6232
 3575SOL     OW22183   3.894   4.045   4.106 -0.1889 -0.1114 -0.3454
 3575SOL    HW122184   3.985   4.014   4.099 -0.1269  0.3264 -1.5593
 3575SOL    HW222185   3.847   3.986   4.047 -0.3114  0.7405 -1.1013
 3576SOL     OW22186   4.608   1.612   3.880 -0.5682 -0.0762 -0.5382
 3576SOL    HW122187   4.551   1.582   3.951  1.3531 -0.3858  0.8659
 3576SOL    HW222188   4.672   1.542   3.864  1.2320  2.0687 -2.5775
 3577SOL     OW22189   2.327   4.507   5.914  0.0402  0.3325  0.4108
 3577SOL    HW122190   2.345   4.460   5.996  0.3694  1.9223  1.2541
 3577SOL    HW222191   2.237   4.478   5.898  0.7974 -1.4957 -0.5124
 3578SOL     OW22192   3.796   3.472   1.901 -0.1539 -0.0825 -0.2446
 3578SOL    HW122193   3.856   3.538   1.866  0.7315 -0.6165  0.2518
 3578SOL    HW222194   3.776   3.517   1.983  1.0951 -1.2317  0.7070
 3579SOL     OW22195   0.376   3.233  15.796 -0.1104  0.4502  0.2952
 3579SOL    HW122196   0.391   3.317  15.839 -0.0080  1.8741 -2.5247
 3579SOL    HW222197   0.386   3.171  15.869 -3.3407  0.8545  1.0503
 3580SOL     OW22198   2.138   2.528   4.702 -0.4964  0.1711  0.3836
 3580SOL    HW122199   2.213   2.475   4.676  0.5880  1.5291  0.8012
 3580SOL    HW222200   2.081   2.466   4.749  1.3320 -1.3718  0.5387
 3581SOL     OW22201   0.758   1.426   1.951 -0.4294 -0.2593  0.1357
 3581SOL    HW122202   0.853   1.425   1.963 -0.3896 -0.1915 -0.1817
 3581SOL    HW222203   0.749   1.423   1.856 -2.2130  0.5970  0.2829
 3582SOL     OW22204   0.334   4.383   9.387 -0.5470  0.0813 -0.1594
 3582SOL    HW122205   0.254   4.428   9.361 -1.3126 -0.4353  1.2912
 3582SOL    HW222206   0.376   4.360   9.304 -1.6715 -1.4873 -0.3082
 3583SOL     OW22207   1.769   1.487   3.530 -0.6096 -0.4676  0.3715
 3583SOL    HW122208   1.774   1.548   3.604 -1.0935 -0.0643  0.0784
 3583SOL    HW222209   1.674   1.482   3.518 -0.3716  0.2693 -1.8002
 3584SOL     OW22210   1.245   3.860   2.568 -0.2915  0.4489 -0.6039
 3584SOL    HW122211   1.256   3.852   2.473  0.8303  1.3420 -0.5477
 3584SOL    HW222212   1.187   3.937   2.571  0.7000  1.1578  0.3482
 3585SOL     OW22213   3.472   1.419   4.905  0.5029 -0.3054  0.0428
 3585SOL    HW122214   3.410   1.465   4.849  1.3963  0.4263 -0.3381
 3585SOL    HW222215   3.539   1.402   4.839 -0.1763  0.0976 -0.7497
 3586SOL     OW22216   0.605   2.646   4.429  0.0873 -0.9654 -0.4308
 3586SOL    HW122217   0.649   2.571   4.390  1.1370 -0.8845  0.5990
 3586SOL    HW222218   0.538   2.606   4.485 -0.0598  0.4924  0.4291
 3587SOL     OW22219   4.615   0.876   1.224 -0.1324  0.2866  0.4019
 3587SOL    HW122220   4.669   0.847   1.152  1.4485 -0.5325  1.9217
 3587SOL    HW222221   4.686   0.885   1.287  1.0651 -1.0726 -0.7610
 3588SOL     OW22222   3.287   3.435  16.962  0.1724  0.0404  0.0603
 3588SOL    HW122223   3.218   3.369  16.958  0.6068 -0.5505  2.1290
 3588SOL    HW222224   3.244   3.510  16.922  1.0673 -0.1501 -1.2468
 3589SOL     OW22225   3.855   4.207   7.943  0.2958  0.4277  0.0409
 3589SOL    HW122226   3.927   4.245   7.893  0.1209 -1.1784 -1.3825
 3589SOL    HW222227   3.868   4.113   7.934 -0.9326  0.2018  0.7497
 3590SOL     OW22228   2.455   0.644   7.427  0.4491 -0.0144  0.1030
 3590SOL    HW122229   2.456   0.569   7.487  2.7257 -0.5283 -0.6130
 3590SOL    HW222230   2.374   0.684   7.460 -0.1994 -0.0709 -1.4334
 3591SOL     OW22231   4.420   3.162   4.333  0.0649  0.5879 -0.0589
 3591SOL    HW122232   4.363   3.217   4.386 -0.1925  1.4613 -1.2428
 3591SOL    HW222233   4.434   3.088   4.392  0.0083  0.3905 -0.2954
 3592SOL     OW22234   2.489   4.237   1.870  0.0855  0.0364 -0.8230
 3592SOL    HW122235   2.478   4.188   1.952  1.9615  0.3717 -0.3860
 3592SOL    HW222236   2.446   4.321   1.887  2.3621  1.0006  0.1097
 3593SOL     OW22237   4.542   3.802   4.714 -0.4012 -0.8107  0.2003
 3593SOL    HW122238   4.595   3.881   4.707 -0.2878 -1.1372 -2.7082
 3593SOL    HW222239   4.535   3.799   4.809  0.4281  2.8082  0.3484
 3594SOL     OW22240   4.079   3.828   2.110 -0.4126 -0.4313  0.1586
 3594SOL    HW122241   4.128   3.888   2.165 -2.9117  0.6431  1.1933
 3594SOL    HW222242   4.025   3.793   2.180  0.5765  1.3086  1.7935
 3595SOL     OW22243   3.575   4.460  15.876  0.3611  0.1110 -0.2038
 3595SOL    HW122244   3.569   4.457  15.972  1.3051 -0.7922 -0.1779
 3595SOL    HW222245   3.483   4.447  15.853 -0.5458 -1.5081  4.2843
 3596SOL     OW22246   2.373   2.352   7.496 -0.1009 -0.8312 -0.3204
 3596SOL    HW122247   2.294   2.377   7.544  0.9168  0.7022  0.5505
 3596SOL    HW222248   2.439   2.413   7.528 -1.8488  1.6294 -1.3758
 3597SOL     OW22249   4.185   0.275   7.183 -0.4498  0.3060  0.0384
 3597SOL    HW122250   4.236   0.208   7.138  0.2433  1.3997 -0.8267
 3597SOL    HW222251   4.174   0.236   7.269  0.5654  0.2568  0.1425
 3598SOL     OW22252   1.409   1.392   6.152  0.6139 -0.2627  0.2563
 3598SOL    HW122253   1.475   1.461   6.160 -0.7066  0.9934  0.2332
 3598SOL    HW222254   1.329   1.438   6.178  0.0125  0.2969 -2.5417
 3599SOL     OW22255   3.447   2.272   7.434  0.3701  0.2775 -0.8864
 3599SOL    HW122256   3.542   2.258   7.435  0.1869 -0.9245 -0.0671
 3599SOL    HW222257   3.430   2.265   7.528 -0.3858  2.8604 -0.8478
 3600SOL     OW22258   4.245   0.603  17.286  0.5065 -0.2029 -0.2540
 3600SOL    HW122259   4.297   0.613  17.366  0.7724  0.1701 -0.4706
 3600SOL    HW222260   4.183   0.675  17.296 -1.4714 -1.9210 -0.2061
 3601SOL     OW22261   1.991   4.275  13.938 -0.0933 -0.5111  0.0800
 3601SOL    HW122262   2.083   4.299  13.953  0.2255 -2.2097  0.7965
 3601SOL    HW222263   1.982   4.183  13.963  1.0048 -0.7875 -0.5530
 3602SOL     OW22264   1.785   1.504   8.552  0.2412 -0.0721  0.3554
 3602SOL    HW122265   1.828   1.507   8.637 -0.4698 -1.4515  0.7599
 3602SOL    HW222266   1.847   1.552   8.496 -0.6146  0.8849  0.2249
 3603SOL     OW22267   1.598   3.029  13.087 -0.0698 -0.3532 -0.0077
 3603SOL    HW122268   1.518   3.020  13.035 -1.1807  0.4115  1.5930
 3603SOL    HW222269   1.634   3.113  13.058 -0.8654 -0.8149 -2.3848
 3604SOL     OW22270   1.571   0.447   6.487  0.1821 -0.0121  0.3196
 3604SOL    HW122271   1.524   0.526   6.512  4.3153  3.0915 -1.6118
 3604SOL    HW222272   1.498   0.388   6.467 -0.5650  1.3912 -1.1478
 3605SOL     OW22273   1.598   1.607   1.916  0.0304  0.5179  0.1046
 3605SOL    HW122274   1.506   1.632   1.911 -0.2628 -1.0242 -1.9677
 3605SOL    HW222275   1.591   1.542   1.986  0.7255  1.1516  0.7749
 3606SOL     OW22276   1.423   2.306   2.409 -0.3708 -0.1377 -0.3511
 3606SOL    HW122277   1.436   2.348   2.495  1.0625 -0.7050 -0.2895
 3606SOL    HW222278   1.379   2.384   2.375  1.6996  1.4002  0.4897
 3607SOL     OW22279   0.404   4.295   8.889  0.0768  0.0195 -0.8611
 3607SOL    HW122280   0.361   4.366   8.842 -1.4235  0.3113  0.9504
 3607SOL    HW222281   0.397   4.330   8.978 -0.5128  1.7730 -1.6076
 3608SOL     OW22282   1.069   3.340   1.684  0.1999 -0.1583 -0.3113
 3608SOL    HW122283   1.046   3.332   1.776  0.7210  1.0512 -0.0684
 3608SOL    HW222284   1.163   3.357   1.697  0.3724 -1.3516  0.0195
 3609SOL     OW22285   2.012   3.234   8.720  0.3158  0.7156  0.2354
 3609SOL    HW122286   2.051   3.271   8.799 -0.5702  0.5684  0.7460
 3609SOL    HW222287   2.029   3.140   8.732  1.7352  0.9728  0.2641
 3610SOL     OW22288   3.527   4.409   6.440  0.1486 -0.6169  0.2142
 3610SOL    HW122289   3.505   4.493   6.401 -1.1946 -1.7065 -1.3645
 3610SOL    HW222290   3.454   4.356   6.407  0.6429 -0.0772 -1.7133
 3611SOL     OW22291   0.584   3.291   5.082 -0.3354 -0.5194  0.2283
 3611SOL    HW122292   0.526   3.216   5.070  0.4252 -0.8665 -1.2160
 3611SOL    HW222293   0.556   3.317   5.170 -0.6284 -0.9074  0.2519
 3612SOL     OW22294   3.888   2.931   0.618  0.1876  0.1729 -0.0610
 3612SOL    HW122295   3.945   2.935   0.695 -1.4107 -0.7865  1.1714
 3612SOL    HW222296   3.863   2.839   0.629  1.4068 -0.0764  0.6145
 3613SOL     OW22297   2.372   0.628   6.111 -0.1943 -0.3222  0.2671
 3613SOL    HW122298   2.381   0.713   6.154 -1.0709  0.0542 -0.2984
 3613SOL    HW222299   2.304   0.581   6.158  1.0961 -2.4196  0.0437
 3614SOL     OW22300   1.304   1.906   4.390 -0.1001 -0.1415 -0.4090
 3614SOL    HW122301   1.325   1.910   4.296  2.4373  2.0444  0.2420
 3614SOL    HW222302   1.210   1.922   4.397 -0.2506 -0.9575 -0.6353
 3615SOL     OW22303   0.123   1.818   5.479 -0.5122 -0.2058  0.4386
 3615SOL    HW122304   0.189   1.749   5.467 -0.3066 -0.1188  1.0600
 3615SOL    HW222305   0.121   1.855   5.391  1.7351  0.1813  0.5473
 3616SOL     OW22306   0.177   1.945   2.274 -0.6997 -0.1741 -0.1468
 3616SOL    HW122307   0.175   2.041   2.264 -0.6481  0.0905  2.2361
 3616SOL    HW222308   0.269   1.935   2.301  0.0777  0.2695 -2.6064
 3617SOL     OW22309   0.931   2.313   1.934  0.3885 -0.0934 -0.0999
 3617SOL    HW122310   0.864   2.248   1.916 -2.0073  2.2227  0.5143
 3617SOL    HW222311   0.965   2.271   2.013  1.6116  0.4027 -0.3653
 3618SOL     OW22312   2.447   2.742  12.828  0.1979 -0.1406  0.0524
 3618SOL    HW122313   2.456   2.807  12.758  3.2206  0.1391  0.6782
 3618SOL    HW222314   2.509   2.673  12.803  0.8730  0.7198 -0.6496
 3619SOL     OW22315   4.671   0.684  15.437  0.1588  0.2011 -0.3159
 3619SOL    HW122316   4.670   0.720  15.348  1.3277  0.2716 -0.3054
 3619SOL    HW222317   0.043   0.661  15.443 -0.1006 -0.2609  2.0674
 3620SOL     OW22318   1.511   1.856   9.379 -0.2877  0.2467  0.2573
 3620SOL    HW122319   1.517   1.820   9.291 -1.8461  0.7335 -0.0491
 3620SOL    HW222320   1.429   1.816   9.408 -1.5374  1.8593 -1.0728
 3621SOL     OW22321   2.318   4.060   6.628  0.4309 -0.1243  0.3141
 3621SOL    HW122322   2.286   4.043   6.717 -1.4094 -0.2490 -0.3897
 3621SOL    HW222323   2.378   3.991   6.600  1.9311  0.9513  0.8753
 3622SOL     OW22324   2.848   4.616  17.372  0.2374 -0.8521  0.3113
 3622SOL    HW122325   2.847   4.610  17.276  0.8856 -0.0001  0.2561
 3622SOL    HW222326   2.864   4.522  17.385 -0.3820 -1.2967 -2.0922
 3623SOL     OW22327   1.333   0.884  13.435 -0.4080  0.1107  0.3964
 3623SOL    HW122328   1.328   0.979  13.446 -0.4246  0.1895 -0.3189
 3623SOL    HW222329   1.421   0.862  13.467  0.5108  2.5183 -0.5443
 3624SOL     OW22330   3.761   1.911   5.601  0.0074  0.0871 -0.1361
 3624SOL    HW122331   3.801   1.860   5.671  0.6161  1.4497  0.5167
 3624SOL    HW222332   3.813   1.880   5.527  0.2391 -0.3942  0.2301
 3625SOL     OW22333   0.362   4.657   3.094 -0.2414 -0.8280  0.0451
 3625SOL    HW122334   0.343   4.694   3.008 -3.6199 -1.8719  0.3709
 3625SOL    HW222335   0.411   0.009   3.130 -0.8133 -0.9169  0.9749
 3626SOL     OW22336   0.127   1.053  15.491  0.1095  0.3249 -0.6780
 3626SOL    HW122337   0.061   1.080  15.427  0.6700  0.6828 -1.1113
 3626SOL    HW222338   0.209   1.078  15.449  0.4360  0.3009 -0.0602
 3627SOL     OW22339   4.508   1.892   3.799  0.2262  0.8211  0.1425
 3627SOL    HW122340   4.552   1.809   3.817  0.9268  1.0807 -0.3790
 3627SOL    HW222341   4.431   1.886   3.856  1.7988 -0.4544  2.1714
 3628SOL     OW22342   4.306   3.491   4.937  0.0424 -0.0214 -0.1284
 3628SOL    HW122343   4.260   3.431   4.878 -1.1603 -0.9076  1.7079
 3628SOL    HW222344   4.232   3.528   4.985 -0.3233 -1.8522  0.7084
 3629SOL     OW22345   3.805   2.818  15.377 -0.9273  0.6586  0.6280
 3629SOL    HW122346   3.848   2.735  15.395 -2.1238  0.0504  0.6863
 3629SOL    HW222347   3.742   2.793  15.309 -0.2051 -1.3873  0.7260
 3630SOL     OW22348   4.401   0.727   1.346 -0.1114 -0.4866  0.0213
 3630SOL    HW122349   4.415   0.683   1.429 -2.2625  0.7169  1.0294
 3630SOL    HW222350   4.489   0.757   1.322  0.0733  0.0374  1.3424
 3631SOL     OW22351   0.106   3.256   7.241 -0.3884 -0.3569 -0.5333
 3631SOL    HW122352   0.143   3.298   7.318 -0.9984  1.1818 -1.0827
 3631SOL    HW222353   0.056   3.192   7.291 -0.3309 -1.6220 -2.0860
 3632SOL     OW22354   2.327   4.230  12.460  0.2999  0.1096  0.3430
 3632SOL    HW122355   2.252   4.170  12.460  0.5165 -0.1623  0.4709
 3632SOL    HW222356   2.388   4.179  12.513  1.1102  0.8129  0.0797
 3633SOL     OW22357   0.282   4.399   7.607  0.6548  0.3492  0.3874
 3633SOL    HW122358   0.215   4.462   7.635  1.9092  1.2807  1.2826
 3633SOL    HW222359   0.327   4.456   7.545  0.2117 -0.7963 -0.9728
 3634SOL     OW22360   1.757   2.121   7.385 -0.4541  0.2434  0.1107
 3634SOL    HW122361   1.711   2.199   7.356  3.4207  1.9942 -1.3337
 3634SOL    HW222362   1.810   2.153   7.458  2.2859 -1.3838 -1.1493
 3635SOL     OW22363   1.729   0.205  10.832  0.0225  0.1705  0.4459
 3635SOL    HW122364   1.748   0.172  10.744 -1.9236  0.8583 -0.2290
 3635SOL    HW222365   1.647   0.161  10.853 -0.3911 -0.0560 -1.6219
 3636SOL     OW22366   4.593   2.959   9.572  0.4250 -0.0526 -0.0175
 3636SOL    HW122367   4.656   2.888   9.564 -0.1938 -0.2742 -3.1515
 3636SOL    HW222368   4.557   2.947   9.660 -0.3479 -0.4747 -0.3889
 3637SOL     OW22369   2.114   2.341  15.742  0.2439  0.3969  0.2668
 3637SOL    HW122370   2.058   2.265  15.757 -0.4826  1.4270  2.6601
 3637SOL    HW222371   2.099   2.374  15.830 -0.2279 -0.0634  0.3567
 3638SOL     OW22372   2.906   1.546  15.523  0.3164 -0.0802  0.3574
 3638SOL    HW122373   2.877   1.481  15.587  0.3496  0.1515  0.6066
 3638SOL    HW222374   2.871   1.516  15.439 -2.3105 -0.0012  1.4225
 3639SOL     OW22375   0.045   0.881   0.968 -0.4344  0.2109 -0.2241
 3639SOL    HW122376   0.084   0.968   0.979 -0.4398  0.1995 -0.1206
 3639SOL    HW222377   0.023   0.893   0.875 -4.2202  2.0197  0.8700
 3640SOL     OW22378   4.237   0.947   3.281  0.2302  0.4750 -0.1547
 3640SOL    HW122379   4.159   0.903   3.315 -0.2360  0.2671 -1.4986
 3640SOL    HW222380   4.286   0.959   3.362 -2.5670  0.9081  1.4645
 3641SOL     OW22381   0.651   2.048  10.863  0.1262  0.4612 -0.1880
 3641SOL    HW122382   0.610   2.090  10.787 -0.7752 -2.7416 -1.4655
 3641SOL    HW222383   0.592   2.080  10.932  1.6580 -2.5436  2.4816
 3642SOL     OW22384   1.604   0.012   5.428  0.2482  0.0373  0.3601
 3642SOL    HW122385   1.615   4.721   5.333 -1.7831 -1.1104  0.2843
 3642SOL    HW222386   1.625   0.104   5.442  2.6039 -0.4631  0.1052
 3643SOL     OW22387   2.806   2.492   5.895 -0.1084  0.0709 -0.4895
 3643SOL    HW122388   2.852   2.434   5.956 -0.9491  0.0189  0.1004
 3643SOL    HW222389   2.718   2.454   5.897  0.0454 -0.2634  0.0382
 3644SOL     OW22390   1.536   0.190  15.068 -0.0964  0.2530  0.0328
 3644SOL    HW122391   1.583   0.110  15.047 -0.1800  0.1368  0.2893
 3644SOL    HW222392   1.465   0.151  15.119  0.4340  0.0960  0.6524
 3645SOL     OW22393   0.354   2.031  10.880 -0.2322 -0.3014  0.2755
 3645SOL    HW122394   0.321   2.101  10.936  0.5000  0.6290 -0.4532
 3645SOL    HW222395   0.397   2.080  10.810  0.0508  0.4876  1.0074
 3646SOL     OW22396   0.144   0.843   1.298  0.1805 -0.5804  0.0823
 3646SOL    HW122397   0.188   0.803   1.374 -0.4736  1.9685  1.7867
 3646SOL    HW222398   0.198   0.919   1.277 -0.0960  0.3814  2.8918
 3647SOL     OW22399   4.556   2.806   6.291 -0.5228 -0.2178 -0.0170
 3647SOL    HW122400   4.628   2.846   6.243  0.0742  0.0452  1.0766
 3647SOL    HW222401   4.539   2.728   6.240 -1.7716 -0.3104  0.5461
 3648SOL     OW22402   0.787   2.451   4.276 -0.1463  0.0380  0.2480
 3648SOL    HW122403   0.860   2.442   4.337 -1.6918 -0.5879  2.0537
 3648SOL    HW222404   0.753   2.362   4.264 -0.4388  0.1958 -0.0959
 3649SOL     OW22405   1.339   0.188   4.345  0.0309  0.4998 -0.1808
 3649SOL    HW122406   1.401   0.117   4.327  1.6796  2.1206 -0.9294
 3649SOL    HW222407   1.324   0.173   4.438  0.0223 -0.3184 -0.3095
 3650SOL     OW22408   4.592   0.969   4.167 -0.6555  0.3416 -0.2772
 3650SOL    HW122409   4.593   0.909   4.242  0.0748 -0.6298 -1.0636
 3650SOL    HW222410   4.613   0.900   4.105  1.5318  0.4821  0.3016
 3651SOL     OW22411   1.597   1.587   3.174 -0.4089  0.0103 -1.1382
 3651SOL    HW122412   1.668   1.541   3.129  0.8161 -0.0047  0.8342
 3651SOL    HW222413   1.600   1.548   3.262  2.5375  2.5061 -0.1673
 3652SOL     OW22414   3.402   2.574   7.424  0.1058 -0.1036 -0.3214
 3652SOL    HW122415   3.413   2.479   7.430  1.2126  0.0702  0.5153
 3652SOL    HW222416   3.432   2.588   7.514 -1.3943  1.4132 -0.0581
 3653SOL     OW22417   3.147   3.931  11.034  0.1153 -0.2603  0.0513
 3653SOL    HW122418   3.101   3.935  10.950 -0.2628  2.0627  0.3682
 3653SOL    HW222419   3.103   3.851  11.061 -3.5836  2.5746  2.4434
 3654SOL     OW22420   0.311   1.718   8.059 -0.2061  0.7258  0.2297
 3654SOL    HW122421   0.288   1.741   7.969 -4.1652 -0.8081  0.8299
 3654SOL    HW222422   0.225   1.710   8.101  0.3682  1.6963  1.5597
 3655SOL     OW22423   0.201   1.217  15.070 -0.1990 -0.2137 -0.0661
 3655SOL    HW122424   0.260   1.145  15.046 -1.5586 -1.4641  0.3020
 3655SOL    HW222425   0.171   1.249  14.985  0.4508  0.0050 -0.2105
 3656SOL     OW22426   1.607   3.046   3.922 -0.5682 -0.7273 -0.2502
 3656SOL    HW122427   1.659   2.996   3.985  1.4257 -0.2054 -1.5002
 3656SOL    HW222428   1.591   2.982   3.853 -0.8424  1.2139 -1.9874
 3657SOL     OW22429   3.264   2.305   3.114 -0.1243  0.1933  0.0038
 3657SOL    HW122430   3.181   2.293   3.069  0.5848 -0.1114 -1.2289
 3657SOL    HW222431   3.316   2.234   3.075 -0.4132 -0.3413  0.5840
 3658SOL     OW22432   2.442   2.595   1.281 -0.2887  0.0363  0.1114
 3658SOL    HW122433   2.362   2.543   1.270  1.8278 -2.8736 -1.3379
 3658SOL    HW222434   2.494   2.541   1.341 -1.0962 -0.0148  0.7712
 3659SOL     OW22435   4.689   1.377   2.767 -0.3189 -0.3430  0.0541
 3659SOL    HW122436   0.036   1.310   2.771  0.3400  0.2253 -1.7341
 3659SOL    HW222437   0.003   1.435   2.700  2.1210 -0.6216  1.0809
 3660SOL     OW22438   0.723   0.771   4.954 -0.3578 -0.0772  0.1436
 3660SOL    HW122439   0.759   0.773   5.043 -0.1055 -1.1637  0.0705
 3660SOL    HW222440   0.788   0.824   4.909  0.9639  0.2164  2.3840
 3661SOL     OW22441   0.724   0.782   7.873 -0.3926 -0.4504 -0.3037
 3661SOL    HW122442   0.698   0.858   7.925  2.0713 -0.0631  0.3336
 3661SOL    HW222443   0.752   0.822   7.791  2.6966  0.6234  1.2747
 3662SOL     OW22444   4.140   4.690   2.777 -0.3395  0.6862 -0.5098
 3662SOL    HW122445   4.128   4.669   2.869  2.0800 -0.0490 -0.3616
 3662SOL    HW222446   4.233   4.712   2.769 -0.0069 -0.3829  0.4655
 3663SOL     OW22447   2.359   1.159   3.421 -0.4879  0.3954  0.0437
 3663SOL    HW122448   2.327   1.088   3.366  1.2695 -1.3209  1.2661
 3663SOL    HW222449   2.310   1.136   3.499  1.1912  2.9092  1.8494
 3664SOL     OW22450   4.047   0.682   0.769 -0.2581  0.3069  0.2746
 3664SOL    HW122451   4.094   0.658   0.689  1.2756  0.5853  1.0914
 3664SOL    HW222452   4.113   0.683   0.838  0.2306 -1.5445 -0.1695
 3665SOL     OW22453   2.068   3.793   3.984  0.3202  0.1859 -0.2465
 3665SOL    HW122454   2.065   3.885   3.960 -0.1251 -0.0609 -1.1466
 3665SOL    HW222455   2.001   3.755   3.927  1.5027  1.7282 -2.6435
 3666SOL     OW22456   3.201   2.059   7.716 -0.2012  0.1026 -0.3328
 3666SOL    HW122457   3.117   2.030   7.679 -0.8083  0.9073  0.3892
 3666SOL    HW222458   3.174   2.075   7.807  2.9547 -1.5840  0.8718
 3667SOL     OW22459   2.561   1.325   4.953 -0.1394  0.0403 -0.0367
 3667SOL    HW122460   2.548   1.317   4.859  2.0873  0.9985 -0.4328
 3667SOL    HW222461   2.651   1.292   4.962 -0.5108 -1.1943 -0.9195
 3668SOL     OW22462   3.256   3.059   2.566  0.0439 -0.3038 -0.1337
 3668SOL    HW122463   3.165   3.054   2.594 -0.1715  0.7454 -0.6648
 3668SOL    HW222464   3.300   3.016   2.639 -1.0567  0.0598  0.7462
 3669SOL     OW22465   0.191   1.572   7.345  0.2713  0.4171  0.4441
 3669SOL    HW122466   0.103   1.569   7.383 -0.4617 -1.2096 -1.4124
 3669SOL    HW222467   0.245   1.605   7.417 -2.0413 -2.9600  3.7504
 3670SOL     OW22468   2.984   0.729   1.396  0.0996 -0.1830 -0.1361
 3670SOL    HW122469   2.914   0.773   1.445 -0.9164 -1.1207 -0.7248
 3670SOL    HW222470   3.020   0.676   1.467  1.9469  0.5469 -0.5340
 3671SOL     OW22471   3.472   0.192   9.050  0.1200  0.7745  0.2125
 3671SOL    HW122472   3.439   0.110   9.014  0.2402  0.7489  0.1605
 3671SOL    HW222473   3.551   0.170   9.099  0.5917  0.8536 -0.5226
 3672SOL     OW22474   2.612   2.262   8.271 -0.2929  0.7641 -0.0703
 3672SOL    HW122475   2.625   2.244   8.178 -0.7292  0.8743 -0.1507
 3672SOL    HW222476   2.529   2.225   8.299  0.0856 -0.0515 -0.0282
 3673SOL     OW22477   4.216   1.384   7.845  0.5157  0.1369  0.8372
 3673SOL    HW122478   4.218   1.444   7.770 -0.6113  0.3005  0.9444
 3673SOL    HW222479   4.132   1.399   7.887  0.5428  0.6250  0.7219
 3674SOL     OW22480   2.674   0.179  16.004 -0.2962 -0.1250  0.4474
 3674SOL    HW122481   2.622   0.245  16.050  1.5546  0.6181  1.4687
 3674SOL    HW222482   2.756   0.207  16.045  0.1016  1.1447 -1.2273
 3675SOL     OW22483   1.405   1.597   6.492 -0.2067 -0.6789 -0.2119
 3675SOL    HW122484   1.464   1.650   6.439 -0.0438 -1.0373 -0.3894
 3675SOL    HW222485   1.453   1.607   6.574 -0.1089  2.2313 -0.6427
 3676SOL     OW22486   1.986   3.398   3.441  0.3151 -0.6975 -0.2428
 3676SOL    HW122487   2.074   3.374   3.471  0.5794 -0.3354 -0.7288
 3676SOL    HW222488   1.999   3.419   3.349  1.2149 -0.2175 -0.0046
 3677SOL     OW22489   2.032   4.096   1.637  0.5710  0.1314  0.1313
 3677SOL    HW122490   2.033   4.128   1.727  3.2672 -0.3294  0.2683
 3677SOL    HW222491   2.122   4.073   1.613  0.5634  0.1654  0.0726
 3678SOL     OW22492   3.167   3.500   8.819 -0.4113  0.4830 -0.3906
 3678SOL    HW122493   3.253   3.464   8.800 -1.7621 -2.1359 -1.5210
 3678SOL    HW222494   3.185   3.588   8.785  1.0497  0.1225 -0.5114
 3679SOL     OW22495   3.173   4.154   5.118 -0.8776  0.4290  0.0317
 3679SOL    HW122496   3.174   4.241   5.078 -1.1906  0.8254  0.8858
 3679SOL    HW222497   3.236   4.155   5.189 -0.3718  1.8886 -0.4583
 3680SOL     OW22498   3.366   3.243  11.806  0.0733 -0.3479 -0.0085
 3680SOL    HW122499   3.312   3.249  11.885 -0.8898  0.1204 -0.7052
 3680SOL    HW222500   3.392   3.335  11.798 -1.6625  0.2100  0.8132
 3681SOL     OW22501   3.620   4.339  14.124  0.2584 -0.1319  0.2963
 3681SOL    HW122502   3.605   4.352  14.217 -1.2615  0.5155 -0.0395
 3681SOL    HW222503   3.663   4.420  14.098  1.2167 -1.4307 -2.1689
 3682SOL     OW22504   0.101   3.053  14.764  0.1998 -0.4687 -0.5118
 3682SOL    HW122505   0.111   3.084  14.854  1.9087 -0.6173 -0.6530
 3682SOL    HW222506   0.175   2.992  14.757 -1.2826 -2.3449  0.1624
 3683SOL     OW22507   4.612   0.998   0.705 -0.7354 -0.6700 -0.6563
 3683SOL    HW122508   4.539   1.005   0.767  0.7664 -0.2432  1.0647
 3683SOL    HW222509   4.635   0.906   0.696  3.3240  0.4203 -1.3613
 3684SOL     OW22510   1.656   4.355   6.647  0.0420  0.4648  0.0486
 3684SOL    HW122511   1.660   4.264   6.677  1.1594 -1.1194 -4.8973
 3684SOL    HW222512   1.613   4.346   6.563  1.5673  0.4437 -0.7404
 3685SOL     OW22513   3.223   1.395   5.942  0.1343  0.6217  0.4262
 3685SOL    HW122514   3.198   1.476   5.986 -2.9336 -0.3283  0.3865
 3685SOL    HW222515   3.251   1.342   6.017  0.2862 -1.0465 -0.7947
 3686SOL     OW22516   1.104   2.702   2.504 -0.1143 -0.0125  0.3387
 3686SOL    HW122517   1.065   2.750   2.431  0.9348  1.0778  0.4986
 3686SOL    HW222518   1.029   2.655   2.542  0.4844  0.2324  1.7892
 3687SOL     OW22519   0.618   3.815  12.712  0.2650  0.0996  0.1781
 3687SOL    HW122520   0.602   3.756  12.786 -1.5099  0.3446 -0.0217
 3687SOL    HW222521   0.535   3.801  12.666 -0.7904 -2.1564  2.7360
 3688SOL     OW22522   2.581   4.635  16.939 -0.1434 -0.2445 -0.2160
 3688SOL    HW122523   2.602   0.007  16.937  1.3335 -0.5840 -0.5206
 3688SOL    HW222524   2.490   4.624  16.910  0.2487 -2.7162 -0.4924
 3689SOL     OW22525   2.477   2.454  14.115  0.2552  0.7855 -0.6394
 3689SOL    HW122526   2.409   2.498  14.165 -0.1334  1.9259 -2.1480
 3689SOL    HW222527   2.432   2.376  14.084  0.6679  0.7484 -1.1586
 3690SOL     OW22528   2.208   3.714   1.637  0.2516  0.2579  0.0316
 3690SOL    HW122529   2.235   3.759   1.717  1.2411 -1.2777  0.5459
 3690SOL    HW222530   2.294   3.701   1.597  0.2123  3.9354 -1.3036
 3691SOL     OW22531   0.548   2.826   8.181 -0.4438 -0.7608 -0.2368
 3691SOL    HW122532   0.521   2.740   8.149  0.6735 -1.6427  1.1744
 3691SOL    HW222533   0.640   2.825   8.156  0.0919  0.7715  1.6467
 3692SOL     OW22534   2.100   0.876   4.265 -0.5285  0.3844  0.6740
 3692SOL    HW122535   2.136   0.811   4.205 -1.2095  0.3437  0.3023
 3692SOL    HW222536   2.109   0.829   4.347  1.0986 -1.9691 -0.8518
 3693SOL     OW22537   1.193   4.719   4.166  0.0553  0.3033  0.1395
 3693SOL    HW122538   1.218   4.636   4.207 -0.3684  1.4813  2.8031
 3693SOL    HW222539   1.206   0.054   4.243  0.7839 -0.3757  0.5169
 3694SOL     OW22540   3.324   4.294   3.994 -0.3752 -0.0439  0.2220
 3694SOL    HW122541   3.296   4.358   4.059  2.7384  1.8336 -0.2605
 3694SOL    HW222542   3.353   4.220   4.047  0.9355 -0.0576 -0.4983
 3695SOL     OW22543   2.773   1.715   7.018  0.4079  0.1972 -0.2951
 3695SOL    HW122544   2.769   1.808   6.992 -1.2150  1.1387  3.2937
 3695SOL    HW222545   2.846   1.699   6.958  0.4432 -2.7711  0.5479
 3696SOL     OW22546   1.478   3.688   5.839 -0.2081  0.1554 -0.3083
 3696SOL    HW122547   1.506   3.607   5.883 -0.1014 -0.3755 -1.3641
 3696SOL    HW222548   1.557   3.739   5.857  0.6684 -0.2782 -2.9586
 3697SOL     OW22549   4.427   3.485   6.392 -0.0305 -0.7858  0.4716
 3697SOL    HW122550   4.421   3.407   6.447  1.3740 -0.0896  1.6236
 3697SOL    HW222551   4.357   3.541   6.423 -0.0517  0.0210 -1.0115
 3698SOL     OW22552   4.697   2.120   3.429 -0.4070 -0.3939 -0.3328
 3698SOL    HW122553   0.047   2.174   3.463  0.1273 -2.3685  1.7335
 3698SOL    HW222554   4.668   2.165   3.350 -1.3660 -2.1485 -0.9907
 3699SOL     OW22555   4.436   0.796   6.196  0.1472  0.2021 -0.3593
 3699SOL    HW122556   4.463   0.810   6.105 -0.6807 -1.0523 -0.7960
 3699SOL    HW222557   4.482   0.858   6.252  1.2309  0.0161 -1.0484
 3700SOL     OW22558   1.006   4.129   7.483 -0.6162  1.0995  0.6053
 3700SOL    HW122559   0.924   4.148   7.530 -1.8199 -0.9788 -0.6543
 3700SOL    HW222560   1.061   4.110   7.559  1.9065  0.0054 -1.5198
 3701SOL     OW22561   0.588   2.826  15.469 -0.3222 -0.2720 -0.3764
 3701SOL    HW122562   0.521   2.763  15.442 -1.0175  0.3912 -0.2013
 3701SOL    HW222563   0.562   2.898  15.411  1.5965  0.2952 -0.5254
 3702SOL     OW22564   3.219   0.402   2.030  0.4947 -0.1420  0.1204
 3702SOL    HW122565   3.130   0.372   2.015  0.2132  0.6203  0.2348
 3702SOL    HW222566   3.234   0.372   2.119 -1.0628 -0.7486  0.1737
 3703SOL     OW22567   1.014   0.517   5.930  0.1111  0.5771  0.2680
 3703SOL    HW122568   0.969   0.515   6.014  0.0661  0.4995  0.2422
 3703SOL    HW222569   0.986   0.602   5.895  1.7894  1.7095  1.6628
 3704SOL     OW22570   1.161   4.116   2.983 -0.3441  0.6580  0.7358
 3704SOL    HW122571   1.240   4.149   2.941 -0.4852 -0.3941 -0.3365
 3704SOL    HW222572   1.126   4.082   2.901 -0.3862 -0.3618  1.1826
 3705SOL     OW22573   0.824   2.691   5.557  0.7012  0.3412 -0.7734
 3705SOL    HW122574   0.759   2.746   5.601  1.3383 -1.5565  2.5666
 3705SOL    HW222575   0.860   2.756   5.497  2.5806  0.8076  0.8571
 3706SOL     OW22576   2.281   0.457   0.334  0.2952 -0.5652 -0.5090
 3706SOL    HW122577   2.197   0.412   0.345  0.5230 -1.4154 -2.2713
 3706SOL    HW222578   2.312   0.477   0.422  0.7390 -1.6172 -0.4194
 3707SOL     OW22579   2.589   0.673   4.422 -0.1211  0.0439 -0.0635
 3707SOL    HW122580   2.507   0.714   4.450  1.1747  1.2786  1.9026
 3707SOL    HW222581   2.614   0.616   4.495  0.3759 -0.5184 -0.6702
 3708SOL     OW22582   2.953   0.779   2.640 -0.6856  0.6295 -0.7439
 3708SOL    HW122583   2.990   0.839   2.704  3.6756 -2.0793 -0.7405
 3708SOL    HW222584   2.997   0.699   2.667  0.0088  1.9772  2.0882
 3709SOL     OW22585   2.644   4.609   4.881 -0.1441  0.2687  0.1751
 3709SOL    HW122586   2.621   4.577   4.968  0.6685  0.1191  0.3346
 3709SOL    HW222587   2.590   4.687   4.865 -1.4197 -0.7333 -0.4549
 3710SOL     OW22588   0.688   1.599  16.837 -0.0778  0.4336  0.1848
 3710SOL    HW122589   0.625   1.542  16.882  1.2420 -1.8965 -0.9339
 3710SOL    HW222590   0.633   1.622  16.762 -1.1437  1.7242  1.3735
 3711SOL     OW22591   0.995   2.886   0.722  0.7909 -0.2341 -0.3219
 3711SOL    HW122592   0.917   2.942   0.709  0.8496  0.0512  0.5512
 3711SOL    HW222593   0.978   2.889   0.816  0.9829  0.4356 -0.3086
 3712SOL     OW22594   3.714   3.512  10.106 -0.3317  0.1798 -0.3938
 3712SOL    HW122595   3.776   3.521  10.178  1.2855  0.3488 -1.7976
 3712SOL    HW222596   3.681   3.424  10.123 -1.1105  0.5883  0.2071
 3713SOL     OW22597   0.881   4.404   4.988  0.1977 -0.3433 -0.1139
 3713SOL    HW122598   0.799   4.391   5.035  0.2091 -0.6754 -0.1857
 3713SOL    HW222599   0.933   4.442   5.059 -1.1430  1.5131 -0.1243
 3714SOL     OW22600   3.891   0.200   5.324  0.0286  0.3738  0.1641
 3714SOL    HW122601   3.899   0.111   5.289 -0.7332 -1.2303  4.0953
 3714SOL    HW222602   3.831   0.243   5.262 -0.1049 -0.6498 -0.4242
 3715SOL     OW22603   2.093   4.222   5.283 -0.4387 -0.4274 -0.2413
 3715SOL    HW122604   2.018   4.282   5.290 -1.3601 -1.5394 -0.5758
 3715SOL    HW222605   2.123   4.241   5.195 -0.5743 -1.1093 -0.4315
 3716SOL     OW22606   4.594   1.265   6.725 -0.0236  0.2817  0.2487
 3716SOL    HW122607   4.546   1.348   6.723  0.5323  0.6068  0.5787
 3716SOL    HW222608   4.625   1.267   6.635 -1.4449 -2.3389 -0.3026
 3717SOL     OW22609   4.017   0.057   3.028 -0.4389  0.5539 -0.0970
 3717SOL    HW122610   3.967   0.038   3.108 -1.0102 -1.7611 -1.0211
 3717SOL    HW222611   4.009   4.693   2.986 -0.0954  0.1412  0.6775
 3718SOL     OW22612   3.715   3.501  13.870  0.3067  0.0773  0.6793
 3718SOL    HW122613   3.714   3.458  13.956 -2.9747  2.1544  1.6419
 3718SOL    HW222614   3.723   3.591  13.901 -1.7651 -0.3091  2.3384
 3719SOL     OW22615   0.893   0.802  17.189  0.0778 -0.8902 -0.1764
 3719SOL    HW122616   0.867   0.728  17.244 -1.8672  0.4723  0.7405
 3719SOL    HW222617   0.986   0.779  17.181  0.0187 -1.8249  1.8351
 3720SOL     OW22618   2.528   3.764   1.159  0.2270 -0.4421 -0.1210
 3720SOL    HW122619   2.578   3.794   1.083 -0.1791 -0.8754 -0.5583
 3720SOL    HW222620   2.476   3.695   1.119  0.5005  0.8513 -2.7270
 3721SOL     OW22621   4.001   4.653   7.038  0.4776  0.1494 -0.3694
 3721SOL    HW122622   3.955   4.585   6.990 -0.7413  1.3140 -0.8342
 3721SOL    HW222623   3.957   0.005   6.994 -0.8590 -0.0315  0.6786
 3722SOL     OW22624   2.599   0.904  13.891 -0.2228 -0.1527 -0.1769
 3722SOL    HW122625   2.587   0.814  13.922  0.8790 -0.6207 -1.1224
 3722SOL    HW222626   2.520   0.931  13.937 -0.9432 -1.6021 -0.5611
 3723SOL     OW22627   2.936   3.443   7.476  0.6320  0.2912 -0.0499
 3723SOL    HW122628   2.855   3.454   7.525  2.4745  0.7450  2.8651
 3723SOL    HW222629   2.927   3.521   7.421  0.4687 -0.2752 -0.8304
 3724SOL     OW22630   3.587   3.887   6.154 -0.8096 -0.4135 -0.3260
 3724SOL    HW122631   3.670   3.873   6.200 -0.6264 -0.2577 -0.6094
 3724SOL    HW222632   3.548   3.800   6.164 -2.1919  0.2598  0.0899
 3725SOL     OW22633   2.168   0.705   7.960  0.3201  0.0960  0.0483
 3725SOL    HW122634   2.107   0.777   7.976  1.7009  1.1786  0.4179
 3725SOL    HW222635   2.239   0.751   7.915 -0.4314 -1.3746 -2.6311
 3726SOL     OW22636   0.865   1.957   7.058  0.1219 -0.1629 -0.0267
 3726SOL    HW122637   0.856   1.903   7.136 -0.1098  0.8408  0.6411
 3726SOL    HW222638   0.882   2.043   7.096  0.0295 -0.8072  1.4664
 3727SOL     OW22639   2.891   1.318   6.481  0.4222 -0.3712  0.1326
 3727SOL    HW122640   2.947   1.392   6.457 -0.4494 -0.0097 -0.7951
 3727SOL    HW222641   2.955   1.256   6.515 -0.1899 -0.3359  1.3559
 3728SOL     OW22642   2.970   2.260   3.273 -0.5466 -0.0021 -0.5918
 3728SOL    HW122643   2.918   2.337   3.253 -1.1313  0.0352  1.0493
 3728SOL    HW222644   2.965   2.213   3.189  0.6887  2.0557 -1.7997
 3729SOL     OW22645   4.330   2.168  10.903 -0.6241  0.5204  0.5763
 3729SOL    HW122646   4.374   2.093  10.943 -1.7432  0.0254  0.8767
 3729SOL    HW222647   4.245   2.151  10.942 -1.3975  1.0349 -0.8715
 3730SOL     OW22648   3.407   3.802   9.473  0.3019 -0.6067  0.0076
 3730SOL    HW122649   3.377   3.879   9.521  3.3374  1.3722 -1.2226
 3730SOL    HW222650   3.434   3.838   9.389  0.9582  0.4843  0.6788
 3731SOL     OW22651   0.825   3.167   7.996  0.6144 -0.1935  0.1173
 3731SOL    HW122652   0.822   3.231   7.925  1.1499 -0.7908 -0.4372
 3731SOL    HW222653   0.916   3.178   8.022  0.5721 -0.4722  0.3833
 3732SOL     OW22654   1.741   2.165  16.002  0.2161  0.0348 -0.1219
 3732SOL    HW122655   1.784   2.087  15.968  2.6268  0.1899  2.5993
 3732SOL    HW222656   1.755   2.160  16.097  0.4191 -0.3128 -0.1695
 3733SOL     OW22657   2.022   3.159   4.124 -0.5513  0.4103  0.3368
 3733SOL    HW122658   1.975   3.238   4.094 -1.5851  0.4034  1.9515
 3733SOL    HW222659   2.046   3.196   4.208 -0.1651 -1.3151  0.9786
 3734SOL     OW22660   2.911   4.000  17.397  0.1259 -0.7288  0.0921
 3734SOL    HW122661   2.830   4.003  17.347  1.1594  0.6607 -1.5147
 3734SOL    HW222662   2.980   3.992  17.331 -1.0084  0.1436 -1.1916
 3735SOL     OW22663   4.234   3.257   9.992 -0.3365 -0.9207 -0.1236
 3735SOL    HW122664   4.271   3.192   9.932  0.6409  1.5436 -2.2059
 3735SOL    HW222665   4.303   3.273  10.055  0.4319  0.4801 -1.3160
 3736SOL     OW22666   1.696   4.668  17.002 -0.1400 -0.0672  0.3802
 3736SOL    HW122667   1.623   4.629  16.954  0.4984  1.0074 -1.4957
 3736SOL    HW222668   1.770   4.649  16.944 -0.5427 -0.5760  0.0361
 3737SOL     OW22669   3.444   3.847   3.064  0.5933  0.4841  0.4541
 3737SOL    HW122670   3.468   3.794   2.988  0.7166  0.2513  0.6534
 3737SOL    HW222671   3.527   3.852   3.112  1.1495 -0.5650 -0.3980
 3738SOL     OW22672   2.117   0.624   5.469 -0.2163  0.3128  0.7979
 3738SOL    HW122673   2.155   0.712   5.466  0.6783 -0.0685  0.7701
 3738SOL    HW222674   2.070   0.631   5.386  0.3131 -0.6603  0.4219
 3739SOL     OW22675   2.050   4.068   5.698  0.8227 -0.1316 -0.0010
 3739SOL    HW122676   2.061   4.063   5.603  2.6625  0.1411  0.1924
 3739SOL    HW222677   1.956   4.054   5.709  0.7787  0.1736  0.0331
 3740SOL     OW22678   3.964   1.049   7.970  0.1371 -0.7587 -0.3036
 3740SOL    HW122679   3.951   0.954   7.971  0.5664 -0.8144  0.1476
 3740SOL    HW222680   4.047   1.054   8.018 -0.4051  1.5078  0.4034
 3741SOL     OW22681   4.385   2.438  10.868 -0.3012  0.1301  0.1102
 3741SOL    HW122682   4.478   2.433  10.847 -0.0589  0.9539  1.0314
 3741SOL    HW222683   4.378   2.347  10.899  0.8357  0.0506  0.1064
 3742SOL     OW22684   2.198   0.760   7.267 -0.1152  0.0702  0.1375
 3742SOL    HW122685   2.256   0.699   7.221  0.6273 -0.7466  2.1381
 3742SOL    HW222686   2.243   0.841   7.243  0.6911 -0.0118  1.3762
 3743SOL     OW22687   2.921   4.465  15.732 -0.2129 -0.6723  0.0684
 3743SOL    HW122688   2.945   4.533  15.668  0.5434 -1.3075 -0.3316
 3743SOL    HW222689   2.918   4.515  15.814 -1.6749  0.6461 -0.7791
 3744SOL     OW22690   1.250   0.602  17.267 -0.2937  0.5956 -0.5187
 3744SOL    HW122691   1.292   0.556  17.194  0.9263  1.5050 -0.3817
 3744SOL    HW222692   1.192   0.659  17.217 -0.2282  1.0681 -0.0578
 3745SOL     OW22693   1.016   0.888   4.074 -0.3428  0.0257 -0.1243
 3745SOL    HW122694   0.994   0.963   4.020 -0.0088 -0.4660 -0.9394
 3745SOL    HW222695   1.112   0.892   4.080 -0.2417 -0.4419 -1.4788
 3746SOL     OW22696   1.266   1.976   8.141  0.3255  0.1094  0.0175
 3746SOL    HW122697   1.315   1.999   8.062 -1.5446  0.4682 -1.0360
 3746SOL    HW222698   1.278   1.881   8.151  0.2201  0.2428  1.4564
 3747SOL     OW22699   4.604   1.300  16.121 -0.4958 -0.2541  0.0136
 3747SOL    HW122700   4.613   1.282  16.214 -0.3272 -0.4374 -0.0372
 3747SOL    HW222701   4.672   1.242  16.085  1.1099  0.9011  1.1673
 3748SOL     OW22702   0.130   0.487  12.231  0.0927 -0.7763  0.1762
 3748SOL    HW122703   0.056   0.444  12.274 -1.1818  2.2639  1.0289
 3748SOL    HW222704   0.081   0.543  12.171  1.7095  1.1336  0.6492
 3749SOL     OW22705   2.928   2.354   2.738  0.6748 -0.4160 -0.6997
 3749SOL    HW122706   2.855   2.294   2.721  0.6932 -0.5114 -0.4362
 3749SOL    HW222707   2.900   2.429   2.685 -2.4425 -0.8618  0.3292
 3750SOL     OW22708   4.701   2.702   5.736 -0.3010  0.1485 -0.5692
 3750SOL    HW122709   4.712   2.693   5.831 -1.8432  0.9376 -0.3244
 3750SOL    HW222710   4.692   2.612   5.703  0.9374 -0.3868  0.5549
 3751SOL     OW22711   4.033   3.084   3.102  0.2656 -0.1188  0.3309
 3751SOL    HW122712   4.129   3.080   3.102  0.2439 -0.7192  1.7905
 3751SOL    HW222713   4.028   3.069   3.007  0.2406 -1.2131  0.4997
 3752SOL     OW22714   0.625   2.432   1.765  0.3428  0.5053 -0.0583
 3752SOL    HW122715   0.682   2.487   1.820  1.5801 -0.3826 -0.4770
 3752SOL    HW222716   0.614   2.490   1.690 -1.5508  1.2511  0.8086
 3753SOL     OW22717   4.562   4.351   7.552  0.1205 -0.0593 -0.2766
 3753SOL    HW122718   4.566   4.446   7.555  1.7728 -0.1874  1.6146
 3753SOL    HW222719   4.515   4.329   7.632  2.6634  0.3792  1.3291
 3754SOL     OW22720   4.259   3.817   9.926 -0.3873 -0.1669 -0.0589
 3754SOL    HW122721   4.171   3.813   9.963 -0.2452  0.9159  0.4068
 3754SOL    HW222722   4.287   3.728   9.943  1.8561  0.9368  1.9441
 3755SOL     OW22723   0.666   2.976   7.828 -0.0261  0.1177  0.4467
 3755SOL    HW122724   0.718   2.995   7.906 -0.0872 -0.3565  0.5988
 3755SOL    HW222725   0.613   3.057   7.826  0.9778  0.7267 -1.1944
 3756SOL     OW22726   0.169   3.686  13.862 -0.1305 -0.0626  0.2561
 3756SOL    HW122727   0.148   3.599  13.897  1.0844 -0.7618 -0.7941
 3756SOL    HW222728   0.226   3.662  13.789  0.2587 -1.0954  0.8863
 3757SOL     OW22729   3.519   0.449  15.357  0.2019  0.4052  0.1519
 3757SOL    HW122730   3.591   0.433  15.418  0.5438  0.1746 -0.3173
 3757SOL    HW222731   3.510   0.544  15.358  2.5330  0.6293 -0.5449
 3758SOL     OW22732   0.399   0.128   8.099  0.3974  0.0077  0.1309
 3758SOL    HW122733   0.351   0.200   8.058 -0.8087  0.4452  2.2885
 3758SOL    HW222734   0.482   0.160   8.135  0.4568  0.3784 -0.3432
 3759SOL     OW22735   3.805   2.439   8.487 -0.0948  0.0945  0.0370
 3759SOL    HW122736   3.852   2.517   8.515 -1.3893  1.1371 -0.6636
 3759SOL    HW222737   3.877   2.382   8.460 -2.5777 -3.5974  1.1721
 3760SOL     OW22738   0.285   1.734  14.960  0.3596  0.1208  0.4208
 3760SOL    HW122739   0.203   1.706  14.919  2.2924 -3.5500 -0.8940
 3760SOL    HW222740   0.317   1.651  14.995 -1.0839 -0.8090 -0.4790
 3761SOL     OW22741   0.711   4.365   4.185 -0.0700 -0.5220  0.0586
 3761SOL    HW122742   0.687   4.427   4.254 -1.6777  0.7893 -1.6599
 3761SOL    HW222743   0.797   4.396   4.158  0.1212 -1.8430 -0.8421
 3762SOL     OW22744   0.868   0.828   9.676  0.2974 -0.0664 -0.6042
 3762SOL    HW122745   0.849   0.788   9.761  0.9520 -0.5851 -0.7072
 3762SOL    HW222746   0.827   0.915   9.685 -0.4381 -0.4248 -0.4867
 3763SOL     OW22747   2.793   2.937   6.874  0.1443 -0.4458 -0.4100
 3763SOL    HW122748   2.735   2.865   6.899  1.4918 -0.1076  3.6759
 3763SOL    HW222749   2.718   2.991   6.850  1.3849  1.5875  0.2781
 3764SOL     OW22750   2.603   1.546  13.935  0.5171  1.2242 -0.6240
 3764SOL    HW122751   2.588   1.454  13.914 -2.2775  2.0048 -2.0718
 3764SOL    HW222752   2.699   1.547  13.936  0.5147  1.5801 -0.8670
 3765SOL     OW22753   3.245   2.745   3.492 -0.1621  0.2566  0.1599
 3765SOL    HW122754   3.288   2.787   3.417 -3.1120  0.4872 -1.3880
 3765SOL    HW222755   3.300   2.785   3.559  0.9141  0.8982 -1.1098
 3766SOL     OW22756   1.601   1.986   6.096  0.2103  0.4675  0.3767
 3766SOL    HW122757   1.563   2.019   6.014  1.4702 -0.9378 -0.7872
 3766SOL    HW222758   1.535   2.027   6.152 -0.5393  2.1876 -1.7415
 3767SOL     OW22759   3.920   0.665   7.385  0.1862 -0.5103  0.5081
 3767SOL    HW122760   3.960   0.586   7.421  1.2662  0.8526  2.3069
 3767SOL    HW222761   3.976   0.689   7.311  1.1566 -0.0937  1.3743
 3768SOL     OW22762   0.855   4.054   9.827  0.1894  0.1229 -0.7181
 3768SOL    HW122763   0.940   4.098   9.819  0.2968  0.1785  0.7591
 3768SOL    HW222764   0.808   4.092   9.753  0.0902  1.3179 -0.0400
 3769SOL     OW22765   0.169   2.778   4.700 -0.3189 -0.3346  0.1163
 3769SOL    HW122766   0.200   2.838   4.767 -1.2144 -0.6787  0.8378
 3769SOL    HW222767   0.160   2.829   4.619  0.0165  0.7610  0.7774
 3770SOL     OW22768   0.975   1.760  17.041  0.5092 -0.3124  0.0333
 3770SOL    HW122769   1.009   1.675  17.013  2.5501  0.5176 -0.0369
 3770SOL    HW222770   0.988   1.769  17.136  1.5594  0.1007 -0.1443
 3771SOL     OW22771   1.451   0.238   1.125 -0.0301 -0.2311 -0.0219
 3771SOL    HW122772   1.369   0.261   1.081 -1.0955 -1.7092  1.1612
 3771SOL    HW222773   1.411   0.209   1.207 -1.8112 -1.9815 -1.4869
 3772SOL     OW22774   2.558   2.628   3.079  0.1230 -0.0678 -0.3686
 3772SOL    HW122775   2.466   2.654   3.086  0.0418  0.2404 -2.5640
 3772SOL    HW222776   2.594   2.680   3.152 -0.8951 -2.7461  2.0153
 3773SOL     OW22777   4.277   0.644   0.889 -0.4394 -0.2365 -0.1870
 3773SOL    HW122778   4.295   0.699   0.964 -3.0120  0.7094 -0.2513
 3773SOL    HW222779   4.293   0.556   0.925  0.7789  0.6855  1.4867
 3774SOL     OW22780   0.930   2.129   3.426  0.7168  0.7702  0.7905
 3774SOL    HW122781   0.910   2.183   3.349  1.5161  0.1148  0.1121
 3774SOL    HW222782   0.944   2.050   3.373 -1.2020  0.2073  1.1264
 3775SOL     OW22783   3.594   1.758   7.143  0.0937 -0.9937 -0.0295
 3775SOL    HW122784   3.514   1.710   7.123 -1.0058  1.5607 -1.6528
 3775SOL    HW222785   3.583   1.804   7.226 -1.7392 -1.0150 -0.2717
 3776SOL     OW22786   1.083   2.707   4.396 -0.5551  0.1411 -0.7837
 3776SOL    HW122787   1.075   2.758   4.477 -2.7117 -0.9829 -0.3009
 3776SOL    HW222788   1.126   2.627   4.427 -1.7057 -0.1907 -0.0489
 3777SOL     OW22789   4.212   4.117  14.876  0.5733  0.6244  1.0217
 3777SOL    HW122790   4.245   4.130  14.964  0.0310 -0.3059  1.3594
 3777SOL    HW222791   4.195   4.206  14.846 -0.9142 -0.0176 -0.0614
 3778SOL     OW22792   4.417   3.758  16.682  0.8399  0.3721 -0.0126
 3778SOL    HW122793   4.422   3.840  16.730 -0.0290  0.7158 -0.5039
 3778SOL    HW222794   4.328   3.766  16.646  1.4876 -0.5158 -1.8521
 3779SOL     OW22795   3.975   2.234   5.015 -0.1749 -0.0285 -0.0860
 3779SOL    HW122796   4.031   2.198   5.083  0.6149  1.6519  0.1488
 3779SOL    HW222797   3.888   2.216   5.051  0.2150  0.1341  0.9293
 3780SOL     OW22798   4.317   3.270   3.194  0.6209  0.3828  0.2635
 3780SOL    HW122799   4.360   3.221   3.264 -1.5466  1.7179  2.5491
 3780SOL    HW222800   4.300   3.193   3.140  1.6113 -0.8124  1.6578
 3781SOL     OW22801   2.968   2.668   7.743  0.3332  0.1119  0.0807
 3781SOL    HW122802   2.977   2.608   7.817  3.1088 -1.1471 -1.2998
 3781SOL    HW222803   3.030   2.736   7.765  0.0734  0.3139  0.1904
 3782SOL     OW22804   2.734   3.843   9.638  0.2407 -0.0286 -0.3717
 3782SOL    HW122805   2.744   3.764   9.691  0.8342 -0.6544 -1.4200
 3782SOL    HW222806   2.639   3.846   9.650  0.0139 -2.1936 -1.7031
 3783SOL     OW22807   3.977   3.842   6.907  0.1589 -0.3222  0.4081
 3783SOL    HW122808   3.894   3.889   6.896 -0.4159 -1.3016  0.5316
 3783SOL    HW222809   4.027   3.869   6.830  1.3313  0.5413  1.4794
 3784SOL     OW22810   1.264   3.229   7.692 -0.4409  0.1409 -0.8086
 3784SOL    HW122811   1.277   3.320   7.718  1.2862  0.0899 -1.5135
 3784SOL    HW222812   1.212   3.194   7.764  0.2837  0.2545 -0.2250
 3785SOL     OW22813   1.975   1.433  16.382 -0.0686 -0.0357  0.9698
 3785SOL    HW122814   2.011   1.487  16.452 -0.4483 -0.6716  1.6560
 3785SOL    HW222815   2.040   1.363  16.383 -0.5143 -0.4236  2.2071
 3786SOL     OW22816   0.184   4.245   8.529  0.7497 -0.1144 -0.2751
 3786SOL    HW122817   0.166   4.310   8.597  1.8081 -1.5056  1.3123
 3786SOL    HW222818   0.098   4.217   8.496  1.1106 -0.3591 -1.0098
 3787SOL     OW22819   0.088   0.588  14.012  0.4106 -0.1153 -0.4464
 3787SOL    HW122820   0.004   0.628  13.991 -0.2805 -1.3913 -0.1512
 3787SOL    HW222821   0.055   0.498  14.016  0.6848 -0.1749  0.4842
 3788SOL     OW22822   0.186   0.932   0.697  0.8092 -1.0932  0.3597
 3788SOL    HW122823   0.161   1.024   0.699  0.9633 -0.9804 -2.6857
 3788SOL    HW222824   0.259   0.938   0.635  1.3300  0.5756  1.1424
 3789SOL     OW22825   1.363   1.396   0.919 -0.2730  0.4919  0.2349
 3789SOL    HW122826   1.355   1.404   1.014 -3.0254 -1.2513  0.1380
 3789SOL    HW222827   1.331   1.306   0.928  0.0294  0.6731  2.8735
 3790SOL     OW22828   2.860   1.556  13.952 -0.1960  0.4006  0.3384
 3790SOL    HW122829   2.936   1.599  13.991  1.2240 -0.6016 -1.3222
 3790SOL    HW222830   2.887   1.532  13.863 -3.2601 -0.0028 -0.5000
 3791SOL     OW22831   3.755   4.307   3.668  0.2132 -0.0710  0.5127
 3791SOL    HW122832   3.776   4.321   3.760  0.7112 -0.1544  0.4095
 3791SOL    HW222833   3.835   4.337   3.624 -0.2216  0.6263  0.1893
 3792SOL     OW22834   2.359   3.346   0.874  0.5679 -0.0467  0.4942
 3792SOL    HW122835   2.368   3.272   0.933 -1.3814 -1.2390 -0.7317
 3792SOL    HW222836   2.281   3.324   0.824  2.4188  0.2041 -2.5560
 3793SOL     OW22837   1.372   4.515  10.639 -0.6528 -0.1049  0.1060
 3793SOL    HW122838   1.427   4.484  10.567 -0.3554  2.0695 -0.5989
 3793SOL    HW222839   1.373   4.608  10.618 -0.2316 -0.5440 -1.7613
 3794SOL     OW22840   4.057   0.827   3.446  0.2101 -0.4006  0.2769
 3794SOL    HW122841   4.030   0.913   3.477 -0.3928 -0.4032 -0.2495
 3794SOL    HW222842   3.971   0.794   3.419 -0.5150  1.2587  0.6017
 3795SOL     OW22843   4.628   3.505   3.941  0.2604 -0.1046 -0.0780
 3795SOL    HW122844   4.609   3.437   3.877  0.8935  0.7164 -1.1386
 3795SOL    HW222845   4.636   3.448   4.018  0.7758  0.6055  0.3971
 3796SOL     OW22846   1.571   0.348   0.393  0.2240  0.0245 -0.2531
 3796SOL    HW122847   1.516   0.372   0.468 -1.2905 -1.4680 -0.8920
 3796SOL    HW222848   1.545   0.407   0.323 -1.8677  0.4788  0.9188
 3797SOL     OW22849   1.757   0.909  13.683  0.2972  0.0895 -0.2318
 3797SOL    HW122850   1.828   0.847  13.702  0.8344  1.5652  2.4807
 3797SOL    HW222851   1.733   0.934  13.772  0.4116  0.8503 -0.4165
 3798SOL     OW22852   1.241   4.235   2.596  0.3933 -0.7279 -0.5833
 3798SOL    HW122853   1.186   4.172   2.548  0.3557 -0.1290 -1.3296
 3798SOL    HW222854   1.273   4.285   2.521  1.2471  1.1687  1.0505
 3799SOL     OW22855   1.735   0.126   8.522 -0.0484  0.2515 -0.3831
 3799SOL    HW122856   1.816   0.138   8.572  0.2105 -1.4215 -0.3952
 3799SOL    HW222857   1.699   0.049   8.566  2.6530 -1.4816 -1.2161
 3800SOL     OW22858   3.360   4.333  17.686 -0.9287  0.6680  0.3074
 3800SOL    HW122859   3.338   4.424   0.017 -0.4425  0.6814  0.7999
 3800SOL    HW222860   3.399   4.343  17.600 -0.3516  1.1400  0.6297
 3801SOL     OW22861   4.234   3.465   2.902 -0.5318 -0.2013 -0.4252
 3801SOL    HW122862   4.179   3.498   2.831 -1.2872 -1.8253 -0.6042
 3801SOL    HW222863   4.194   3.501   2.982 -3.5842 -2.1628 -1.0668
 3802SOL     OW22864   2.018   2.753   3.020  0.6968 -0.3695 -0.1500
 3802SOL    HW122865   1.933   2.766   3.061  1.5977  3.0558  0.6299
 3802SOL    HW222866   2.077   2.732   3.093  1.9964  1.2554 -0.7389
 3803SOL     OW22867   4.560   3.457   6.153 -0.5004 -0.2796 -0.1265
 3803SOL    HW122868   4.580   3.364   6.144 -2.0661 -0.3533 -2.7599
 3803SOL    HW222869   4.500   3.462   6.227 -0.4054 -1.2117  0.0099
 3804SOL     OW22870   0.823   2.322   2.947 -0.0104  0.2691 -0.1091
 3804SOL    HW122871   0.898   2.283   2.902 -0.7011 -0.0958 -0.9275
 3804SOL    HW222872   0.757   2.302   2.882  0.4177 -0.4207 -0.3232
 3805SOL     OW22873   2.082   2.796   1.489 -0.8986 -0.3171  0.6649
 3805SOL    HW122874   2.172   2.829   1.488 -1.7451  2.0580  1.8156
 3805SOL    HW222875   2.095   2.704   1.466  0.5217  0.3032 -0.9688
 3806SOL     OW22876   2.764   2.891  14.920 -0.1837 -0.4144 -0.1008
 3806SOL    HW122877   2.856   2.911  14.934 -0.0445 -0.8979 -0.3215
 3806SOL    HW222878   2.729   2.975  14.951 -2.0021 -1.6703  1.3007
 3807SOL     OW22879   0.230   4.333   0.999 -0.3130  0.1298  0.0524
 3807SOL    HW122880   0.153   4.389   1.010  0.4430  1.1581  0.0528
 3807SOL    HW222881   0.303   4.394   0.990 -1.4458  1.3698 -0.5469
 3808SOL     OW22882   0.387   2.659   5.761 -0.1913  0.0680 -0.2197
 3808SOL    HW122883   0.325   2.643   5.832 -1.9384 -0.0594 -1.7774
 3808SOL    HW222884   0.448   2.585   5.760  0.0250  0.2803 -1.6665
 3809SOL     OW22885   4.513   0.829  17.538  0.1625  0.1020 -0.4044
 3809SOL    HW122886   4.452   0.756  17.554 -0.2335  0.2601 -1.1743
 3809SOL    HW222887   4.590   0.787  17.500 -0.4716 -2.1678  0.8485
 3810SOL     OW22888   3.657   2.815   7.694  0.6162 -0.5365  0.1288
 3810SOL    HW122889   3.578   2.763   7.684 -0.0837  0.3319  1.1215
 3810SOL    HW222890   3.631   2.889   7.749  0.2390 -0.5248 -0.0649
 3811SOL     OW22891   0.771   4.686   4.813 -0.3902 -0.2154  0.0016
 3811SOL    HW122892   0.737   0.053   4.809  0.6502  0.1442 -0.8304
 3811SOL    HW222893   0.864   4.704   4.830 -0.9403  2.2237  0.3786
 3812SOL     OW22894   2.221   3.092   5.308  0.3962  0.3024 -0.0537
 3812SOL    HW122895   2.263   3.093   5.222  0.9268  2.3634  0.2421
 3812SOL    HW222896   2.150   3.155   5.299 -0.5135 -0.6027  0.6808
 3813SOL     OW22897   0.327   3.598  13.421  0.1570  0.3467 -0.1186
 3813SOL    HW122898   0.255   3.628  13.366 -0.8969 -1.3365  0.3552
 3813SOL    HW222899   0.370   3.534  13.365  2.1690  0.9292  0.7629
 3814SOL     OW22900   3.762   2.399   8.016 -0.2329  0.1626 -0.3347
 3814SOL    HW122901   3.830   2.465   8.031 -0.7893  0.7354 -0.2869
 3814SOL    HW222902   3.773   2.341   8.091 -0.4805  0.1685 -0.2919
 3815SOL     OW22903   4.072   3.341   5.617  0.4596  0.4029 -0.5470
 3815SOL    HW122904   4.047   3.416   5.563 -3.6439 -0.1529  0.5997
 3815SOL    HW222905   4.128   3.296   5.554  1.4223 -2.3709  2.2444
 3816SOL     OW22906   1.814   1.634   1.739  0.3678  0.5056 -0.0614
 3816SOL    HW122907   1.858   1.711   1.775 -0.7474  1.1605 -0.1041
 3816SOL    HW222908   1.745   1.620   1.803 -0.4916 -0.0675 -1.1089
 3817SOL     OW22909   1.514   0.066   0.407 -0.8118 -0.3916  0.3065
 3817SOL    HW122910   1.542   0.155   0.385 -1.1469 -0.1456  0.8710
 3817SOL    HW222911   1.419   0.064   0.392 -1.0913 -0.6392  2.0986
 3818SOL     OW22912   3.881   2.661   0.661 -0.0105 -0.3307 -0.4582
 3818SOL    HW122913   3.938   2.596   0.702  1.1435  1.7157  1.1787
 3818SOL    HW222914   3.818   2.601   0.621 -0.3698 -0.7560  0.7549
 3819SOL     OW22915   2.298   1.565   7.902 -0.2229 -0.3290 -0.1955
 3819SOL    HW122916   2.374   1.595   7.853 -0.7071  0.3802 -0.5123
 3819SOL    HW222917   2.298   1.471   7.884 -1.2209 -0.6388  1.4801
 3820SOL     OW22918   4.581   0.605   5.629  0.6294 -0.3761 -0.4478
 3820SOL    HW122919   4.515   0.658   5.585  0.4174 -0.6159 -0.4174
 3820SOL    HW222920   4.576   0.524   5.577 -1.5699 -0.0701 -0.7110
 3821SOL     OW22921   3.505   3.542   2.321  0.0867  0.6522  0.2248
 3821SOL    HW122922   3.496   3.516   2.229 -0.0962 -0.9590  0.6986
 3821SOL    HW222923   3.487   3.636   2.319  1.4580  0.8595 -2.8466
 3822SOL     OW22924   4.385   1.775   0.484 -0.0708  0.6047  0.4966
 3822SOL    HW122925   4.414   1.849   0.431 -2.4820 -0.7227 -2.6598
 3822SOL    HW222926   4.319   1.812   0.543 -1.1492  0.7400 -0.7986
 3823SOL     OW22927   4.460   1.091  17.579 -0.1663 -0.5043  0.1229
 3823SOL    HW122928   4.548   1.129  17.570  0.7568 -2.4629  0.9806
 3823SOL    HW222929   4.472   0.998  17.561 -1.4996 -0.2358 -2.1756
 3824SOL     OW22930   2.418   4.305   3.689 -0.1118 -0.3502 -0.4023
 3824SOL    HW122931   2.415   4.354   3.606 -1.2645  0.3868  0.0722
 3824SOL    HW222932   2.375   4.362   3.753  0.0359  2.0748 -2.4638
 3825SOL     OW22933   3.001   3.418   2.043 -0.5304 -0.0370  0.1044
 3825SOL    HW122934   3.008   3.323   2.047  0.9881  0.0238 -1.3278
 3825SOL    HW222935   3.047   3.437   1.961 -2.1190 -1.5810 -1.1395
 3826SOL     OW22936   3.187   3.871  17.520  0.6103  0.1288 -0.3974
 3826SOL    HW122937   3.231   3.931  17.460  0.3812 -1.0006 -1.6864
 3826SOL    HW222938   3.132   3.931  17.571 -0.2317 -0.3432 -0.7577
 3827SOL     OW22939   2.377   0.315   8.261 -0.1858 -0.3447 -0.2037
 3827SOL    HW122940   2.471   0.326   8.252  0.0806 -2.0535  0.4643
 3827SOL    HW222941   2.371   0.239   8.202  1.8930  0.2621 -1.1899
 3828SOL     OW22942   3.964   2.641   8.592 -0.1308 -0.4322  0.1060
 3828SOL    HW122943   3.954   2.725   8.549  1.1347  0.3204  1.2761
 3828SOL    HW222944   4.059   2.643   8.604 -0.1912  0.5858  0.3676
 3829SOL     OW22945   1.517   0.316  15.424 -0.5957 -0.2564 -0.0117
 3829SOL    HW122946   1.448   0.252  15.407 -0.9080 -0.1540  0.9126
 3829SOL    HW222947   1.551   0.298  15.511 -0.9140  1.8399  0.5550
 3830SOL     OW22948   0.435   2.604   9.418  0.1157  0.6375  0.4508
 3830SOL    HW122949   0.504   2.657   9.378 -0.9726  1.6907 -0.0339
 3830SOL    HW222950   0.450   2.643   9.504 -1.2159 -2.1434  1.9545
 3831SOL     OW22951   4.075   2.363   3.936 -0.1019 -0.3778  0.3389
 3831SOL    HW122952   3.985   2.332   3.932 -0.4885  0.9825 -1.7812
 3831SOL    HW222953   4.068   2.459   3.937  1.5794 -0.2572  0.4994
 3832SOL     OW22954   1.713   3.244   3.429  0.6098 -0.5079 -0.1667
 3832SOL    HW122955   1.746   3.229   3.518  0.3142  1.2990  0.2413
 3832SOL    HW222956   1.719   3.157   3.389 -1.7137 -0.1021 -1.3990
 3833SOL     OW22957   0.131   4.547   5.419 -0.4503 -0.2480 -0.0035
 3833SOL    HW122958   0.218   4.526   5.385 -0.4624  1.4195 -1.0677
 3833SOL    HW222959   0.137   4.528   5.512  1.4451  0.0693 -0.0648
 3834SOL     OW22960   3.131   2.269   6.321 -0.4999  0.1916 -0.0201
 3834SOL    HW122961   3.083   2.317   6.389  0.3727 -0.6336  1.1732
 3834SOL    HW222962   3.202   2.240   6.378  0.5365  2.3184 -0.2346
 3835SOL     OW22963   3.229   3.488   4.259  0.3664  0.5813 -0.1379
 3835SOL    HW122964   3.168   3.464   4.189  2.1516  1.2399 -1.9442
 3835SOL    HW222965   3.296   3.545   4.220  0.5089  0.0647 -0.6404
 3836SOL     OW22966   2.095   4.006   5.433  0.7641 -0.0750 -0.1502
 3836SOL    HW122967   2.001   3.995   5.416  0.4401  3.1231 -0.3294
 3836SOL    HW222968   2.098   4.076   5.368  0.9925 -0.1878 -0.2605
 3837SOL     OW22969   0.403   0.231  12.805  0.1982 -0.1441  0.1058
 3837SOL    HW122970   0.315   0.221  12.767 -0.2383 -2.2178  1.6155
 3837SOL    HW222971   0.391   0.184  12.888 -3.0456  0.5203  0.0143
 3838SOL     OW22972   0.114   3.687   8.434  0.1721  0.3805 -0.4930
 3838SOL    HW122973   0.124   3.782   8.437 -1.9480  0.5866 -0.1315
 3838SOL    HW222974   0.189   3.662   8.379  0.0280 -0.7443 -0.1719
 3839SOL     OW22975   0.698   4.108   3.309 -0.0495 -0.5197  0.0297
 3839SOL    HW122976   0.616   4.067   3.335 -0.6353  0.3960 -0.3774
 3839SOL    HW222977   0.711   4.062   3.226  0.9310  0.2687 -0.2525
 3840SOL     OW22978   1.583   4.187   3.240  0.4195  0.0653 -0.1866
 3840SOL    HW122979   1.507   4.148   3.197  0.7747 -0.2415 -0.5289
 3840SOL    HW222980   1.612   4.119   3.301 -1.9696 -0.4113  0.4282
 3841SOL     OW22981   3.388   1.843   2.530  0.9891  0.9778 -0.3189
 3841SOL    HW122982   3.416   1.901   2.600 -2.4990  1.1527  0.9063
 3841SOL    HW222983   3.310   1.894   2.510 -0.1170 -0.2804  0.8414
 3842SOL     OW22984   3.292   2.622  15.824 -0.9478 -0.4152 -0.2074
 3842SOL    HW122985   3.201   2.618  15.795 -1.7998 -2.8273  2.8341
 3842SOL    HW222986   3.328   2.549  15.774 -1.3636 -0.1699 -0.8697
 3843SOL     OW22987   2.186   0.445  13.785 -0.5351 -0.5180  0.2895
 3843SOL    HW122988   2.255   0.472  13.846 -0.0003  1.0207 -1.0180
 3843SOL    HW222989   2.127   0.392  13.839  0.7568 -1.9431  0.3151
 3844SOL     OW22990   4.553   0.441   7.899 -0.0497 -0.1871 -0.7658
 3844SOL    HW122991   4.463   0.465   7.921 -0.5329 -1.9978 -0.7732
 3844SOL    HW222992   4.600   0.515   7.936 -0.0933 -0.4648 -0.1554
 3845SOL     OW22993   2.605   1.339   3.096 -0.7420 -0.3623 -0.4576
 3845SOL    HW122994   2.680   1.367   3.149 -0.2195 -1.3240 -0.6924
 3845SOL    HW222995   2.587   1.406   3.030 -1.4411 -1.2691 -1.1867
 3846SOL     OW22996   3.607   2.367  11.148  0.4695  0.2030  0.0561
 3846SOL    HW122997   3.575   2.285  11.110 -0.6103  0.4114  0.5033
 3846SOL    HW222998   3.699   2.352  11.167  0.1785 -1.3251  0.2512
 3847SOL     OW22999   2.386   4.077   3.848 -0.1971 -0.4558 -0.2125
 3847SOL    HW123000   2.382   4.012   3.777  1.1069  0.1572 -0.8639
 3847SOL    HW223001   2.388   4.162   3.804  2.0691 -0.1249  0.5335
 3848SOL     OW23002   4.508   3.100   9.361 -0.0683  0.2051 -0.3896
 3848SOL    HW123003   4.440   3.120   9.426  0.6115  0.0272  0.3730
 3848SOL    HW223004   4.556   3.035   9.412 -0.3142 -0.6089 -1.2134
 3849SOL     OW23005   0.800   0.253   2.568  0.6779  0.4972  0.1951
 3849SOL    HW123006   0.794   0.258   2.473  2.3353 -0.4891  0.0433
 3849SOL    HW223007   0.848   0.171   2.581  0.3395  0.2842  0.1106
 3850SOL     OW23008   0.675   2.434  13.453  0.4372 -0.1812 -0.3393
 3850SOL    HW123009   0.631   2.488  13.520  0.8318  0.2447 -0.4278
 3850SOL    HW223010   0.617   2.358  13.452 -1.3245  1.0990  1.2968
 3851SOL     OW23011   3.431   4.184   6.176 -0.2703  0.2300  0.3671
 3851SOL    HW123012   3.356   4.149   6.128 -1.1029  2.4636  0.0295
 3851SOL    HW223013   3.502   4.123   6.158 -1.8885 -1.8380  0.9445
 3852SOL     OW23014   2.530   1.900   6.741  0.0172 -0.0077 -0.0681
 3852SOL    HW123015   2.588   1.904   6.666  0.0601  1.5339  0.0489
 3852SOL    HW223016   2.473   1.830   6.709  1.3166 -0.9240 -0.3594
 3853SOL     OW23017   4.359   3.351   2.003 -0.2820  0.0917  0.2216
 3853SOL    HW123018   4.444   3.387   1.977 -1.8877  2.7573 -1.2254
 3853SOL    HW223019   4.313   3.431   2.026  0.8317  0.5123  0.9597
 3854SOL     OW23020   1.963   1.683   3.982 -0.2314 -0.6470  0.2036
 3854SOL    HW123021   2.039   1.646   4.027  1.4686  0.7819 -1.5134
 3854SOL    HW223022   1.952   1.749   4.051 -2.7604 -0.3265 -0.5056
 3855SOL     OW23023   0.186   0.631  14.271  0.3720 -0.3622  0.0454
 3855SOL    HW123024   0.109   0.583  14.301 -0.9841  2.6251  1.3387
 3855SOL    HW223025   0.162   0.632  14.178 -1.3644  1.5808  0.5052
 3856SOL     OW23026   1.433   3.881   3.655 -0.1114  0.1570  0.5578
 3856SOL    HW123027   1.518   3.842   3.674 -0.1684 -0.3940 -0.3328
 3856SOL    HW223028   1.433   3.866   3.561  2.2217  0.4002  0.5173
 3857SOL     OW23029   2.463   2.516   7.707  0.4343 -0.2961  0.7904
 3857SOL    HW123030   2.405   2.591   7.695  0.1154 -0.7600 -0.4937
 3857SOL    HW223031   2.548   2.556   7.690 -1.1994  1.6064 -2.8911
 3858SOL     OW23032   1.528   3.556  13.993 -0.2111 -1.2179 -0.4342
 3858SOL    HW123033   1.452   3.587  14.043 -1.0985 -1.8713 -1.3896
 3858SOL    HW223034   1.501   3.467  13.971  0.3623 -1.7286  0.8804
 3859SOL     OW23035   0.996   2.009  15.811 -0.0165  0.2440  0.2807
 3859SOL    HW123036   0.986   2.052  15.896 -3.7005 -1.9177  0.9078
 3859SOL    HW223037   0.922   2.045  15.763 -0.0526  1.3820  1.1771
 3860SOL     OW23038   3.406   0.208  15.740 -0.0878 -0.3446 -0.1868
 3860SOL    HW123039   3.480   0.267  15.728 -0.5892  0.1028 -1.0415
 3860SOL    HW223040   3.336   0.262  15.778 -0.2561 -0.2354 -0.6599
 3861SOL     OW23041   1.198   2.294   6.816 -0.1764 -0.1770 -0.7869
 3861SOL    HW123042   1.231   2.353   6.884  0.6689 -1.4738 -0.0644
 3861SOL    HW223043   1.115   2.333   6.788 -1.3058 -1.3465  0.8774
 3862SOL     OW23044   4.172   2.269   3.009 -0.3641 -0.2032  0.1837
 3862SOL    HW123045   4.236   2.297   2.944  1.0110 -2.6137  0.5131
 3862SOL    HW223046   4.128   2.204   2.955  1.3720 -1.3548  0.1585
 3863SOL     OW23047   1.793   2.483   8.628 -1.1024 -0.4041 -0.0947
 3863SOL    HW123048   1.786   2.576   8.648  0.5392 -0.5532  1.1929
 3863SOL    HW223049   1.887   2.469   8.625 -0.7279  1.4203  3.7630
 3864SOL     OW23050   2.291   4.601   2.535 -0.5700  0.3924 -0.2418
 3864SOL    HW123051   2.299   4.625   2.443  0.0945 -1.1877 -0.5943
 3864SOL    HW223052   2.227   4.530   2.524  0.4073 -0.2599 -1.7477
 3865SOL     OW23053   4.179   2.860   1.113 -0.3024  0.2378 -0.5527
 3865SOL    HW123054   4.269   2.830   1.122 -0.4302 -0.2576 -0.9227
 3865SOL    HW223055   4.187   2.954   1.094  0.3244  0.8847  2.7907
 3866SOL     OW23056   3.240   2.399   8.329 -0.2107  0.6103 -0.6097
 3866SOL    HW123057   3.294   2.368   8.402  0.8837  2.5514 -0.5861
 3866SOL    HW223058   3.252   2.324   8.271 -0.6731  0.8517 -1.0069
 3867SOL     OW23059   2.418   4.049  14.638 -0.5542 -0.5407  0.1775
 3867SOL    HW123060   2.402   4.142  14.619 -1.8870 -1.1103 -1.5524
 3867SOL    HW223061   2.512   4.055  14.653 -0.6113 -0.6335  0.5506
 3868SOL     OW23062   0.825   1.668   1.046 -0.0348  0.5814  0.6506
 3868SOL    HW123063   0.806   1.694   0.956 -1.6906 -1.5861  0.3767
 3868SOL    HW223064   0.742   1.696   1.086 -0.3369 -1.0929  1.1897
 3869SOL     OW23065   2.441   3.341   5.511  0.1065  0.4145  0.0401
 3869SOL    HW123066   2.475   3.362   5.598  1.5923 -0.3097 -0.3733
 3869SOL    HW223067   2.525   3.329   5.467  0.6836  0.8917  1.0071
 3870SOL     OW23068   1.493   1.474  12.869 -0.8658 -0.3789 -0.0424
 3870SOL    HW123069   1.532   1.499  12.953 -0.4178  1.7449 -0.8679
 3870SOL    HW223070   1.514   1.381  12.863 -0.0933 -0.1519 -0.9684
 3871SOL     OW23071   0.760   3.771  11.116  0.1039 -0.3083  0.7308
 3871SOL    HW123072   0.744   3.685  11.156  0.8229  0.1398  1.9736
 3871SOL    HW223073   0.845   3.767  11.072 -0.1496 -0.8305  0.2873
 3872SOL     OW23074   0.863   0.756   4.485  0.2013  0.0616  0.0390
 3872SOL    HW123075   0.931   0.767   4.419 -0.2462 -0.6877 -0.5534
 3872SOL    HW223076   0.795   0.820   4.463  1.8264  2.1047  0.9626
 3873SOL     OW23077   3.695   4.130   4.302  0.5321  0.4053  0.0475
 3873SOL    HW123078   3.670   4.206   4.248  1.5966  0.4677 -0.3633
 3873SOL    HW223079   3.786   4.108   4.285  1.1888  3.4339 -0.3754
 3874SOL     OW23080   1.692   3.476   8.877 -0.3077 -0.0332 -0.3356
 3874SOL    HW123081   1.600   3.493   8.899 -0.7534 -0.4263 -1.9058
 3874SOL    HW223082   1.682   3.417   8.802  2.7455  0.1532 -0.8701
 3875SOL     OW23083   3.507   3.427  15.177  0.3886  0.0608 -0.0676
 3875SOL    HW123084   3.473   3.363  15.114 -1.0889  1.9089 -1.1539
 3875SOL    HW223085   3.497   3.507  15.125  2.7145  1.1737  1.2203
 3876SOL     OW23086   4.312   0.053   6.429  0.3325  0.0206 -0.0079
 3876SOL    HW123087   4.400   0.086   6.448  0.1705  0.5878 -0.2421
 3876SOL    HW223088   4.264   0.124   6.387  1.1363  1.2820  1.2200
 3877SOL     OW23089   4.204   4.277   7.505 -0.2545  0.3202  0.0448
 3877SOL    HW123090   4.230   4.286   7.413  0.3130 -0.6654  0.1114
 3877SOL    HW223091   4.160   4.361   7.513  0.1534  0.4750  0.6459
 3878SOL     OW23092   3.687   4.559   5.797 -0.5275 -0.7622  0.4795
 3878SOL    HW123093   3.777   4.570   5.766 -0.9851 -1.6412 -1.1786
 3878SOL    HW223094   3.641   4.625   5.744  0.0108  0.1566  1.1477
 3879SOL     OW23095   2.733   0.637  13.579  0.0018 -0.0546 -0.2254
 3879SOL    HW123096   2.758   0.728  13.561  0.0310  0.4311  2.2996
 3879SOL    HW223097   2.765   0.585  13.505 -1.3632 -0.8392 -0.2782
 3880SOL     OW23098   4.296   4.707   8.502 -0.0973 -0.0294  0.6803
 3880SOL    HW123099   4.388   4.685   8.491 -0.4847 -0.5729 -1.3290
 3880SOL    HW223100   4.294   4.687   8.596  2.1825 -0.6741  0.6002
 3881SOL     OW23101   2.874   4.154  12.385 -0.4251 -0.4202  0.3412
 3881SOL    HW123102   2.871   4.208  12.464 -1.5095  0.3857 -0.2563
 3881SOL    HW223103   2.785   4.120  12.392 -0.9314  1.1427  1.3177
 3882SOL     OW23104   3.036   0.721   0.305  0.3047 -0.2443 -0.4460
 3882SOL    HW123105   3.125   0.709   0.272  0.3735  1.2641 -0.8130
 3882SOL    HW223106   2.990   0.692   0.226 -0.4284  1.2110 -0.5556
 3883SOL     OW23107   3.678   3.974   8.927  0.0745  0.0637 -0.2460
 3883SOL    HW123108   3.737   3.940   8.994  0.6599  1.1637 -0.2087
 3883SOL    HW223109   3.671   4.060   8.968 -0.7570  0.3380 -0.9456
 3884SOL     OW23110   3.752   0.108   2.573  0.2985 -0.6203 -0.5249
 3884SOL    HW123111   3.732   0.200   2.553 -1.2910 -0.9732 -0.5759
 3884SOL    HW223112   3.825   0.115   2.635 -0.5310 -1.9407  0.6104
 3885SOL     OW23113   3.978   2.575   6.781  0.6477  0.1304  0.8075
 3885SOL    HW123114   4.035   2.645   6.811  1.1887  0.7183 -1.6198
 3885SOL    HW223115   4.048   2.512   6.764 -0.4463 -0.8325 -0.1155
 3886SOL     OW23116   0.213   3.251   4.263  0.3508 -0.5632  0.4208
 3886SOL    HW123117   0.128   3.222   4.297 -0.6094 -0.5126 -1.9399
 3886SOL    HW223118   0.260   3.278   4.342 -2.1832  0.1749  1.6757
 3887SOL     OW23119   0.402   4.068   1.964  0.0718 -0.4380 -0.6299
 3887SOL    HW123120   0.403   3.975   1.989  1.7848  0.2609  1.8509
 3887SOL    HW223121   0.479   4.101   2.010 -0.9330 -0.4192  1.0114
 3888SOL     OW23122   1.215   3.180   2.299  0.0295 -0.4767 -0.1458
 3888SOL    HW123123   1.153   3.249   2.323  0.0849 -0.1433 -0.9472
 3888SOL    HW223124   1.270   3.232   2.241  0.5545  0.1556  0.9229
 3889SOL     OW23125   4.634   1.900   7.333 -0.5734 -0.6937 -0.4827
 3889SOL    HW123126   4.594   1.921   7.418 -2.5106 -1.1846 -1.2616
 3889SOL    HW223127   0.005   1.902   7.358 -1.2249  3.4134  1.7329
 3890SOL     OW23128   3.431   1.667   7.513  0.2231  0.2610  0.3073
 3890SOL    HW123129   3.395   1.694   7.597 -0.7020  0.9762 -0.3290
 3890SOL    HW223130   3.463   1.752   7.482  1.2841 -0.4083 -0.4527
 3891SOL     OW23131   4.603   2.972   8.326  0.3973  0.1137  0.3735
 3891SOL    HW123132   4.680   3.008   8.282 -0.0754 -0.1884 -0.6989
 3891SOL    HW223133   4.645   2.939   8.406  0.3818  0.4266  0.5083
 3892SOL     OW23134   3.758   1.808   9.177  0.6009  0.0657  0.4059
 3892SOL    HW123135   3.704   1.885   9.159 -0.7540 -0.4634  2.2521
 3892SOL    HW223136   3.749   1.807   9.272  0.4816 -0.2725  0.3901
 3893SOL     OW23137   3.371   4.386   6.973 -0.3170  0.5485 -0.5335
 3893SOL    HW123138   3.357   4.469   6.928  0.0620  1.1083  0.3769
 3893SOL    HW223139   3.417   4.413   7.053 -0.2792 -0.1429 -0.3218
 3894SOL     OW23140   2.646   1.775   6.258 -0.7151  0.2041  0.0014
 3894SOL    HW123141   2.669   1.837   6.189 -1.3535  2.1242  1.5099
 3894SOL    HW223142   2.675   1.691   6.224 -3.4608 -0.4744 -0.7202
 3895SOL     OW23143   3.516   0.794   8.603  0.9393  0.0490  0.3550
 3895SOL    HW123144   3.456   0.798   8.529 -0.5996 -0.9992  1.5470
 3895SOL    HW223145   3.516   0.701   8.625 -1.7878  0.6206  2.7904
 3896SOL     OW23146   0.254   3.199   3.328  0.0828 -0.5676 -0.5515
 3896SOL    HW123147   0.295   3.212   3.414 -2.0059 -0.7610  0.4588
 3896SOL    HW223148   0.332   3.182   3.275 -0.4226 -0.1807 -1.4188
 3897SOL     OW23149   3.736   2.890   1.108 -0.1837  0.3660 -0.1964
 3897SOL    HW123150   3.791   2.967   1.094  1.2245 -0.9165 -1.6210
 3897SOL    HW223151   3.651   2.926   1.137 -0.2007 -0.2894  0.5888
 3898SOL     OW23152   1.693   0.649  14.058 -0.0187 -0.1786 -0.2920
 3898SOL    HW123153   1.634   0.721  14.080  0.9962  0.1746  1.3380
 3898SOL    HW223154   1.627   0.602  14.007  0.9178 -2.8420  0.9587
 3899SOL     OW23155   3.294   1.784   4.704 -0.4352 -0.1203  0.2631
 3899SOL    HW123156   3.314   1.868   4.746 -0.6795 -0.3725  0.8974
 3899SOL    HW223157   3.355   1.787   4.631  0.5282  1.0486  1.1262
 3900SOL     OW23158   3.117   2.179  12.208 -0.0891  0.5094 -0.3902
 3900SOL    HW123159   3.211   2.193  12.202  0.7068 -3.3951  2.7934
 3900SOL    HW223160   3.121   2.095  12.254 -0.0519  1.7874  1.9119
 3901SOL     OW23161   0.331   1.920   4.059 -0.3437  0.4466  0.0164
 3901SOL    HW123162   0.250   1.870   4.048  0.1753 -0.5273  0.6304
 3901SOL    HW223163   0.369   1.906   3.972 -1.9621 -2.0054 -0.2897
 3902SOL     OW23164   1.791   1.270  13.846 -0.0687  0.2965  0.0530
 3902SOL    HW123165   1.820   1.318  13.769  1.2266 -1.4455 -0.5419
 3902SOL    HW223166   1.702   1.240  13.824 -0.7884  0.6671  2.3993
 3903SOL     OW23167   0.542   1.440   8.255 -0.6431 -0.0110 -0.2525
 3903SOL    HW123168   0.637   1.426   8.246 -1.0389 -3.0895  0.3084
 3903SOL    HW223169   0.543   1.535   8.265  2.9717 -0.2704  1.9107
 3904SOL     OW23170   0.217   2.912  15.277  0.1882 -0.2836 -0.1156
 3904SOL    HW123171   0.216   2.915  15.181  1.9542 -3.2086 -0.2131
 3904SOL    HW223172   0.196   2.819  15.285 -0.4537  0.5363  7.3164
 3905SOL     OW23173   0.525   0.607   9.893  0.3443 -0.4061 -0.2561
 3905SOL    HW123174   0.511   0.701   9.890  1.4785 -0.2497 -1.1280
 3905SOL    HW223175   0.520   0.579   9.801 -3.9353  2.0369 -0.7056
 3906SOL     OW23176   4.637   3.532   0.653 -0.3573  0.3735 -0.2328
 3906SOL    HW123177   4.721   3.487   0.652  1.1318  3.1930 -0.1674
 3906SOL    HW223178   4.616   3.525   0.746 -0.1804  0.3822 -0.1935
 3907SOL     OW23179   3.811   3.817   9.095 -0.0032  0.6536  0.2694
 3907SOL    HW123180   3.901   3.799   9.121 -0.1042 -0.9935 -0.4975
 3907SOL    HW223181   3.770   3.731   9.087 -0.5129  0.9554 -0.3261
 3908SOL     OW23182   3.565   1.933   3.207 -0.1697  0.0459  0.1431
 3908SOL    HW123183   3.602   1.895   3.128  2.3086  0.8587  0.9139
 3908SOL    HW223184   3.595   1.870   3.273  1.8409 -1.1448 -1.9150
 3909SOL     OW23185   1.735   4.651   2.650 -0.1442  0.2956 -0.5905
 3909SOL    HW123186   1.666   4.714   2.669 -1.3183 -1.2297  0.1411
 3909SOL    HW223187   1.763   4.610   2.732 -0.4266 -1.5442 -1.4204
 3910SOL     OW23188   2.161   0.933   0.210 -0.2636 -0.1620 -0.3255
 3910SOL    HW123189   2.151   0.839   0.195 -0.4614 -0.1448 -0.2990
 3910SOL    HW223190   2.230   0.963   0.151 -1.1310  1.7825 -0.3292
 3911SOL     OW23191   2.640   3.462  13.941 -0.5286 -0.2225 -0.4779
 3911SOL    HW123192   2.660   3.448  13.849  1.1930 -2.2883  0.2120
 3911SOL    HW223193   2.713   3.428  13.993  0.1958 -1.0166 -2.0113
 3912SOL     OW23194   1.992   0.045   0.471 -0.5858 -0.3064  0.3512
 3912SOL    HW123195   1.912   0.090   0.445  0.1926  0.3094 -0.9479
 3912SOL    HW223196   1.968   0.011   0.557 -1.6223  2.5251  1.1592
 3913SOL     OW23197   2.132   1.828   1.874  0.0627 -0.4820 -0.2312
 3913SOL    HW123198   2.044   1.859   1.853 -0.7983 -1.6865  1.6415
 3913SOL    HW223199   2.149   1.862   1.962 -0.6163 -2.2530  0.5688
 3914SOL     OW23200   0.760   2.113   4.866 -0.1638  0.1262 -0.3722
 3914SOL    HW123201   0.699   2.134   4.937 -1.8028  0.6943 -1.9753
 3914SOL    HW223202   0.746   2.020   4.845 -2.4307  0.8182 -1.8017
 3915SOL     OW23203   1.926   2.759   7.917 -0.0538  0.0756 -0.1463
 3915SOL    HW123204   1.839   2.720   7.922 -0.2505  0.8638  2.4884
 3915SOL    HW223205   1.973   2.688   7.872 -0.8549 -2.0273  2.3575
 3916SOL     OW23206   1.467   2.891   7.044 -0.2105  0.6070 -0.1412
 3916SOL    HW123207   1.407   2.965   7.033  1.8498  2.2815 -0.1046
 3916SOL    HW223208   1.463   2.859   6.954 -1.1551 -0.3335  0.2312
 3917SOL     OW23209   3.710   3.009   2.689 -0.2546 -0.2217 -0.4050
 3917SOL    HW123210   3.707   2.933   2.747  0.4665  1.4068  1.8015
 3917SOL    HW223211   3.740   2.974   2.605  0.1165 -1.9269  0.4377
 3918SOL     OW23212   1.067   1.581   7.677 -0.3051  0.3483 -0.1227
 3918SOL    HW123213   1.023   1.612   7.597  0.3155  0.4857 -0.4113
 3918SOL    HW223214   1.132   1.520   7.643  2.3576  0.6119  4.4691
 3919SOL     OW23215   3.747   1.110   7.430 -0.3481  0.2949 -0.2856
 3919SOL    HW123216   3.785   1.091   7.515  0.0566 -3.3049 -1.2443
 3919SOL    HW223217   3.788   1.044   7.374  0.7208 -1.8418  3.0378
 3920SOL     OW23218   2.192   1.356   9.409 -0.5503  0.7005  0.1756
 3920SOL    HW123219   2.280   1.354   9.446  0.5853  2.6757 -2.3843
 3920SOL    HW223220   2.165   1.264   9.413  3.4078 -0.4333 -0.0364
 3921SOL     OW23221   2.955   3.838   6.440 -0.1677 -0.1378 -0.4097
 3921SOL    HW123222   3.035   3.879   6.474  0.6267 -1.4994 -0.6566
 3921SOL    HW223223   2.898   3.851   6.516  1.6739  0.2790  0.8967
 3922SOL     OW23224   2.771   2.016   5.266 -0.0238 -0.3814  0.3768
 3922SOL    HW123225   2.773   1.972   5.352  2.1016  2.0633  1.5730
 3922SOL    HW223226   2.698   1.966   5.228  0.4760 -0.6193 -0.2653
 3923SOL     OW23227   0.885   2.309  13.728 -0.2888 -0.4466 -0.4135
 3923SOL    HW123228   0.847   2.369  13.664  2.3696 -0.0209 -1.6181
 3923SOL    HW223229   0.877   2.352  13.813 -0.1316  0.7478 -1.0016
 3924SOL     OW23230   3.987   1.994   7.637  0.3979  0.7489  0.0144
 3924SOL    HW123231   3.973   1.904   7.669  2.4538  1.1914  2.1833
 3924SOL    HW223232   4.026   1.967   7.554 -1.4325  0.7036 -0.8318
 3925SOL     OW23233   0.820   2.672   2.152 -0.3312  0.4455  0.0826
 3925SOL    HW123234   0.742   2.725   2.168 -0.9064 -0.7587  1.2229
 3925SOL    HW223235   0.889   2.719   2.198 -0.0876 -0.7705  0.9711
 3926SOL     OW23236   3.141   2.744   0.348 -0.0833  0.0934  0.2975
 3926SOL    HW123237   3.103   2.754   0.435 -1.2614  3.0863 -0.5575
 3926SOL    HW223238   3.076   2.794   0.297  1.0772  0.8689 -0.4313
 3927SOL     OW23239   4.494   1.708   0.920  0.3763 -0.0859  0.1750
 3927SOL    HW123240   4.413   1.753   0.947  0.2696 -0.1889  0.0250
 3927SOL    HW223241   4.548   1.787   0.915 -0.9368  0.8648  0.9492
 3928SOL     OW23242   0.482   1.648   5.647 -0.2555  0.2238 -0.1722
 3928SOL    HW123243   0.426   1.634   5.570  0.1227  1.0116 -0.5957
 3928SOL    HW223244   0.559   1.601   5.615 -0.8969  0.5420 -2.2320
 3929SOL     OW23245   0.683   1.475   4.929  0.1414 -0.2052 -0.6307
 3929SOL    HW123246   0.643   1.494   4.844  0.4750 -0.9042 -0.9442
 3929SOL    HW223247   0.691   1.380   4.925 -0.5278 -0.3374  1.6639
 3930SOL     OW23248   0.350   3.425   5.732 -0.1927 -0.2413  0.1546
 3930SOL    HW123249   0.361   3.429   5.637  1.3179 -1.2538  0.2714
 3930SOL    HW223250   0.415   3.356   5.746 -1.9714 -1.9648 -0.0989
 3931SOL     OW23251   1.942   1.949  10.521 -0.2551  0.2648  0.2330
 3931SOL    HW123252   1.972   1.919  10.607  2.0733 -0.1492 -0.7233
 3931SOL    HW223253   2.012   1.966  10.458 -0.3165 -1.3077 -0.2672
 3932SOL     OW23254   3.494   2.952  15.309  0.0154  0.3644  0.2261
 3932SOL    HW123255   3.567   2.983  15.256  1.0977 -1.5564  0.5966
 3932SOL    HW223256   3.518   2.989  15.394 -0.8116  2.3629 -0.4176
 3933SOL     OW23257   0.234   3.956   2.293  0.3913 -0.0801 -0.0181
 3933SOL    HW123258   0.239   4.050   2.278  0.8521 -0.4956 -2.4302
 3933SOL    HW223259   0.325   3.944   2.320  0.9033  0.4992 -1.4653
 3934SOL     OW23260   4.426   1.107   3.432  0.0569 -0.3113  0.1257
 3934SOL    HW123261   4.454   1.187   3.477 -1.2800  0.6710 -0.7787
 3934SOL    HW223262   4.472   1.030   3.466  3.2397  1.2095 -0.8285
 3935SOL     OW23263   1.791   3.801   0.618  0.2785 -0.8153  0.6221
 3935SOL    HW123264   1.858   3.866   0.637  0.7731 -1.2368  0.3283
 3935SOL    HW223265   1.781   3.802   0.523 -1.2020 -0.8466  0.7715
 3936SOL     OW23266   3.183   4.396   8.518 -0.1635  0.1350 -0.8009
 3936SOL    HW123267   3.265   4.446   8.518  1.0302 -1.7987 -0.3426
 3936SOL    HW223268   3.144   4.429   8.599 -1.0667 -1.4578 -0.5774
 3937SOL     OW23269   1.613   2.742  16.775 -0.8753 -0.3423  0.5188
 3937SOL    HW123270   1.688   2.683  16.788  0.0082  0.9800  1.4757
 3937SOL    HW223271   1.550   2.676  16.749 -1.4077  0.2728  0.2429
 3938SOL     OW23272   3.103   4.406   2.926  1.1168  0.0958 -0.1541
 3938SOL    HW123273   3.175   4.447   2.974  0.7137  0.9678 -0.2923
 3938SOL    HW223274   3.143   4.345   2.864  1.0619 -1.3464  1.2043
 3939SOL     OW23275   2.449   4.443  15.249 -0.1875 -0.5755  0.2358
 3939SOL    HW123276   2.403   4.363  15.225  1.5387 -1.6917  0.6893
 3939SOL    HW223277   2.414   4.462  15.336 -1.3168  1.4374 -0.6635
 3940SOL     OW23278   1.533   0.231   5.223  0.3524  0.3928 -0.7527
 3940SOL    HW123279   1.439   0.217   5.229  0.9211 -1.2707  3.8732
 3940SOL    HW223280   1.543   0.321   5.254 -0.3950  1.2918 -3.0714
 3941SOL     OW23281   1.449   2.047   3.531  0.3097 -0.0701  0.7044
 3941SOL    HW123282   1.434   1.973   3.590 -0.1898 -0.6803 -0.1844
 3941SOL    HW223283   1.544   2.054   3.528  0.0504  2.9622 -1.3765
 3942SOL     OW23284   4.652   2.244   6.684 -0.0169  0.1219  0.0295
 3942SOL    HW123285   4.703   2.178   6.638  1.5405  1.8919 -0.7783
 3942SOL    HW223286   4.642   2.211   6.773  1.8920  1.2147  0.6369
 3943SOL     OW23287   1.031   2.650   8.008  0.1989  0.6869  0.0195
 3943SOL    HW123288   1.089   2.723   8.025  1.6345 -0.8865  1.8526
 3943SOL    HW223289   1.051   2.584   8.074 -0.7898  0.6658  0.2986
 3944SOL     OW23290   3.399   4.324  16.259 -0.1326 -0.2251 -0.3257
 3944SOL    HW123291   3.424   4.414  16.282 -0.1658 -0.1724 -0.4965
 3944SOL    HW223292   3.479   4.273  16.246 -0.2504 -0.3605 -0.5251
 3945SOL     OW23293   2.206   2.326   0.879  0.1799  0.2866 -0.2919
 3945SOL    HW123294   2.181   2.291   0.965 -0.8077  1.1480 -0.2194
 3945SOL    HW223295   2.301   2.318   0.876 -0.0676 -2.3494 -1.3779
 3946SOL     OW23296   3.117   2.236   9.505 -0.1907 -0.8424 -0.5023
 3946SOL    HW123297   3.070   2.154   9.519 -0.6723 -0.0561  2.4578
 3946SOL    HW223298   3.199   2.204   9.543  0.2022 -0.7827 -1.3128
 3947SOL     OW23299   3.213   0.942   5.780 -0.3067  0.6414 -0.2941
 3947SOL    HW123300   3.262   1.014   5.740 -0.3807 -0.6488 -2.7593
 3947SOL    HW223301   3.131   0.931   5.731  0.3222  0.4823 -1.3126
 3948SOL     OW23302   1.173   3.704   7.654 -0.0146 -0.3925  0.0178
 3948SOL    HW123303   1.182   3.705   7.559  1.5983 -0.1189  0.1834
 3948SOL    HW223304   1.092   3.753   7.671  0.1441 -0.0884 -0.1032
 3949SOL     OW23305   1.365   0.686   6.864 -0.2177  0.3480  0.2947
 3949SOL    HW123306   1.299   0.673   6.932 -1.6325 -0.1419 -1.1791
 3949SOL    HW223307   1.329   0.768   6.829 -0.7791  0.5789  1.3951
 3950SOL     OW23308   0.516   3.226   6.606  0.2177 -0.4596  0.1019
 3950SOL    HW123309   0.569   3.147   6.613 -0.9234 -1.1641  0.7841
 3950SOL    HW223310   0.474   3.230   6.692 -2.6900 -1.3822 -1.2501
 3951SOL     OW23311   2.339   1.764   3.435  0.6984 -0.4727  0.3832
 3951SOL    HW123312   2.398   1.698   3.400  0.2149  0.5763 -2.4147
 3951SOL    HW223313   2.368   1.835   3.377 -2.8907  1.0878  0.4787
 3952SOL     OW23314   1.827   1.157   2.721  0.2623  0.0760  0.1174
 3952SOL    HW123315   1.802   1.084   2.777  2.7211  0.0384  1.1732
 3952SOL    HW223316   1.897   1.111   2.674 -0.5693 -0.5159 -0.5359
 3953SOL     OW23317   4.665   3.624   6.407  0.3442  0.2545  0.6613
 3953SOL    HW123318   4.593   3.562   6.417  0.9828 -0.6387 -0.2665
 3953SOL    HW223319   4.701   3.620   6.496 -0.5867  1.5350  1.0972
 3954SOL     OW23320   1.024   0.891   7.322  0.2685 -0.3985  0.0131
 3954SOL    HW123321   1.086   0.863   7.255  1.8087  1.9343  0.4856
 3954SOL    HW223322   0.987   0.974   7.291 -1.3796 -1.2335 -0.3040
 3955SOL     OW23323   3.853   1.317   3.653 -0.5239  0.7080 -0.2367
 3955SOL    HW123324   3.775   1.357   3.615 -0.3897  0.7105 -0.5086
 3955SOL    HW223325   3.840   1.339   3.745  2.7270  1.3612  0.0634
 3956SOL     OW23326   4.286   1.779   4.549 -0.1144  0.2729  0.3386
 3956SOL    HW123327   4.289   1.685   4.565 -2.8715  0.2009  0.4230
 3956SOL    HW223328   4.376   1.809   4.564  0.1173  0.4849 -1.4733
 3957SOL     OW23329   2.216   1.682  16.744 -0.5719  0.4857 -0.4797
 3957SOL    HW123330   2.270   1.606  16.723 -1.9219 -0.9817  1.4132
 3957SOL    HW223331   2.158   1.682  16.669 -1.0973 -0.8074 -0.0649
 3958SOL     OW23332   4.315   2.965   4.137 -0.2051  0.1097 -0.3403
 3958SOL    HW123333   4.386   2.966   4.073  0.3014  1.4769  0.2316
 3958SOL    HW223334   4.323   3.044   4.190  0.0924  0.0917 -0.3577
 3959SOL     OW23335   2.024   4.053   9.040  0.0728  0.5897 -0.1243
 3959SOL    HW123336   1.943   4.019   9.000 -0.2260 -0.1412  1.0953
 3959SOL    HW223337   2.042   4.124   8.979  0.1105 -0.3106 -1.1553
 3960SOL     OW23338   0.998   1.227   7.651  0.4028 -0.2475  0.5366
 3960SOL    HW123339   0.964   1.273   7.727 -0.0409 -0.0146  0.1968
 3960SOL    HW223340   1.078   1.276   7.630  0.4960 -0.0257  1.4023
 3961SOL     OW23341   0.218   4.696   2.629 -0.1528  0.2972 -0.3725
 3961SOL    HW123342   0.158   4.655   2.691 -0.8535  0.1986 -1.1082
 3961SOL    HW223343   0.207   4.634   2.557 -1.2332  0.5870 -0.4622
 3962SOL     OW23344   3.046   2.478   1.306 -0.1238 -0.9663 -0.0997
 3962SOL    HW123345   3.029   2.421   1.231 -1.0381  1.0862 -1.4680
 3962SOL    HW223346   3.140   2.490   1.302 -0.1587  0.0638  1.7331
 3963SOL     OW23347   4.060   0.489   6.710  0.2220 -0.2314 -0.7323
 3963SOL    HW123348   4.046   0.446   6.625  2.6677 -0.3378 -1.0747
 3963SOL    HW223349   4.127   0.428   6.740 -1.1087 -0.7440  1.1608
 3964SOL     OW23350   1.927   1.295   0.541  0.8749 -0.0316 -0.0334
 3964SOL    HW123351   1.929   1.201   0.556  3.0816  0.1971  1.1379
 3964SOL    HW223352   1.998   1.327   0.597 -0.4736  0.2042  1.5721
 3965SOL     OW23353   3.571   2.226  11.596  0.0464 -0.1973  0.1017
 3965SOL    HW123354   3.533   2.306  11.559  1.4380  1.0019  1.2774
 3965SOL    HW223355   3.495   2.175  11.624 -0.7136  1.5301  1.2394
 3966SOL     OW23356   4.207   3.117  11.030 -0.9993 -0.0202 -0.0881
 3966SOL    HW123357   4.249   3.030  11.030  0.8924  0.8829 -0.3184
 3966SOL    HW223358   4.138   3.092  10.969  0.7477  1.3456 -2.6266
 3967SOL     OW23359   2.420   3.011   1.998 -0.1933 -0.7270  0.0942
 3967SOL    HW123360   2.474   3.033   2.073 -0.5541 -2.4392  0.8716
 3967SOL    HW223361   2.449   2.921   1.980  0.1599 -0.8286  1.1806
 3968SOL     OW23362   3.868   1.254  11.609 -0.0090 -0.2982  0.0446
 3968SOL    HW123363   3.866   1.284  11.700  0.3293 -0.3818  0.0786
 3968SOL    HW223364   3.790   1.294  11.571  1.6787  0.9621 -2.0321
 3969SOL     OW23365   1.379   1.702  17.097 -0.2187  0.3126  0.5681
 3969SOL    HW123366   1.437   1.730  17.168 -0.3030  1.2432  0.2817
 3969SOL    HW223367   1.329   1.784  17.092 -0.6659  0.0605  0.9268
 3970SOL     OW23368   3.511   0.452   2.252 -0.6233 -0.2602  0.3232
 3970SOL    HW123369   3.431   0.405   2.277  1.0816 -1.2925  3.8837
 3970SOL    HW223370   3.539   0.405   2.173 -1.2482 -1.3012  0.7043
 3971SOL     OW23371   3.803   0.401   3.667 -0.2628  0.2004 -0.8215
 3971SOL    HW123372   3.834   0.463   3.733 -0.5731 -1.7305  1.1427
 3971SOL    HW223373   3.825   0.312   3.695  1.8772  0.8651 -0.4327
 3972SOL     OW23374   0.040   2.411   5.847 -0.2172  0.0791  0.2172
 3972SOL    HW123375   4.671   2.421   5.878  1.1689  3.1753  3.2972
 3972SOL    HW223376   0.077   2.348   5.909 -1.2016 -0.6749  0.0561
 3973SOL     OW23377   1.824   2.577   4.043  0.5342 -0.6476  0.4241
 3973SOL    HW123378   1.865   2.491   4.036  0.9637 -0.5056  1.2344
 3973SOL    HW223379   1.801   2.593   4.135 -1.0323  1.7243 -0.3736
 3974SOL     OW23380   2.725   0.523  15.703 -0.1400 -0.5900  0.6340
 3974SOL    HW123381   2.717   0.608  15.659 -0.6576 -1.1578 -0.3783
 3974SOL    HW223382   2.729   0.557  15.792  0.0785 -3.0923  1.5852
 3975SOL     OW23383   3.600   2.377   8.332 -0.1705 -0.1556  0.1156
 3975SOL    HW123384   3.546   2.325   8.391  1.1489 -2.6278 -0.8680
 3975SOL    HW223385   3.681   2.392   8.380  1.0651  0.9129 -2.3105
 3976SOL     OW23386   1.705   2.030   8.058  0.0006 -0.4042  0.0472
 3976SOL    HW123387   1.773   2.002   7.997  1.9268 -1.3119  2.6121
 3976SOL    HW223388   1.705   2.125   8.042 -0.6216 -0.2894  0.7230
 3977SOL     OW23389   0.193   4.124   7.112  0.4512  0.2648 -1.1618
 3977SOL    HW123390   0.103   4.098   7.092 -0.3433  2.5300 -0.6041
 3977SOL    HW223391   0.175   4.196   7.173  1.6693 -1.0601  0.7768
 3978SOL     OW23392   2.103   0.534   6.568 -0.0779  0.2004  0.1731
 3978SOL    HW123393   2.082   0.452   6.523  1.6612  0.2459 -0.7309
 3978SOL    HW223394   2.020   0.580   6.581 -1.2093 -1.7403 -0.2835
 3979SOL     OW23395   0.068   3.116   9.679 -0.3852  0.2263  0.1535
 3979SOL    HW123396   0.003   3.092   9.614 -1.6758 -0.6333  1.7563
 3979SOL    HW223397   0.135   3.048   9.668 -1.1963 -0.4517 -0.5451
 3980SOL     OW23398   4.328   0.812   8.037 -0.4271 -0.5304 -0.0124
 3980SOL    HW123399   4.368   0.869   7.971 -1.6126  0.8920  0.5103
 3980SOL    HW223400   4.406   0.782   8.084  0.2233  0.4462 -0.4792
 3981SOL     OW23401   1.695   1.369   5.914 -0.0586 -0.5687  0.4271
 3981SOL    HW123402   1.604   1.340   5.908 -0.5084  0.4717  1.9419
 3981SOL    HW223403   1.680   1.464   5.919  1.7349 -0.2828  0.1353
 3982SOL     OW23404   2.672   3.293  16.560  0.1427 -0.0791 -0.0236
 3982SOL    HW123405   2.591   3.285  16.511 -0.6169 -3.4928  1.7812
 3982SOL    HW223406   2.694   3.204  16.586  1.4693  0.1795 -0.2334
 3983SOL     OW23407   3.404   2.881   3.312 -0.6818  0.1938  0.1266
 3983SOL    HW123408   3.331   2.890   3.250 -0.0264 -1.9385 -0.9539
 3983SOL    HW223409   3.476   2.935   3.279  1.0481 -0.9525  2.1063
 3984SOL     OW23410   1.443   1.388   2.896 -0.0760 -0.4230  0.3326
 3984SOL    HW123411   1.479   1.300   2.880 -1.4190 -0.5545 -1.9637
 3984SOL    HW223412   1.506   1.455   2.871  0.4821 -1.3456 -0.7488
 3985SOL     OW23413   0.408   0.506   7.179  0.1641  0.0571 -0.0379
 3985SOL    HW123414   0.467   0.432   7.163 -1.0505 -1.0360  0.5766
 3985SOL    HW223415   0.464   0.573   7.217  0.8197 -1.5650  1.8800
 3986SOL     OW23416   1.951   1.280  13.538 -0.2575 -0.7550  0.2885
 3986SOL    HW123417   2.033   1.270  13.586  0.7684  0.8867 -1.0975
 3986SOL    HW223418   1.987   1.316  13.457  1.0243  1.5540  1.8713
 3987SOL     OW23419   1.542   1.105  12.613 -0.0117  0.4206  0.6367
 3987SOL    HW123420   1.542   1.080  12.521 -1.3721 -0.9219  1.0005
 3987SOL    HW223421   1.524   1.020  12.654  3.4708 -0.9184 -0.6442
 3988SOL     OW23422   2.329   2.858   8.534  0.4314  0.7043 -0.3660
 3988SOL    HW123423   2.305   2.805   8.458  0.3635  0.2511 -0.0252
 3988SOL    HW223424   2.248   2.885   8.577 -0.0959 -2.2448  0.4422
 3989SOL     OW23425   3.723   0.489   2.714  0.0836 -0.3147 -0.0206
 3989SOL    HW123426   3.638   0.520   2.682 -0.2113  0.3749  1.4497
 3989SOL    HW223427   3.733   0.416   2.652  0.9768 -1.9102  2.0137
 3990SOL     OW23428   1.646   3.872   8.714 -0.2514  0.2078 -0.2468
 3990SOL    HW123429   1.631   3.905   8.625 -0.6503  0.1380 -0.2056
 3990SOL    HW223430   1.561   3.892   8.754 -0.0623  0.2211  0.1482
 3991SOL     OW23431   1.690   0.057   8.905 -0.4681 -0.0690  0.6968
 3991SOL    HW123432   1.616   0.115   8.921  0.1620  1.0590 -0.5201
 3991SOL    HW223433   1.703   0.029   8.996  0.0449  0.1732  0.7003
 3992SOL     OW23434   2.970   3.100   2.611 -0.1071  1.0607 -0.3548
 3992SOL    HW123435   2.907   3.142   2.669  0.5173 -1.2809  2.0421
 3992SOL    HW223436   2.982   3.160   2.537  2.0737  1.8102  0.6001
 3993SOL     OW23437   1.139   3.264   9.619  0.1013 -0.0462 -0.6848
 3993SOL    HW123438   1.105   3.191   9.566  0.3714 -0.9562  0.3974
 3993SOL    HW223439   1.071   3.263   9.687 -0.0447  0.1423 -0.8265
 3994SOL     OW23440   3.932   0.605   8.434 -0.1834 -0.6208 -0.7337
 3994SOL    HW123441   3.972   0.518   8.426  1.3729  0.0193  0.1693
 3994SOL    HW223442   3.955   0.614   8.526 -2.1101 -4.0377  0.0929
 3995SOL     OW23443   4.112   1.357   3.586  0.0273 -0.2456  0.1282
 3995SOL    HW123444   4.153   1.318   3.664  0.8337 -0.3998 -0.3753
 3995SOL    HW223445   4.019   1.355   3.612  0.3648  2.2549  1.4999
 3996SOL     OW23446   0.539   2.647  10.445  0.4496  0.3257 -0.1146
 3996SOL    HW123447   0.605   2.713  10.467 -0.0057  0.6608  0.2827
 3996SOL    HW223448   0.456   2.696  10.446  0.3130  0.1129 -1.1879
 3997SOL     OW23449   0.216   1.405   6.873 -0.1747 -0.6217 -0.2984
 3997SOL    HW123450   0.152   1.416   6.802 -0.4308  3.0286  0.4930
 3997SOL    HW223451   0.174   1.460   6.939 -0.9077 -0.7618 -0.6476
 3998SOL     OW23452   1.580   1.163  12.093 -0.2854 -0.1319 -0.0338
 3998SOL    HW123453   1.621   1.163  12.179  1.1812 -2.3085 -0.7122
 3998SOL    HW223454   1.661   1.159  12.042 -1.2684  3.2683 -1.8246
 3999SOL     OW23455   4.145   1.536   2.814 -0.6106  0.4026  0.2638
 3999SOL    HW123456   4.228   1.490   2.803 -1.3451 -0.4986 -1.4636
 3999SOL    HW223457   4.164   1.609   2.755 -0.5963 -1.1417 -1.6362
 4000SOL     OW23458   3.460   3.635  15.643  0.2409  0.2992 -0.7010
 4000SOL    HW123459   3.401   3.617  15.569  0.4403 -0.5212 -0.6589
 4000SOL    HW223460   3.534   3.581  15.615  1.9623  2.2403  0.1298
 4001SOL     OW23461   2.835   0.397   2.680 -0.3773  0.2394  0.4687
 4001SOL    HW123462   2.743   0.421   2.692 -0.3619  0.8641 -0.7054
 4001SOL    HW223463   2.852   0.361   2.768 -2.0960  0.3481  0.8418
 4002SOL     OW23464   1.903   4.207   7.810 -0.3849  0.6600 -0.1731
 4002SOL    HW123465   1.891   4.265   7.735  1.3104  0.8029 -0.3381
 4002SOL    HW223466   1.858   4.252   7.881  0.8483 -1.5315  2.0298
 4003SOL     OW23467   2.824   3.141   3.430  0.3022  0.4181  0.3093
 4003SOL    HW123468   2.813   3.219   3.375  0.0469 -0.4142 -0.8179
 4003SOL    HW223469   2.849   3.169   3.518  0.9747  0.0065  0.2516
 4004SOL     OW23470   1.771   4.070   8.139  0.0474  0.1709  0.0246
 4004SOL    HW123471   1.776   4.083   8.234  0.9729  0.2685 -0.0327
 4004SOL    HW223472   1.801   4.151   8.096  0.1701  2.3925  4.2118
 4005SOL     OW23473   3.381   4.453   3.022 -0.5604  0.2903 -0.0960
 4005SOL    HW123474   3.376   4.359   3.034  3.7075 -0.1239 -1.4135
 4005SOL    HW223475   3.455   4.457   2.962  1.4537  1.3627  2.4191
 4006SOL     OW23476   1.408   3.310   8.090  0.6209  0.2798 -0.0426
 4006SOL    HW123477   1.475   3.297   8.156  0.7589  0.3040 -0.1782
 4006SOL    HW223478   1.427   3.401   8.066 -1.3361  0.6347 -0.2730
 4007SOL     OW23479   4.580   2.763   4.805  0.1202 -0.0459  0.4022
 4007SOL    HW123480   4.533   2.683   4.829  1.7198 -0.8947  0.7470
 4007SOL    HW223481   4.628   2.732   4.728 -0.4887 -2.7473  1.1149
 4008SOL     OW23482   1.147   0.588   6.402 -0.0518  0.3729 -0.3077
 4008SOL    HW123483   1.052   0.595   6.395 -0.5315 -3.5452  2.0495
 4008SOL    HW223484   1.149   0.504   6.449 -1.3058  0.2598 -0.4794
 4009SOL     OW23485   2.221   3.281  11.746  0.0504 -0.2855 -0.1226
 4009SOL    HW123486   2.295   3.258  11.802 -0.9278 -0.4189  1.1027
 4009SOL    HW223487   2.237   3.220  11.674  0.2700  0.0355 -0.3463
 4010SOL     OW23488   4.644   1.525  10.983  0.1385  0.1138 -0.5809
 4010SOL    HW123489   4.647   1.570  10.899  0.2396  1.6460  0.2498
 4010SOL    HW223490   4.654   1.587  11.056  1.2650  0.8705 -1.3854
 4011SOL     OW23491   4.586   0.710   4.867  0.9746  0.4019  0.4425
 4011SOL    HW123492   4.652   0.760   4.917  0.8602 -0.0426  1.0432
 4011SOL    HW223493   4.637   0.641   4.824  0.5035  0.3144  0.0381
 4012SOL     OW23494   1.447   1.934   2.505  0.6901 -0.1654 -0.3835
 4012SOL    HW123495   1.408   2.017   2.531  2.5663  0.2395  1.0699
 4012SOL    HW223496   1.377   1.868   2.512  0.3993  0.1244 -0.5453
 4013SOL     OW23497   2.866   2.653   4.913  0.2853 -0.6055 -0.0491
 4013SOL    HW123498   2.876   2.729   4.970 -1.3269  0.3600 -1.0595
 4013SOL    HW223499   2.818   2.588   4.964 -1.3052  1.1589  0.7126
 4014SOL     OW23500   1.431   2.222   0.720 -0.0123  0.1444  0.2567
 4014SOL    HW123501   1.513   2.270   0.734 -0.3089  1.1919 -1.6414
 4014SOL    HW223502   1.405   2.198   0.809  0.7451  0.0250  0.4399
 4015SOL     OW23503   3.427   1.058  15.831 -0.0783  0.2762  0.2231
 4015SOL    HW123504   3.398   1.088  15.917  0.6595 -1.2927  1.0191
 4015SOL    HW223505   3.506   1.112  15.826 -1.0572  1.7303  0.7535
 4016SOL     OW23506   1.480   2.917   1.834 -0.1975  0.2342  0.1382
 4016SOL    HW123507   1.417   2.979   1.797 -0.4510  0.2838  0.6484
 4016SOL    HW223508   1.421   2.842   1.836  1.8608 -1.3431  1.1228
 4017SOL     OW23509   3.751   4.187   9.210 -0.3315  0.1533 -0.4800
 4017SOL    HW123510   3.770   4.112   9.266  0.4526 -0.5767 -1.7120
 4017SOL    HW223511   3.824   4.246   9.225 -0.8356  0.5077  0.5709
 4018SOL     OW23512   2.936   1.584   7.699  0.3403  0.0995  0.8685
 4018SOL    HW123513   3.006   1.533   7.740 -0.4917 -0.0920  2.0531
 4018SOL    HW223514   2.961   1.577   7.607 -1.1728 -0.7098  0.5188
 4019SOL     OW23515   1.782   0.058   9.402  0.6684 -0.3961 -0.1836
 4019SOL    HW123516   1.803   0.137   9.452  0.4092 -1.9124  2.3022
 4019SOL    HW223517   1.687   0.065   9.396  0.6748 -0.5118 -0.4145
 4020SOL     OW23518   2.735   2.513   3.479 -0.1893  0.1481  0.1804
 4020SOL    HW123519   2.810   2.536   3.534 -1.2110  0.3346  1.4817
 4020SOL    HW223520   2.731   2.584   3.415 -0.3789  0.6426  0.7392
 4021SOL     OW23521   3.928   0.647   4.693  0.2024  0.1595 -0.0545
 4021SOL    HW123522   4.004   0.686   4.650 -0.6808  3.4195  1.3676
 4021SOL    HW223523   3.940   0.556   4.666 -1.6942  0.0517 -0.5160
 4022SOL     OW23524   0.551   1.434   4.378 -0.1879  0.2766  0.0002
 4022SOL    HW123525   0.609   1.383   4.321  0.9060  1.0480  0.4142
 4022SOL    HW223526   0.485   1.471   4.320 -0.4743  2.1888  1.5316
 4023SOL     OW23527   3.208   2.718   1.366 -0.5710  0.5667  0.2039
 4023SOL    HW123528   3.252   2.669   1.296 -1.1996  0.1126  0.1284
 4023SOL    HW223529   3.170   2.791   1.317  1.2004 -1.0828 -3.6383
 4024SOL     OW23530   3.063   0.121   9.025 -0.0678 -0.4504  0.0723
 4024SOL    HW123531   3.004   0.069   9.079 -1.1111 -0.5146 -1.1275
 4024SOL    HW223532   3.140   0.066   9.010 -2.1336 -2.5406 -2.8145
 4025SOL     OW23533   3.857   4.338   2.786  0.5182  0.1860 -0.3651
 4025SOL    HW123534   3.930   4.392   2.816 -1.4790  2.5516  0.1955
 4025SOL    HW223535   3.887   4.247   2.794  0.5595  0.4572  2.5448
 4026SOL     OW23536   3.177   2.784  14.846 -0.1413  0.6476  0.0677
 4026SOL    HW123537   3.157   2.785  14.753 -1.8191 -0.0075  0.4190
 4026SOL    HW223538   3.107   2.835  14.888  0.0634  2.4599 -1.7641
 4027SOL     OW23539   1.803   0.207   0.378  0.3934  0.2717  0.4453
 4027SOL    HW123540   1.764   0.165   0.302 -0.0589 -1.5049  1.6278
 4027SOL    HW223541   1.725   0.251   0.411 -0.1892 -0.3296 -0.1438
 4028SOL     OW23542   1.323   0.675   2.471  0.1747  0.0134  0.1602
 4028SOL    HW123543   1.273   0.730   2.532  1.4140 -0.3595  1.4908
 4028SOL    HW223544   1.335   0.599   2.527  2.1327  0.2154 -0.0004
 4029SOL     OW23545   1.967   4.194   4.452  0.0038 -0.6631 -0.0723
 4029SOL    HW123546   2.013   4.186   4.536 -2.8969  0.3215  1.5999
 4029SOL    HW223547   1.964   4.105   4.417  0.7789 -0.3075 -1.0628
 4030SOL     OW23548   0.654   4.502  14.767 -0.1029  0.3508  0.6534
 4030SOL    HW123549   0.640   4.417  14.725 -0.9516  0.7859  0.0427
 4030SOL    HW223550   0.620   4.557  14.696  0.4159 -0.3036 -0.1099
 4031SOL     OW23551   3.154   3.494   3.136  0.3274 -0.0174  0.1163
 4031SOL    HW123552   3.177   3.585   3.154  0.0893  0.1080 -0.2299
 4031SOL    HW223553   3.064   3.483   3.164  0.1514  0.3377 -0.3143
 4032SOL     OW23554   3.991   1.636  11.705  0.5034  0.6161  0.0546
 4032SOL    HW123555   3.996   1.622  11.610  0.3494  0.5594  0.0545
 4032SOL    HW223556   4.076   1.601  11.729  0.4846  1.8047  1.8823
 4033SOL     OW23557   1.949   3.542   2.536  0.1716  0.3743  0.3155
 4033SOL    HW123558   1.952   3.634   2.561  2.6859  0.4608 -0.3511
 4033SOL    HW223559   2.035   3.540   2.495 -0.0059 -1.3008  0.0181
 4034SOL     OW23560   0.880   3.611  12.717  0.3694 -0.2875 -0.2658
 4034SOL    HW123561   0.974   3.599  12.731  0.4020  0.7703  0.3769
 4034SOL    HW223562   0.870   3.601  12.622 -1.9308  2.7138 -0.3131
 4035SOL     OW23563   4.644   4.380   0.914  0.1327 -0.4427 -0.2745
 4035SOL    HW123564   4.667   4.398   1.005 -1.5065 -2.0586  0.4468
 4035SOL    HW223565   4.550   4.393   0.924  0.5164  1.7798  0.2659
 4036SOL     OW23566   2.747   0.915   6.764  0.3362  0.4392 -0.0027
 4036SOL    HW123567   2.736   0.999   6.809 -0.8024 -0.2849  1.0596
 4036SOL    HW223568   2.757   0.857   6.840 -1.6903 -0.0360 -0.1158
 4037SOL     OW23569   4.059   0.358   8.475 -0.0902  0.6492 -0.0723
 4037SOL    HW123570   4.154   0.350   8.488  0.3383  1.1024 -3.0720
 4037SOL    HW223571   4.033   0.322   8.560 -0.0757  1.1915  0.1686
 4038SOL     OW23572   0.553   3.237   5.781 -0.0892  0.2647 -0.3477
 4038SOL    HW123573   0.605   3.276   5.851 -0.2530  0.1985 -0.1876
 4038SOL    HW223574   0.612   3.218   5.708  0.6844 -3.1968  1.1346
 4039SOL     OW23575   0.255   2.961   8.651 -0.2900  0.2257 -0.2816
 4039SOL    HW123576   0.262   3.024   8.578 -0.0873  3.1183  2.2274
 4039SOL    HW223577   0.347   2.948   8.673 -0.6481 -0.4965  0.7487
 4040SOL     OW23578   4.373   2.236   8.846 -0.6563  0.2702 -0.0920
 4040SOL    HW123579   4.450   2.243   8.790  1.3191  0.9796  2.7226
 4040SOL    HW223580   4.304   2.286   8.803  0.0199 -0.3453 -1.8774
 4041SOL     OW23581   4.394   0.156  15.224  0.0587  0.2149  0.3436
 4041SOL    HW123582   4.319   0.138  15.167  0.6474 -0.3479 -0.2595
 4041SOL    HW223583   4.444   0.075  15.211  0.0142 -0.0555  1.7892
 4042SOL     OW23584   2.744   3.645  17.360  0.1350  0.0491  0.3486
 4042SOL    HW123585   2.723   3.639  17.267 -1.2141 -1.6338  0.7691
 4042SOL    HW223586   2.838   3.629  17.348 -0.4488 -3.9635  1.1561
 4043SOL     OW23587   2.983   3.616  12.029  0.0378  0.4656 -0.6084
 4043SOL    HW123588   2.961   3.696  12.078  2.3652  0.5127  0.3491
 4043SOL    HW223589   2.989   3.663  11.946  0.2859  0.7149 -0.4509
 4044SOL     OW23590   3.878   3.093   2.147  0.1527 -0.7529 -0.3637
 4044SOL    HW123591   3.896   3.152   2.074 -2.4454  0.8169  0.2663
 4044SOL    HW223592   3.783   3.099   2.154  0.2433  0.8123 -0.5605
 4045SOL     OW23593   4.052   0.224   1.842  0.1436 -0.1925 -0.0868
 4045SOL    HW123594   4.066   0.216   1.936 -2.7435 -0.2613  0.3300
 4045SOL    HW223595   4.069   0.134   1.817 -1.3603  0.1281 -2.2651
 4046SOL     OW23596   3.862   3.479   3.708  0.0170  0.0972 -0.3399
 4046SOL    HW123597   3.905   3.451   3.627  2.6718  3.1350  0.0039
 4046SOL    HW223598   3.772   3.473   3.678  0.3222 -5.3144 -0.1411
 4047SOL     OW23599   0.501   3.461  15.667 -0.1090  0.2985  0.5911
 4047SOL    HW123600   0.512   3.547  15.626  0.3059  0.2734  0.6424
 4047SOL    HW223601   0.573   3.417  15.621  0.2460  0.3809  1.0694
 4048SOL     OW23602   1.808   2.374   8.961  0.4789  0.4598 -0.4501
 4048SOL    HW123603   1.761   2.426   8.896 -0.6844  0.3533  0.3110
 4048SOL    HW223604   1.870   2.325   8.906  1.0357  0.8120 -0.1410
 4049SOL     OW23605   3.416   3.528   5.452  0.7507  0.3918  0.2038
 4049SOL    HW123606   3.355   3.505   5.522 -0.0972  0.9742 -0.3488
 4049SOL    HW223607   3.393   3.467   5.382  0.4367 -0.4251  1.0259
 4050SOL     OW23608   1.336   0.532   8.843 -0.4476 -0.3665 -0.2803
 4050SOL    HW123609   1.292   0.525   8.928 -0.1345  0.1732 -0.0673
 4050SOL    HW223610   1.403   0.596   8.868  0.9310 -3.1180  3.0229
 4051SOL     OW23611   3.818   2.342   4.228 -0.3438 -0.3377  0.7004
 4051SOL    HW123612   3.777   2.268   4.274  0.0356 -1.0423 -0.1028
 4051SOL    HW223613   3.757   2.342   4.154 -0.1311  0.6403  0.5265
 4052SOL     OW23614   2.045   0.763   4.567  0.5212  0.5313 -0.4850
 4052SOL    HW123615   2.046   0.708   4.645 -0.7583 -1.6333 -1.9688
 4052SOL    HW223616   2.008   0.845   4.598 -1.2183 -0.4633  0.0520
 4053SOL     OW23617   4.623   2.185   5.706 -0.3026 -0.1100  0.4026
 4053SOL    HW123618   4.671   2.102   5.710 -1.8867 -1.0894 -1.0170
 4053SOL    HW223619   4.692   2.236   5.663  0.6029 -1.8428 -0.2249
 4054SOL     OW23620   4.272   3.031  11.572 -0.0731 -0.7634  0.4769
 4054SOL    HW123621   4.288   3.115  11.616  0.8325 -0.4098 -0.5247
 4054SOL    HW223622   4.213   2.998  11.638  0.1335 -1.4770  0.2985
 4055SOL     OW23623   0.049   3.928  15.791 -0.1176 -0.0360 -0.2194
 4055SOL    HW123624   0.124   3.873  15.772 -0.0971 -0.1020  0.0517
 4055SOL    HW223625   4.701   3.885  15.741 -0.0265  0.7721 -1.0421
 4056SOL     OW23626   2.976   3.788   2.026  0.1120 -0.5123  0.5140
 4056SOL    HW123627   3.027   3.866   2.047 -0.1817 -0.5240  1.2581
 4056SOL    HW223628   2.908   3.802   2.092  0.6202 -1.2671  1.1905
 4057SOL     OW23629   1.693   0.943   4.818  0.3627  0.1337  0.2084
 4057SOL    HW123630   1.662   0.976   4.734 -1.3724  1.1907  1.2653
 4057SOL    HW223631   1.728   0.859   4.788  1.0504  0.7441 -0.7112
 4058SOL     OW23632   1.354   4.316   1.908 -0.6682 -0.2718 -0.1023
 4058SOL    HW123633   1.357   4.361   1.824  0.3034 -0.0149  0.0636
 4058SOL    HW223634   1.443   4.284   1.921 -0.5448 -1.1618 -3.1923
 4059SOL     OW23635   3.132   3.324  10.132 -0.4910 -0.0129  0.0576
 4059SOL    HW123636   3.200   3.258  10.125  0.6415  1.1843 -0.1570
 4059SOL    HW223637   3.169   3.382  10.198  0.3548  3.4952 -3.4646
 4060SOL     OW23638   4.684   1.323   0.084  0.2831  0.1560  0.4009
 4060SOL    HW123639   0.055   1.345   0.081  0.0582  0.8251 -1.2390
 4060SOL    HW223640   4.677   1.293  17.682  0.1747  4.3500 -0.9398
 4061SOL     OW23641   3.891   4.066   2.957 -0.0037 -0.7304  0.4382
 4061SOL    HW123642   3.923   4.040   3.044 -0.1226  0.8651  0.9585
 4061SOL    HW223643   3.799   4.085   2.971  0.3434  0.7188  0.7909
 4062SOL     OW23644   3.562   2.869   5.214 -0.1993 -0.3421 -0.3688
 4062SOL    HW123645   3.595   2.892   5.301  0.7272 -0.7267 -0.6187
 4062SOL    HW223646   3.632   2.902   5.157  0.9465  1.2309  1.9428
 4063SOL     OW23647   0.623   0.712  13.870  0.2169 -0.8227 -0.0255
 4063SOL    HW123648   0.622   0.796  13.915 -0.5964 -0.1604 -1.2782
 4063SOL    HW223649   0.708   0.725  13.826  0.4671  1.4866  1.1662
 4064SOL     OW23650   2.382   2.550  17.080  0.2307 -0.1616 -0.0123
 4064SOL    HW123651   2.347   2.628  17.036  0.5376  2.1298  3.7912
 4064SOL    HW223652   2.296   2.511  17.090  0.1372 -0.0933 -0.5374
 4065SOL     OW23653   1.955   0.726   2.497  0.3637 -0.4062  0.6588
 4065SOL    HW123654   1.892   0.657   2.516  0.0210  0.2430  1.8606
 4065SOL    HW223655   2.013   0.690   2.430  0.0043 -1.4538  0.9059
 4066SOL     OW23656   2.721   2.814   6.008  0.5095  1.0250  0.0757
 4066SOL    HW123657   2.632   2.783   5.990  0.6486  2.1132 -2.4321
 4066SOL    HW223658   2.760   2.738   6.050 -0.2061  0.4474 -0.3022
 4067SOL     OW23659   4.423   0.278   7.385  0.0307 -0.2830  0.5277
 4067SOL    HW123660   4.419   0.294   7.479 -3.0383  0.7033  0.2059
 4067SOL    HW223661   4.427   0.369   7.353 -1.3836 -0.6971 -0.8010
 4068SOL     OW23662   1.208   3.031  13.268 -0.0076 -0.3920  0.3053
 4068SOL    HW123663   1.291   3.078  13.277  1.4036 -2.3296 -2.6799
 4068SOL    HW223664   1.174   3.042  13.356 -1.7136 -3.4056  0.0292
 4069SOL     OW23665   2.348   1.741   3.080  0.3709 -0.4400  0.1253
 4069SOL    HW123666   2.422   1.782   3.035 -0.7170 -0.5655 -1.8208
 4069SOL    HW223667   2.277   1.805   3.067 -0.8971 -1.8529  0.1043
 4070SOL     OW23668   1.573   3.080   1.594 -0.0437  0.4009 -0.2557
 4070SOL    HW123669   1.528   3.148   1.644  0.2071  1.1431 -1.0375
 4070SOL    HW223670   1.511   3.056   1.525  1.6928 -0.7186 -1.4378
 4071SOL     OW23671   4.650   1.411  15.079  0.0652 -0.1347 -0.0178
 4071SOL    HW123672   4.583   1.399  15.011  0.2983  0.8018 -0.4244
 4071SOL    HW223673   4.650   1.507  15.069  2.5443 -0.0633  0.7653
 4072SOL     OW23674   1.046   0.194   2.093 -0.3116 -0.0543 -0.2618
 4072SOL    HW123675   1.047   0.098   2.095  1.0085 -0.0632 -1.9318
 4072SOL    HW223676   1.083   0.206   2.005  1.2008 -0.3460  0.3468
 4073SOL     OW23677   0.668   1.269   4.198 -0.3175 -0.0417 -0.6654
 4073SOL    HW123678   0.601   1.235   4.138 -0.5209  1.1569 -1.1406
 4073SOL    HW223679   0.724   1.195   4.219  2.4284  1.8747 -1.3328
 4074SOL     OW23680   0.243   3.418  12.900 -0.3765  0.1632 -0.0773
 4074SOL    HW123681   0.177   3.384  12.839  0.5928 -0.7252 -0.6346
 4074SOL    HW223682   0.226   3.374  12.983 -0.3652 -1.2886 -0.8342
 4075SOL     OW23683   4.255   2.499  16.758 -0.6325 -0.0773  0.0374
 4075SOL    HW123684   4.167   2.470  16.782 -0.6614  1.6623  2.0588
 4075SOL    HW223685   4.286   2.439  16.690  0.1808  1.0859 -0.6396
 4076SOL     OW23686   3.553   3.471   2.727 -0.9258 -0.4562 -0.0213
 4076SOL    HW123687   3.613   3.397   2.734  0.5771  0.8665  0.9569
 4076SOL    HW223688   3.487   3.440   2.665  0.0277 -2.8422  0.1904
 4077SOL     OW23689   2.943   2.436  15.080  0.6699 -0.4231  0.1057
 4077SOL    HW123690   2.981   2.379  15.013  1.7634 -0.5812  0.8532
 4077SOL    HW223691   2.871   2.476  15.031  0.3026  0.0266  1.0292
 4078SOL     OW23692   1.253   0.680   3.003  0.0394  0.3206  0.0329
 4078SOL    HW123693   1.161   0.656   2.987  0.7095 -2.1416 -0.1678
 4078SOL    HW223694   1.242   0.764   3.046  0.6140  0.5594 -0.2996
 4079SOL     OW23695   0.166   4.429   8.045 -0.8603 -1.0980  0.0176
 4079SOL    HW123696   0.203   4.472   7.967 -1.0824  1.2160  1.1972
 4079SOL    HW223697   0.241   4.401   8.098 -0.4461 -1.1087 -0.5717
 4080SOL     OW23698   2.314   2.265  13.991  0.5298  0.4810  0.1347
 4080SOL    HW123699   2.343   2.222  13.911 -1.5873  1.3329 -1.0927
 4080SOL    HW223700   2.265   2.203  14.045 -1.5259  0.2927 -1.8920
 4081SOL     OW23701   0.927   4.622   5.774  0.7158  0.2810 -0.4123
 4081SOL    HW123702   0.878   4.544   5.802 -0.7127  1.8002  1.3141
 4081SOL    HW223703   0.919   4.670   5.856  0.2387  1.5656 -1.2070
 4082SOL     OW23704   2.229   1.502   0.923 -0.3144  0.3463  0.7575
 4082SOL    HW123705   2.271   1.417   0.937  1.5564  1.0279 -0.6634
 4082SOL    HW223706   2.294   1.539   0.863 -1.3359 -0.1707 -0.6809
 4083SOL     OW23707   2.835   0.413   7.527 -0.2696 -0.1157  0.0208
 4083SOL    HW123708   2.762   0.465   7.561  1.7156  1.5198  1.8239
 4083SOL    HW223709   2.830   0.438   7.435 -2.7466  0.6866  0.3855
 4084SOL     OW23710   3.489   3.659   8.513  0.1882 -0.0941  0.3712
 4084SOL    HW123711   3.412   3.680   8.460  0.0366  0.9633  0.9955
 4084SOL    HW223712   3.448   3.679   8.597 -0.6571 -0.3798  0.0314
 4085SOL     OW23713   0.709   0.981  11.041 -0.3409  0.1192  0.5536
 4085SOL    HW123714   0.725   1.057  11.098  1.6407 -0.5515  0.8859
 4085SOL    HW223715   0.796   0.942  11.035  0.3219  1.9588 -1.4179
 4086SOL     OW23716   3.678   0.819   5.191  0.2585  0.4375  0.1630
 4086SOL    HW123717   3.664   0.868   5.110  0.7930  1.5169  0.7293
 4086SOL    HW223718   3.596   0.835   5.237 -0.0367 -3.3454  0.9124
 4087SOL     OW23719   3.542   1.559   3.076 -0.2268  0.1887  0.4151
 4087SOL    HW123720   3.585   1.633   3.032 -3.1122  0.3321 -2.1083
 4087SOL    HW223721   3.502   1.515   3.001  1.1632  1.7448 -1.2556
 4088SOL     OW23722   1.043   2.472  17.559 -0.1089  0.0335  0.2714
 4088SOL    HW123723   1.001   2.393  17.595  1.5791 -1.0363 -0.0745
 4088SOL    HW223724   1.067   2.506  17.645  0.0745  0.0445  0.2155
 4089SOL     OW23725   4.072   4.711   0.315 -0.6529  0.3961  0.3830
 4089SOL    HW123726   3.990   0.027   0.344 -1.3212 -1.1196  0.4719
 4089SOL    HW223727   4.127   0.065   0.335  0.0495 -0.1220  0.4165
 4090SOL     OW23728   0.130   0.583   7.180  0.5164  0.0494  0.5324
 4090SOL    HW123729   0.103   0.573   7.272 -0.9923  0.2167  0.1051
 4090SOL    HW223730   0.217   0.544   7.186 -1.1052 -3.9759 -1.9802
 4091SOL     OW23731   3.366   0.262  11.639 -0.1282  0.0057 -0.6206
 4091SOL    HW123732   3.352   0.341  11.586 -0.9712  0.3904  0.1609
 4091SOL    HW223733   3.283   0.222  11.665 -0.3098 -0.1937 -1.5107
 4092SOL     OW23734   0.673   3.902  14.179 -0.2750  0.3665  0.6813
 4092SOL    HW123735   0.689   3.961  14.253  0.9379 -0.8355  1.3605
 4092SOL    HW223736   0.586   3.931  14.149  0.7537  2.8610  0.1058
 4093SOL     OW23737   2.139   0.691  16.242 -0.1543  0.2715 -0.4669
 4093SOL    HW123738   2.090   0.610  16.225 -0.6559  0.4935 -0.0751
 4093SOL    HW223739   2.066   0.751  16.261 -0.4271 -0.1808 -0.0722
 4094SOL     OW23740   4.555   4.326   5.653 -0.0084  0.0908 -0.8162
 4094SOL    HW123741   4.504   4.248   5.630  1.8763 -1.8793  1.7525
 4094SOL    HW223742   4.574   4.360   5.565  2.0915 -0.3057 -0.5253
 4095SOL     OW23743   2.610   0.270  15.686  0.1888  0.0520 -0.2671
 4095SOL    HW123744   2.634   0.363  15.680  2.1235 -0.2027  2.9950
 4095SOL    HW223745   2.550   0.286  15.759  1.6949 -0.8012  1.1639
 4096SOL     OW23746   1.430   2.892  11.148 -0.5089 -0.5382  0.3115
 4096SOL    HW123747   1.367   2.964  11.139 -0.6757 -0.7113  0.1090
 4096SOL    HW223748   1.457   2.915  11.237 -1.0480  1.6168 -0.0803
 4097SOL     OW23749   3.574   2.316   2.110  0.3774 -0.2030  0.2279
 4097SOL    HW123750   3.505   2.324   2.044  0.4589  0.4787  0.2234
 4097SOL    HW223751   3.633   2.388   2.087 -0.0699 -0.6080 -2.1459
 4098SOL     OW23752   3.315   0.127   3.594  0.1111  0.3235  0.3780
 4098SOL    HW123753   3.222   0.118   3.615  0.1941  1.3070  1.1568
 4098SOL    HW223754   3.328   0.049   3.540  1.3202  1.6548 -1.2695
 4099SOL     OW23755   3.658   0.439   4.189  0.1327 -0.0797 -0.1682
 4099SOL    HW123756   3.703   0.360   4.159  0.1868 -0.5159  1.0321
 4099SOL    HW223757   3.570   0.402   4.189  0.1229 -0.0651  4.0800
 4100SOL     OW23758   3.066   1.575   6.136  0.3383 -0.0234  0.1408
 4100SOL    HW123759   3.106   1.660   6.115 -0.0183 -0.2212 -1.3111
 4100SOL    HW223760   3.085   1.558   6.228  3.1208 -0.1252 -0.4468
 4101SOL     OW23761   3.217   1.476   8.021  0.2034  0.5995  0.1391
 4101SOL    HW123762   3.149   1.418   8.055  1.8657  0.1617  2.7372
 4101SOL    HW223763   3.191   1.482   7.929  2.2872 -0.8631 -0.5533
 4102SOL     OW23764   2.417   1.982   5.337  0.2973  0.2122  0.2274
 4102SOL    HW123765   2.433   2.057   5.281  0.2446  1.8406  2.4091
 4102SOL    HW223766   2.487   1.922   5.311 -0.9213 -0.7424 -0.8264
 4103SOL     OW23767   3.653   2.689   2.616  0.4996  0.1792 -0.0284
 4103SOL    HW123768   3.651   2.640   2.698  1.5200 -1.5373 -1.0309
 4103SOL    HW223769   3.747   2.696   2.604  0.6404 -0.8833  0.4615
 4104SOL     OW23770   0.235   3.713  15.738  0.1774 -0.2480 -0.0311
 4104SOL    HW123771   0.313   3.699  15.791 -0.3152 -3.7581 -0.2292
 4104SOL    HW223772   0.231   3.630  15.689 -1.1357  0.3900 -1.0105
 4105SOL     OW23773   1.646   2.613   8.900 -0.0729  0.0115 -0.1171
 4105SOL    HW123774   1.608   2.675   8.963 -0.3789 -0.1651 -0.1268
 4105SOL    HW223775   1.719   2.664   8.865  0.2832 -0.2916  0.1882
 4106SOL     OW23776   3.514   4.192  15.284  0.2187 -0.1907 -0.5188
 4106SOL    HW123777   3.447   4.248  15.323 -0.6920 -2.4715  1.1926
 4106SOL    HW223778   3.491   4.106  15.319 -2.2126  0.8541  0.4497
 4107SOL     OW23779   2.434   0.817   6.306 -0.4465 -0.5062 -0.8084
 4107SOL    HW123780   2.418   0.907   6.334  2.1514 -0.1538 -0.4430
 4107SOL    HW223781   2.472   0.772   6.382  0.0565  0.2948 -0.5883
 4108SOL     OW23782   2.128   3.532   8.793  0.1579 -0.1713  0.0032
 4108SOL    HW123783   2.090   3.620   8.795  1.6302  0.4428  0.8977
 4108SOL    HW223784   2.054   3.484   8.830  0.2494 -1.0706 -1.0102
 4109SOL     OW23785   1.113   1.614   4.407  0.0820 -0.8177  0.2360
 4109SOL    HW123786   1.044   1.674   4.380 -1.4065 -2.7543 -0.2788
 4109SOL    HW223787   1.164   1.614   4.326  2.9119 -0.5218  2.0169
 4110SOL     OW23788   2.907   4.643  13.118 -0.0140 -0.2230 -0.7688
 4110SOL    HW123789   2.812   4.635  13.108  0.2916 -2.9671 -1.3554
 4110SOL    HW223790   2.916   0.017  13.110  0.7615 -0.2643 -0.2887
 4111SOL     OW23791   3.074   1.005   7.488  0.1575  0.1536  0.3973
 4111SOL    HW123792   3.144   0.952   7.527 -0.7091 -0.8207  0.6283
 4111SOL    HW223793   3.099   0.983   7.398 -1.2759 -0.8305  0.2370
 4112SOL     OW23794   2.236   0.238   0.839 -0.4156 -0.4983  0.1999
 4112SOL    HW123795   2.238   0.242   0.743 -0.0613 -0.1082  0.2228
 4112SOL    HW223796   2.316   0.190   0.859  0.7224  2.3422  2.4553
 4113SOL     OW23797   0.479   3.917  11.362  1.0286  0.7110  0.5144
 4113SOL    HW123798   0.498   3.991  11.420  0.5893  0.1362  1.3958
 4113SOL    HW223799   0.516   3.945  11.278  3.0108 -0.4298  1.0111
 4114SOL     OW23800   3.541   2.380  11.908 -0.2078  0.1906 -0.5523
 4114SOL    HW123801   3.513   2.456  11.858  0.1163  1.6329  1.4368
 4114SOL    HW223802   3.481   2.321  11.862  0.9074  0.2646 -2.0919
 4115SOL     OW23803   3.919   4.536   2.428 -0.1725  0.0585  0.2251
 4115SOL    HW123804   3.873   4.491   2.357  2.7015 -0.1557 -1.5329
 4115SOL    HW223805   3.843   4.580   2.465 -1.6947 -4.0613  1.9423
 4116SOL     OW23806   3.117   4.546  17.132 -0.0490 -0.1519  0.0857
 4116SOL    HW123807   3.168   4.583  17.205 -1.1330  1.8350 -0.1461
 4116SOL    HW223808   3.141   4.597  17.055  2.0933  2.8540  2.6949
 4117SOL     OW23809   4.216   2.666  14.350  0.0618 -0.2367  0.2969
 4117SOL    HW123810   4.278   2.610  14.397  0.7525 -0.4872 -0.9239
 4117SOL    HW223811   4.257   2.663  14.264 -0.6321 -2.1387  0.0439
 4118SOL     OW23812   0.965   1.817   8.257 -0.3944  0.7965  0.3720
 4118SOL    HW123813   0.951   1.730   8.292  0.6275  0.2076 -0.6633
 4118SOL    HW223814   0.888   1.864   8.288 -1.7048  0.0432 -1.7460
 4119SOL     OW23815   4.074   1.196  12.106  0.1788  0.2098 -0.6289
 4119SOL    HW123816   4.032   1.110  12.096  0.4833  0.2183 -1.8637
 4119SOL    HW223817   4.155   1.176  12.154  1.5068  4.3042 -1.2036
 4120SOL     OW23818   3.188   4.236   0.372 -0.0028 -0.4091  0.0288
 4120SOL    HW123819   3.186   4.189   0.288  1.1266 -1.8497  0.8214
 4120SOL    HW223820   3.110   4.290   0.361  1.0126  0.8421 -1.0821
 4121SOL     OW23821   4.004   4.195   8.252 -0.2350  0.0058 -0.5952
 4121SOL    HW123822   3.914   4.175   8.228 -0.2460 -1.9590  1.1871
 4121SOL    HW223823   3.995   4.286   8.280  0.1617  0.1234 -0.8432
 4122SOL     OW23824   4.363   2.892  12.639  0.3055 -0.1535  0.0754
 4122SOL    HW123825   4.273   2.879  12.669  1.0005  1.7093  2.9326
 4122SOL    HW223826   4.376   2.821  12.576 -1.8687 -1.7698  1.4630
 4123SOL     OW23827   1.675   0.194   9.660  0.2157  0.6448 -0.3995
 4123SOL    HW123828   1.761   0.223   9.629  0.2430  1.0164  0.0208
 4123SOL    HW223829   1.630   0.234   9.586 -0.9464  1.9930  1.0504
 4124SOL     OW23830   1.990   0.234   8.313  0.0473  0.4700 -0.3709
 4124SOL    HW123831   2.016   0.142   8.310  1.1657  0.8299 -1.8314
 4124SOL    HW223832   2.030   0.270   8.233 -0.7583  3.2947  0.5056
 4125SOL     OW23833   1.727   4.303  12.005  0.4580 -0.0867  0.3535
 4125SOL    HW123834   1.822   4.307  12.017  0.3298  0.6297  1.1170
 4125SOL    HW223835   1.734   4.284  11.912  1.3566 -1.7093  0.7351
 4126SOL     OW23836   3.349   2.010   6.985 -0.1967  0.5299  0.4023
 4126SOL    HW123837   3.328   1.918   6.995 -0.9347  0.6585  0.0509
 4126SOL    HW223838   3.333   2.033   6.894  0.1169 -0.9141 -0.0076
 4127SOL     OW23839   2.489   1.711  12.087  0.1195 -0.8474 -0.2267
 4127SOL    HW123840   2.450   1.776  12.146  1.5569  0.2163 -0.4780
 4127SOL    HW223841   2.445   1.733  12.005 -0.0775 -0.8877 -0.1327
 4128SOL     OW23842   0.356   1.788   8.322 -0.3660 -0.1467  0.0611
 4128SOL    HW123843   0.302   1.867   8.322 -0.1256  0.0168  1.7457
 4128SOL    HW223844   0.360   1.761   8.230 -3.6735 -0.8632  0.1286
 4129SOL     OW23845   3.294   2.277   4.562  0.1508 -0.1253 -0.2860
 4129SOL    HW123846   3.351   2.353   4.572  1.3403 -1.0342 -0.1539
 4129SOL    HW223847   3.245   2.294   4.642  0.7848  0.5433 -0.0422
 4130SOL     OW23848   2.532   2.951  11.650  1.1173 -0.5951  0.4202
 4130SOL    HW123849   2.481   3.032  11.652 -0.4699 -1.6409  2.7012
 4130SOL    HW223850   2.469   2.882  11.629  0.7127  0.0581 -0.4763
 4131SOL     OW23851   3.114   0.719  12.300 -0.3702  0.5327  0.0217
 4131SOL    HW123852   3.040   0.740  12.356  0.3894  0.9048  0.8756
 4131SOL    HW223853   3.145   0.641  12.345 -0.5326  0.0001 -0.7900
 4132SOL     OW23854   3.248   1.025   3.536  0.0696 -0.3113  0.2226
 4132SOL    HW123855   3.231   1.089   3.606 -2.6188  1.7130 -2.2816
 4132SOL    HW223856   3.264   0.941   3.579 -0.9336 -1.3820 -1.5061
 4133SOL     OW23857   0.002   1.110   6.322 -0.6191 -0.4127  0.2446
 4133SOL    HW123858   0.047   1.057   6.256 -2.6149 -0.5860 -0.9791
 4133SOL    HW223859   4.637   1.071   6.319 -1.2795  1.0372  0.3636
 4134SOL     OW23860   3.312   3.386   0.379 -0.0867 -0.1692 -0.0715
 4134SOL    HW123861   3.227   3.342   0.375 -0.5844  0.6451  1.6416
 4134SOL    HW223862   3.353   3.323   0.438  1.0268  1.1597  0.5709
 4135SOL     OW23863   2.492   1.325   3.726  0.1705 -0.3643  0.1928
 4135SOL    HW123864   2.561   1.267   3.695 -2.3209 -1.4406 -3.2746
 4135SOL    HW223865   2.436   1.265   3.774  0.9913  0.8873  2.6997
 4136SOL     OW23866   1.280   0.674   6.154  0.4500  0.3260  0.5215
 4136SOL    HW123867   1.259   0.764   6.129 -0.0788 -0.7906 -3.0552
 4136SOL    HW223868   1.243   0.665   6.242  0.6795 -1.9422  0.3926
 4137SOL     OW23869   3.913   0.783   2.282  0.0397 -0.0219  0.8072
 4137SOL    HW123870   3.863   0.722   2.228 -0.0647 -0.2245  1.1325
 4137SOL    HW223871   3.997   0.779   2.235 -0.7713 -2.0087 -0.4489
 4138SOL     OW23872   3.863   0.318   1.645 -0.6358 -0.2144 -0.1605
 4138SOL    HW123873   3.803   0.282   1.711 -1.6254  2.0799  0.1914
 4138SOL    HW223874   3.952   0.306   1.677 -0.3730  0.1934 -0.7356
 4139SOL     OW23875   0.936   4.272  11.609 -0.1326 -0.0691 -0.7337
 4139SOL    HW123876   0.942   4.179  11.630 -2.1748  0.2611  1.3522
 4139SOL    HW223877   0.909   4.275  11.518  1.0958  1.6806 -1.0492
 4140SOL     OW23878   2.230   2.943   1.707  0.1063 -0.3466  0.3705
 4140SOL    HW123879   2.322   2.918   1.696  0.4096  1.2772 -0.7915
 4140SOL    HW223880   2.248   2.989   1.789 -0.9738  2.4630 -0.9647
 4141SOL     OW23881   4.076   1.425  15.325  0.0267 -0.5009 -0.4535
 4141SOL    HW123882   3.996   1.468  15.293 -1.0582 -1.4219  1.0319
 4141SOL    HW223883   4.114   1.420  15.237 -1.1733  0.9183 -1.0578
 4142SOL     OW23884   4.427   0.290   3.050 -0.2713  0.1011 -0.5236
 4142SOL    HW123885   4.354   0.309   2.991  1.2320  1.3706 -1.9746
 4142SOL    HW223886   4.480   0.369   3.049  0.6285 -0.4880  0.6882
 4143SOL     OW23887   4.310   0.844  15.634  0.1412 -0.3552  0.6770
 4143SOL    HW123888   4.372   0.880  15.571 -0.7323  1.9822  1.1301
 4143SOL    HW223889   4.233   0.883  15.591  0.3496 -0.2631  0.3855
 4144SOL     OW23890   2.237   3.901  14.747  0.2848 -0.7172  0.1966
 4144SOL    HW123891   2.221   3.837  14.678 -1.7650 -1.7961  1.6418
 4144SOL    HW223892   2.307   3.954  14.708 -0.0111  0.4878  1.3138
 4145SOL     OW23893   1.227   3.728   1.842  0.0884  0.7821 -0.4156
 4145SOL    HW123894   1.205   3.776   1.762  0.0213  3.1776  1.0267
 4145SOL    HW223895   1.261   3.648   1.803  0.3305  2.2678 -3.2359
 4146SOL     OW23896   1.993   2.245   0.040  0.0821 -0.4145  0.0964
 4146SOL    HW123897   1.909   2.235   0.083  0.0827  0.9691  0.4401
 4146SOL    HW223898   2.052   2.284   0.105  0.1238 -0.7537  0.2587
 4147SOL     OW23899   2.058   0.385  10.542 -0.2807 -0.3796 -0.0083
 4147SOL    HW123900   2.082   0.298  10.574 -0.3651  0.0880  1.3670
 4147SOL    HW223901   1.962   0.388  10.546 -0.4229 -2.0204 -2.4156
 4148SOL     OW23902   4.337   2.737   7.245 -0.5412  0.5099  0.1526
 4148SOL    HW123903   4.406   2.802   7.232 -0.2395  0.6625  2.4447
 4148SOL    HW223904   4.276   2.778   7.306 -0.9240  0.0102  0.1040
 4149SOL     OW23905   4.062   0.531  15.612  0.3993 -0.0119  0.3222
 4149SOL    HW123906   3.980   0.483  15.602 -0.6906  2.1381 -0.9575
 4149SOL    HW223907   4.029   0.616  15.641  0.9494  0.2385  0.2296
 4150SOL     OW23908   4.721   4.181  10.787  0.1767 -0.0217  0.2945
 4150SOL    HW123909   4.714   4.212  10.697 -1.3728 -1.3575 -0.0437
 4150SOL    HW223910   4.637   4.206  10.825 -0.5874 -1.5332 -0.3788
 4151SOL     OW23911   1.173   1.121   5.495 -0.4259 -0.5165 -0.2134
 4151SOL    HW123912   1.265   1.145   5.484 -1.0312  1.2078 -1.3853
 4151SOL    HW223913   1.132   1.189   5.443  0.4225 -0.0849 -0.3165
 4152SOL     OW23914   1.415   2.025   8.626 -0.0409  0.1904 -0.2308
 4152SOL    HW123915   1.459   2.084   8.687 -1.3384  0.7132  0.2020
 4152SOL    HW223916   1.350   2.082   8.586  0.9048  0.6999 -1.0332
 4153SOL     OW23917   0.820   1.266   8.789 -0.5965  0.4046 -0.5566
 4153SOL    HW123918   0.797   1.224   8.872 -0.0257  0.8537 -0.1686
 4153SOL    HW223919   0.914   1.272   8.804 -0.7773  0.4952  0.6112
 4154SOL     OW23920   1.520   0.912  15.921  0.1294  0.0601 -0.1486
 4154SOL    HW123921   1.487   0.936  15.835  1.5095 -0.2600 -0.7677
 4154SOL    HW223922   1.464   0.839  15.947  1.6208 -1.2810 -0.6916
 4155SOL     OW23923   4.385   2.092   1.119 -0.6801  0.3226 -0.1911
 4155SOL    HW123924   4.368   2.159   1.185 -0.0544  0.8356 -0.5437
 4155SOL    HW223925   4.415   2.022   1.177  0.7122 -1.0089 -2.4974
 4156SOL     OW23926   4.481   3.490   4.378  0.2658 -0.1337  0.1357
 4156SOL    HW123927   4.458   3.532   4.295 -1.9937  0.4464  1.0544
 4156SOL    HW223928   4.404   3.511   4.432  0.5247 -0.2222  0.5385
 4157SOL     OW23929   2.519   2.861   2.853  0.0393 -0.3365  0.0430
 4157SOL    HW123930   2.473   2.884   2.773  0.3301  0.1377  0.0128
 4157SOL    HW223931   2.542   2.771   2.828  2.0144  0.4262 -0.9495
 4158SOL     OW23932   1.809   3.815   2.081 -0.4191 -0.8920 -0.1429
 4158SOL    HW123933   1.839   3.739   2.131  1.0382 -0.7397 -0.7660
 4158SOL    HW223934   1.883   3.821   2.020 -0.6555  0.0638 -0.3383
 4159SOL     OW23935   4.006   0.851   6.357  0.0693  0.2686  0.0909
 4159SOL    HW123936   3.960   0.913   6.300  2.4302  1.4001 -0.5547
 4159SOL    HW223937   4.045   0.792   6.292 -0.4904  0.8602 -0.7863
 4160SOL     OW23938   2.371   0.919   7.953 -0.7768  0.7290 -0.2673
 4160SOL    HW123939   2.370   0.884   8.042 -1.5193 -0.2612 -0.6671
 4160SOL    HW223940   2.457   0.889   7.925 -1.7573 -1.3859 -1.0308
 4161SOL     OW23941   3.087   1.817   4.520 -0.0994  0.4200 -0.0670
 4161SOL    HW123942   3.164   1.791   4.571  0.6191  1.1251 -0.8003
 4161SOL    HW223943   3.103   1.790   4.430 -0.3569 -0.6703  0.2196
 4162SOL     OW23944   1.177   1.759   7.303 -0.4343  0.0022  0.0701
 4162SOL    HW123945   1.261   1.794   7.272 -0.1791  0.1191  0.8907
 4162SOL    HW223946   1.134   1.844   7.299 -0.4426 -0.0202 -0.3387
 4163SOL     OW23947   0.806   3.738   2.978  0.1726 -0.3245 -0.3444
 4163SOL    HW123948   0.717   3.754   3.010 -0.1001 -0.3010 -1.1121
 4163SOL    HW223949   0.788   3.741   2.884  1.1640  0.7089 -0.5032
 4164SOL     OW23950   0.499   4.608   2.543 -0.2376  0.4495 -0.4921
 4164SOL    HW123951   0.477   4.561   2.624 -0.5918  1.0324 -0.2518
 4164SOL    HW223952   0.410   4.614   2.507 -0.2834 -1.2090 -0.6715
 4165SOL     OW23953   1.933   0.728  16.479 -0.1549 -0.1879 -0.2203
 4165SOL    HW123954   1.932   0.632  16.487 -0.2191 -0.0472  1.4598
 4165SOL    HW223955   1.881   0.757  16.554  1.0846 -0.6370  0.8135
 4166SOL     OW23956   2.499   4.386   8.608  0.7437  0.0703  0.4191
 4166SOL    HW123957   2.523   4.402   8.699 -2.5151  1.5547  1.0286
 4166SOL    HW223958   2.546   4.454   8.560 -0.3903 -0.1123 -0.9424
 4167SOL     OW23959   1.016   3.659   9.230 -0.8373 -0.1756 -0.3001
 4167SOL    HW123960   1.080   3.707   9.283  0.2017  0.2740 -1.9677
 4167SOL    HW223961   0.951   3.727   9.212 -1.3100 -0.3617  0.6743
 4168SOL     OW23962   4.438   2.541  10.092 -0.3901  0.3080 -0.7881
 4168SOL    HW123963   4.424   2.452  10.122  1.3636 -0.0463 -1.0272
 4168SOL    HW223964   4.510   2.578  10.143 -2.7285  2.8729  0.6801
 4169SOL     OW23965   0.450   4.003   7.108 -0.1396 -0.2496 -0.0058
 4169SOL    HW123966   0.367   4.050   7.114 -0.8159 -1.0492 -2.7524
 4169SOL    HW223967   0.481   4.066   7.043  1.4063 -0.9619  0.0377
 4170SOL     OW23968   0.874   1.924   5.672  0.5552 -0.3431 -0.1358
 4170SOL    HW123969   0.854   1.985   5.743  1.1158  2.0134 -1.9919
 4170SOL    HW223970   0.899   1.846   5.722  2.5546 -0.5293 -1.3811
 4171SOL     OW23971   4.666   4.156   2.236 -0.0017 -0.0294 -0.3965
 4171SOL    HW123972   0.038   4.167   2.217 -0.4236  2.5513 -1.0154
 4171SOL    HW223973   4.634   4.110   2.158  1.2047  2.9815 -2.6734
 4172SOL     OW23974   3.457   0.093  13.564  0.0584 -0.0861  0.2831
 4172SOL    HW123975   3.429   0.002  13.576 -2.5342  0.5342 -0.9326
 4172SOL    HW223976   3.381   0.118  13.512 -0.3850 -3.8409 -0.8909
 4173SOL     OW23977   2.421   3.347   2.216  0.3254  0.3874 -0.3444
 4173SOL    HW123978   2.399   3.413   2.151  2.2289  1.3989  0.0458
 4173SOL    HW223979   2.512   3.375   2.223  0.2079  0.7327 -0.1966
 4174SOL     OW23980   2.415   0.410   7.630  0.0133  0.1986  0.1655
 4174SOL    HW123981   2.421   0.360   7.711 -1.1300  0.7988  0.6190
 4174SOL    HW223982   2.372   0.486   7.668  1.1479  0.5674  0.6963
 4175SOL     OW23983   0.016   0.558   0.435 -0.5518  0.1035  0.0808
 4175SOL    HW123984   0.001   0.533   0.344 -1.3763 -0.1750  0.2889
 4175SOL    HW223985   4.665   0.507   0.473 -1.1551  0.1195 -1.0689
 4176SOL     OW23986   4.721   0.277   4.211 -0.0496 -0.3437 -1.1231
 4176SOL    HW123987   4.655   0.207   4.211 -0.6726  0.2449  0.2851
 4176SOL    HW223988   0.081   0.226   4.215 -0.2366 -0.6303 -0.9214
 4177SOL     OW23989   3.499   4.574  17.082  0.3389  0.0690 -0.1544
 4177SOL    HW123990   3.561   4.578  17.009  1.2164  0.9238  0.6371
 4177SOL    HW223991   3.415   4.595  17.040  0.4922 -1.6255 -1.3286
 4178SOL     OW23992   1.469   3.505   4.201  0.3252 -0.0181  0.0069
 4178SOL    HW123993   1.520   3.533   4.125  0.1083  0.4208  0.0221
 4178SOL    HW223994   1.499   3.414   4.197  0.4570  0.0782 -1.1963
 4179SOL     OW23995   2.693   3.436   1.087  0.5819 -0.3029  0.0248
 4179SOL    HW123996   2.756   3.453   1.157 -0.8692 -0.1086  1.2803
 4179SOL    HW223997   2.612   3.482   1.106  1.5872  1.2780  0.5038
 4180SOL     OW23998   4.447   1.422  15.943  0.4907 -0.2885 -0.0202
 4180SOL    HW123999   4.454   1.360  15.871 -2.4269 -3.5378  2.4529
 4180SOL    HW224000   4.504   1.381  16.008 -0.2919 -0.9668  0.2476
 4181SOL     OW24001   0.183   3.719   5.786 -0.0803  0.0569 -0.1161
 4181SOL    HW124002   0.104   3.735   5.838 -1.2781  0.5646 -2.0695
 4181SOL    HW224003   0.191   3.623   5.789  1.4078  0.2419  2.0248
 4182SOL     OW24004   3.099   3.512  15.568  0.0868 -0.4676  0.1095
 4182SOL    HW124005   3.073   3.423  15.593  0.9580 -0.6385  0.3959
 4182SOL    HW224006   3.168   3.493  15.505  0.4865 -0.6014  0.5931
 4183SOL     OW24007   1.895   2.094   6.067  0.4072 -0.0225 -0.6693
 4183SOL    HW124008   1.841   2.016   6.078  1.6761 -0.8469 -0.2069
 4183SOL    HW224009   1.925   2.083   5.977 -1.2066 -0.8923 -1.0892
 4184SOL     OW24010   0.655   1.720   1.746  0.0991  0.0463  0.3063
 4184SOL    HW124011   0.588   1.682   1.689  0.1626 -1.2903  1.1134
 4184SOL    HW224012   0.637   1.664   1.822  1.4924 -0.9386 -0.1038
 4185SOL     OW24013   1.989   4.650   8.633  0.0324 -0.4385  0.0972
 4185SOL    HW124014   2.080   4.680   8.630 -0.3683  0.7401 -0.0287
 4185SOL    HW224015   1.972   4.636   8.540 -0.9561  0.4591  0.1500
 4186SOL     OW24016   4.612   3.597  15.564 -0.0119 -0.0174 -0.4524
 4186SOL    HW124017   4.668   3.650  15.507  1.2381  1.4662  2.1465
 4186SOL    HW224018   4.668   3.523  15.587  0.7466  0.8475  0.4732
 4187SOL     OW24019   4.543   3.222  14.353 -0.5058  0.2611  0.1073
 4187SOL    HW124020   4.473   3.157  14.349  0.2365 -0.4298 -1.5245
 4187SOL    HW224021   4.600   3.181  14.419  1.1451  1.8829 -0.3018
 4188SOL     OW24022   2.736   1.611   4.826  0.4147  0.6048  0.1894
 4188SOL    HW124023   2.824   1.622   4.790  0.5165 -0.0397  0.2324
 4188SOL    HW224024   2.738   1.516   4.841 -1.7037  0.4100 -0.7352
 4189SOL     OW24025   0.075   1.243   7.758 -0.3696  0.2108  0.3347
 4189SOL    HW124026   0.096   1.160   7.801 -2.2364  0.4926  1.7747
 4189SOL    HW224027   0.032   1.211   7.678  0.9511 -2.1614  0.5794
 4190SOL     OW24028   1.842   1.005   6.147  0.2103 -0.2720  0.2728
 4190SOL    HW124029   1.814   0.930   6.095 -0.1759 -0.8564  1.3092
 4190SOL    HW224030   1.773   1.069   6.132  0.5044  0.5274  2.3022
 4191SOL     OW24031   0.195   0.288   5.423  0.0306 -0.3189 -0.3523
 4191SOL    HW124032   0.100   0.288   5.424  0.0692 -1.8771  3.3543
 4191SOL    HW224033   0.219   0.215   5.481  0.0266 -0.4596 -0.5299
 4192SOL     OW24034   2.721   1.963   8.224  0.5007  0.0715 -0.7120
 4192SOL    HW124035   2.641   1.924   8.257 -0.1094  2.7357  0.9866
 4192SOL    HW224036   2.770   1.884   8.202  1.9568  1.4314 -2.3748
 4193SOL     OW24037   2.313   2.250   6.232  0.2296  0.2733 -0.7144
 4193SOL    HW124038   2.340   2.167   6.192  1.2264 -0.5353  1.6690
 4193SOL    HW224039   2.397   2.296   6.232 -0.5646  1.7322  2.2715
 4194SOL     OW24040   2.015   4.596   2.973 -0.6748  0.1733  0.2449
 4194SOL    HW124041   2.093   4.584   2.918 -0.6610  0.1564  0.2681
 4194SOL    HW224042   2.060   4.593   3.057 -2.4603  1.2228  1.2304
 4195SOL     OW24043   2.160   3.252   8.193  0.2676  0.5654  0.1949
 4195SOL    HW124044   2.099   3.183   8.166  0.9201  0.4758 -1.0766
 4195SOL    HW224045   2.159   3.236   8.287 -1.9276  0.3121  0.1382
 4196SOL     OW24046   1.028   3.741   3.847 -0.3505 -0.5489 -0.0291
 4196SOL    HW124047   0.938   3.754   3.880  0.2647  0.1760  1.3759
 4196SOL    HW224048   1.032   3.800   3.772 -2.5408  0.0770  0.3205
 4197SOL     OW24049   3.726   0.047  14.796  0.0579 -0.5124 -0.0053
 4197SOL    HW124050   3.683   4.704  14.740 -0.9317 -0.7961  1.0727
 4197SOL    HW224051   3.653   0.109  14.801 -0.6720 -1.4058  0.4040
 4198SOL     OW24052   4.552   0.028   2.943  0.1892  0.3354 -0.3400
 4198SOL    HW124053   4.496   0.096   2.980  2.2581  1.9637 -0.2385
 4198SOL    HW224054   4.516   4.674   2.990  0.7323  0.8820  0.9393
 4199SOL     OW24055   1.195   1.479  15.116 -0.6356 -0.4994 -0.3633
 4199SOL    HW124056   1.185   1.438  15.202 -0.4843 -0.2955 -0.2488
 4199SOL    HW224057   1.281   1.443  15.092  0.8071  1.5010  1.8713
 4200SOL     OW24058   0.268   4.110   4.335 -0.0509  0.1386  0.5931
 4200SOL    HW124059   0.359   4.128   4.308 -0.5437  1.1502 -0.4133
 4200SOL    HW224060   0.240   4.201   4.340 -0.1198  0.1606 -0.1998
 4201SOL     OW24061   0.259   1.508   9.037 -0.0782 -0.4141 -0.0601
 4201SOL    HW124062   0.251   1.529   9.130 -0.1124 -1.5490  0.1951
 4201SOL    HW224063   0.312   1.428   9.042  0.7410  0.2318  1.2974
 4202SOL     OW24064   2.074   4.255   8.890 -0.0814 -0.5271  0.0635
 4202SOL    HW124065   2.035   4.337   8.860 -0.4588 -0.3857  0.9456
 4202SOL    HW224066   2.143   4.274   8.954 -0.0159  2.2184 -0.8251
 4203SOL     OW24067   4.293   1.921   3.929  0.0290  0.2784  0.0479
 4203SOL    HW124068   4.214   1.967   3.901 -0.0934  0.6599  1.0055
 4203SOL    HW224069   4.334   1.994   3.976  1.9460  0.5202 -2.0432
 4204SOL     OW24070   3.674   3.845   4.397 -0.5267 -0.1794 -0.1843
 4204SOL    HW124071   3.686   3.934   4.365 -2.6627  0.6068  1.1482
 4204SOL    HW224072   3.591   3.822   4.356 -0.3154 -1.3252  0.0508
 4205SOL     OW24073   4.232   4.563   7.679 -0.5627 -0.5985  0.4502
 4205SOL    HW124074   4.239   4.653   7.711 -0.0519  0.1460 -1.7399
 4205SOL    HW224075   4.176   4.574   7.602  1.3313 -3.3426 -1.3336
 4206SOL     OW24076   1.586   0.498   4.726 -0.7978  0.8137  0.0605
 4206SOL    HW124077   1.584   0.459   4.813  0.3540 -1.2808 -0.8500
 4206SOL    HW224078   1.578   0.416   4.678  2.9064 -0.0842  0.9591
 4207SOL     OW24079   3.529   3.216   2.544  0.1189  0.6220 -0.0484
 4207SOL    HW124080   3.573   3.145   2.590 -0.9827  0.5427  0.8901
 4207SOL    HW224081   3.531   3.163   2.465  1.4238  0.5967  0.0121
 4208SOL     OW24082   3.003   1.817   7.205  0.0929  0.0831  0.4292
 4208SOL    HW124083   2.918   1.854   7.182  0.3097 -0.4575 -1.2531
 4208SOL    HW224084   2.991   1.739   7.150 -2.0313 -0.7316  2.0351
 4209SOL     OW24085   0.368   0.177   7.522  0.1976  0.0226 -0.7920
 4209SOL    HW124086   0.388   0.253   7.468 -0.5792 -0.0366 -1.1531
 4209SOL    HW224087   0.299   0.142   7.466 -1.2448  0.5895  0.6670
 4210SOL     OW24088   3.719   4.102  11.274  0.3769 -0.2254 -0.0054
 4210SOL    HW124089   3.722   4.029  11.337 -0.3466  1.1282  1.5879
 4210SOL    HW224090   3.644   4.151  11.307 -0.2231 -0.7727 -0.5563
 4211SOL     OW24091   1.095   0.674  15.645 -1.0619  0.0560  0.4721
 4211SOL    HW124092   1.089   0.736  15.718 -0.2372  0.9712 -0.2386
 4211SOL    HW224093   1.089   0.738  15.574  1.3636 -0.5067 -0.2301
 4212SOL     OW24094   2.396   0.911   4.838  0.2883 -0.6287 -0.9354
 4212SOL    HW124095   2.384   0.861   4.919  2.2308 -0.7325 -0.6973
 4212SOL    HW224096   2.388   0.833   4.782 -2.0644 -0.4351 -0.8505
 4213SOL     OW24097   1.585   0.002   7.866 -0.3694 -0.3256  0.1185
 4213SOL    HW124098   1.645   0.071   7.895  0.2933 -1.4144  1.3570
 4213SOL    HW224099   1.643   4.647   7.872 -0.9776 -0.7426  0.6681
 4214SOL     OW24100   4.534   0.906   3.547 -0.1548  0.6274  0.2196
 4214SOL    HW124101   4.479   0.840   3.505 -0.0923  0.5428  0.2692
 4214SOL    HW224102   4.493   0.909   3.634 -0.8311 -0.9550 -0.0456
 4215SOL     OW24103   1.847   2.962   0.425  0.3782 -0.6144  0.2677
 4215SOL    HW124104   1.803   2.983   0.507  0.2683 -2.1421  0.5964
 4215SOL    HW224105   1.844   3.039   0.367  1.7349 -1.1937 -0.5621
 4216SOL     OW24106   0.206   0.811  15.076 -0.2591  0.2236  0.3966
 4216SOL    HW124107   0.230   0.809  15.169  2.8516  3.6935 -0.3247
 4216SOL    HW224108   0.291   0.795  15.036 -0.6342 -1.4204  0.2683
 4217SOL     OW24109   0.744   2.773   3.247  0.2341 -0.0247 -0.3143
 4217SOL    HW124110   0.782   2.850   3.290 -0.9896 -0.2314  1.1274
 4217SOL    HW224111   0.668   2.753   3.302 -1.5123  2.2768 -1.9081
 4218SOL     OW24112   1.292   1.304   7.031  0.2436  0.5531  0.0411
 4218SOL    HW124113   1.379   1.305   6.992  0.6713  1.2947  1.0260
 4218SOL    HW224114   1.303   1.239   7.100 -1.3149 -1.9770 -2.0563
 4219SOL     OW24115   1.008   0.562   3.426 -0.2162  0.1507  0.5119
 4219SOL    HW124116   1.033   0.470   3.415  0.2313  0.4949 -1.2952
 4219SOL    HW224117   1.078   0.577   3.490  1.2084  0.9169 -1.2351
 4220SOL     OW24118   3.108   1.663   4.287  0.2471 -0.2319  0.2285
 4220SOL    HW124119   3.019   1.642   4.260  0.2572  1.7564 -1.3401
 4220SOL    HW224120   3.138   1.684   4.199 -1.4654  1.2958  0.0090
 4221SOL     OW24121   3.212   4.675   2.838 -0.6024 -0.1785 -0.1450
 4221SOL    HW124122   3.168   4.711   2.915 -0.2965  1.1593 -0.5776
 4221SOL    HW224123   3.297   4.654   2.877  0.4036  2.3737 -0.8950
 4222SOL     OW24124   3.640   1.034   3.632  0.9205  0.4761  0.8016
 4222SOL    HW124125   3.585   1.090   3.577 -0.6347 -1.1101  0.7145
 4222SOL    HW224126   3.725   1.052   3.593  0.1745 -2.0657 -1.9747
 4223SOL     OW24127   4.540   1.947  16.806  0.1518 -0.3364  0.2260
 4223SOL    HW124128   4.548   2.024  16.861  0.9960  0.2257 -0.6777
 4223SOL    HW224129   4.450   1.923  16.829 -0.4489  0.7345 -1.0149
 4224SOL     OW24130   0.728   1.687   4.147 -0.1496  0.4561  0.0981
 4224SOL    HW124131   0.756   1.603   4.112 -2.5355 -0.8467  1.2961
 4224SOL    HW224132   0.702   1.726   4.064 -0.3843 -0.4254 -0.2409
 4225SOL     OW24133   0.496   1.473   3.521 -0.2458 -0.1848  0.4927
 4225SOL    HW124134   0.569   1.413   3.508  0.1668  0.2164  1.0123
 4225SOL    HW224135   0.472   1.484   3.428  0.6000 -0.7637  0.2122
 4226SOL     OW24136   4.337   1.974   7.166 -0.0150  0.9341 -0.1307
 4226SOL    HW124137   4.315   2.000   7.255 -0.4759  3.0514 -0.8700
 4226SOL    HW224138   4.257   1.925   7.151  1.2498 -1.2757  0.3414
 4227SOL     OW24139   2.591   1.681   4.565 -0.4969  0.4013 -0.2877
 4227SOL    HW124140   2.682   1.707   4.556 -0.5133  0.9666  1.0518
 4227SOL    HW224141   2.567   1.731   4.644 -0.0579 -0.0892  0.1519
 4228SOL     OW24142   2.196   0.051  17.312 -0.5341 -0.1412  0.3927
 4228SOL    HW124143   2.136   0.101  17.256 -0.5323  0.8536  1.2887
 4228SOL    HW224144   2.283   0.072  17.279 -1.0003 -0.1927 -0.8920
 4229SOL     OW24145   3.912   2.124   0.541 -0.0682 -0.0318 -0.1373
 4229SOL    HW124146   3.954   2.131   0.455 -1.1554 -2.3261 -0.8390
 4229SOL    HW224147   3.839   2.186   0.540  0.6410  0.8075 -0.7065
 4230SOL     OW24148   1.952   0.797   9.221 -0.6123 -0.1038 -0.0847
 4230SOL    HW124149   2.044   0.806   9.244 -0.2512 -0.4354 -1.4041
 4230SOL    HW224150   1.950   0.822   9.129 -2.4118 -2.3142 -0.6640
 4231SOL     OW24151   1.300   4.608  10.897 -0.4090 -0.1118 -0.3250
 4231SOL    HW124152   1.309   4.555  10.976 -0.7846  0.1411 -0.1123
 4231SOL    HW224153   1.317   4.548  10.824 -0.8777  1.5877 -1.8323
 4232SOL     OW24154   0.796   2.938  12.633  0.6283  0.0763 -0.2585
 4232SOL    HW124155   0.864   2.908  12.694  1.0404  0.5720 -0.4675
 4232SOL    HW224156   0.818   3.031  12.626  0.4270  0.1154 -0.3505
 4233SOL     OW24157   2.105   1.799   4.785  0.0958  0.1853  0.5370
 4233SOL    HW124158   2.140   1.876   4.740  0.0739 -1.8407 -2.9251
 4233SOL    HW224159   2.139   1.829   4.869  0.3936 -1.0816  0.8824
 4234SOL     OW24160   0.810   4.703  13.321  0.2334  0.0571  0.2106
 4234SOL    HW124161   0.830   0.072  13.297  0.6423  0.1054  0.7306
 4234SOL    HW224162   0.727   4.675  13.281 -0.8114  3.0646  0.2860
 4235SOL     OW24163   2.499   1.239   7.725  0.4396 -0.3573  0.4947
 4235SOL    HW124164   2.418   1.289   7.739  1.0839  1.2931 -1.8122
 4235SOL    HW224165   2.554   1.272   7.796 -0.7739  2.2128  0.2612
 4236SOL     OW24166   2.066   4.164   2.722 -0.7321 -0.0935 -0.5974
 4236SOL    HW124167   2.131   4.111   2.677  0.9460  0.4430  1.1944
 4236SOL    HW224168   2.047   4.115   2.802  1.5637 -0.1769 -0.0970
 4237SOL     OW24169   2.626   4.048   4.666 -0.8171  0.1890 -0.8644
 4237SOL    HW124170   2.680   4.126   4.676  0.8440 -1.2188  0.9645
 4237SOL    HW224171   2.687   3.985   4.627 -0.0750  1.5259 -1.8706
 4238SOL     OW24172   1.597   0.126   1.530 -0.0690  0.0440  0.1002
 4238SOL    HW124173   1.631   0.192   1.590 -0.3682  1.7142 -1.5565
 4238SOL    HW224174   1.678   0.087   1.499  0.2965  0.7776  0.1354
 4239SOL     OW24175   3.412   0.292  10.841 -0.1227 -0.3432 -0.2273
 4239SOL    HW124176   3.354   0.361  10.809  0.6554  1.0716  1.4527
 4239SOL    HW224177   3.380   0.219  10.787 -0.7068  0.4898 -0.9961
 4240SOL     OW24178   3.020   3.412  11.574 -0.1405 -0.1123  0.2466
 4240SOL    HW124179   2.947   3.367  11.531 -1.1260 -0.7034  2.5377
 4240SOL    HW224180   3.085   3.341  11.578 -0.8789 -1.0379 -4.4464
 4241SOL     OW24181   4.035   1.841   4.687 -0.0580  0.2530  0.4718
 4241SOL    HW124182   4.040   1.904   4.759  2.3816  0.9657 -0.3339
 4241SOL    HW224183   4.122   1.799   4.683 -0.2758 -0.1034 -0.5789
 4242SOL     OW24184   0.441   4.302  10.852  0.3043  0.0243 -0.5535
 4242SOL    HW124185   0.425   4.215  10.887  0.2968  0.5413  0.7393
 4242SOL    HW224186   0.412   4.311  10.761  1.5289  0.4317 -0.9017
 4243SOL     OW24187   2.317   2.946   5.697  0.7558  0.2609  0.4052
 4243SOL    HW124188   2.221   2.949   5.706  0.7344  1.6183 -0.4033
 4243SOL    HW224189   2.335   3.037   5.720 -3.7514  1.7608 -1.9156
 4244SOL     OW24190   1.892   0.288   9.504  0.1421 -0.1142 -0.4856
 4244SOL    HW124191   1.872   0.357   9.440 -0.2550  1.6162  1.5121
 4244SOL    HW224192   1.983   0.305   9.528  0.7811 -1.2930 -2.0205
 4245SOL     OW24193   0.963   0.293   5.680  0.0260  0.2985  0.3432
 4245SOL    HW124194   0.906   0.364   5.652 -0.8635 -1.5358 -2.5197
 4245SOL    HW224195   0.927   0.214   5.640  5.6649 -1.2215 -1.8443
 4246SOL     OW24196   4.128   3.126   5.206  0.2598 -0.2733  0.1391
 4246SOL    HW124197   4.127   3.035   5.176  0.0361  0.2535 -1.4799
 4246SOL    HW224198   4.048   3.166   5.172 -0.5091 -0.5452  1.6427
 4247SOL     OW24199   2.475   2.265  16.316  0.3006 -0.2733  0.4688
 4247SOL    HW124200   2.567   2.259  16.343 -0.1442 -1.1572  1.8493
 4247SOL    HW224201   2.448   2.351  16.346 -0.1682 -0.2131 -0.1218
 4248SOL     OW24202   3.534   2.711   0.591  0.1538 -0.1134 -0.3907
 4248SOL    HW124203   3.615   2.660   0.594 -0.4175 -0.9917  0.2618
 4248SOL    HW224204   3.537   2.742   0.501  2.4087  0.0933 -0.2624
 4249SOL     OW24205   4.456   3.164   0.049  0.0295  0.4124  0.2519
 4249SOL    HW124206   4.504   3.098   0.100 -2.2138 -1.7528 -0.4927
 4249SOL    HW224207   4.382   3.110   0.024 -0.6846  1.3717  0.3130
 4250SOL     OW24208   0.613   3.649   6.353 -0.1821  0.3983 -0.3492
 4250SOL    HW124209   0.578   3.582   6.295  1.4028 -1.0270  0.3750
 4250SOL    HW224210   0.534   3.696   6.380  0.3986  1.5749 -0.6884
 4251SOL     OW24211   4.107   0.521   6.220  0.1185 -0.4950  0.6173
 4251SOL    HW124212   4.132   0.608   6.188  0.1696 -1.1358 -1.0736
 4251SOL    HW224213   4.041   0.482   6.164 -0.7084  1.8759 -0.0482
 4252SOL     OW24214   3.980   4.391   5.459 -0.2393 -0.1589 -0.2877
 4252SOL    HW124215   3.941   4.336   5.526 -0.4667  0.7068  0.2959
 4252SOL    HW224216   3.930   4.470   5.479 -0.0808  0.4701 -2.3367
 4253SOL     OW24217   2.199   4.016   2.277  0.5633  0.0631  0.0707
 4253SOL    HW124218   2.126   3.957   2.258 -0.1794  0.8369  0.5380
 4253SOL    HW224219   2.150   4.098   2.270  0.8827  0.0576 -2.2062
 4254SOL     OW24220   1.584   0.382   2.100  0.4710 -0.4069  0.2353
 4254SOL    HW124221   1.521   0.364   2.170  0.7684 -1.5856  0.1914
 4254SOL    HW224222   1.527   0.368   2.025  1.6991  2.0297 -1.1447
 4255SOL     OW24223   2.351   3.712   6.916 -0.4970  0.4814 -0.0525
 4255SOL    HW124224   2.383   3.654   6.985  0.3853 -0.0225 -0.8851
 4255SOL    HW224225   2.407   3.691   6.841 -0.7474 -0.0627 -0.0867
 4256SOL     OW24226   3.517   4.520   2.611 -0.2669 -0.0403  0.0801
 4256SOL    HW124227   3.428   4.490   2.595 -0.8507  0.3843  2.5010
 4256SOL    HW224228   3.526   4.575   2.534 -0.3371  0.7406  0.6224
 4257SOL     OW24229   0.091   0.358   7.522 -0.4889 -0.3229  0.4444
 4257SOL    HW124230   0.136   0.352   7.438  0.0027 -3.3033  0.9362
 4257SOL    HW224231   0.074   0.452   7.513 -0.5465 -0.4337 -0.6029
 4258SOL     OW24232   4.464   4.696   1.878 -0.3132  1.0187 -0.0195
 4258SOL    HW124233   4.504   0.039   1.819  1.4354 -2.3309 -2.4584
 4258SOL    HW224234   4.528   4.626   1.891 -0.0916  1.0796 -0.7809
 4259SOL     OW24235   2.315   1.322   3.161  0.2605  0.0013 -0.3768
 4259SOL    HW124236   2.298   1.229   3.146  0.3616 -0.0566 -0.1437
 4259SOL    HW224237   2.411   1.325   3.166  0.2066  0.9979 -0.0613
 4260SOL     OW24238   3.561   0.305   3.801 -0.2936  0.2789 -0.2101
 4260SOL    HW124239   3.642   0.257   3.817  0.3395  1.6757  0.7726
 4260SOL    HW224240   3.515   0.294   3.885  1.8566  2.0503  1.1843
 4261SOL     OW24241   1.352   0.968  14.283  0.1169 -0.1600 -0.0658
 4261SOL    HW124242   1.388   1.042  14.235  0.0613  0.3570  0.6966
 4261SOL    HW224243   1.360   0.905  14.212  3.4489  1.2963 -0.9806
 4262SOL     OW24244   2.256   1.052   6.393  0.0477 -0.1336  0.0258
 4262SOL    HW124245   2.248   1.069   6.487 -1.4829 -1.2158  0.0742
 4262SOL    HW224246   2.221   0.964   6.386 -1.1966  0.0389  4.0039
 4263SOL     OW24247   3.713   0.444   6.812  0.1115  0.4901 -0.6193
 4263SOL    HW124248   3.672   0.365   6.777  1.3689  0.4405 -1.9808
 4263SOL    HW224249   3.805   0.422   6.806  0.0366  0.3422 -1.1660
 4264SOL     OW24250   2.924   1.589   5.473 -0.2045  0.0514  0.7800
 4264SOL    HW124251   2.968   1.645   5.537 -1.3969 -0.9311  2.4811
 4264SOL    HW224252   2.906   1.655   5.406  1.4273 -2.0425 -1.6617
 4265SOL     OW24253   1.279   4.356   4.031  0.3380  0.1485  0.1221
 4265SOL    HW124254   1.288   4.380   3.939  1.5718  0.3184  0.2892
 4265SOL    HW224255   1.365   4.375   4.069  0.5698 -1.1000  0.2251
 4266SOL     OW24256   4.007   3.760  14.523  0.2785 -0.6604 -0.1851
 4266SOL    HW124257   4.054   3.841  14.504 -0.8135  0.2118  0.8760
 4266SOL    HW224258   3.996   3.758  14.618 -1.7301  0.1675 -0.4124
 4267SOL     OW24259   0.756   2.570   6.331  0.3384  0.4913  0.1054
 4267SOL    HW124260   0.725   2.480   6.320  1.0407  0.5249 -2.0867
 4267SOL    HW224261   0.708   2.602   6.255 -0.1104  1.0222  0.6154
 4268SOL     OW24262   0.279   4.289  10.634 -0.6126 -0.2676  0.0150
 4268SOL    HW124263   0.279   4.307  10.540  4.5058  0.1267  0.1123
 4268SOL    HW224264   0.189   4.310  10.658 -0.0792  2.0815 -0.0374
 4269SOL     OW24265   4.332   3.891   3.039 -0.5261  0.3755 -0.1130
 4269SOL    HW124266   4.336   3.956   2.969  2.2190 -0.9022 -1.1701
 4269SOL    HW224267   4.238   3.887   3.054 -0.5381 -2.1939 -0.8577
 4270SOL     OW24268   3.914   3.351  13.666 -0.3899 -0.7396 -0.4895
 4270SOL    HW124269   3.959   3.432  13.644 -3.0528 -0.1129 -3.5814
 4270SOL    HW224270   3.833   3.389  13.700 -0.6227 -2.3261  0.7178
 4271SOL     OW24271   0.752   2.809  10.478 -0.2670  0.2322  0.4089
 4271SOL    HW124272   0.729   2.885  10.425  2.4034 -0.6246 -1.9933
 4271SOL    HW224273   0.824   2.842  10.532  1.0454 -1.2073 -0.4438
 4272SOL     OW24274   2.693   3.345  11.755 -0.8914 -0.3338  0.2722
 4272SOL    HW124275   2.661   3.431  11.727  1.6453  0.7359  0.6168
 4272SOL    HW224276   2.725   3.363  11.844 -1.6780  1.3036  0.2215
 4273SOL     OW24277   0.387   1.825   9.450  0.9108 -0.0390  0.5446
 4273SOL    HW124278   0.444   1.892   9.414  2.0678 -0.7054  1.1228
 4273SOL    HW224279   0.452   1.762   9.481  1.4109 -0.6573 -1.7510
 4274SOL     OW24280   2.036   4.697  12.797 -0.0834  0.1688 -0.5067
 4274SOL    HW124281   2.030   4.686  12.892 -0.7609  0.3387 -0.5319
 4274SOL    HW224282   2.114   4.642  12.789 -0.0080  0.0126  1.2950
 4275SOL     OW24283   0.401   2.913   4.445  0.0110  0.4919 -0.0714
 4275SOL    HW124284   0.443   2.958   4.518  3.0058  0.3958 -1.7154
 4275SOL    HW224285   0.460   2.837   4.435 -1.2870 -0.1662 -2.8966
 4276SOL     OW24286   3.417   2.727   4.175  0.0999 -0.0885 -0.1094
 4276SOL    HW124287   3.356   2.734   4.101  1.4987  1.8376 -1.0884
 4276SOL    HW224288   3.485   2.679   4.128 -1.2773 -1.7294 -0.4480
 4277SOL     OW24289   2.066   4.666   9.456 -0.3003  0.0031  1.1795
 4277SOL    HW124290   1.971   4.656   9.467 -0.3029  0.3802  1.4969
 4277SOL    HW224291   2.080   0.005   9.383  2.2248  0.8163  2.3490
 4278SOL     OW24292   3.788   2.944   5.813  0.3344 -0.4476  0.0409
 4278SOL    HW124293   3.859   2.888   5.782  1.0068  0.2600  0.2696
 4278SOL    HW224294   3.801   3.026   5.764 -1.8186 -0.7291 -0.9822
 4279SOL     OW24295   2.418   0.450   6.889  0.0133  0.4944 -0.0222
 4279SOL    HW124296   2.377   0.517   6.834 -1.3877 -0.0679  0.3260
 4279SOL    HW224297   2.455   0.385   6.830  0.9039  1.6571 -0.7455
 4280SOL     OW24298   2.643   3.135  10.342  0.2182  0.2513  0.2744
 4280SOL    HW124299   2.662   3.059  10.397  1.0916  1.7259  1.9862
 4280SOL    HW224300   2.685   3.202  10.396 -1.0873 -0.1013  1.6989
 4281SOL     OW24301   1.807   1.349   2.942  0.1883 -0.1293  0.4215
 4281SOL    HW124302   1.843   1.275   2.894  0.0057 -0.1588  0.3293
 4281SOL    HW224303   1.761   1.395   2.872  0.7088  1.0727  0.8743
 4282SOL     OW24304   3.622   2.672   3.743  0.2357  0.6976  0.4302
 4282SOL    HW124305   3.566   2.656   3.819  1.0439  0.0693  0.8982
 4282SOL    HW224306   3.570   2.653   3.665  0.2015  0.2524  0.5629
 4283SOL     OW24307   1.273   3.312  16.061 -0.2096  0.2135  0.1680
 4283SOL    HW124308   1.260   3.285  16.151 -0.3169 -0.7139 -0.1237
 4283SOL    HW224309   1.288   3.228  16.017  0.5789 -0.2975  1.4024
 4284SOL     OW24310   0.449   3.050   7.333  0.3562  0.2589  0.2718
 4284SOL    HW124311   0.416   2.998   7.260 -2.7850  3.1829 -0.3501
 4284SOL    HW224312   0.376   3.046   7.394  0.1282  1.6447  0.0839
 4285SOL     OW24313   3.524   3.905   4.027 -0.2287 -0.5752 -0.2357
 4285SOL    HW124314   3.530   3.883   4.120  2.6508 -2.5699 -0.8871
 4285SOL    HW224315   3.466   3.979   4.043 -1.6380 -1.5888 -0.7069
 4286SOL     OW24316   2.114   2.085   4.682  0.9102  0.0557 -0.1679
 4286SOL    HW124317   2.042   2.123   4.630 -0.6465 -2.7664 -0.0714
 4286SOL    HW224318   2.146   2.154   4.741  0.5376  0.5506 -0.5384
 4287SOL     OW24319   0.975   4.664  11.062 -0.8970  1.0112  0.2880
 4287SOL    HW124320   1.049   4.605  11.050 -4.1478 -2.7298 -1.1669
 4287SOL    HW224321   1.023   0.021  11.035  1.1654  0.1990  1.5687
 4288SOL     OW24322   4.375   4.640   9.018  0.2507  0.9118 -0.5308
 4288SOL    HW124323   4.347   4.705   9.081 -0.8420 -1.5236  1.4775
 4288SOL    HW224324   4.461   4.675   8.996  0.9857  0.1867  1.2351
 4289SOL     OW24325   1.739   0.447  10.224 -0.5967  0.2884 -0.3779
 4289SOL    HW124326   1.796   0.421  10.297 -0.5427 -0.6816 -0.7628
 4289SOL    HW224327   1.697   0.361  10.216  2.0087 -0.9040 -1.3329
 4290SOL     OW24328   3.407   3.603   4.469 -0.1997 -0.0727  0.3639
 4290SOL    HW124329   3.470   3.582   4.538 -1.3846 -2.2904  0.7620
 4290SOL    HW224330   3.357   3.521   4.460  0.6070 -0.6521  1.1441
 4291SOL     OW24331   2.210   2.167  17.325 -0.1787  0.0281 -0.1433
 4291SOL    HW124332   2.169   2.092  17.368  0.8857  0.5015  1.6987
 4291SOL    HW224333   2.210   2.225  17.402  1.0243  2.8286 -2.2561
 4292SOL     OW24334   4.601   2.720   7.509  0.0292  0.3699 -0.2609
 4292SOL    HW124335   4.687   2.688   7.535 -1.2301 -2.3891  0.4319
 4292SOL    HW224336   4.556   2.637   7.495 -1.5610  1.2452 -0.4275
 4293SOL     OW24337   2.688   2.655   7.716 -0.0002  0.0065  0.3517
 4293SOL    HW124338   2.776   2.691   7.704  1.1662 -2.7399  0.4171
 4293SOL    HW224339   2.705   2.610   7.799 -0.5843  0.9009  0.9545
 4294SOL     OW24340   1.684   2.682  11.577  0.3852 -0.0955  0.1531
 4294SOL    HW124341   1.739   2.611  11.608  1.4985  1.2247  1.1733
 4294SOL    HW224342   1.596   2.649  11.594 -0.1072  0.7969 -0.6271
 4295SOL     OW24343   1.341   0.247  17.344 -0.3449  0.2356  0.3128
 4295SOL    HW124344   1.397   0.285  17.277 -2.2879  0.8209 -0.9891
 4295SOL    HW224345   1.352   0.153  17.327  1.6605  0.2997  1.2797
 4296SOL     OW24346   0.696   4.536   4.393 -0.7308  0.7535 -0.1032
 4296SOL    HW124347   0.688   4.495   4.479 -1.6787 -0.1366 -0.6076
 4296SOL    HW224348   0.765   4.601   4.404  0.5439 -0.6047 -0.1293
 4297SOL     OW24349   1.434   1.296  15.446 -0.1792 -0.1073 -0.3434
 4297SOL    HW124350   1.521   1.301  15.408 -0.2407  1.9002 -0.1908
 4297SOL    HW224351   1.448   1.244  15.525 -0.5165  0.6325  0.1988
 4298SOL     OW24352   3.837   3.005  16.718 -0.0408 -0.3212  0.0221
 4298SOL    HW124353   3.914   2.956  16.746 -0.0531 -0.4016 -0.0841
 4298SOL    HW224354   3.772   2.935  16.704 -2.6761  1.1750  4.9468
 4299SOL     OW24355   1.834   4.313   8.567 -0.3004 -0.5305 -0.6326
 4299SOL    HW124356   1.829   4.326   8.472 -0.7858  0.2575 -0.4993
 4299SOL    HW224357   1.748   4.286   8.599  1.2026 -2.8636  1.4603
 4300SOL     OW24358   2.764   0.440   3.464 -0.1921 -0.1422 -0.4602
 4300SOL    HW124359   2.772   0.497   3.388 -1.3073  0.1682 -0.3452
 4300SOL    HW224360   2.832   0.472   3.523 -2.5025  1.9768  1.0326
 4301SOL     OW24361   4.547   3.856   5.440  0.1506 -0.3819 -0.1727
 4301SOL    HW124362   4.461   3.839   5.478 -0.1155 -0.0134 -0.6093
 4301SOL    HW224363   4.528   3.887   5.351  2.6371 -0.5963 -0.8049
 4302SOL     OW24364   2.226   3.421   1.597 -0.6499 -0.3561 -0.4269
 4302SOL    HW124365   2.256   3.432   1.507 -0.8371  0.9318 -0.3371
 4302SOL    HW224366   2.201   3.510   1.623  1.7650  0.2809 -0.2772
 4303SOL     OW24367   2.750   1.108   6.975 -0.7711  0.0340 -0.2727
 4303SOL    HW124368   2.718   1.125   7.064  2.0527 -1.0819  0.9350
 4303SOL    HW224369   2.723   1.194   6.941  0.6926  1.0219  1.0393
 4304SOL     OW24370   3.249   4.399   5.501 -0.6085  0.2959  0.0827
 4304SOL    HW124371   3.168   4.436   5.537 -0.7110  0.8897 -0.7600
 4304SOL    HW224372   3.235   4.305   5.512 -2.7798  0.6365  0.2795
 4305SOL     OW24373   3.364   1.757   2.944 -0.6589 -0.1324 -0.0172
 4305SOL    HW124374   3.451   1.730   2.914 -0.4815  0.9909 -0.4969
 4305SOL    HW224375   3.385   1.845   2.976 -1.0952 -0.5353  1.3793
 4306SOL     OW24376   4.594   3.581   7.428  0.2330  0.7122 -0.5341
 4306SOL    HW124377   4.675   3.531   7.429  0.3163  0.8373 -1.3220
 4306SOL    HW224378   4.617   3.652   7.369 -0.0066  2.7566  1.8130
 4307SOL     OW24379   0.404   3.059  10.332  0.1916  0.1613  0.8218
 4307SOL    HW124380   0.348   3.121  10.285 -0.8077 -1.4230 -0.0992
 4307SOL    HW224381   0.457   3.109  10.394 -0.0510  0.3645  0.8676
 4308SOL     OW24382   0.001   3.667  16.487 -0.7682 -0.1292 -0.8435
 4308SOL    HW124383   4.670   3.625  16.555 -0.8791  1.5289  0.0864
 4308SOL    HW224384   4.669   3.736  16.450 -1.6214 -0.7235 -0.7224
 4309SOL     OW24385   1.756   3.933   8.959 -0.0743 -0.1399 -0.0469
 4309SOL    HW124386   1.713   3.912   8.877  3.9534 -0.6701 -2.0051
 4309SOL    HW224387   1.709   4.014   8.979  0.2422 -0.3845  1.6849
 4310SOL     OW24388   0.699   0.514   7.938 -0.4878 -0.0507  0.4315
 4310SOL    HW124389   0.604   0.519   7.954 -0.1715  2.2755  1.5327
 4310SOL    HW224390   0.720   0.607   7.934  2.8348 -0.9479 -2.8154
 4311SOL     OW24391   0.321   0.431   3.358  0.0563 -0.0933 -0.2476
 4311SOL    HW124392   0.307   0.336   3.366  0.5667 -0.1684 -0.2202
 4311SOL    HW224393   0.306   0.467   3.445  2.5489  0.7940 -0.1749
 4312SOL     OW24394   4.370   1.027   5.428 -0.5775 -0.2289 -0.4579
 4312SOL    HW124395   4.405   1.033   5.339 -0.8247  2.4855 -0.3914
 4312SOL    HW224396   4.413   1.102   5.469 -1.4886 -0.0221  0.1147
 4313SOL     OW24397   0.696   4.441   8.112 -0.2331 -1.0359 -0.2152
 4313SOL    HW124398   0.626   4.477   8.166  0.1845  0.1550 -0.4845
 4313SOL    HW224399   0.662   4.461   8.025  1.0723  1.8992 -0.0361
 4314SOL     OW24400   4.058   4.191   1.737 -0.0349 -0.5770 -0.5649
 4314SOL    HW124401   4.036   4.167   1.827  1.0796  0.3012 -0.0571
 4314SOL    HW224402   3.971   4.219   1.708 -0.2333 -1.3026 -0.6701
 4315SOL     OW24403   0.613   4.288  14.976 -0.0044  0.1651  0.1465
 4315SOL    HW124404   0.640   4.373  14.941 -0.1206 -0.2767 -1.0314
 4315SOL    HW224405   0.652   4.227  14.913  0.2972  0.8638 -0.3437
 4316SOL     OW24406   1.356   0.918   3.082  0.0353 -0.0923 -0.7093
 4316SOL    HW124407   1.432   0.867   3.056 -0.3972 -0.2585 -1.6459
 4316SOL    HW224408   1.401   0.973   3.146  2.2847 -1.7887 -0.8217
 4317SOL     OW24409   4.559   1.478   8.511 -0.5908 -0.0105 -0.2041
 4317SOL    HW124410   4.535   1.544   8.576  0.5247  2.5268 -2.3458
 4317SOL    HW224411   4.653   1.475   8.531 -0.8298 -2.7118  0.4767
 4318SOL     OW24412   2.953   3.962   2.880  0.7646 -0.3373  0.1985
 4318SOL    HW124413   3.040   3.982   2.915 -0.5830  1.4596  2.5790
 4318SOL    HW224414   2.898   4.019   2.934 -1.7591 -1.3826 -1.2853
 4319SOL     OW24415   4.635   2.580  15.450  0.2174  0.0425  0.0869
 4319SOL    HW124416   4.543   2.564  15.470 -0.1550  1.1763 -0.7025
 4319SOL    HW224417   4.671   2.618  15.531  0.6642  1.3192 -0.7021
 4320SOL     OW24418   0.801   0.878   5.601  0.1238 -0.5722  0.2444
 4320SOL    HW124419   0.716   0.921   5.588  0.0519 -0.9812 -0.6444
 4320SOL    HW224420   0.790   0.805   5.662 -0.6828 -0.4578  0.2392
 4321SOL     OW24421   2.470   3.600   7.796  0.0615  0.1417 -0.8744
 4321SOL    HW124422   2.397   3.602   7.858  0.4391  0.5414 -0.4413
 4321SOL    HW224423   2.432   3.629   7.712  1.3038  0.3205 -1.3794
 4322SOL     OW24424   1.320   0.800   7.243 -0.3900  0.0406 -0.0631
 4322SOL    HW124425   1.388   0.785   7.310 -1.9995 -2.3919  1.0151
 4322SOL    HW224426   1.281   0.713   7.247 -1.7316  0.6324 -0.4587
 4323SOL     OW24427   3.595   2.275   8.729  0.0752  0.2126 -0.6173
 4323SOL    HW124428   3.596   2.224   8.810 -1.5968 -1.0556 -1.4004
 4323SOL    HW224429   3.638   2.358   8.751 -1.5283  1.1169 -0.9374
 4324SOL     OW24430   2.306   2.592  11.623  0.2729  0.0920 -0.1452
 4324SOL    HW124431   2.381   2.535  11.638  1.0607  1.1306 -0.0584
 4324SOL    HW224432   2.242   2.530  11.589  1.1212 -1.3953  1.0160
 4325SOL     OW24433   1.156   1.073   4.319  0.6743 -0.2952 -0.1883
 4325SOL    HW124434   1.200   1.113   4.395 -1.3735  0.9409  0.3582
 4325SOL    HW224435   1.238   1.054   4.273  2.3018 -0.3371  2.7032
 4326SOL     OW24436   0.037   3.606  11.689 -0.2398  0.4064 -0.1490
 4326SOL    HW124437   0.092   3.682  11.706 -0.2538  0.4939 -0.4896
 4326SOL    HW224438   4.707   3.600  11.769  0.3030  1.9926  0.3019
 4327SOL     OW24439   3.563   0.381  13.358  0.1684 -0.4389 -0.1788
 4327SOL    HW124440   3.535   0.375  13.449 -2.3655 -1.2033 -1.0216
 4327SOL    HW224441   3.525   0.465  13.332  0.9959  0.1936  0.6447
 4328SOL     OW24442   2.676   2.052   6.232 -0.1451  0.1692  0.2644
 4328SOL    HW124443   2.660   2.008   6.316 -1.1609 -0.2062 -0.1172
 4328SOL    HW224444   2.770   2.070   6.232  0.1432 -1.4079  2.6522
 4329SOL     OW24445   1.195   2.442   8.815 -0.7239 -0.6772 -0.6858
 4329SOL    HW124446   1.290   2.438   8.832 -0.5891  1.8618 -0.9264
 4329SOL    HW224447   1.172   2.406   8.901  2.4018 -1.0275  0.0108
 4330SOL     OW24448   0.217   4.175   2.910 -0.4484  0.5067 -0.1230
 4330SOL    HW124449   0.210   4.270   2.918 -0.0635  0.6769 -1.6824
 4330SOL    HW224450   0.125   4.155   2.895 -0.1798  0.3393 -1.5944
 4331SOL     OW24451   4.544   1.568   8.841  0.4303 -0.3394 -0.0026
 4331SOL    HW124452   4.638   1.585   8.843  0.7360 -1.9107 -1.1466
 4331SOL    HW224453   4.525   1.562   8.935 -2.4663  1.4445 -0.4700
 4332SOL     OW24454   1.491   0.849  12.684 -0.0437  0.2964 -0.5235
 4332SOL    HW124455   1.425   0.790  12.721  2.9216 -1.6799  1.5335
 4332SOL    HW224456   1.562   0.834  12.746  0.3734  1.7610 -0.6468
 4333SOL     OW24457   2.785   0.544   3.063 -0.3467 -0.1825 -0.0845
 4333SOL    HW124458   2.865   0.490   3.066  0.3577  0.8388 -0.4960
 4333SOL    HW224459   2.827   0.628   3.042  1.3815 -0.4912  2.0796
 4334SOL     OW24460   4.064   1.884  16.985  0.1526  0.0775  0.0530
 4334SOL    HW124461   4.037   1.862  17.074  0.2393 -2.1024 -0.4477
 4334SOL    HW224462   3.989   1.939  16.963  1.3190  1.1912 -1.1936
 4335SOL     OW24463   3.983   0.631  17.033  0.2175 -0.3943 -0.1148
 4335SOL    HW124464   3.909   0.691  17.038  0.5254  0.1755 -2.3436
 4335SOL    HW224465   3.989   0.617  16.938 -1.6786 -1.3696 -0.0987
 4336SOL     OW24466   3.116   0.913   5.363  0.3544  0.0687  0.5533
 4336SOL    HW124467   3.088   0.865   5.285 -1.2607 -0.1330  1.2657
 4336SOL    HW224468   3.187   0.968   5.329  0.4842 -2.1154 -2.6654
 4337SOL     OW24469   2.071   0.937  16.002  0.0504 -0.5297  1.0181
 4337SOL    HW124470   2.131   0.972  15.935 -0.6655 -0.0529  0.6272
 4337SOL    HW224471   2.011   0.884  15.949  0.9005  0.8698 -1.3843
 4338SOL     OW24472   3.019   2.960  15.025  0.4260 -0.2702 -0.6257
 4338SOL    HW124473   3.002   2.884  15.080 -4.0870 -0.5841 -2.4771
 4338SOL    HW224474   3.110   2.983  15.045 -0.0197  1.2845 -0.3437
 4339SOL     OW24475   1.659   1.905   7.078  0.0742 -0.3669 -0.4466
 4339SOL    HW124476   1.733   1.864   7.122  0.2914  0.6323  0.1162
 4339SOL    HW224477   1.678   1.889   6.986  1.9774 -0.1825 -0.0966
 4340SOL     OW24478   0.676   2.973   9.560 -0.4775 -0.0831 -0.0124
 4340SOL    HW124479   0.640   2.922   9.487  2.4509 -0.2524 -1.3333
 4340SOL    HW224480   0.710   3.048   9.512 -1.3495  0.8693  0.8680
 4341SOL     OW24481   3.291   1.265   5.033 -0.2282  0.0230 -0.1024
 4341SOL    HW124482   3.238   1.247   4.955 -1.9631  1.3364  0.7921
 4341SOL    HW224483   3.355   1.327   4.997 -0.0359  1.3931  2.6715
 4342SOL     OW24484   0.660   0.863   8.496  0.6835 -0.0543  0.4273
 4342SOL    HW124485   0.671   0.799   8.566 -0.3195  0.4680  1.0712
 4342SOL    HW224486   0.570   0.886   8.518  0.1698 -0.9519 -0.6966
 4343SOL     OW24487   0.111   2.274   5.559 -0.2970 -0.0968 -0.0514
 4343SOL    HW124488   0.167   2.350   5.544  0.5982 -0.8822 -0.6335
 4343SOL    HW224489   0.170   2.199   5.558 -0.3002 -0.1127  0.6926
 4344SOL     OW24490   2.484   1.039   2.627  0.0578 -0.1848 -0.3958
 4344SOL    HW124491   2.420   0.995   2.683 -1.5957  1.2590 -1.1731
 4344SOL    HW224492   2.568   1.012   2.664 -0.3598  1.0707  1.4651
 4345SOL     OW24493   4.123   4.582  13.819  0.0332 -0.2767  0.2185
 4345SOL    HW124494   4.125   4.659  13.762  1.8109  0.2096  0.9417
 4345SOL    HW224495   4.200   4.610  13.868 -1.2438 -1.9043  3.1749
 4346SOL     OW24496   2.838   4.301   8.609 -0.1513 -0.2705  0.4275
 4346SOL    HW124497   2.818   4.335   8.696  0.3624 -3.0265  1.6215
 4346SOL    HW224498   2.895   4.225   8.622  1.8967  1.3334  0.7995
 4347SOL     OW24499   2.486   4.129   8.988  0.4472 -0.4301  0.4628
 4347SOL    HW124500   2.540   4.119   9.067  2.1590  0.6207 -0.5628
 4347SOL    HW224501   2.413   4.075   9.015  1.5773 -1.1093  2.1464
 4348SOL     OW24502   0.331   4.054   8.804 -0.4696  0.3391 -0.3340
 4348SOL    HW124503   0.326   4.135   8.854 -0.7896  0.6524 -0.8764
 4348SOL    HW224504   0.418   4.052   8.763 -0.3369 -0.7712 -0.0055
 4349SOL     OW24505   1.048   3.039  16.271  0.2886  0.6154 -0.5200
 4349SOL    HW124506   1.049   3.007  16.181 -1.5048  1.4839 -0.8670
 4349SOL    HW224507   0.986   2.978  16.311  0.7963  1.4266  1.4743
 4350SOL     OW24508   2.290   2.662   3.174  0.0663  0.7789  0.2563
 4350SOL    HW124509   2.264   2.572   3.190  1.6572  0.1461 -0.7280
 4350SOL    HW224510   2.278   2.698   3.262  1.0555  1.7365  0.0014
 4351SOL     OW24511   2.267   0.959  16.188 -0.1647  0.2853 -0.2948
 4351SOL    HW124512   2.221   0.931  16.268  1.3236  0.2888  0.5518
 4351SOL    HW224513   2.196   0.932  16.130  2.4683 -1.0610 -2.8834
 4352SOL     OW24514   4.021   3.913  10.027 -0.6667 -0.3106 -0.1114
 4352SOL    HW124515   3.979   3.956   9.953 -1.0913  0.8159  0.7860
 4352SOL    HW224516   3.981   3.953  10.105 -0.8305 -0.7461  0.0282
 4353SOL     OW24517   4.468   0.538   6.275  0.6535 -0.2155  0.4619
 4353SOL    HW124518   4.403   0.533   6.345 -0.6904  1.8238 -0.6265
 4353SOL    HW224519   4.462   0.628   6.243 -2.3780  0.3265  2.5492
 4354SOL     OW24520   0.854   2.053   9.572 -0.4841 -0.1746 -0.1121
 4354SOL    HW124521   0.822   2.102   9.648  0.7699 -0.5650  0.6658
 4354SOL    HW224522   0.797   2.082   9.501  0.0198  0.4096 -0.2769
 4355SOL     OW24523   0.234   2.872   5.599 -0.5812 -0.7894  0.3587
 4355SOL    HW124524   0.270   2.799   5.650 -0.4469 -0.2479  1.0395
 4355SOL    HW224525   0.145   2.848   5.625 -1.0654 -1.9926 -2.4811
 4356SOL     OW24526   0.566   3.511   6.128  0.3260 -0.1817 -0.5066
 4356SOL    HW124527   0.643   3.477   6.082  0.6103 -0.8606  0.4671
 4356SOL    HW224528   0.531   3.571   6.062 -0.1246  1.7777  1.4938
 4357SOL     OW24529   0.043   2.213   8.333 -0.9370 -0.0022 -0.3374
 4357SOL    HW124530   0.079   2.296   8.365  1.3386  0.0102 -2.8998
 4357SOL    HW224531   4.688   2.243   8.283 -1.9565 -1.3781  0.4028
 4358SOL     OW24532   2.803   3.187   1.944  0.2500 -0.1492 -0.0308
 4358SOL    HW124533   2.735   3.254   1.937 -1.4649 -1.7925  0.7126
 4358SOL    HW224534   2.835   3.210   2.031  1.8095 -2.6094  0.0601
 4359SOL     OW24535   4.593   2.099  14.521 -0.7963 -0.1123  0.4122
 4359SOL    HW124536   4.643   2.161  14.575 -2.6631  2.1356 -0.4154
 4359SOL    HW224537   4.546   2.160  14.464 -0.4655 -0.1392  0.1127
 4360SOL     OW24538   4.424   2.305   7.871 -0.6344 -0.0718 -0.3678
 4360SOL    HW124539   4.394   2.372   7.809 -0.1953  0.7781  0.3296
 4360SOL    HW224540   4.378   2.229   7.837 -1.4658  1.1347 -1.9385
 4361SOL     OW24541   4.263   2.778   9.647 -0.2371  0.0099 -0.4144
 4361SOL    HW124542   4.169   2.799   9.643  0.3498  2.3245 -1.5468
 4361SOL    HW224543   4.281   2.759   9.739  1.1501 -0.8083 -0.8557
 4362SOL     OW24544   2.486   1.254   6.609  0.1193  0.3288  0.1816
 4362SOL    HW124545   2.513   1.325   6.551 -0.4942 -0.2272 -0.7732
 4362SOL    HW224546   2.558   1.268   6.671 -1.2628  0.6926  1.7108
 4363SOL     OW24547   4.362   2.598   6.994  0.0741  0.5001 -0.0488
 4363SOL    HW124548   4.331   2.650   7.068 -1.1236 -0.4143  0.0928
 4363SOL    HW224549   4.443   2.561   7.029  0.5580  0.7827 -0.8649
 4364SOL     OW24550   1.368   1.938  10.411 -0.0722 -0.1672 -0.0430
 4364SOL    HW124551   1.359   2.031  10.431 -0.5956 -0.3660  0.6258
 4364SOL    HW224552   1.393   1.947  10.319 -1.3617  2.5961 -0.1104
 4365SOL     OW24553   0.649   4.693  16.207 -0.0473 -0.2113  0.2953
 4365SOL    HW124554   0.654   0.038  16.276 -1.9317 -0.3990  0.6038
 4365SOL    HW224555   0.562   4.714  16.173 -0.4639  1.3795  2.3790
 4366SOL     OW24556   3.684   2.570   6.939  0.1193  0.1102 -0.6973
 4366SOL    HW124557   3.688   2.569   6.843 -0.0095 -1.3759 -0.6834
 4366SOL    HW224558   3.726   2.484   6.942  1.1755  0.6565 -0.2045
 4367SOL     OW24559   2.991   1.627   9.880 -0.3874 -0.5497 -0.5031
 4367SOL    HW124560   3.057   1.621   9.949  1.2063  1.9637 -1.8506
 4367SOL    HW224561   3.004   1.543   9.834 -0.5867 -0.7391 -0.2164
 4368SOL     OW24562   0.520   4.142   7.580  0.2313 -0.0045  0.3043
 4368SOL    HW124563   0.450   4.160   7.643  1.0659  0.1398  1.2019
 4368SOL    HW224564   0.482   4.166   7.495  2.1222  2.5424  0.1662
 4369SOL     OW24565   2.182   0.136   3.765 -0.2392 -0.1012 -0.0677
 4369SOL    HW124566   2.153   0.145   3.856 -1.7286 -2.2563 -0.3320
 4369SOL    HW224567   2.105   0.169   3.719  0.1244 -0.2050 -0.7486
 4370SOL     OW24568   4.473   1.235   1.260 -0.1563  0.0456 -0.0113
 4370SOL    HW124569   4.396   1.184   1.281  0.0326 -0.3051 -0.1751
 4370SOL    HW224570   4.450   1.279   1.178  1.7984 -0.2640 -0.7318
 4371SOL     OW24571   3.120   2.297   3.486  0.2080 -0.0882 -0.0146
 4371SOL    HW124572   3.077   2.281   3.402  0.9207  0.9847 -0.5823
 4371SOL    HW224573   3.211   2.304   3.458 -0.1196  1.6811 -0.6791
 4372SOL     OW24574   0.111   2.320   6.365 -0.1751 -0.1297 -0.7893
 4372SOL    HW124575   0.041   2.270   6.406 -0.1205  1.2483  1.0131
 4372SOL    HW224576   0.195   2.289   6.399 -0.9370 -1.8060 -0.4530
 4373SOL     OW24577   1.842   1.134  10.771 -0.6161 -0.2438 -0.7633
 4373SOL    HW124578   1.761   1.172  10.804 -0.7351  0.6691 -2.0766
 4373SOL    HW224579   1.912   1.197  10.790 -0.3847 -0.7561  0.0776
 4374SOL     OW24580   1.668   2.651   7.248  0.0041  0.3127 -0.0392
 4374SOL    HW124581   1.737   2.712   7.274 -0.5778  0.9875 -0.0460
 4374SOL    HW224582   1.604   2.680   7.314 -1.7388 -0.4509 -1.3991
 4375SOL     OW24583   2.320   2.818   2.677 -0.7153  0.3638 -0.3014
 4375SOL    HW124584   2.253   2.805   2.610 -2.3386 -2.4716  1.9037
 4375SOL    HW224585   2.382   2.746   2.669 -0.5415  0.5909 -1.0750
 4376SOL     OW24586   3.897   2.895  12.478  0.0618  0.2990 -0.1171
 4376SOL    HW124587   3.916   2.921  12.388  1.1218  0.4130  0.1390
 4376SOL    HW224588   3.954   2.819  12.489  0.6877  0.4100 -2.6197
 4377SOL     OW24589   0.030   4.700   9.149 -0.0015 -0.3385  0.5462
 4377SOL    HW124590   0.112   0.029   9.150 -0.4564  0.4268 -0.6787
 4377SOL    HW224591   4.702   0.028   9.215 -1.2386  0.8403 -1.2889
 4378SOL     OW24592   0.576   2.449   5.764  0.3498 -0.2453  0.0375
 4378SOL    HW124593   0.634   2.445   5.688  1.9647 -2.2250  1.3588
 4378SOL    HW224594   0.640   2.448   5.835  0.6357  2.2068 -0.2019
 4379SOL     OW24595   4.221   2.981   9.906  0.1230 -0.0844 -0.4115
 4379SOL    HW124596   4.207   2.899   9.954  1.2399 -0.3053 -0.4642
 4379SOL    HW224597   4.142   2.997   9.853 -0.5484 -1.3627  0.2069
 4380SOL     OW24598   0.738   0.821  16.055 -0.0719 -0.1879  0.0956
 4380SOL    HW124599   0.783   0.767  15.990 -1.2742  0.8959 -1.6646
 4380SOL    HW224600   0.652   0.782  16.066  0.1584 -0.1407  1.9787
 4381SOL     OW24601   0.496   0.971   7.945 -0.3801 -0.2721 -0.8028
 4381SOL    HW124602   0.544   0.949   8.025  0.7655  1.2039 -1.0902
 4381SOL    HW224603   0.430   1.016   7.998  0.2990 -0.0225 -0.1617
 4382SOL     OW24604   3.584   1.185   5.116  0.6497 -0.0782  0.7269
 4382SOL    HW124605   3.497   1.147   5.133  0.5906 -1.8156 -3.4452
 4382SOL    HW224606   3.640   1.133   5.174 -0.2229 -2.0189 -0.1805
 4383SOL     OW24607   3.186   2.662   7.056 -0.3007  0.4791  0.2930
 4383SOL    HW124608   3.261   2.604   7.043  1.8455  2.8804  1.9946
 4383SOL    HW224609   3.227   2.748   7.065  1.2860 -0.5040  2.3597
 4384SOL     OW24610   1.114   1.310   2.409  0.2832 -0.0349  0.5037
 4384SOL    HW124611   1.093   1.257   2.332 -1.4211  0.9659  0.2660
 4384SOL    HW224612   1.172   1.254   2.461 -0.2449  1.0072  2.2141
 4385SOL     OW24613   4.396   2.705   6.020  0.0293  0.4647  0.2052
 4385SOL    HW124614   4.321   2.677   6.071  1.6450  0.7300  2.7078
 4385SOL    HW224615   4.356   2.738   5.940  0.3115  0.1754 -0.0560
 4386SOL     OW24616   3.842   2.904   8.700 -0.4197 -0.0730  0.1809
 4386SOL    HW124617   3.794   2.985   8.711 -0.4595  0.0169 -0.6094
 4386SOL    HW224618   3.781   2.846   8.654 -1.5037  0.7125  0.6433
 4387SOL     OW24619   0.322   2.327   8.605  0.2661  0.1218  0.2582
 4387SOL    HW124620   0.286   2.241   8.627 -1.0230  0.3721 -0.9007
 4387SOL    HW224621   0.236   2.367   8.591  0.3893  0.2452 -0.1629
 4388SOL     OW24622   0.778   0.727   9.909  0.1298  0.4378 -0.0045
 4388SOL    HW124623   0.819   0.801   9.954  1.4673  0.2540 -0.9167
 4388SOL    HW224624   0.684   0.747   9.910 -0.0734 -0.3637 -2.5817
 4389SOL     OW24625   4.157   0.911  11.577  0.1374  0.0263 -0.1721
 4389SOL    HW124626   4.201   0.836  11.616 -3.1703 -2.3093 -0.8741
 4389SOL    HW224627   4.145   0.871  11.490  2.2886  0.2179 -0.5509
 4390SOL     OW24628   2.022   3.923   9.493  0.3012  0.2686  0.2788
 4390SOL    HW124629   1.948   3.983   9.503  0.0337  0.2660 -1.5865
 4390SOL    HW224630   1.978   3.854   9.443 -0.1381  0.3237  0.5908
 4391SOL     OW24631   1.497   3.827   3.962  0.3340 -0.0420  0.2581
 4391SOL    HW124632   1.426   3.885   3.935 -0.4455 -1.1985 -0.1333
 4391SOL    HW224633   1.511   3.790   3.875 -0.2388  3.6489 -1.4275
 4392SOL     OW24634   4.294   2.173   7.429 -0.4308  0.0121 -0.5762
 4392SOL    HW124635   4.320   2.174   7.521 -1.4690 -0.3228 -0.2796
 4392SOL    HW224636   4.233   2.247   7.425 -2.3938 -1.5732 -0.0450
 4393SOL     OW24637   2.809   0.725   6.974 -0.3956  0.2203 -0.3684
 4393SOL    HW124638   2.733   0.736   7.031 -0.3141 -0.8792 -0.0560
 4393SOL    HW224639   2.846   0.640   6.999  0.0721  0.8821  1.1437
 4394SOL     OW24640   4.088   0.117   2.332  0.3243 -0.1378 -0.1123
 4394SOL    HW124641   4.104   0.023   2.339  1.2995  0.3682  4.6026
 4394SOL    HW224642   4.148   0.155   2.396  2.5514 -3.5054 -0.2069
 4395SOL     OW24643   0.574   4.020  17.342  0.3065  0.2568 -0.4823
 4395SOL    HW124644   0.600   4.113  17.344  1.7757 -0.1669  0.2395
 4395SOL    HW224645   0.651   3.991  17.392  1.0968  0.5413 -1.5339
 4396SOL     OW24646   2.413   3.737  17.104  0.2376 -0.0185  0.3762
 4396SOL    HW124647   2.507   3.721  17.112  0.0867 -1.4735 -0.9801
 4396SOL    HW224648   2.384   3.650  17.076  0.6554  0.3272 -1.1101
 4397SOL     OW24649   0.499   0.874   5.941  0.4251  0.3993  0.2516
 4397SOL    HW124650   0.450   0.888   6.022  2.4559 -1.0569  1.7229
 4397SOL    HW224651   0.430   0.862   5.875 -1.3800  0.9663  2.0294
 4398SOL     OW24652   1.508   0.457   6.823 -0.0509  0.3846 -0.5726
 4398SOL    HW124653   1.455   0.522   6.868 -1.1392 -1.7292  1.2005
 4398SOL    HW224654   1.597   0.486   6.842 -1.0381  2.7306  0.4265
 4399SOL     OW24655   3.582   2.925  16.004  0.1232  0.7158 -0.2053
 4399SOL    HW124656   3.598   3.006  15.956  1.4519 -0.1523 -1.2491
 4399SOL    HW224657   3.632   2.858  15.957 -1.7722 -0.1274 -1.0466
 4400SOL     OW24658   0.803   3.930   4.495 -0.1757 -0.3265  0.1387
 4400SOL    HW124659   0.731   3.866   4.501  0.7545 -1.2810  1.0880
 4400SOL    HW224660   0.810   3.927   4.400  2.0374 -0.9116  0.3323
 4401SOL     OW24661   0.388   2.950  13.895  0.8796  0.1169  0.0891
 4401SOL    HW124662   0.386   2.959  13.990 -1.7475  2.2972 -0.1758
 4401SOL    HW224663   0.328   3.020  13.870  0.0196  0.7537  3.9192
 4402SOL     OW24664   4.470   2.174  16.995  0.6960 -0.4297 -0.4851
 4402SOL    HW124665   4.375   2.171  17.002  0.6962 -0.1092 -0.3477
 4402SOL    HW224666   4.486   2.256  17.041 -0.2607 -1.0295  0.9116
 4403SOL     OW24667   1.100   1.918   9.362 -0.1905 -0.2740 -0.0374
 4403SOL    HW124668   1.116   1.901   9.269 -0.9007  0.0208 -0.2107
 4403SOL    HW224669   1.174   1.865   9.392  0.1508 -0.5105 -1.2748
 4404SOL     OW24670   2.184   3.319  10.075 -0.3282 -0.2039 -0.6132
 4404SOL    HW124671   2.121   3.272  10.021 -1.3338 -0.5295  0.8614
 4404SOL    HW224672   2.248   3.248  10.065 -1.7826 -1.2240 -2.5592
 4405SOL     OW24673   1.978   3.219   9.941  0.6905 -0.0964 -0.0473
 4405SOL    HW124674   1.934   3.207   9.857  1.5115 -3.6075  0.0204
 4405SOL    HW224675   1.950   3.140   9.988 -0.5012 -0.2238 -0.9724
 4406SOL     OW24676   0.932   2.590   7.738  0.2629  0.2308 -0.4379
 4406SOL    HW124677   0.958   2.595   7.830  0.8088  3.0992 -0.7392
 4406SOL    HW224678   0.995   2.656   7.708 -1.8620  1.4962 -2.0625
 4407SOL     OW24679   4.067   2.410  16.163  0.1975 -0.4255 -0.3540
 4407SOL    HW124680   4.131   2.368  16.106  1.3443  2.4790 -1.2179
 4407SOL    HW224681   4.062   2.356  16.242 -1.4837  1.6732  0.9647
 4408SOL     OW24682   0.355   3.859   3.770  0.8130 -0.7817  0.1582
 4408SOL    HW124683   0.422   3.801   3.804  0.9394  1.5233  3.7704
 4408SOL    HW224684   0.276   3.820   3.807  0.3697 -0.4273 -0.4107
 4409SOL     OW24685   3.285   0.608   0.238  0.3673  0.1307  0.0625
 4409SOL    HW124686   3.337   0.539   0.198  0.1812 -0.8458  1.4920
 4409SOL    HW224687   3.230   0.554   0.295  1.8272 -3.2344 -1.6944
 4410SOL     OW24688   1.322   1.356   5.636  0.8487 -0.1337 -0.2063
 4410SOL    HW124689   1.415   1.367   5.618  1.6405 -0.9544  3.4241
 4410SOL    HW224690   1.274   1.393   5.562  1.9268  0.9361 -0.3741
 4411SOL     OW24691   2.541   1.277  13.820 -0.3339  0.7900 -0.3921
 4411SOL    HW124692   2.500   1.244  13.900 -2.5969  2.6768 -0.7608
 4411SOL    HW224693   2.514   1.220  13.748  0.6266  0.0503 -0.1583
 4412SOL     OW24694   2.174   2.377   9.400  0.2507  0.2387 -0.2929
 4412SOL    HW124695   2.250   2.321   9.386  0.6049  0.8477 -0.8293
 4412SOL    HW224696   2.118   2.304   9.426 -0.8685  0.8157 -1.0280
 4413SOL     OW24697   4.657   1.177   4.793 -0.3152 -0.2302 -0.1829
 4413SOL    HW124698   4.696   1.232   4.862 -0.7127 -0.7522  0.4557
 4413SOL    HW224699   4.716   1.103   4.783 -0.0832 -0.2356  1.1752
 4414SOL     OW24700   1.116   4.603   6.206 -0.1430  0.1854  0.0917
 4414SOL    HW124701   1.158   4.688   6.219  0.5560 -0.0757 -0.3979
 4414SOL    HW224702   1.189   4.542   6.192  0.7461  1.8022 -2.2341
 4415SOL     OW24703   3.235   1.588  10.086 -0.2702 -0.0204  0.3748
 4415SOL    HW124704   3.214   1.501  10.121 -0.0943  0.4143  1.5570
 4415SOL    HW224705   3.246   1.640  10.166  1.9291 -1.0240  0.7308
 4416SOL     OW24706   1.581   1.041   6.851  0.2259  0.0911 -0.0067
 4416SOL    HW124707   1.568   0.995   6.934 -2.1836  0.3850 -0.2221
 4416SOL    HW224708   1.574   0.964   6.794 -0.7330  1.6824 -2.0309
 4417SOL     OW24709   3.612   3.989   4.968 -1.0926  0.1371 -0.5640
 4417SOL    HW124710   3.698   4.014   4.934 -1.3275  1.5592 -0.1145
 4417SOL    HW224711   3.602   4.047   5.044 -2.4371 -0.1691 -0.5041
 4418SOL     OW24712   4.491   2.942   9.850  0.0674 -0.6525  0.3932
 4418SOL    HW124713   4.492   2.847   9.854 -0.9261 -0.6338  1.0020
 4418SOL    HW224714   4.402   2.972   9.866  0.3080  0.2733  0.0430
 4419SOL     OW24715   3.639   3.870   2.674 -0.3621  0.2439 -0.3543
 4419SOL    HW124716   3.575   3.938   2.697 -2.6182 -0.5731 -4.2247
 4419SOL    HW224717   3.659   3.897   2.584  0.1327  0.2290 -0.2453
 4420SOL     OW24718   4.721   1.166   8.154 -0.0455  0.2093  0.3370
 4420SOL    HW124719   0.063   1.122   8.211 -1.0960 -0.0322  1.3298
 4420SOL    HW224720   0.058   1.206   8.090  1.3054 -0.5244  1.1271
 4421SOL     OW24721   4.096   3.538   2.692  0.4175  0.5989 -0.0722
 4421SOL    HW124722   4.009   3.513   2.723 -0.0395 -0.7653 -2.4454
 4421SOL    HW224723   4.073   3.591   2.615 -1.3974 -1.5384 -1.0149
 4422SOL     OW24724   1.434   4.718  10.321 -0.6747 -0.1041  0.1329
 4422SOL    HW124725   1.464   4.633  10.352  1.2463  0.5224  0.0255
 4422SOL    HW224726   1.418   0.043  10.403  1.1040  1.5043 -0.4167
 4423SOL     OW24727   3.053   4.266   1.134 -0.0828  0.0712 -0.0774
 4423SOL    HW124728   3.003   4.209   1.192  0.8992  0.1278  0.8323
 4423SOL    HW224729   3.121   4.308   1.187  0.5690 -1.0014 -0.0502
 4424SOL     OW24730   4.531   0.208   8.203 -0.2547 -0.3473 -0.0464
 4424SOL    HW124731   4.498   0.135   8.150 -1.9522  0.4403 -0.0784
 4424SOL    HW224732   4.454   0.263   8.216 -0.6785 -0.6505 -1.1950
 4425SOL     OW24733   0.191   4.361   4.402 -0.3705 -0.0279 -0.4012
 4425SOL    HW124734   0.135   4.417   4.348  0.4834 -0.1724 -1.4344
 4425SOL    HW224735   0.210   4.420   4.474  0.0614  1.2662 -1.5776
 4426SOL     OW24736   0.626   1.657  16.233 -0.4926  0.0274  0.2781
 4426SOL    HW124737   0.591   1.589  16.289  1.2338 -1.6791 -0.6963
 4426SOL    HW224738   0.557   1.660  16.167  0.2441  1.3255 -0.4513
 4427SOL     OW24739   4.531   3.438   2.274 -0.4575  0.3301  0.2360
 4427SOL    HW124740   4.440   3.459   2.294  0.0179  2.4339  0.2434
 4427SOL    HW224741   4.524   3.343   2.270 -1.2171  0.4328 -0.9947
 4428SOL     OW24742   3.979   4.578   3.667  0.3866  0.0849 -0.0831
 4428SOL    HW124743   3.996   4.623   3.584  1.8708  0.1145  0.2476
 4428SOL    HW224744   4.004   4.491   3.634  1.3015  0.9404 -1.6483
 4429SOL     OW24745   3.638   0.144  11.079 -0.3915 -0.4190 -0.4317
 4429SOL    HW124746   3.697   0.077  11.045 -1.0950 -0.9692 -0.5606
 4429SOL    HW224747   3.660   0.215  11.018 -1.2684 -0.4240 -0.7477
 4430SOL     OW24748   1.598   3.170   9.302  0.3977 -0.0086  0.2557
 4430SOL    HW124749   1.681   3.163   9.254 -1.6997 -2.0389 -3.1026
 4430SOL    HW224750   1.583   3.264   9.294  3.4705  0.3918 -0.8149
 4431SOL     OW24751   4.482   2.321   2.854  0.1453  0.5090 -0.3544
 4431SOL    HW124752   4.466   2.227   2.847  0.1617  0.4341  0.5019
 4431SOL    HW224753   4.429   2.346   2.778 -1.9141 -1.0288  0.5591
 4432SOL     OW24754   2.794   1.107  13.423  0.4358 -0.3215 -0.1181
 4432SOL    HW124755   2.707   1.118  13.386 -0.8346 -0.9821  2.6745
 4432SOL    HW224756   2.832   1.057  13.351 -0.7322  0.5487 -1.3187
 4433SOL     OW24757   3.682   1.188  15.857  0.0188  0.0202 -0.2727
 4433SOL    HW124758   3.632   1.237  15.922 -0.2325  0.9257 -1.1532
 4433SOL    HW224759   3.766   1.232  15.858 -0.1673  0.3715  0.0458
 4434SOL     OW24760   4.281   1.838  15.398 -0.5172  0.0760 -0.6537
 4434SOL    HW124761   4.309   1.874  15.482  0.6675 -1.3681 -0.4413
 4434SOL    HW224762   4.304   1.746  15.405 -1.6971 -0.2256 -0.6861
 4435SOL     OW24763   4.258   1.050   0.075 -0.4435 -0.5381  0.1358
 4435SOL    HW124764   4.332   1.053   0.014 -1.2516  1.9816 -0.6967
 4435SOL    HW224765   4.302   1.019   0.154 -0.2984  1.4510  0.8275
 4436SOL     OW24766   2.018   3.547  12.448 -0.0401 -0.1841  0.1579
 4436SOL    HW124767   2.093   3.606  12.447  0.0597 -0.2674  2.6505
 4436SOL    HW224768   2.050   3.493  12.520  1.1434  1.7135  1.0651
 4437SOL     OW24769   4.231   1.251   2.733 -0.2879 -0.3463  0.1943
 4437SOL    HW124770   4.274   1.246   2.818  0.6419 -0.6543 -0.2853
 4437SOL    HW224771   4.279   1.182   2.687  0.0956 -0.9159  1.4638
 4438SOL     OW24772   2.696   4.527   9.317 -0.7056 -0.3028  0.3477
 4438SOL    HW124773   2.653   4.500   9.398 -3.6454  1.3515 -0.6600
 4438SOL    HW224774   2.771   4.468   9.319  0.2045  0.9405  2.9909
 4439SOL     OW24775   4.478   4.461  17.414  0.2366 -0.0791  0.3364
 4439SOL    HW124776   4.404   4.522  17.418  0.2835 -0.1110  2.0058
 4439SOL    HW224777   4.436   4.382  17.381 -0.0904 -0.2595  1.1595
 4440SOL     OW24778   3.142   3.013   4.081 -0.2497 -0.3350 -0.2984
 4440SOL    HW124779   3.208   3.070   4.121 -0.0155 -1.1123  0.4270
 4440SOL    HW224780   3.197   2.936   4.070 -1.0361 -1.1548  1.4434
 4441SOL     OW24781   2.903   3.501   0.190  0.4621 -0.2060  0.1486
 4441SOL    HW124782   2.866   3.477   0.275  0.9394  0.4701  0.5503
 4441SOL    HW224783   2.987   3.457   0.202  1.0995  0.3724 -2.2061
 4442SOL     OW24784   2.791   0.645   4.805  0.0142  0.3346 -0.5607
 4442SOL    HW124785   2.724   0.605   4.861  2.0083  0.4707  1.9291
 4442SOL    HW224786   2.745   0.719   4.766 -1.5688 -0.5193 -0.3068
 4443SOL     OW24787   2.486   0.927  17.097 -0.3803  0.0580  0.5616
 4443SOL    HW124788   2.439   1.003  17.130 -1.6536 -0.4569 -0.0568
 4443SOL    HW224789   2.420   0.885  17.042 -1.1021  0.1190  1.3713
 4444SOL     OW24790   3.536   1.133   6.539 -0.0471 -0.4331 -0.3156
 4444SOL    HW124791   3.609   1.171   6.588  0.6574 -1.4711 -0.5618
 4444SOL    HW224792   3.574   1.119   6.453 -1.6666 -0.6925 -0.9882
 4445SOL     OW24793   4.250   1.785   0.996 -0.0689  0.1247 -0.6532
 4445SOL    HW124794   4.236   1.862   1.051  1.8885 -0.8929  1.2579
 4445SOL    HW224795   4.180   1.732   1.034  0.7588 -0.9783 -0.6432
 4446SOL     OW24796   4.087   2.321   1.568 -0.4021  0.2987  0.4931
 4446SOL    HW124797   4.054   2.277   1.490  0.8155  1.0738 -0.4698
 4446SOL    HW224798   4.079   2.251   1.634 -3.7624  1.2829  1.1250
 4447SOL     OW24799   3.720   4.348   4.493 -0.2989 -0.5233 -0.0986
 4447SOL    HW124800   3.723   4.291   4.417  1.6606 -1.5625  0.7541
 4447SOL    HW224801   3.651   4.408   4.466  1.2442  1.2321 -0.1257
 4448SOL     OW24802   1.274   4.127   5.574  0.0946 -0.1591  0.4582
 4448SOL    HW124803   1.178   4.120   5.570  0.1679 -0.3550 -0.9644
 4448SOL    HW224804   1.299   4.044   5.614  0.1876 -1.2886 -1.9566
 4449SOL     OW24805   0.092   1.144   2.743  0.2683 -0.2770 -0.4246
 4449SOL    HW124806   0.035   1.067   2.740  1.7937 -1.4616  2.2044
 4449SOL    HW224807   0.176   1.107   2.768  0.2218 -0.2639 -0.2494
 4450SOL     OW24808   0.864   1.502   5.324  0.8719 -0.6596  0.1313
 4450SOL    HW124809   0.887   1.566   5.257 -1.0492 -0.5491 -0.4065
 4450SOL    HW224810   0.941   1.448   5.340  0.9385  0.0593  2.1810
 4451SOL     OW24811   2.218   4.299   6.507  0.1275  0.6349 -0.0917
 4451SOL    HW124812   2.255   4.214   6.531 -2.6559 -0.0910  1.7877
 4451SOL    HW224813   2.129   4.294   6.544 -0.6449  3.2659 -1.5798
 4452SOL     OW24814   2.805   3.585   9.671  0.0034 -0.0966 -0.1075
 4452SOL    HW124815   2.835   3.494   9.673 -0.7237 -0.3869 -2.3971
 4452SOL    HW224816   2.795   3.608   9.579  0.2019  0.8893  0.1255
 4453SOL     OW24817   3.196   2.347  12.424 -0.7707  0.4814 -0.3448
 4453SOL    HW124818   3.278   2.307  12.393 -1.6104 -0.9166 -0.7576
 4453SOL    HW224819   3.134   2.329  12.353 -0.9389  0.9891 -0.3234
 4454SOL     OW24820   0.862   3.994   5.704 -0.2792  0.0388  0.4929
 4454SOL    HW124821   0.812   4.018   5.782  0.8371  0.3822  1.1048
 4454SOL    HW224822   0.798   3.942   5.656  0.6577 -0.0645 -0.6424
 4455SOL     OW24823   0.213   3.484  10.703  0.3859  0.4584 -0.0879
 4455SOL    HW124824   0.184   3.567  10.740  0.6832  0.0874  0.9739
 4455SOL    HW224825   0.303   3.476  10.736  1.2876 -1.0478 -2.9683
 4456SOL     OW24826   3.935   4.225   2.503 -0.1115  0.2668 -0.1362
 4456SOL    HW124827   3.901   4.160   2.441  0.3389 -0.4416  0.3606
 4456SOL    HW224828   3.856   4.278   2.510 -0.0205  0.2061  1.4580
 4457SOL     OW24829   1.289   1.580   3.283 -0.3016 -0.2238 -0.4583
 4457SOL    HW124830   1.312   1.556   3.193  2.3982  2.5999 -0.5345
 4457SOL    HW224831   1.316   1.671   3.297  0.0028 -0.6378  1.5890
 4458SOL     OW24832   0.393   4.438   7.109 -0.1626 -0.1039 -0.5421
 4458SOL    HW124833   0.353   4.354   7.131 -0.5818  0.4385  0.7274
 4458SOL    HW224834   0.487   4.423   7.111 -0.7819 -4.2582 -2.2963
 4459SOL     OW24835   0.483   1.474  11.375 -0.2028  0.3623  0.4538
 4459SOL    HW124836   0.427   1.532  11.323 -0.3409  0.4936  0.7518
 4459SOL    HW224837   0.441   1.388  11.376 -1.1889  0.8517  1.9040
 4460SOL     OW24838   2.605   3.366   5.759 -0.1451  0.0201  0.0245
 4460SOL    HW124839   2.654   3.430   5.811 -2.6156  1.5225  0.5035
 4460SOL    HW224840   2.682   3.316   5.730  1.2333  0.9812  2.0207
 4461SOL     OW24841   1.559   3.956   2.251 -0.4168  0.1621 -0.5477
 4461SOL    HW124842   1.623   4.021   2.280  0.2480 -0.6940 -0.0681
 4461SOL    HW224843   1.483   3.989   2.299  0.4517 -0.4051  1.2090
 4462SOL     OW24844   3.321   3.946   5.718  0.4846 -0.1121 -0.5809
 4462SOL    HW124845   3.337   3.888   5.792  1.3722 -0.1202 -0.7822
 4462SOL    HW224846   3.357   4.027   5.754 -1.3030  0.7697 -0.7571
 4463SOL     OW24847   3.368   3.703  14.617 -0.2720  0.0339  0.3356
 4463SOL    HW124848   3.414   3.648  14.681  1.4306 -0.3792 -1.2392
 4463SOL    HW224849   3.343   3.781  14.667  1.1409  0.2448  0.7299
 4464SOL     OW24850   3.725   1.739  15.069  0.0578 -0.2054  0.1866
 4464SOL    HW124851   3.651   1.753  15.010  0.7477  1.8446 -0.1887
 4464SOL    HW224852   3.716   1.807  15.136  2.0103 -0.5191  0.7623
 4465SOL     OW24853   4.038   4.674   0.817 -0.6180  0.2229 -0.4850
 4465SOL    HW124854   3.956   4.715   0.844 -0.6913 -0.0627 -0.2702
 4465SOL    HW224855   4.084   0.034   0.835  0.0037  0.1036 -1.5209
 4466SOL     OW24856   2.463   0.668   5.400 -0.0062  0.1943  0.0460
 4466SOL    HW124857   2.404   0.699   5.469 -1.5713  0.6437 -1.5282
 4466SOL    HW224858   2.406   0.627   5.336 -0.3654  2.1951 -0.8917
 4467SOL     OW24859   3.433   4.665  11.171 -0.8353  0.1032  0.1317
 4467SOL    HW124860   3.446   4.665  11.076 -2.0997 -1.2268 -0.0313
 4467SOL    HW224861   3.355   4.720  11.173  0.9624  2.6281  2.3824
 4468SOL     OW24862   1.965   1.218   7.201 -0.1039 -0.1132  0.4276
 4468SOL    HW124863   1.958   1.292   7.141 -0.0979 -1.0555 -0.7323
 4468SOL    HW224864   2.060   1.211   7.202 -0.1370 -1.0854 -6.2940
 4469SOL     OW24865   3.551   1.391   3.784 -0.1619 -0.4770  0.5049
 4469SOL    HW124866   3.566   1.371   3.692 -2.3341 -0.2870  0.1201
 4469SOL    HW224867   3.567   1.310   3.832  0.4334  0.2996  1.6101
 4470SOL     OW24868   2.562   2.198   3.785 -0.0226 -0.5905 -0.0264
 4470SOL    HW124869   2.617   2.124   3.758  2.3182  1.9645 -2.3429
 4470SOL    HW224870   2.480   2.157   3.813 -0.4388 -0.6007 -1.2637
 4471SOL     OW24871   0.085   0.317   3.830  0.4445 -0.2500  0.0073
 4471SOL    HW124872   0.149   0.261   3.787 -0.1415 -0.3706 -0.7015
 4471SOL    HW224873   0.006   0.305   3.777  0.1441 -0.6504  0.5436
 4472SOL     OW24874   0.832   3.599   6.504  0.2332  0.2271  0.5225
 4472SOL    HW124875   0.752   3.640   6.472  0.0327 -0.5241  0.0531
 4472SOL    HW224876   0.825   3.510   6.468  0.0756  0.7741 -0.8109
 4473SOL     OW24877   1.581   3.295   1.769 -0.6248 -0.0197 -0.6728
 4473SOL    HW124878   1.577   3.365   1.704 -0.8584  1.3124  0.7768
 4473SOL    HW224879   1.498   3.311   1.814  0.5724  2.5169  0.5974
 4474SOL     OW24880   3.777   3.107  13.649 -0.4147 -0.1591  0.2967
 4474SOL    HW124881   3.738   3.102  13.562  0.4097 -1.2064 -0.0043
 4474SOL    HW224882   3.822   3.191  13.641 -0.9156  0.0559 -0.2328
 4475SOL     OW24883   4.200   3.971   2.305 -0.4632  0.0134  0.7326
 4475SOL    HW124884   4.293   3.991   2.321  0.2033 -1.6493 -1.1059
 4475SOL    HW224885   4.169   3.932   2.387  0.2909  0.7469  1.3739
 4476SOL     OW24886   0.402   2.968   5.407  0.3573 -0.6376  0.0498
 4476SOL    HW124887   0.335   2.966   5.339  2.8007 -1.8595 -2.3166
 4476SOL    HW224888   0.356   2.935   5.484 -0.1829  0.0623  0.0269
 4477SOL     OW24889   4.301   3.963   8.276 -0.0352  0.4090 -0.1471
 4477SOL    HW124890   4.244   3.935   8.205 -0.2059 -0.9688  0.5353
 4477SOL    HW224891   4.251   3.935   8.353 -1.5919 -0.2496 -1.4047
 4478SOL     OW24892   1.674   1.200  13.545 -0.2768 -0.0481 -0.1929
 4478SOL    HW124893   1.707   1.218  13.457 -1.8331 -0.1268 -0.8017
 4478SOL    HW224894   1.737   1.135  13.577 -0.4224  0.3915  1.0106
 4479SOL     OW24895   1.278   0.031   2.364  0.3282 -0.0529  0.2532
 4479SOL    HW124896   1.241   4.675   2.407 -0.4065  0.5657  0.7464
 4479SOL    HW224897   1.210   0.097   2.377  1.7805  1.0410  2.4054
 4480SOL     OW24898   2.584   2.638   5.015 -0.2763 -0.2637 -0.1415
 4480SOL    HW124899   2.531   2.662   5.091 -0.4179  0.3940 -0.4489
 4480SOL    HW224900   2.625   2.722   4.996 -3.4815  1.7799  2.2469
 4481SOL     OW24901   3.583   3.031   4.757 -0.8540 -0.3254  0.5342
 4481SOL    HW124902   3.595   2.961   4.693 -0.9149  0.6871 -0.5984
 4481SOL    HW224903   3.635   3.095   4.709  0.0179 -0.8417  0.8041
 4482SOL     OW24904   2.972   1.929   2.993 -0.2756  0.7836  0.2861
 4482SOL    HW124905   2.979   1.934   3.089 -0.3872 -2.2971  0.4742
 4482SOL    HW224906   2.883   1.893   2.992  1.5470 -3.6667 -2.8179
 4483SOL     OW24907   0.369   0.328   8.959  0.2302 -0.1403 -0.1286
 4483SOL    HW124908   0.452   0.281   8.963 -0.6164 -1.5211  0.8770
 4483SOL    HW224909   0.395   0.420   8.968 -1.3742  0.4371 -1.5158
 4484SOL     OW24910   0.117   1.869   8.720  0.4039  0.2509 -0.2729
 4484SOL    HW124911   0.100   1.809   8.792 -0.7456  2.9463  1.6836
 4484SOL    HW224912   0.056   1.834   8.655 -1.1553  3.6094 -0.6060
 4485SOL     OW24913   0.821   4.421   1.283  0.0096 -0.0319  0.1700
 4485SOL    HW124914   0.809   4.387   1.195  2.8160  0.0656 -0.2702
 4485SOL    HW224915   0.731   4.440   1.309 -0.2502 -1.2990  0.1907
 4486SOL     OW24916   3.301   2.316   5.487  0.2495  0.1762  0.0132
 4486SOL    HW124917   3.328   2.253   5.553 -1.5623  0.9560  1.5019
 4486SOL    HW224918   3.222   2.352   5.528 -1.2094 -1.6293 -1.1866
 4487SOL     OW24919   4.152   4.646   3.845  0.3346 -0.2638 -0.4051
 4487SOL    HW124920   4.099   4.649   3.766  1.4987 -2.5709 -1.2845
 4487SOL    HW224921   4.213   4.576   3.821  0.4102 -0.6008  0.7707
 4488SOL     OW24922   3.266   0.160  12.350  0.8042  0.4468  0.9001
 4488SOL    HW124923   3.176   0.149  12.381  0.4724 -0.6629 -0.4773
 4488SOL    HW224924   3.286   0.071  12.322 -0.4978  0.4859 -0.1442
 4489SOL     OW24925   4.663   1.974  14.841  0.6093 -0.1171 -0.4917
 4489SOL    HW124926   4.588   1.914  14.830  1.7857 -1.9624  1.5224
 4489SOL    HW224927   4.623   2.056  14.870 -1.4564 -1.4939  0.6176
 4490SOL     OW24928   3.029   1.179   4.236  0.0171  0.0341  0.2614
 4490SOL    HW124929   2.983   1.262   4.246  1.3848  0.7843  0.2628
 4490SOL    HW224930   3.094   1.184   4.306  0.6068 -1.0244 -0.2013
 4491SOL     OW24931   3.929   0.772   9.920  0.2740  0.0762  0.0117
 4491SOL    HW124932   3.954   0.710   9.851  0.9825  0.9257 -0.4976
 4491SOL    HW224933   3.888   0.835   9.861  2.9301  0.0842 -1.8887
 4492SOL     OW24934   2.412   2.124  17.135  0.3276 -0.7343  0.0705
 4492SOL    HW124935   2.344   2.151  17.197  0.3519 -0.8587  0.1517
 4492SOL    HW224936   2.376   2.128  17.046  1.2895 -1.2441 -0.3440
 4493SOL     OW24937   4.718   4.435   1.152  0.1860 -0.7978 -0.6371
 4493SOL    HW124938   4.714   4.418   1.246  2.5421  1.2626 -0.1734
 4493SOL    HW224939   0.054   4.511   1.155 -1.0238  0.1407 -1.4607
 4494SOL     OW24940   2.659   4.653   3.405  0.1189 -0.0013 -0.1024
 4494SOL    HW124941   2.631   0.006   3.458  1.7993 -0.9280  2.1139
 4494SOL    HW224942   2.690   4.698   3.326 -1.5752 -2.1864 -2.0060
 4495SOL     OW24943   4.017   1.643   6.360  0.0879 -0.0700 -0.1837
 4495SOL    HW124944   3.999   1.600   6.276 -0.7436  0.5701 -0.3267
 4495SOL    HW224945   4.019   1.563   6.413 -1.0679  1.3919  2.0636
 4496SOL     OW24946   1.844   0.399  13.406  0.4210 -0.8112  0.3741
 4496SOL    HW124947   1.775   0.339  13.433 -1.2893  1.2416  0.5714
 4496SOL    HW224948   1.923   0.382  13.456  1.1579  0.7236 -0.2340
 4497SOL     OW24949   1.790   0.370   6.611 -0.6454  0.0468 -0.6801
 4497SOL    HW124950   1.755   0.419   6.685  4.1776  0.7534  1.1024
 4497SOL    HW224951   1.721   0.387   6.546  0.3580  0.7131 -1.5694
 4498SOL     OW24952   4.575   2.461   7.150  0.1024 -0.5965 -0.5724
 4498SOL    HW124953   4.626   2.403   7.207  2.0437  2.8367  1.1854
 4498SOL    HW224954   4.642   2.482   7.085 -0.5879  1.8571 -0.5174
 4499SOL     OW24955   1.367   4.258   8.706  0.5290 -0.5280  0.0948
 4499SOL    HW124956   1.356   4.268   8.801 -2.0152  0.7246 -0.3327
 4499SOL    HW224957   1.274   4.258   8.685  0.5798 -0.9637 -0.1188
 4500SOL     OW24958   2.034   2.847  15.028  0.2092  0.4315  0.0831
 4500SOL    HW124959   1.943   2.819  15.034  0.3430  0.1216  0.7705
 4500SOL    HW224960   2.060   2.844  15.120  0.2705  1.0951  0.0875
 4501SOL     OW24961   2.006   4.439   3.885  0.1137  0.1857 -0.4168
 4501SOL    HW124962   1.939   4.428   3.818  0.4269 -1.5754 -0.4333
 4501SOL    HW224963   2.008   4.534   3.894  2.8605 -0.0290  1.2388
 4502SOL     OW24964   2.880   0.758  12.425 -0.4382 -0.5467  0.4175
 4502SOL    HW124965   2.846   0.813  12.495 -0.2066 -0.1446  0.2150
 4502SOL    HW224966   2.831   0.783  12.347  0.9190  0.0177 -0.2569
 4503SOL     OW24967   0.166   4.641  11.096  0.1342  0.3590  0.7425
 4503SOL    HW124968   0.213   4.604  11.021  0.0666  1.9077 -0.0427
 4503SOL    HW224969   0.245   4.690  11.121  0.3652  0.3767 -0.0325
 4504SOL     OW24970   3.460   0.000  12.065  0.0856  0.5906  0.0020
 4504SOL    HW124971   3.387   0.046  12.023 -1.0287 -0.2944  0.9450
 4504SOL    HW224972   3.488   4.656  12.002 -1.6646  0.7380 -0.9182
 4505SOL     OW24973   0.441   0.498   9.613  0.8399  0.4281 -0.3787
 4505SOL    HW124974   0.448   0.490   9.518 -1.9091  1.6692 -0.6924
 4505SOL    HW224975   0.444   0.594   9.606 -0.8166  0.3713 -2.1649
 4506SOL     OW24976   2.373   0.463  13.988  0.2478 -0.0745  0.3317
 4506SOL    HW124977   2.396   0.392  14.047  0.7006  0.8079  1.2156
 4506SOL    HW224978   2.352   0.535  14.048 -0.5224  0.3605 -0.4538
 4507SOL     OW24979   2.265   1.981  10.365 -0.1451 -0.6542 -0.0491
 4507SOL    HW124980   2.280   1.903  10.311  0.0661 -1.4677  1.1769
 4507SOL    HW224981   2.249   1.933  10.447  0.8347  0.6301  0.8959
 4508SOL     OW24982   3.149   4.265   2.364 -0.1911  0.3936  0.2055
 4508SOL    HW124983   3.058   4.291   2.351  0.3904  2.5624  0.4166
 4508SOL    HW224984   3.167   4.214   2.285  1.7540  0.7197  0.4422
 4509SOL     OW24985   4.242   2.627   8.593  0.1438  0.9174 -0.2962
 4509SOL    HW124986   4.271   2.671   8.513 -1.9702  1.5701 -0.7326
 4509SOL    HW224987   4.295   2.677   8.655 -0.1827  1.4410 -0.4289
 4510SOL     OW24988   2.069   3.279   6.678  0.3686  0.0112 -0.6552
 4510SOL    HW124989   2.006   3.220   6.720  0.6791  1.5370  1.9440
 4510SOL    HW224990   2.014   3.345   6.636  0.2297  0.1804 -0.2046
 4511SOL     OW24991   1.580   1.031  14.502  0.9819  0.0949  0.0622
 4511SOL    HW124992   1.524   1.061  14.574 -2.3842  0.0192 -2.5359
 4511SOL    HW224993   1.512   0.993  14.446  0.9979  0.9893 -0.5791
 4512SOL     OW24994   3.591   4.293   4.732  0.6787 -0.3407 -0.1186
 4512SOL    HW124995   3.638   4.313   4.651 -1.0861  1.0522 -0.7921
 4512SOL    HW224996   3.562   4.380   4.760  1.2578  0.8959 -3.3636
 4513SOL     OW24997   2.080   2.451   3.136 -0.0038  0.2538 -0.1544
 4513SOL    HW124998   2.123   2.433   3.052 -1.8208  0.1081 -1.0493
 4513SOL    HW224999   2.067   2.359   3.161  0.9323 -0.0459 -0.7776
 4514SOL     OW25000   4.311   0.165   9.141 -0.4033 -0.0722 -0.2883
 4514SOL    HW125001   4.297   0.196   9.230  1.9000  2.0202 -0.6453
 4514SOL    HW225002   4.402   0.192   9.125 -1.3795  2.4375 -1.7308
 4515SOL     OW25003   4.034   3.945   4.661 -0.1340 -0.0604 -0.6327
 4515SOL    HW125004   4.056   3.943   4.568 -1.5216 -1.6171 -0.9220
 4515SOL    HW225005   3.989   3.862   4.673 -0.4844  0.2948  0.4754
 4516SOL     OW25006   4.220   3.520   6.088  0.0995 -0.0281 -0.9058
 4516SOL    HW125007   4.203   3.470   6.008  1.6925 -3.2930  0.8100
 4516SOL    HW225008   4.314   3.506   6.092 -0.0307 -1.1679 -1.9023
 4517SOL     OW25009   1.004   3.222   6.047 -0.0070  0.3301  0.8168
 4517SOL    HW125010   0.944   3.183   5.984  1.4802 -0.2094 -0.2548
 4517SOL    HW225011   0.949   3.202   6.123 -0.5189 -0.1336  0.3235
 4518SOL     OW25012   2.786   3.123   4.644  0.5284  0.1619 -0.5194
 4518SOL    HW125013   2.778   3.097   4.552  0.3895  1.0468 -0.7556
 4518SOL    HW225014   2.793   3.036   4.684 -2.1861 -0.2988 -1.0335
 4519SOL     OW25015   1.846   0.146  11.070 -0.2737 -0.5323 -0.2246
 4519SOL    HW125016   1.936   0.128  11.043  0.4133  1.2260  0.8557
 4519SOL    HW225017   1.811   0.184  10.990  2.2782 -0.4730 -1.3025
 4520SOL     OW25018   3.975   2.372  11.767 -0.0808 -0.8719  0.1715
 4520SOL    HW125019   3.914   2.326  11.825 -2.1801  0.6042 -0.8498
 4520SOL    HW225020   3.940   2.345  11.682 -0.9864 -1.2033  0.6463
 4521SOL     OW25021   1.957   4.179  10.590 -0.1541 -0.2952  0.1886
 4521SOL    HW125022   2.026   4.218  10.536  1.0825 -2.2584  0.3255
 4521SOL    HW225023   1.926   4.106  10.536 -0.3815  0.3748 -0.5949
 4522SOL     OW25024   2.875   4.702  16.752 -0.3414 -0.0899  0.5616
 4522SOL    HW125025   2.836   4.635  16.808 -0.9028 -0.3469 -0.1468
 4522SOL    HW225026   2.951   0.006  16.806  1.8839 -1.5917 -1.8527
 4523SOL     OW25027   2.516   3.204  16.188  0.3955  0.0072 -0.3238
 4523SOL    HW125028   2.423   3.222  16.181  0.7778  1.5951 -1.2498
 4523SOL    HW225029   2.507   3.131  16.249  1.9922  0.4933  0.5095
 4524SOL     OW25030   3.229   1.820   6.119  0.8149 -0.2448 -0.0086
 4524SOL    HW125031   3.295   1.837   6.051  0.7729  0.2719  0.0780
 4524SOL    HW225032   3.277   1.791   6.197  2.8157 -0.2522 -1.2283
 4525SOL     OW25033   3.292   4.246   9.691  0.3728 -0.1905  0.3068
 4525SOL    HW125034   3.199   4.266   9.681  0.2709 -1.3936 -1.1301
 4525SOL    HW225035   3.276   4.193   9.769 -2.7142 -0.0572 -0.2606
 4526SOL     OW25036   4.270   1.438  15.584  0.5133 -0.4331  0.3970
 4526SOL    HW125037   4.294   1.454  15.493 -0.5662  1.0357  0.3727
 4526SOL    HW225038   4.356   1.406  15.610  1.6549  0.8213 -1.8153
 4527SOL     OW25039   2.506   4.483  17.684 -0.5142  0.1909 -0.3855
 4527SOL    HW125040   2.517   4.578  17.675  0.5080  0.1518  0.4952
 4527SOL    HW225041   2.434   4.489   0.059 -1.3193 -0.3711 -1.2384
 4528SOL     OW25042   0.986   2.047   0.983 -0.2960 -0.2596  0.2112
 4528SOL    HW125043   1.050   1.980   0.961  1.7652  2.1516 -1.2517
 4528SOL    HW225044   0.911   1.999   1.018 -0.3291 -0.5931 -0.3202
 4529SOL     OW25045   3.826   2.888   0.356  0.5657 -0.2476  0.5367
 4529SOL    HW125046   3.829   2.903   0.450 -0.7609  0.2910  0.4951
 4529SOL    HW225047   3.867   2.966   0.320  0.1773  0.0792  0.8050
 4530SOL     OW25048   2.465   0.262  12.618 -0.2573 -0.3848 -0.0371
 4530SOL    HW125049   2.502   0.212  12.545 -0.9208 -0.9730  0.0314
 4530SOL    HW225050   2.370   0.254  12.616 -0.2505 -0.1000 -1.2078
 4531SOL     OW25051   4.277   4.098   3.584  0.5571  0.2362 -0.2141
 4531SOL    HW125052   4.278   4.002   3.578  1.2572  0.1750  0.9082
 4531SOL    HW225053   4.249   4.128   3.497  0.5565  3.0928  0.7763
 4532SOL     OW25054   1.155   4.122   4.711  0.4578  0.4379  0.0008
 4532SOL    HW125055   1.214   4.125   4.786  1.0075  0.7372 -0.4427
 4532SOL    HW225056   1.105   4.203   4.723 -2.4624 -1.1490 -1.3086
 4533SOL     OW25057   1.271   4.017  11.797  0.1554 -0.3285 -0.0364
 4533SOL    HW125058   1.254   3.975  11.881  0.4785 -1.1388 -0.3762
 4533SOL    HW225059   1.208   4.088  11.804  1.8428  1.0949  0.8168
 4534SOL     OW25060   0.005   0.563   3.646  0.1142  0.1641  0.1912
 4534SOL    HW125061   0.008   0.596   3.556 -0.1941 -1.2098 -0.3100
 4534SOL    HW225062   4.674   0.485   3.631 -0.1351  0.6030 -1.2844
 4535SOL     OW25063   0.165   4.242   4.761 -0.4036 -0.3862 -0.1202
 4535SOL    HW125064   0.117   4.267   4.839  2.5816 -0.0674  1.6335
 4535SOL    HW225065   0.240   4.301   4.754  0.3768 -1.2729  0.6618
 4536SOL     OW25066   2.835   2.741  16.429  0.1517  0.1844  0.4161
 4536SOL    HW125067   2.884   2.662  16.405  1.4080  1.6033 -1.7050
 4536SOL    HW225068   2.890   2.812  16.395 -1.6132  1.4967  0.2785
 4537SOL     OW25069   1.478   3.047  17.263  0.5191  0.5575  0.2565
 4537SOL    HW125070   1.565   3.081  17.285 -0.2849  1.5669  1.9163
 4537SOL    HW225071   1.432   3.049  17.347 -1.0580  0.8370 -0.6220
 4538SOL     OW25072   1.793   1.705   4.746  0.0811 -0.2018 -0.1527
 4538SOL    HW125073   1.836   1.632   4.789  0.3956 -1.5275 -2.7154
 4538SOL    HW225074   1.701   1.680   4.755 -0.0438  0.2636 -0.1347
 4539SOL     OW25075   3.429   1.013   6.167  0.4343 -0.5354  0.1073
 4539SOL    HW125076   3.483   1.089   6.189  1.2026 -1.0050 -0.1373
 4539SOL    HW225077   3.367   1.044   6.101  2.0064  0.6857 -0.7862
 4540SOL     OW25078   0.212   1.938   4.411  0.6175 -0.1234  0.0911
 4540SOL    HW125079   0.144   1.875   4.391  1.4802 -1.3685  1.0555
 4540SOL    HW225080   0.272   1.942   4.336  0.3016  0.6938 -0.1176
 4541SOL     OW25081   3.431   0.360  13.960  0.4509 -0.1060  0.0840
 4541SOL    HW125082   3.369   0.287  13.964 -0.0229  0.2745 -0.4386
 4541SOL    HW225083   3.476   0.351  14.044 -2.3221 -0.6658  1.4983
 4542SOL     OW25084   3.235   4.505   0.446 -0.1769 -0.2126  0.3611
 4542SOL    HW125085   3.200   4.544   0.526 -1.6916  1.8098 -1.2945
 4542SOL    HW225086   3.211   4.413   0.459 -0.9553  0.0603  0.8649
 4543SOL     OW25087   3.056   2.845   0.758 -0.1027 -0.1262  0.4214
 4543SOL    HW125088   3.042   2.797   0.840 -1.5635  1.3634  1.0455
 4543SOL    HW225089   3.138   2.810   0.723 -0.5319 -0.4968 -0.2135
 4544SOL     OW25090   0.489   1.311   0.054 -0.0213  0.1504  1.2340
 4544SOL    HW125091   0.568   1.294   0.003 -0.3979 -1.8335  1.3290
 4544SOL    HW225092   0.464   1.227   0.094  0.1513 -0.2097  0.5776
 4545SOL     OW25093   0.583   1.998   1.892  0.0412 -0.0235 -0.4568
 4545SOL    HW125094   0.613   1.925   1.838  1.1910 -0.1959  0.4079
 4545SOL    HW225095   0.632   2.070   1.853 -0.5223  0.6684  0.1134
 4546SOL     OW25096   1.402   3.551   8.907  0.1270 -0.1466  0.1105
 4546SOL    HW125097   1.340   3.496   8.955 -0.6700  0.3027 -0.3906
 4546SOL    HW225098   1.399   3.627   8.964  3.2451  0.8531 -1.0972
 4547SOL     OW25099   1.353   4.451   2.138 -0.9297  0.3210 -1.4930
 4547SOL    HW125100   1.350   4.405   2.054  3.1422  1.8826 -2.4982
 4547SOL    HW225101   1.402   4.528   2.109  3.0923 -2.3555 -1.7125
 4548SOL     OW25102   0.868   3.189   6.300  0.5103  0.6795 -0.1308
 4548SOL    HW125103   0.783   3.148   6.287  0.2524  1.5349 -1.1508
 4548SOL    HW225104   0.848   3.238   6.379 -1.3601 -2.5590  1.4085
 4549SOL     OW25105   1.645   1.947  10.657  0.3622 -0.2179 -0.0117
 4549SOL    HW125106   1.565   1.894  10.658 -1.8222  3.1240  1.2340
 4549SOL    HW225107   1.707   1.880  10.687 -0.0454 -1.0322 -0.9742
 4550SOL     OW25108   2.846   4.397   8.358 -0.1389  0.1992 -0.1964
 4550SOL    HW125109   2.823   4.387   8.450 -4.4524  1.9471 -1.1081
 4550SOL    HW225110   2.876   4.487   8.347 -0.9865  0.7401  1.8995
 4551SOL     OW25111   3.466   1.184   1.681 -0.2070 -0.2266 -0.2081
 4551SOL    HW125112   3.435   1.237   1.608  3.1359  1.2874 -0.5593
 4551SOL    HW225113   3.499   1.249   1.744 -1.1649 -0.1601  0.2187
 4552SOL     OW25114   2.528   3.991   7.793 -0.2562  0.1445 -0.1331
 4552SOL    HW125115   2.436   3.967   7.783  0.0503 -0.9643 -0.2748
 4552SOL    HW225116   2.536   4.023   7.883  0.7293  0.7731 -0.4353
 4553SOL     OW25117   4.256   3.704  17.105 -0.5263  0.5255 -0.3852
 4553SOL    HW125118   4.237   3.652  17.183  0.1475  1.2649  0.2738
 4553SOL    HW225119   4.352   3.706  17.107 -0.5346 -0.6728  1.4394
 4554SOL     OW25120   2.234   2.588   5.725  0.3740 -0.3118 -0.2189
 4554SOL    HW125121   2.187   2.619   5.803 -0.7195 -2.1449 -0.1507
 4554SOL    HW225122   2.233   2.661   5.663 -2.2973 -0.3782 -0.2656
 4555SOL     OW25123   3.576   3.801  17.464  0.1476 -0.2601 -0.0537
 4555SOL    HW125124   3.549   3.789  17.373  1.2798 -1.0908 -0.2856
 4555SOL    HW225125   3.526   3.739  17.517 -1.6590  0.9283 -0.3921
 4556SOL     OW25126   3.338   4.611   3.327 -0.0931  0.1583 -0.2667
 4556SOL    HW125127   3.249   4.646   3.339  0.7400  1.8699  0.8985
 4556SOL    HW225128   3.349   4.640   3.237 -1.3471 -0.3339 -0.5870
 4557SOL     OW25129   3.762   1.464   2.519  0.4613  0.1353  0.4058
 4557SOL    HW125130   3.828   1.408   2.560 -0.9412  0.0234  2.5076
 4557SOL    HW225131   3.801   1.466   2.431 -0.3940  0.1215  0.0230
 4558SOL     OW25132   3.099   3.234   9.366 -0.3765  0.4011 -0.6224
 4558SOL    HW125133   3.186   3.263   9.340  0.1675 -0.3392  0.3285
 4558SOL    HW225134   3.088   3.286   9.446 -1.1530 -0.9995  0.1878
 4559SOL     OW25135   2.819   0.421   4.019 -0.0672 -0.3983  0.0460
 4559SOL    HW125136   2.852   0.504   4.053 -0.7234 -0.7413  1.5421
 4559SOL    HW225137   2.782   0.386   4.100 -2.0308 -0.7930 -1.0166
 4560SOL     OW25138   0.331   2.290   2.090 -0.3089 -0.2514 -0.0439
 4560SOL    HW125139   0.331   2.205   2.047  0.0430 -1.3031  2.0562
 4560SOL    HW225140   0.271   2.262   2.159 -0.9481  1.3503  0.0460
 4561SOL     OW25141   1.097   0.238   2.399 -0.4637  0.3343 -0.0587
 4561SOL    HW125142   1.034   0.250   2.328 -2.3765 -0.7800  1.4487
 4561SOL    HW225143   1.048   0.273   2.473 -1.1005 -0.9611  0.1114
 4562SOL     OW25144   2.446   3.738   8.602  0.0127  0.6171  0.5703
 4562SOL    HW125145   2.426   3.654   8.643  1.6991 -1.1284 -2.1753
 4562SOL    HW225146   2.462   3.788   8.682 -0.7476  2.5968 -0.5308
 4563SOL     OW25147   2.283   0.417   5.736 -0.0498 -0.1797  0.4696
 4563SOL    HW125148   2.238   0.501   5.742 -0.4957 -0.4561  0.9860
 4563SOL    HW225149   2.351   0.431   5.669  0.8004 -0.9581  1.1819
 4564SOL     OW25150   3.653   1.630   7.875 -0.0501  0.9875 -0.1951
 4564SOL    HW125151   3.643   1.608   7.782 -0.1706  0.9107 -0.1633
 4564SOL    HW225152   3.703   1.556   7.910  0.4112  2.0669  1.4056
 4565SOL     OW25153   3.507   1.993   3.955  0.3178  0.0857  0.3542
 4565SOL    HW125154   3.411   1.994   3.952  0.2502 -0.8420  2.1458
 4565SOL    HW225155   3.522   2.074   4.002  1.6223 -0.6478  1.1912
 4566SOL     OW25156   0.407   1.693   8.574  0.1976  0.0836  0.4284
 4566SOL    HW125157   0.386   1.758   8.507  1.1355  1.3535  1.3831
 4566SOL    HW225158   0.417   1.748   8.651  0.9039 -0.5908  0.8161
 4567SOL     OW25159   1.845   1.509   5.683  0.0423 -0.2371 -0.3250
 4567SOL    HW125160   1.768   1.566   5.681 -1.2257 -1.8790  1.3432
 4567SOL    HW225161   1.830   1.464   5.600  0.3365 -0.5983 -0.1814
 4568SOL     OW25162   0.471   3.905  13.411  0.3342  0.2199  0.4456
 4568SOL    HW125163   0.554   3.913  13.457  1.8821  1.6233 -2.5990
 4568SOL    HW225164   0.493   3.845  13.339 -1.3706 -1.4911  1.3292
 4569SOL     OW25165   2.244   3.116  16.387 -0.1094  0.0174  0.5119
 4569SOL    HW125166   2.228   3.136  16.480  0.9867  0.2644  0.6441
 4569SOL    HW225167   2.193   3.186  16.347  1.1974  0.4861 -0.3433
 4570SOL     OW25168   0.307   2.042   1.957  0.4382 -0.0181 -1.0457
 4570SOL    HW125169   0.256   2.000   1.887  0.5805  0.4550 -1.4291
 4570SOL    HW225170   0.392   2.001   1.942  0.4025 -0.4810 -0.0254
 4571SOL     OW25171   0.385   1.874   8.772  0.0588  0.0554  0.4040
 4571SOL    HW125172   0.297   1.855   8.741 -0.2144  2.2923 -0.1470
 4571SOL    HW225173   0.396   1.968   8.766  1.2962 -0.2077 -1.5162
 4572SOL     OW25174   4.056   3.616   2.403  0.1209 -0.4533 -0.0340
 4572SOL    HW125175   3.973   3.641   2.362  1.1561  2.2746 -0.4897
 4572SOL    HW225176   4.069   3.699   2.449  1.2856 -1.0457  0.7055
 4573SOL     OW25177   3.777   0.221   4.090 -0.0049 -0.0765 -0.1800
 4573SOL    HW125178   3.733   0.141   4.060 -0.5130  0.4244 -0.7744
 4573SOL    HW225179   3.825   0.184   4.164 -0.0846 -1.4472 -0.8046
 4574SOL     OW25180   4.375   1.784  15.770 -0.7281  0.8005  0.9341
 4574SOL    HW125181   4.396   1.863  15.721  0.9106  0.2101  0.6999
 4574SOL    HW225182   4.279   1.790  15.776 -0.5848 -0.0515  4.1114
 4575SOL     OW25183   3.805   4.273   4.906 -0.0686 -0.5005 -0.0743
 4575SOL    HW125184   3.790   4.265   5.000  0.9983 -0.3792  0.1055
 4575SOL    HW225185   3.716   4.294   4.881  0.0891 -0.1851 -0.3645
 4576SOL     OW25186   0.854   1.082   7.122 -0.3402 -0.0345  0.3397
 4576SOL    HW125187   0.769   1.089   7.080 -0.9080 -0.3611  1.4334
 4576SOL    HW225188   0.911   1.147   7.081  0.5557 -0.0677  1.5276
 4577SOL     OW25189   2.906   2.094   5.902 -0.4050 -0.0679  0.6282
 4577SOL    HW125190   2.967   2.155   5.860 -0.8148  0.0007  0.1257
 4577SOL    HW225191   2.948   2.067   5.983  1.3752  0.5426 -0.0773
 4578SOL     OW25192   1.393   2.089   3.073  0.2523 -0.2167  0.4979
 4578SOL    HW125193   1.451   2.013   3.082  1.8942  0.9522 -0.1707
 4578SOL    HW225194   1.416   2.157   3.136 -2.6765 -0.1823  1.4913
 4579SOL     OW25195   2.973   2.466  14.733 -0.1505  0.7123 -0.0834
 4579SOL    HW125196   3.063   2.442  14.708 -0.5601 -1.8680  0.8532
 4579SOL    HW225197   2.925   2.442  14.653 -0.8368 -1.4758  0.9941
 4580SOL     OW25198   3.244   3.344   6.553  0.4203 -0.4145  0.6189
 4580SOL    HW125199   3.228   3.334   6.647  1.5321  0.2312  0.8717
 4580SOL    HW225200   3.194   3.426   6.553 -0.8085 -1.1410 -2.0797
 4581SOL     OW25201   0.395   2.199  15.627  0.4731 -0.2505 -0.9284
 4581SOL    HW125202   0.481   2.198  15.585 -0.8137 -2.5138 -3.5061
 4581SOL    HW225203   0.415   2.240  15.711 -1.2162 -2.1643  0.4025
 4582SOL     OW25204   1.952   3.521   0.495 -0.2820  0.0632 -0.6499
 4582SOL    HW125205   1.950   3.468   0.416  0.9357 -1.1101  0.1082
 4582SOL    HW225206   1.861   3.536   0.523 -0.2104 -0.4467 -0.1359
 4583SOL     OW25207   1.824   3.452  12.754  0.3089  0.2988 -0.0066
 4583SOL    HW125208   1.878   3.529  12.772  2.0436 -0.5108 -1.7422
 4583SOL    HW225209   1.887   3.390  12.718  0.9122  1.0263 -0.1902
 4584SOL     OW25210   4.048   3.924   4.393  0.4309  0.6220  0.7528
 4584SOL    HW125211   4.112   3.960   4.332 -0.8222  2.3145  0.4361
 4584SOL    HW225212   4.039   3.834   4.361  3.0578 -0.4300  2.9270
 4585SOL     OW25213   4.099   3.342  11.568 -0.6037 -0.3271 -0.1833
 4585SOL    HW125214   4.153   3.379  11.498  0.4524  1.1111  1.3849
 4585SOL    HW225215   4.172   3.302  11.615  1.9587  1.3933 -2.7104
 4586SOL     OW25216   0.196   3.623   7.079 -0.2988  0.0021  0.4979
 4586SOL    HW125217   0.288   3.648   7.086 -0.9404  2.3211  0.6904
 4586SOL    HW225218   0.217   3.530   7.072 -0.3228  0.0714 -0.4193
 4587SOL     OW25219   2.655   2.662  12.658 -0.2139  0.2575  0.6296
 4587SOL    HW125220   2.644   2.578  12.613 -1.8562 -0.4950  2.4240
 4587SOL    HW225221   2.747   2.658  12.684 -0.3847 -2.2682  0.8697
 4588SOL     OW25222   3.241   4.119  16.773 -0.2236 -0.9254 -0.2847
 4588SOL    HW125223   3.299   4.114  16.698  1.8815 -1.4218  1.3823
 4588SOL    HW225224   3.285   4.184  16.827 -1.4147 -2.4880  2.5947
 4589SOL     OW25225   2.304   2.988   4.790 -0.3684  0.3303 -0.4121
 4589SOL    HW125226   2.212   2.981   4.763 -1.4987  4.3766  2.4904
 4589SOL    HW225227   2.295   2.956   4.880 -2.0220  2.8355  0.3176
 4590SOL     OW25228   2.813   1.140   4.529 -0.2371  0.4724 -0.0389
 4590SOL    HW125229   2.824   1.137   4.434 -1.0117 -0.7159 -0.0842
 4590SOL    HW225230   2.735   1.196   4.534  0.2495  0.8332  3.5967
 4591SOL     OW25231   3.458   1.286  12.577  0.2457 -0.6102  0.3268
 4591SOL    HW125232   3.387   1.223  12.561 -1.9173  1.4646  1.9383
 4591SOL    HW225233   3.478   1.244  12.660  1.2369 -2.9251 -1.0673
 4592SOL     OW25234   0.179   2.391  15.475 -0.2635 -0.1930 -0.4203
 4592SOL    HW125235   0.175   2.463  15.537 -2.0105 -1.4371  0.9282
 4592SOL    HW225236   0.247   2.340  15.520  2.2502  3.1955 -0.4257
 4593SOL     OW25237   0.516   2.031   7.949 -0.8866  0.5957 -0.5765
 4593SOL    HW125238   0.442   2.008   8.005 -0.5231 -1.0073 -0.7331
 4593SOL    HW225239   0.565   2.092   8.004  0.5975  0.3908 -1.6642
 4594SOL     OW25240   2.052   1.645  10.292  0.1773  0.5462 -0.1347
 4594SOL    HW125241   2.135   1.688  10.276  1.0257 -2.3525 -3.5721
 4594SOL    HW225242   2.005   1.705  10.233 -0.3616  0.2017 -0.0617
 4595SOL     OW25243   0.192   0.240  12.588  0.0035 -0.0335  0.1110
 4595SOL    HW125244   0.099   0.229  12.568  0.7228  1.9460 -4.2898
 4595SOL    HW225245   0.225   0.151  12.572 -1.6904 -0.0380 -3.2538
 4596SOL     OW25246   3.258   0.475  16.179  0.6440  0.2581  0.2636
 4596SOL    HW125247   3.220   0.422  16.248 -0.2242  1.6869  0.8887
 4596SOL    HW225248   3.350   0.465  16.201  0.5338 -4.6665 -1.5794
 4597SOL     OW25249   0.844   4.374  11.332  0.2731 -0.4759  0.1265
 4597SOL    HW125250   0.879   4.389  11.244 -0.6053 -0.9330 -0.3043
 4597SOL    HW225251   0.795   4.453  11.355 -0.4434 -0.8236 -0.2095
 4598SOL     OW25252   1.749   0.680   4.708  0.3819  0.1730 -0.1448
 4598SOL    HW125253   1.812   0.646   4.644  1.7536  0.4003  1.0845
 4598SOL    HW225254   1.693   0.602   4.712  2.0205 -1.0063 -0.2271
 4599SOL     OW25255   2.591   2.577   8.376 -0.5334  0.0101 -0.2610
 4599SOL    HW125256   2.632   2.639   8.436 -0.2449  1.6727 -2.1818
 4599SOL    HW225257   2.667   2.549   8.324 -0.5672  0.9833 -0.8319
 4600SOL     OW25258   1.328   3.920   7.819  0.4119 -0.6147  0.2322
 4600SOL    HW125259   1.335   3.887   7.908  0.5276 -2.1540 -0.3310
 4600SOL    HW225260   1.298   3.841   7.773 -0.2630 -0.6147  0.6877
 4601SOL     OW25261   2.875   2.762   6.304 -0.4134 -0.4944  0.2986
 4601SOL    HW125262   2.968   2.759   6.279 -0.2550  0.5498  0.7934
 4601SOL    HW225263   2.853   2.671   6.325 -1.8123 -0.3733 -0.6376
 4602SOL     OW25264   3.037   2.663   5.965  0.1968 -0.0952  0.6990
 4602SOL    HW125265   3.051   2.589   6.024  0.3326 -0.5197  0.1327
 4602SOL    HW225266   2.968   2.628   5.909  0.9990  0.3976 -0.5771
 4603SOL     OW25267   2.111   0.012   8.198  0.2780 -0.3129  0.8142
 4603SOL    HW125268   2.127   0.001   8.104 -0.0795  0.2643  0.6865
 4603SOL    HW225269   2.192   4.700   8.236  0.1720 -1.8274 -0.3200
 4604SOL     OW25270   0.213   3.841  11.409 -0.3894 -0.0684 -0.4735
 4604SOL    HW125271   0.243   3.813  11.495 -0.4072  0.6188 -0.2402
 4604SOL    HW225272   0.299   3.864  11.373 -0.4393  0.0903 -0.4900
 4605SOL     OW25273   3.102   3.158   2.914 -0.3194  0.0871 -0.1306
 4605SOL    HW125274   3.019   3.187   2.877 -0.7991 -1.1467 -0.0436
 4605SOL    HW225275   3.132   3.093   2.850  1.9196 -2.5051  3.5306
 4606SOL     OW25276   0.936   3.176  17.375 -0.0471  0.3925  0.5865
 4606SOL    HW125277   0.954   3.082  17.382  1.6388  0.6495 -0.2404
 4606SOL    HW225278   0.850   3.184  17.334 -0.4105  0.0414  1.2808
 4607SOL     OW25279   0.900   4.179  17.605  0.3236  0.2793  0.1356
 4607SOL    HW125280   0.810   4.176  17.636 -0.3996  0.7091 -1.8815
 4607SOL    HW225281   0.874   4.202  17.515 -2.0107 -0.3381  0.6428
 4608SOL     OW25282   0.251   1.210   8.723  0.0676  0.1127 -0.1555
 4608SOL    HW125283   0.292   1.216   8.637  2.4160 -2.4093  0.7842
 4608SOL    HW225284   0.238   1.303   8.740  0.9343  0.1365  0.3770
 4609SOL     OW25285   0.656   2.200  14.350  0.1731  0.0794 -0.8610
 4609SOL    HW125286   0.689   2.282  14.388 -0.0275 -0.3296  0.1679
 4609SOL    HW225287   0.728   2.145  14.381 -1.1005 -0.3309  1.2838
 4610SOL     OW25288   0.480   1.790   4.552  0.1448 -0.2241  0.1860
 4610SOL    HW125289   0.575   1.793   4.556  0.1035  0.7759  0.5008
 4610SOL    HW225290   0.462   1.794   4.458 -1.5182 -0.3088  0.4970
 4611SOL     OW25291   3.285   1.101  12.862  0.9531  0.2985  0.4127
 4611SOL    HW125292   3.248   1.166  12.802 -2.1549 -0.7021  1.2568
 4611SOL    HW225293   3.375   1.133  12.859  1.3832 -1.0534 -1.5237
 4612SOL     OW25294   4.605   0.969   0.416 -0.6405  0.1309  0.0549
 4612SOL    HW125295   4.675   0.933   0.362 -0.9148  1.0868 -0.9384
 4612SOL    HW225296   4.644   0.959   0.503  1.2437 -0.5332 -0.8731
 4613SOL     OW25297   1.867   3.018  10.089  0.4242  0.1872  0.3956
 4613SOL    HW125298   1.910   3.007  10.174 -1.6594 -2.9317  1.0468
 4613SOL    HW225299   1.830   2.932  10.065  0.2575  0.8162 -1.6218
 4614SOL     OW25300   1.614   4.215   4.976 -0.6372 -0.6236 -0.3820
 4614SOL    HW125301   1.676   4.207   4.903 -0.0241  2.4213 -0.2081
 4614SOL    HW225302   1.622   4.128   5.015 -1.4806  0.1350  1.4671
 4615SOL     OW25303   3.282   3.260   7.077  0.0180  0.4982 -0.4172
 4615SOL    HW125304   3.342   3.326   7.110  2.9729 -1.5909 -1.6478
 4615SOL    HW225305   3.305   3.190   7.137 -0.9032 -1.4543 -2.3402
 4616SOL     OW25306   4.530   3.126  12.683 -0.0551  0.2070  0.4086
 4616SOL    HW125307   4.504   3.148  12.773 -1.4232 -1.0531  0.3372
 4616SOL    HW225308   4.458   3.069  12.653 -0.3154  1.8437 -2.0346
 4617SOL     OW25309   1.490   1.052   3.819  0.4737 -0.5504 -0.2224
 4617SOL    HW125310   1.429   1.078   3.750  0.4183 -2.0507 -0.7524
 4617SOL    HW225311   1.569   1.106   3.807  0.2459 -0.0946  0.3603
 4618SOL     OW25312   0.354   3.203  13.045 -0.1627  0.9745 -0.1891
 4618SOL    HW125313   0.438   3.183  13.005  0.4767 -1.7541  2.4656
 4618SOL    HW225314   0.294   3.164  12.981  0.9382 -1.4046  0.2287
 4619SOL     OW25315   0.632   4.546   6.540 -0.2160 -0.1654 -0.2863
 4619SOL    HW125316   0.707   4.491   6.517  1.1014  0.9370  1.4153
 4619SOL    HW225317   0.583   4.492   6.602  1.5213 -0.4501  0.8219
 4620SOL     OW25318   4.699   2.209   8.979  0.2940 -0.2128  0.2049
 4620SOL    HW125319   4.701   2.283   9.040 -0.5278 -0.9164  1.0877
 4620SOL    HW225320   4.698   2.130   9.033 -0.0540  1.1717  2.2063
 4621SOL     OW25321   1.818   2.267   3.028  0.4539  0.1088 -0.3971
 4621SOL    HW125322   1.761   2.267   2.952 -0.6229 -1.8357  0.3866
 4621SOL    HW225323   1.792   2.352   3.064 -2.4170 -0.3565 -1.3596
 4622SOL     OW25324   3.558   4.065  17.528 -0.2451 -0.0036 -0.4824
 4622SOL    HW125325   3.534   4.069  17.621 -1.9358 -0.8517 -0.8808
 4622SOL    HW225326   3.568   3.970  17.517  1.4433  0.1194  0.0288
 4623SOL     OW25327   4.561   0.208   6.443 -0.0013 -0.2550 -0.0259
 4623SOL    HW125328   4.613   0.247   6.372  0.9987 -0.2399  0.7295
 4623SOL    HW225329   4.513   0.285   6.473  0.3928 -0.0128 -0.0159
 4624SOL     OW25330   0.390   2.291   6.714  0.1539 -0.0638 -0.4008
 4624SOL    HW125331   0.307   2.294   6.762  0.2196 -1.5858 -0.1903
 4624SOL    HW225332   0.451   2.346   6.764 -0.8524 -0.4517  1.2434
 4625SOL     OW25333   2.500   0.369   3.606 -0.1646 -0.4924  0.8901
 4625SOL    HW125334   2.579   0.316   3.601 -0.5556 -1.0880  1.1483
 4625SOL    HW225335   2.522   0.463   3.610  0.0652 -0.5560  1.1326
 4626SOL     OW25336   3.808   2.611   6.355 -0.2303  0.3603  0.2235
 4626SOL    HW125337   3.762   2.694   6.352 -0.1028  0.4329  0.3021
 4626SOL    HW225338   3.799   2.580   6.265 -0.1813  4.4108 -1.1532
 4627SOL     OW25339   2.930   1.214  11.679 -0.4010 -0.6586 -0.5024
 4627SOL    HW125340   2.973   1.131  11.656  1.3342  0.5627 -1.6900
 4627SOL    HW225341   2.989   1.264  11.735  0.5560  0.0703 -2.1455
 4628SOL     OW25342   3.939   1.578   7.291 -0.2398 -0.2873 -0.0926
 4628SOL    HW125343   3.879   1.597   7.219 -0.4709  0.2200  0.2383
 4628SOL    HW225344   3.917   1.487   7.314 -0.6713  0.5391  2.7849
 4629SOL     OW25345   0.925   3.026  13.324 -0.1683 -0.1030  0.5253
 4629SOL    HW125346   0.909   2.932  13.335 -1.1352 -0.0455 -0.3857
 4629SOL    HW225347   1.011   3.028  13.282 -1.6707  1.8306 -2.4185
 4630SOL     OW25348   3.654   3.477  15.512 -0.2752 -0.4613  0.8126
 4630SOL    HW125349   3.736   3.459  15.557 -0.8771 -0.0330  2.0586
 4630SOL    HW225350   3.635   3.404  15.453  0.6625  2.1148 -2.7135
 4631SOL     OW25351   3.014   1.437   2.594 -0.6046  0.0236 -0.2582
 4631SOL    HW125352   3.033   1.397   2.679  0.3998  1.5050  0.2329
 4631SOL    HW225353   3.092   1.494   2.587  0.3508 -1.1872  0.5172
 4632SOL     OW25354   0.203   4.039   5.463  0.1825 -0.2596  0.2654
 4632SOL    HW125355   0.111   4.054   5.489  0.0563 -0.3935 -0.1135
 4632SOL    HW225356   0.205   3.944   5.458  2.0513 -0.2128  0.2097
 4633SOL     OW25357   4.546   3.100   6.172  0.2199  0.0697 -0.3415
 4633SOL    HW125358   4.572   3.120   6.082  0.3486  0.2257 -0.2702
 4633SOL    HW225359   4.453   3.123   6.175 -0.5835 -3.1062 -1.2638
 4634SOL     OW25360   0.615   2.253  12.903  0.1471  0.1710 -0.2559
 4634SOL    HW125361   0.688   2.192  12.892  1.6664  1.3788  3.1897
 4634SOL    HW225362   0.659   2.335  12.878 -0.3011  0.5768  0.2907
 4635SOL     OW25363   1.731   1.034   8.291 -0.1888 -0.5309  0.4153
 4635SOL    HW125364   1.707   1.081   8.371  1.6023  0.2616  0.4844
 4635SOL    HW225365   1.826   1.046   8.291  0.0399 -2.3188  1.8103
 4636SOL     OW25366   3.462   4.716  11.494 -0.8451 -0.5014 -0.2386
 4636SOL    HW125367   3.444   4.682  11.582  0.4968 -0.4642  0.0467
 4636SOL    HW225368   3.440   0.088  11.501 -1.3476 -0.5943 -0.5554
 4637SOL     OW25369   2.424   2.026   6.105  0.3629 -0.0342 -0.3187
 4637SOL    HW125370   2.516   2.052   6.110  0.6256 -1.2145  0.8158
 4637SOL    HW225371   2.430   1.972   6.026  1.8710  0.1281 -0.3129
 4638SOL     OW25372   0.359   0.463  12.104  0.2368 -0.6730 -0.2511
 4638SOL    HW125373   0.278   0.440  12.148 -0.3664  2.0822  0.0584
 4638SOL    HW225374   0.416   0.490  12.176 -0.7463  0.5535  0.0611
 4639SOL     OW25375   0.643   4.071   8.033  0.0337 -0.9805  0.3613
 4639SOL    HW125376   0.656   4.006   7.964  1.2290 -0.0724 -0.2870
 4639SOL    HW225377   0.549   4.083   8.021  0.3444  2.6176  1.3976
 4640SOL     OW25378   4.328   1.563  11.331 -0.1997  0.1288  0.1980
 4640SOL    HW125379   4.359   1.473  11.318  0.2356  0.3849 -0.4989
 4640SOL    HW225380   4.243   1.547  11.373  0.8117 -1.9771  1.4208
 4641SOL     OW25381   1.788   2.864   4.055 -0.1598 -0.3925  0.4747
 4641SOL    HW125382   1.794   2.769   4.050  0.9330 -0.2495 -0.9420
 4641SOL    HW225383   1.796   2.880   4.149  2.2390 -1.7428  0.4841
 4642SOL     OW25384   3.384   3.931   8.484 -0.3771 -0.3757 -0.2675
 4642SOL    HW125385   3.317   3.868   8.513 -2.5212  1.4018 -1.3268
 4642SOL    HW225386   3.422   3.896   8.403 -1.9479 -1.2093 -0.6492
 4643SOL     OW25387   3.593   3.500   4.636  0.1546  0.1390  0.7257
 4643SOL    HW125388   3.650   3.570   4.668 -0.0973  1.0349 -0.7595
 4643SOL    HW225389   3.549   3.470   4.715  0.6288 -1.4039  0.4037
 4644SOL     OW25390   3.448   3.681  12.030 -0.0570  0.1285 -0.1172
 4644SOL    HW125391   3.487   3.595  12.046 -1.0232  0.1131  2.0584
 4644SOL    HW225392   3.412   3.704  12.115 -1.2899  0.8336 -0.8262
 4645SOL     OW25393   1.702   0.256   7.449  0.4240 -0.0856 -0.0973
 4645SOL    HW125394   1.712   0.161   7.452  2.5781  0.1338 -0.9533
 4645SOL    HW225395   1.650   0.253   7.530  0.7788  0.3123  0.1384
 4646SOL     OW25396   3.690   0.810   3.987 -0.2447 -0.2463  0.5484
 4646SOL    HW125397   3.626   0.874   3.958 -1.1267 -0.5302  1.8445
 4646SOL    HW225398   3.706   0.762   3.906 -1.1916 -0.5213  0.5338
 4647SOL     OW25399   2.049   0.264   6.465 -0.0365  0.0338  0.0435
 4647SOL    HW125400   2.004   0.225   6.540 -1.0702  1.3859  0.1254
 4647SOL    HW225401   2.097   0.190   6.427 -0.2707 -0.8070  1.4014
 4648SOL     OW25402   1.392   0.979   8.705  0.0441 -0.7515 -0.4020
 4648SOL    HW125403   1.361   0.922   8.634 -0.1741 -2.9969  1.5027
 4648SOL    HW225404   1.480   0.941   8.712  0.3238 -0.1565 -0.6629
 4649SOL     OW25405   2.368   3.212  10.474 -0.2709 -0.3431 -0.0067
 4649SOL    HW125406   2.415   3.262  10.541 -1.4710 -0.7444  1.1030
 4649SOL    HW225407   2.437   3.149  10.453  1.9461  2.6057 -1.5993
 4650SOL     OW25408   3.300   2.748   7.896  0.0938  0.3657  0.0647
 4650SOL    HW125409   3.240   2.822   7.889 -0.7196 -0.1156  2.0252
 4650SOL    HW225410   3.254   2.692   7.958 -0.2128  1.2355  0.6287
 4651SOL     OW25411   4.009   3.539   4.758  0.2215 -0.3715 -0.2392
 4651SOL    HW125412   3.962   3.598   4.699 -1.0942 -1.8675 -0.7043
 4651SOL    HW225413   4.088   3.589   4.777 -0.2557  0.0358  0.6400
 4652SOL     OW25414   4.297   4.053   4.609 -0.2602 -0.1524 -0.0619
 4652SOL    HW125415   4.248   4.013   4.680  0.7077  0.2826  0.8501
 4652SOL    HW225416   4.314   3.987   4.541 -0.8450 -0.2129 -0.1464
 4653SOL     OW25417   3.031   3.981  16.817 -0.2418 -0.6816  0.2557
 4653SOL    HW125418   3.053   3.929  16.740  1.8134  0.2020  0.2319
 4653SOL    HW225419   3.108   4.035  16.800  1.1811 -2.7297  0.1574
 4654SOL     OW25420   4.471   2.134   0.631 -0.8989  0.1017  0.3130
 4654SOL    HW125421   4.498   2.063   0.689 -2.5884  0.4107  1.4697
 4654SOL    HW225422   4.429   2.190   0.695 -1.5649 -0.7077  0.5789
 4655SOL     OW25423   4.581   3.937   3.631  1.1733 -0.1109  0.1218
 4655SOL    HW125424   4.582   3.999   3.704 -2.2345  0.3025 -0.1805
 4655SOL    HW225425   4.575   3.855   3.679  0.4997  1.7771  3.2238
 4656SOL     OW25426   4.134   4.610  15.204 -0.5188 -0.2686 -0.4458
 4656SOL    HW125427   4.181   4.611  15.288  1.8041 -0.0419 -1.7429
 4656SOL    HW225428   4.062   4.553  15.233 -0.4816 -0.3698 -0.5552
 4657SOL     OW25429   0.441   0.069  16.526  0.2300  0.5938 -0.2048
 4657SOL    HW125430   0.476   0.114  16.449 -0.2826  3.2409  1.1215
 4657SOL    HW225431   0.362   0.122  16.536  1.2720  1.7387  1.7764
 4658SOL     OW25432   1.299   4.692   5.380 -0.1658 -0.3259 -0.3023
 4658SOL    HW125433   1.264   4.669   5.466  0.6918 -1.3726 -0.2317
 4658SOL    HW225434   1.392   4.694   5.405 -0.4076 -1.8370  0.7205
 4659SOL     OW25435   1.112   0.351  16.062 -0.6669 -0.2589  0.6191
 4659SOL    HW125436   1.183   0.415  16.073 -1.4998  0.7681  0.0303
 4659SOL    HW225437   1.086   0.378  15.974 -0.6103 -0.5654  0.5064
 4660SOL     OW25438   3.048   3.647   1.052 -0.7626  0.1398  0.1325
 4660SOL    HW125439   3.071   3.554   1.054 -0.8375  0.0766 -1.7561
 4660SOL    HW225440   2.997   3.650   0.971  1.6441 -0.3964 -1.4148
 4661SOL     OW25441   1.962   2.345   4.849 -0.1335  0.3831  0.4776
 4661SOL    HW125442   1.891   2.295   4.809  1.1923 -0.0336 -1.3479
 4661SOL    HW225443   1.933   2.355   4.940 -1.5720  1.1070 -0.0544
 4662SOL     OW25444   3.566   2.795  11.924  0.0433  0.1045 -0.2269
 4662SOL    HW125445   3.531   2.881  11.900 -0.8671 -0.0088  0.6912
 4662SOL    HW225446   3.479   2.784  11.963  0.6237 -4.2709 -0.1674
 4663SOL     OW25447   1.261   2.461   5.211  0.5708  0.2587 -0.0953
 4663SOL    HW125448   1.200   2.517   5.163 -1.9445 -2.4865 -0.1110
 4663SOL    HW225449   1.334   2.455   5.149 -0.1417 -0.4749 -0.8651
 4664SOL     OW25450   3.343   0.942   1.781  0.4097 -0.2989  0.6975
 4664SOL    HW125451   3.343   1.035   1.758 -1.0587 -0.6128 -0.5589
 4664SOL    HW225452   3.267   0.952   1.839  0.5733  0.9942  0.6867
 4665SOL     OW25453   2.977   3.274   5.087 -0.9759  0.4968 -0.0675
 4665SOL    HW125454   2.952   3.303   4.999 -2.0471  4.3928  1.5187
 4665SOL    HW225455   2.898   3.239   5.127 -0.5300 -0.5947 -0.1607
 4666SOL     OW25456   0.170   1.872  10.702  0.5835 -0.3995 -0.0791
 4666SOL    HW125457   0.106   1.940  10.721 -0.3463 -1.2748 -0.1229
 4666SOL    HW225458   0.231   1.903  10.769  1.2216 -0.6905 -0.5257
 4667SOL     OW25459   2.106   3.568  14.010 -0.1001 -0.5409 -0.1065
 4667SOL    HW125460   2.171   3.591  14.076 -0.8660 -0.2483  0.5574
 4667SOL    HW225461   2.033   3.543  14.066 -1.3093  1.4920 -0.7534
 4668SOL     OW25462   1.918   1.067   7.912 -0.2637 -0.0137  0.0519
 4668SOL    HW125463   1.835   1.033   7.946 -0.3603 -2.5411 -2.7652
 4668SOL    HW225464   1.887   1.149   7.875  2.8731  0.7736 -0.7948
 4669SOL     OW25465   0.592   0.224   3.551 -0.0435  0.0449  0.0346
 4669SOL    HW125466   0.589   0.253   3.460 -0.9014  1.3154  0.4617
 4669SOL    HW225467   0.498   0.222   3.570 -0.2356  2.9323 -0.5455
 4670SOL     OW25468   2.651   3.714   4.369 -0.1668  0.0471  0.5653
 4670SOL    HW125469   2.649   3.624   4.335  1.6444 -1.2237  3.7469
 4670SOL    HW225470   2.621   3.706   4.460 -1.2075  0.3798  0.2387
 4671SOL     OW25471   3.154   3.501   4.768 -0.2276 -0.0673  0.8510
 4671SOL    HW125472   3.074   3.552   4.756  1.1195  1.4612 -1.6794
 4671SOL    HW225473   3.130   3.425   4.715  0.2143 -0.3808  1.0976
 4672SOL     OW25474   2.103   2.798   5.348 -0.1911 -0.4207  0.6103
 4672SOL    HW125475   2.077   2.800   5.440  0.4140 -0.2050  0.7782
 4672SOL    HW225476   2.093   2.892   5.333 -0.3252 -0.1688  2.3186
 4673SOL     OW25477   2.774   1.100  13.846 -0.0929 -0.3116 -0.0299
 4673SOL    HW125478   2.724   1.031  13.889  1.7579 -0.6184  1.6151
 4673SOL    HW225479   2.711   1.166  13.816  0.3913 -0.3334 -1.0736
 4674SOL     OW25480   3.585   2.082   5.330 -0.5364  0.2698 -0.1714
 4674SOL    HW125481   3.585   1.990   5.357  1.6617  0.5516  0.8247
 4674SOL    HW225482   3.649   2.072   5.259  2.4890  0.4773  2.5276
 4675SOL     OW25483   3.833   3.352   4.879 -0.5360  0.5111  0.7767
 4675SOL    HW125484   3.741   3.372   4.897 -0.9583  0.2347 -1.0777
 4675SOL    HW225485   3.879   3.431   4.908 -2.0686  1.9994 -0.8706
 4676SOL     OW25486   2.990   2.351  15.335  0.3300 -0.0005 -0.4886
 4676SOL    HW125487   3.075   2.392  15.352  0.9903 -1.6147  0.1056
 4676SOL    HW225488   2.960   2.394  15.255  1.6685 -1.2898 -1.6810
 4677SOL     OW25489   0.308   0.966  16.326 -0.2164 -0.1074  0.3314
 4677SOL    HW125490   0.355   0.883  16.327 -0.1834 -0.1158 -1.2147
 4677SOL    HW225491   0.372   1.029  16.290  1.5244 -1.4770  1.0237
 4678SOL     OW25492   2.518   4.472   1.044  0.0615 -0.1310 -0.6545
 4678SOL    HW125493   2.610   4.446   1.046 -0.5706 -2.3940 -1.1433
 4678SOL    HW225494   2.471   4.389   1.051  1.6423 -0.9664  0.2766
 4679SOL     OW25495   0.944   4.418   8.490 -0.2787 -0.2966 -0.2500
 4679SOL    HW125496   0.878   4.450   8.428 -0.4999  1.5468  0.9261
 4679SOL    HW225497   0.885   4.399   8.563 -2.0886  0.0358 -1.6221
 4680SOL     OW25498   2.435   2.986  10.034 -0.0991  0.0051 -0.0944
 4680SOL    HW125499   2.473   3.060  10.083  0.5631 -1.7611  2.0591
 4680SOL    HW225500   2.483   2.909  10.064 -1.1768 -0.4302  0.5133
 4681SOL     OW25501   3.641   3.129   2.319 -0.5280  0.5909  0.4744
 4681SOL    HW125502   3.678   3.213   2.290  1.7442  0.0696  1.8213
 4681SOL    HW225503   3.568   3.131   2.257 -0.4512  0.9439  0.3942
 4682SOL     OW25504   2.431   1.181   6.214  0.1528 -0.1297  0.2636
 4682SOL    HW125505   2.517   1.165   6.253  0.9522  0.6642 -1.1516
 4682SOL    HW225506   2.368   1.137   6.271 -0.4637  2.4259  1.5689
 4683SOL     OW25507   0.498   0.407  11.852  0.2451 -0.0116  0.6006
 4683SOL    HW125508   0.475   0.442  11.938  0.3620  1.3916  0.0570
 4683SOL    HW225509   0.445   0.327  11.847  2.6138 -1.5091 -0.8877
 4684SOL     OW25510   3.435   0.251   4.061  1.1041  0.0608  0.5044
 4684SOL    HW125511   3.378   0.275   4.134 -0.6639  1.6220 -1.3977
 4684SOL    HW225512   3.404   0.161   4.065 -1.3188  0.8607 -0.3095
 4685SOL     OW25513   2.258   3.760  17.612 -0.0537  0.1885  0.0668
 4685SOL    HW125514   2.167   3.766  17.583  0.3895  1.2057 -1.1330
 4685SOL    HW225515   2.312   3.779  17.535 -0.1123  0.6524  0.1384
 4686SOL     OW25516   1.976   1.821   6.205  0.1304 -0.2855  0.6884
 4686SOL    HW125517   2.031   1.767   6.148 -1.5278 -0.7594 -0.4885
 4686SOL    HW225518   2.048   1.866   6.249  1.6606 -2.1303  0.0778
 4687SOL     OW25519   0.801   4.700   9.916 -0.5773 -0.6069 -0.1399
 4687SOL    HW125520   0.748   0.054   9.940 -0.6305 -1.4084  2.3505
 4687SOL    HW225521   0.816   4.683  10.009  1.8976  0.9084 -0.2555
 4688SOL     OW25522   2.018   3.777   2.298 -0.0673  0.0565 -0.3037
 4688SOL    HW125523   1.980   3.788   2.385  2.2552 -0.7010  0.8142
 4688SOL    HW225524   2.082   3.709   2.319  0.7308  0.5501 -1.1314
 4689SOL     OW25525   1.136   1.582  14.680 -0.2050 -0.2780 -0.0483
 4689SOL    HW125526   1.104   1.567  14.770  1.4135  0.2805  0.6149
 4689SOL    HW225527   1.072   1.527  14.634  1.5946 -2.7232  0.4199
 4690SOL     OW25528   2.371   3.289   7.277 -0.0405 -0.0398 -0.3095
 4690SOL    HW125529   2.278   3.271   7.289  0.1055 -0.1034  0.7505
 4690SOL    HW225530   2.373   3.384   7.267 -2.7730  0.1100  0.5157
 4691SOL     OW25531   2.127   1.413   3.898  0.2902 -0.6290 -0.3794
 4691SOL    HW125532   2.098   1.435   3.810  1.1370 -0.6955 -0.6767
 4691SOL    HW225533   2.050   1.440   3.948 -0.9099 -4.2076 -0.3305
 4692SOL     OW25534   2.667   2.470   7.000 -0.0208 -0.7613 -0.2231
 4692SOL    HW125535   2.641   2.394   7.052 -4.0822  0.9797  0.3003
 4692SOL    HW225536   2.752   2.441   6.968 -0.2101 -1.9510  0.3479
 4693SOL     OW25537   3.415   4.152   8.665  0.3935  0.3101  0.3550
 4693SOL    HW125538   3.373   4.120   8.585 -0.5677  1.7081  0.3032
 4693SOL    HW225539   3.498   4.180   8.624 -0.1420 -0.8406 -1.5305
 4694SOL     OW25540   4.314   0.729  12.830  0.4365 -0.2284 -0.1603
 4694SOL    HW125541   4.252   0.656  12.835  1.6607 -1.2521  0.2888
 4694SOL    HW225542   4.259   0.799  12.796  1.2586 -0.3149 -1.6669
 4695SOL     OW25543   3.049   3.344  17.071 -0.3788  0.5611 -0.2197
 4695SOL    HW125544   2.974   3.389  17.033 -0.6176 -0.0703 -0.4965
 4695SOL    HW225545   3.052   3.379  17.160  1.3658  1.5444 -0.6690
 4696SOL     OW25546   3.005   2.279   2.987  0.1167 -0.1551 -0.0831
 4696SOL    HW125547   2.995   2.289   2.893 -1.3866 -1.3271 -0.0438
 4696SOL    HW225548   2.929   2.331   3.013 -0.8318 -1.8870  0.5470
 4697SOL     OW25549   1.827   3.858   9.937  0.3770 -0.1760  0.6368
 4697SOL    HW125550   1.774   3.803   9.994 -2.3548  2.1443  0.3621
 4697SOL    HW225551   1.782   3.821   9.861 -2.2712 -0.8622  2.5246
 4698SOL     OW25552   1.937   1.967   7.221  1.1100 -0.3352 -0.1489
 4698SOL    HW125553   1.975   1.905   7.283  2.0610 -1.7594 -2.1658
 4698SOL    HW225554   1.877   2.018   7.276  2.7166 -0.1885  1.4583
 4699SOL     OW25555   3.531   4.714   2.825  0.3136 -0.3740  0.4157
 4699SOL    HW125556   3.624   4.699   2.839  0.7708  1.6300 -0.4436
 4699SOL    HW225557   3.521   4.659   2.747 -1.4042  0.8397 -0.2195
 4700SOL     OW25558   4.153   0.208   6.265 -0.4932 -0.0889  0.7080
 4700SOL    HW125559   4.195   0.279   6.217 -2.6136  1.1284  0.6551
 4700SOL    HW225560   4.121   0.142   6.203 -0.2633  0.5355 -0.0681
 4701SOL     OW25561   3.636   2.086   3.588  0.0227 -0.2022  0.4086
 4701SOL    HW125562   3.549   2.074   3.551  0.2397  2.2403 -0.9328
 4701SOL    HW225563   3.677   2.133   3.516  0.7263  0.2999  1.1354
 4702SOL     OW25564   4.001   0.037   7.755  0.4649  0.6663  0.2727
 4702SOL    HW125565   3.942   0.103   7.720  1.4919  0.4828 -1.8020
 4702SOL    HW225566   3.946   4.720   7.823  0.5378 -1.6250 -0.9598
 4703SOL     OW25567   2.935   0.610  12.657  0.1866 -0.6786  0.2273
 4703SOL    HW125568   2.948   0.694  12.701  2.8283 -1.6415  1.3056
 4703SOL    HW225569   2.895   0.641  12.576  2.1430  2.3518  0.4442
 4704SOL     OW25570   0.671   3.908   6.585 -0.0295  0.2523 -0.0602
 4704SOL    HW125571   0.580   3.925   6.610  0.2334  2.2134 -0.4074
 4704SOL    HW225572   0.671   3.917   6.490  1.7330  3.2177  0.1917
 4705SOL     OW25573   3.360   4.105   5.329  0.0107 -0.7335 -0.4734
 4705SOL    HW125574   3.287   4.046   5.310  0.3745 -1.6420  0.9994
 4705SOL    HW225575   3.393   4.063   5.408  0.4437 -1.2204 -0.9156
 4706SOL     OW25576   4.573   2.917   5.634 -0.1147  0.4551 -0.3093
 4706SOL    HW125577   4.623   2.846   5.674  1.7356  0.6850 -2.2009
 4706SOL    HW225578   4.642   2.968   5.591  0.2665  0.0750 -0.1504
 4707SOL     OW25579   4.653   0.184   7.865 -0.0634 -0.2688  0.2118
 4707SOL    HW125580   4.585   0.151   7.924 -0.2012 -0.1877  0.0977
 4707SOL    HW225581   4.624   0.275   7.869 -2.1468 -0.8685 -0.9095
 4708SOL     OW25582   2.454   4.383   5.097  0.3057 -0.0767 -0.6424
 4708SOL    HW125583   2.472   4.305   5.149 -1.2021 -0.0459 -0.0907
 4708SOL    HW225584   2.359   4.388   5.086  0.2791  2.5049  0.7865
 4709SOL     OW25585   1.677   4.418   0.450 -0.0355  0.2041 -0.3222
 4709SOL    HW125586   1.660   4.325   0.435 -0.3416  0.0604  0.9059
 4709SOL    HW225587   1.707   4.431   0.360  1.7811  0.2953  0.3004
 4710SOL     OW25588   1.829   3.703   7.587  0.2675 -0.3621 -0.9420
 4710SOL    HW125589   1.745   3.681   7.547 -0.6797  1.9827 -0.2581
 4710SOL    HW225590   1.821   3.799   7.588 -1.4259 -0.5718  2.8495
 4711SOL     OW25591   3.051   3.445  17.327 -0.3609 -0.9960  0.1415
 4711SOL    HW125592   3.008   3.405  17.403 -1.5752 -1.0023 -0.5675
 4711SOL    HW225593   3.053   3.540  17.343 -1.4620 -0.6097 -2.1274
 4712SOL     OW25594   2.101   2.320   7.584  0.3260 -0.0614  0.5512
 4712SOL    HW125595   2.080   2.339   7.676  0.8168 -0.0833  0.6689
 4712SOL    HW225596   2.041   2.249   7.564  2.7515 -1.7124 -0.8752
 4713SOL     OW25597   4.382   0.352   6.075 -0.3376 -0.1108  0.0530
 4713SOL    HW125598   4.427   0.418   6.128  0.7204 -0.4644 -0.4056
 4713SOL    HW225599   4.317   0.410   6.034  1.6008  0.8938 -1.6172
 4714SOL     OW25600   3.599   2.863  14.785 -0.2451 -0.2917 -0.1959
 4714SOL    HW125601   3.663   2.851  14.715 -0.1304 -1.0672  0.0450
 4714SOL    HW225602   3.547   2.941  14.763  0.0414 -0.2170 -0.6004
 4715SOL     OW25603   0.139   3.415  11.066  0.3533 -0.8384  0.4184
 4715SOL    HW125604   0.216   3.472  11.066 -0.6957  0.5674 -1.4994
 4715SOL    HW225605   0.069   3.478  11.083  1.3584  0.4060 -0.0539
 4716SOL     OW25606   2.337   0.077   5.524  0.2708  0.1430  0.7982
 4716SOL    HW125607   2.310   0.124   5.602 -0.4505  0.3560  0.4162
 4716SOL    HW225608   2.342   4.710   5.561  0.0982 -0.2409 -0.0881
 4717SOL     OW25609   2.297   1.566   5.506  0.0384  0.3948 -0.5761
 4717SOL    HW125610   2.370   1.539   5.562  1.0435  3.7440 -0.3092
 4717SOL    HW225611   2.247   1.605   5.577 -0.0540  0.6586 -0.7878
 4718SOL     OW25612   3.118   1.698   2.345 -0.1486  0.4179  0.4119
 4718SOL    HW125613   3.144   1.613   2.309  0.9849  0.3802  1.3121
 4718SOL    HW225614   3.068   1.734   2.272 -0.3687 -2.4062 -0.8110
 4719SOL     OW25615   3.477   3.751   1.300  0.1742 -0.3517 -0.1725
 4719SOL    HW125616   3.493   3.662   1.269  0.8572 -0.3734  0.2421
 4719SOL    HW225617   3.381   3.747   1.295  0.1171  0.7928  0.1050
 4720SOL     OW25618   1.370   2.201   2.679  0.3712 -0.4286 -0.0022
 4720SOL    HW125619   1.333   2.225   2.764  2.3165  2.7501 -0.0610
 4720SOL    HW225620   1.461   2.188   2.705 -0.1753  1.2166  2.8290
 4721SOL     OW25621   0.779   0.302   6.112 -0.4973 -0.1591  0.7663
 4721SOL    HW125622   0.770   0.211   6.086 -0.7617  0.7105 -2.1630
 4721SOL    HW225623   0.862   0.304   6.159  0.1833 -0.9175 -0.4277
 4722SOL     OW25624   1.993   3.671   5.700 -0.2526  0.1366 -0.7167
 4722SOL    HW125625   1.988   3.597   5.760 -1.9351 -0.3023 -1.3955
 4722SOL    HW225626   1.930   3.732   5.739  1.7382  0.5210  1.9016
 4723SOL     OW25627   4.083   3.905  14.762 -0.1172  0.8950 -0.4393
 4723SOL    HW125628   4.115   3.874  14.847  1.5286  1.3130 -0.8907
 4723SOL    HW225629   4.111   3.997  14.766 -1.3382  1.2064  0.9205
 4724SOL     OW25630   3.604   4.058  13.254  0.1164  0.0551  0.2985
 4724SOL    HW125631   3.665   4.075  13.325  1.1275  2.0717 -1.0607
 4724SOL    HW225632   3.634   4.124  13.191 -1.0061  1.6137  1.4018
 4725SOL     OW25633   3.242   3.957  11.375 -0.4749  0.1505 -0.0449
 4725SOL    HW125634   3.173   4.008  11.334 -1.0365 -0.3140  0.3320
 4725SOL    HW225635   3.310   4.024  11.385 -1.6135  1.3697 -0.3992
 4726SOL     OW25636   0.961   3.012   5.711 -0.2090 -0.2171 -0.3450
 4726SOL    HW125637   1.020   3.007   5.636 -1.4531 -0.1497 -1.3391
 4726SOL    HW225638   0.976   2.926   5.750 -1.6030 -0.1496  0.3587
 4727SOL     OW25639   2.548   2.589   1.823 -0.1086  0.5952 -0.2323
 4727SOL    HW125640   2.625   2.642   1.801 -0.5271  1.1218 -0.4071
 4727SOL    HW225641   2.584   2.502   1.840 -0.4778  0.9654  2.4680
 4728SOL     OW25642   3.950   3.441   9.441  0.6431  0.3411 -0.1278
 4728SOL    HW125643   3.966   3.396   9.524 -1.9677 -1.1629 -0.4568
 4728SOL    HW225644   4.013   3.513   9.444 -0.1636  1.0556 -0.3836
 4729SOL     OW25645   2.710   1.179   6.312  0.5469  0.2312  0.2602
 4729SOL    HW125646   2.722   1.097   6.361 -1.1257  0.0628  0.4025
 4729SOL    HW225647   2.740   1.242   6.377 -0.4954  1.3732 -0.3823
 4730SOL     OW25648   4.537   3.614   2.068  0.3546  0.0133  0.0344
 4730SOL    HW125649   4.613   3.590   2.015  1.0691  0.1308  1.0023
 4730SOL    HW225650   4.533   3.557   2.145 -2.3234 -0.6412 -0.5809
 4731SOL     OW25651   2.598   3.831  10.799  0.0615  0.3887  0.2539
 4731SOL    HW125652   2.565   3.836  10.889  0.6110 -1.9769  0.5813
 4731SOL    HW225653   2.532   3.771  10.764  1.5774  0.1788 -2.2141
 4732SOL     OW25654   0.251   4.685   8.230 -0.2330  0.4407  0.2863
 4732SOL    HW125655   0.315   0.016   8.182  0.7132  0.2870  1.3849
 4732SOL    HW225656   0.178   0.022   8.246 -2.5480 -2.6992  1.3770
 4733SOL     OW25657   4.348   1.123   7.764  0.2772  0.5707  0.2276
 4733SOL    HW125658   4.317   1.142   7.676 -0.4538  0.7389  0.5223
 4733SOL    HW225659   4.315   1.202   7.807  0.2053  2.1145 -2.6611
 4734SOL     OW25660   0.089   3.067   8.851  0.1604 -0.3368 -0.0209
 4734SOL    HW125661   0.164   3.106   8.895  1.7607 -1.4262 -1.7797
 4734SOL    HW225662   0.136   3.030   8.776  1.4401  0.5124  0.3649
 4735SOL     OW25663   0.297   0.666   3.215 -0.2073 -0.2215  0.4162
 4735SOL    HW125664   0.387   0.675   3.186  0.2706  1.6863  2.5066
 4735SOL    HW225665   0.304   0.588   3.269 -0.5314 -0.1103  0.6192
 4736SOL     OW25666   2.736   3.084  13.670 -0.2854  0.8525  0.3841
 4736SOL    HW125667   2.741   3.062  13.763  0.9373 -1.4677 -0.2274
 4736SOL    HW225668   2.785   3.166  13.669  2.4055 -0.7869 -3.5790
 4737SOL     OW25669   1.980   1.079   5.090 -0.2618 -0.3425  0.7779
 4737SOL    HW125670   2.012   1.012   5.030  1.6086  0.4774  0.8691
 4737SOL    HW225671   2.061   1.104   5.136  0.7864 -0.9435 -0.7491
 4738SOL     OW25672   2.416   3.973   0.460  0.2872 -0.3993  0.3625
 4738SOL    HW125673   2.466   4.054   0.446 -0.5057  0.4374  2.3994
 4738SOL    HW225674   2.482   3.907   0.441 -0.0192 -1.0804  1.6527
 4739SOL     OW25675   1.393   3.469  11.096 -0.3843  0.1705 -0.3166
 4739SOL    HW125676   1.305   3.465  11.057 -0.0784  2.7397 -1.2865
 4739SOL    HW225677   1.422   3.555  11.065 -0.7852 -0.2819 -1.9591
 4740SOL     OW25678   1.414   0.234   7.945 -0.1878 -0.3375  0.6629
 4740SOL    HW125679   1.426   0.164   7.881  2.0834  2.2894 -1.7875
 4740SOL    HW225680   1.379   0.293   7.878  2.8651  0.8204  0.0951
 4741SOL     OW25681   4.402   4.122   7.131 -0.2613 -0.1048  0.5619
 4741SOL    HW125682   4.357   4.048   7.172 -0.1666 -0.5775 -0.1717
 4741SOL    HW225683   4.341   4.194   7.145 -0.8553 -0.3768 -0.6548
 4742SOL     OW25684   0.193   4.456   0.189  0.7273 -0.1120 -0.1301
 4742SOL    HW125685   0.147   4.539   0.179  0.2715 -0.4842 -1.1399
 4742SOL    HW225686   0.252   4.456   0.113  1.7586 -0.4353  0.6587
 4743SOL     OW25687   4.110   2.005   3.113 -0.5652 -0.0356 -0.5190
 4743SOL    HW125688   4.051   1.931   3.122  0.0523 -0.7417 -2.2920
 4743SOL    HW225689   4.190   1.972   3.072 -1.2112 -1.6563 -0.4537
 4744SOL     OW25690   0.820   2.803   8.125 -0.2166 -0.0476  0.0643
 4744SOL    HW125691   0.876   2.754   8.065 -0.9447  1.5854 -1.9500
 4744SOL    HW225692   0.874   2.805   8.204 -1.6131  2.4815  0.9549
 4745SOL     OW25693   1.988   1.043  13.930  1.1083  0.0092 -0.3321
 4745SOL    HW125694   2.029   1.054  14.016  1.1709 -1.9346 -0.1187
 4745SOL    HW225695   1.906   1.091  13.937  0.9408 -0.2301 -0.6711
 4746SOL     OW25696   0.225   3.976   7.403  0.2470 -0.0393  0.1903
 4746SOL    HW125697   0.152   4.029   7.433 -1.8809 -1.3120 -2.7028
 4746SOL    HW225698   0.256   4.022   7.325 -0.3833 -1.6879 -1.0264
 4747SOL     OW25699   3.225   1.892   0.600  0.5630  0.6152 -0.3862
 4747SOL    HW125700   3.311   1.901   0.559  1.5933 -0.6592  1.4403
 4747SOL    HW225701   3.174   1.937   0.533  0.8878  0.1136 -0.9718
 4748SOL     OW25702   3.350   3.901   4.890 -0.0289 -0.0048  0.1258
 4748SOL    HW125703   3.431   3.953   4.888  0.4780 -0.8017 -0.3543
 4748SOL    HW225704   3.338   3.883   4.797  2.5213 -1.2599  0.0420
 4749SOL     OW25705   3.959   3.105  11.890  0.1218 -0.0174 -0.4718
 4749SOL    HW125706   4.048   3.138  11.877  0.4089 -1.6865 -2.8206
 4749SOL    HW225707   3.951   3.089  11.984  0.2512  2.7732 -0.0022
 4750SOL     OW25708   0.694   3.009   6.680  0.0687  0.3088  0.0698
 4750SOL    HW125709   0.789   2.999   6.681 -0.0709 -1.4175 -4.3382
 4750SOL    HW225710   0.669   2.989   6.771 -0.4486 -0.2316 -0.1867
 4751SOL     OW25711   1.891   1.058   6.392  0.2293  0.2626  0.0847
 4751SOL    HW125712   1.803   1.056   6.429 -0.0109 -1.2739 -0.5930
 4751SOL    HW225713   1.868   1.054   6.299  2.2972 -1.6926 -0.3673
 4752SOL     OW25714   0.636   0.017   6.179 -0.4868  0.0727  0.4425
 4752SOL    HW125715   0.553   4.715   6.138  0.3385  0.0968 -1.2545
 4752SOL    HW225716   0.602   0.054   6.260 -1.8560 -1.2909  0.4728
 4753SOL     OW25717   2.957   3.377  17.582  0.3188  0.3494  0.3192
 4753SOL    HW125718   2.864   3.363  17.596  0.2118  0.5790 -0.1525
 4753SOL    HW225719   2.989   3.414  17.665  1.0726  1.0152 -0.2749
 4754SOL     OW25720   1.235   0.940   6.839  0.4446  0.5360  0.0165
 4754SOL    HW125721   1.289   1.001   6.790 -1.4814  1.8426 -0.5041
 4754SOL    HW225722   1.152   0.951   6.792  1.7138 -1.8913 -2.7827
 4755SOL     OW25723   4.431   4.640   1.297 -0.0328 -0.0086  0.4000
 4755SOL    HW125724   4.384   0.000   1.312  0.4649  0.3992 -0.2606
 4755SOL    HW225725   4.374   4.595   1.234  0.1772  1.8709 -1.1072
 4756SOL     OW25726   1.515   4.662   4.305 -0.6967 -0.0247 -0.4343
 4756SOL    HW125727   1.525   4.597   4.236  3.7132 -0.1101  0.2859
 4756SOL    HW225728   1.563   4.625   4.378  1.8174  0.3421 -1.8960
 4757SOL     OW25729   0.284   0.792   1.555 -0.4796 -0.6110 -0.6863
 4757SOL    HW125730   0.248   0.785   1.643  0.2123  3.0539 -0.1018
 4757SOL    HW225731   0.370   0.750   1.556 -0.2924 -0.2473 -1.3248
 4758SOL     OW25732   4.623   2.468   4.948  0.3861  0.1256  0.0276
 4758SOL    HW125733   4.635   2.506   5.035  2.9092  0.6848 -0.5595
 4758SOL    HW225734   4.710   2.492   4.915 -0.2209  1.1000 -0.8794
 4759SOL     OW25735   1.837   0.252   7.067  0.6077  0.0698  0.1227
 4759SOL    HW125736   1.796   0.211   6.991 -1.4676  0.3061  1.1256
 4759SOL    HW225737   1.816   0.345   7.057 -0.9928 -0.5508 -2.1873
 4760SOL     OW25738   0.004   2.158   2.639 -0.0326  0.6338 -0.7427
 4760SOL    HW125739   0.001   2.215   2.716 -1.2667  1.1455 -1.1700
 4760SOL    HW225740   0.017   2.213   2.562  0.7559  0.3115 -0.8433
 4761SOL     OW25741   0.887   0.547  16.302  0.0650 -0.1156 -0.5622
 4761SOL    HW125742   0.894   0.625  16.246  0.8231  0.8064  0.8038
 4761SOL    HW225743   0.973   0.552  16.343 -0.5605  1.7737  0.5271
 4762SOL     OW25744   0.020   0.120   6.632 -0.2980  0.3850  0.1825
 4762SOL    HW125745   4.691   0.141   6.554  2.8715 -0.2662 -2.0614
 4762SOL    HW225746   0.053   0.039   6.594  1.4843 -0.0014  2.5337
 4763SOL     OW25747   2.851   3.565   0.897 -0.4244  0.3594 -0.1392
 4763SOL    HW125748   2.874   3.489   0.843  2.4241  1.6766 -0.7420
 4763SOL    HW225749   2.795   3.525   0.964 -0.7992  1.2347  0.0741
 4764SOL     OW25750   1.945   3.915   4.778  0.6387  0.0908 -0.5283
 4764SOL    HW125751   1.997   3.908   4.858 -0.7927 -0.9522  0.3209
 4764SOL    HW225752   2.021   3.908   4.720 -0.6444  1.2197 -2.3340
 4765SOL     OW25753   4.581   3.930  16.464 -0.3550  0.2887 -0.0159
 4765SOL    HW125754   4.575   3.994  16.393 -1.0986 -0.0973 -0.2984
 4765SOL    HW225755   4.494   3.891  16.469  0.0863 -0.6132  0.7783
 4766SOL     OW25756   1.530   4.406   8.504  0.3969 -0.4460 -0.2090
 4766SOL    HW125757   1.467   4.379   8.571  0.9780  1.2833  1.0251
 4766SOL    HW225758   1.538   4.496   8.535  1.1534 -1.1831  1.8108
 4767SOL     OW25759   3.413   4.616   6.001  0.0856  0.3003 -0.7311
 4767SOL    HW125760   3.498   4.647   6.032 -1.5948  1.0317  3.1433
 4767SOL    HW225761   3.346   4.637   6.067  1.3104 -1.3121  1.0540
 4768SOL     OW25762   1.026   4.476   2.581 -0.1370  0.5619  0.5114
 4768SOL    HW125763   1.082   4.430   2.645  0.4046  1.8100  0.9310
 4768SOL    HW225764   0.946   4.428   2.602 -0.0492  0.0841 -0.2599
 4769SOL     OW25765   0.484   3.154   2.438 -0.4175 -0.4216 -0.3367
 4769SOL    HW125766   0.446   3.160   2.351  0.2378  2.1945 -0.4563
 4769SOL    HW225767   0.578   3.139   2.423 -0.0402  0.5854  0.9722
 4770SOL     OW25768   4.215   2.131  15.078 -0.3224 -0.0118 -0.3707
 4770SOL    HW125769   4.278   2.163  15.142  0.3099 -0.9757 -0.5152
 4770SOL    HW225770   4.155   2.202  15.053 -1.1637 -1.6043 -2.8800
 4771SOL     OW25771   2.155   4.387   5.067  0.1075  0.2341  0.2663
 4771SOL    HW125772   2.184   4.374   4.977  0.1912 -0.6296  0.4101
 4771SOL    HW225773   2.085   4.452   5.070  0.5575  0.6902  0.9860
 4772SOL     OW25774   0.902   1.709  17.306  0.1623 -0.0440 -0.4853
 4772SOL    HW125775   0.890   1.705  17.401 -1.9346 -1.1814 -0.7842
 4772SOL    HW225776   0.821   1.753  17.278 -0.6526  1.3092  3.8277
 4773SOL     OW25777   3.848   1.047   5.528  0.3255  0.3187  0.2908
 4773SOL    HW125778   3.866   0.954   5.533 -1.3449  0.0730  1.8330
 4773SOL    HW225779   3.842   1.066   5.434 -2.0985 -1.9057 -0.0137
 4774SOL     OW25780   3.373   3.110  15.643  0.3985  0.7216  0.2417
 4774SOL    HW125781   3.456   3.127  15.598  0.1098  0.7094 -0.3039
 4774SOL    HW225782   3.383   3.033  15.698  0.5008  0.0636 -0.6839
 4775SOL     OW25783   0.322   3.221  11.573 -0.9071  0.2335  0.2071
 4775SOL    HW125784   0.237   3.258  11.600 -0.9547  0.3864 -0.1487
 4775SOL    HW225785   0.378   3.233  11.650 -0.2327 -2.0882  0.0789
 4776SOL     OW25786   3.665   3.809  15.725 -0.0059  0.1195 -0.1615
 4776SOL    HW125787   3.586   3.792  15.672 -0.1417  2.0059 -0.5885
 4776SOL    HW225788   3.668   3.732  15.781  2.8945  0.8571  0.6660
 4777SOL     OW25789   4.197   2.651  15.280 -0.0418  0.3588 -0.2343
 4777SOL    HW125790   4.270   2.701  15.244  1.2150  0.8260  3.0643
 4777SOL    HW225791   4.235   2.581  15.332 -1.3254 -0.3304 -0.2194
 4778SOL     OW25792   4.425   1.794  11.247  0.0478 -0.2272 -0.4651
 4778SOL    HW125793   4.399   1.704  11.266  0.4367 -0.4649 -1.0548
 4778SOL    HW225794   4.485   1.808  11.321  0.2628  0.5820 -0.7857
 4779SOL     OW25795   3.581   0.876   5.581 -0.1326  0.1821  0.1530
 4779SOL    HW125796   3.526   0.880   5.503 -0.2620 -0.2793  0.2179
 4779SOL    HW225797   3.666   0.876   5.537 -0.3011  0.6926 -0.1660
 4780SOL     OW25798   0.348   0.493  15.940 -0.1371 -0.3645 -0.4339
 4780SOL    HW125799   0.334   0.582  15.908 -0.8493 -0.2043  0.3180
 4780SOL    HW225800   0.273   0.447  15.903  0.6977 -1.6400 -0.5049
 4781SOL     OW25801   2.267   0.882  17.310  0.0589  0.1903  0.2300
 4781SOL    HW125802   2.280   0.966  17.267  2.0393  0.6274  1.6781
 4781SOL    HW225803   2.301   0.903  17.397  1.0528  1.5549 -0.4989
 4782SOL     OW25804   4.006   1.543  14.890  0.5050 -0.3126  0.0959
 4782SOL    HW125805   3.925   1.498  14.867  0.7048  0.7364 -2.7277
 4782SOL    HW225806   3.994   1.634  14.864 -0.8451 -0.0914  1.5313
 4783SOL     OW25807   4.216   2.136  17.055 -0.4131 -0.2547 -0.2598
 4783SOL    HW125808   4.209   2.045  17.025 -0.1824 -0.7947  1.3199
 4783SOL    HW225809   4.154   2.153  17.125  0.3686  1.7642 -0.0545
 4784SOL     OW25810   1.366   3.044   1.351  0.4821  0.3830 -1.0461
 4784SOL    HW125811   1.449   3.071   1.310  0.3651  0.9111 -0.9450
 4784SOL    HW225812   1.317   3.124   1.332 -0.2037 -0.2944 -2.0835
 4785SOL     OW25813   1.342   2.607   4.476 -0.4181  0.4439  0.4281
 4785SOL    HW125814   1.349   2.547   4.402  0.0052  2.3112 -1.0651
 4785SOL    HW225815   1.412   2.671   4.466  1.1996 -0.8333  3.6019
 4786SOL     OW25816   3.975   4.018   5.248  0.6387 -0.6680  0.3139
 4786SOL    HW125817   3.978   3.974   5.333 -1.2471 -1.4427 -0.0148
 4786SOL    HW225818   3.915   4.089   5.273  1.0086  0.0828 -0.9390
 4787SOL     OW25819   1.129   1.259  14.691 -0.7478 -0.1546  0.5264
 4787SOL    HW125820   1.209   1.237  14.643 -1.2900  0.6157 -0.7438
 4787SOL    HW225821   1.089   1.318  14.627 -3.1837  0.1273  2.3447
 4788SOL     OW25822   2.720   0.010   2.834  0.0177  0.3774  0.0641
 4788SOL    HW125823   2.769   4.650   2.819 -1.0297 -0.1749 -0.3564
 4788SOL    HW225824   2.650   0.011   2.768 -1.6335  0.4195  1.8241
 4789SOL     OW25825   1.023   1.287   7.031  0.1555  0.7154  0.6101
 4789SOL    HW125826   1.026   1.271   6.937 -1.8367 -1.5786  0.9202
 4789SOL    HW225827   1.115   1.308   7.043  0.9369 -2.3694  0.2188
 4790SOL     OW25828   4.032   2.821  16.766 -0.2227 -0.2720 -0.3025
 4790SOL    HW125829   4.023   2.726  16.774 -0.5709 -0.3764 -1.9088
 4790SOL    HW225830   4.065   2.838  16.678  1.7715  0.1184  0.5092
 4791SOL     OW25831   1.496   2.817   8.189  0.0680  0.3115 -0.0726
 4791SOL    HW125832   1.413   2.772   8.205  0.7895 -1.2355 -0.5866
 4791SOL    HW225833   1.536   2.828   8.275 -0.6666  0.9425  0.1847
 4792SOL     OW25834   2.670   2.313   5.179  0.1712 -0.4015 -0.2239
 4792SOL    HW125835   2.586   2.293   5.137 -1.3829  1.4649  2.0359
 4792SOL    HW225836   2.643   2.381   5.241 -0.0717 -1.2737  0.6194
 4793SOL     OW25837   2.074   0.461   7.893 -0.1819  0.8121  0.1345
 4793SOL    HW125838   2.127   0.541   7.890 -0.2389  0.8456  0.0354
 4793SOL    HW225839   2.058   0.457   7.799 -0.6372  0.5588  0.2251
 4794SOL     OW25840   2.885   0.422   9.921 -0.1937 -0.5625 -0.7729
 4794SOL    HW125841   2.824   0.373   9.976 -0.4533 -0.5320 -1.0327
 4794SOL    HW225842   2.846   0.508   9.936  0.8964 -0.5715  2.0239
 4795SOL     OW25843   0.198   0.193   9.162 -0.1007 -0.0677 -0.3697
 4795SOL    HW125844   0.182   0.279   9.200  1.5662  0.1299 -0.1199
 4795SOL    HW225845   0.257   0.227   9.095  0.1376  1.0281  0.3885
 4796SOL     OW25846   1.917   0.416  10.855 -0.4901  0.1172 -0.5035
 4796SOL    HW125847   1.892   0.468  10.779 -0.1535  0.8253 -0.1352
 4796SOL    HW225848   1.848   0.350  10.849  0.2557 -0.7280  0.2195
 4797SOL     OW25849   2.504   1.608   7.756 -0.4064  0.0206 -0.2953
 4797SOL    HW125850   2.571   1.614   7.688 -0.8041  2.0803 -0.5090
 4797SOL    HW225851   2.569   1.604   7.826 -0.8000  0.8722  0.1200
 4798SOL     OW25852   4.412   0.557   8.516 -0.1974 -0.5402 -0.5296
 4798SOL    HW125853   4.482   0.607   8.476  0.8936  0.7365  3.0224
 4798SOL    HW225854   4.439   0.467   8.535 -1.8525 -1.1503 -0.9548
 4799SOL     OW25855   3.227   3.277   7.792  0.1916  0.2687 -0.3088
 4799SOL    HW125856   3.246   3.335   7.865 -0.6048 -0.0695  0.1621
 4799SOL    HW225857   3.235   3.336   7.717 -0.1061  0.4126 -0.2279
 4800SOL     OW25858   0.041   3.183   6.962 -0.1447 -0.2927  0.4128
 4800SOL    HW125859   0.005   3.095   6.972 -0.9135  0.1902  2.0007
 4800SOL    HW225860   0.024   3.234   7.041  0.3312 -0.9713  0.9489
 4801SOL     OW25861   0.892   2.791   5.862 -0.5567  0.6406 -0.3159
 4801SOL    HW125862   0.857   2.800   5.951  1.1479  2.6032  0.1509
 4801SOL    HW225863   0.880   2.696   5.855  0.2977  0.5583 -0.6411
 4802SOL     OW25864   3.816   3.696  11.443 -0.3046  0.2920 -0.1402
 4802SOL    HW125865   3.884   3.757  11.415 -1.5882  1.6501 -0.3146
 4802SOL    HW225866   3.835   3.620  11.387  1.3342  1.6566 -1.4122
 4803SOL     OW25867   2.473   1.412  10.392 -0.0208 -0.1822  0.1126
 4803SOL    HW125868   2.473   1.500  10.356  1.5785  0.3349  1.3684
 4803SOL    HW225869   2.416   1.427  10.468 -1.9542 -1.2791 -1.1144
 4804SOL     OW25870   3.428   3.014  11.915 -0.0809  0.3262 -0.5800
 4804SOL    HW125871   3.410   3.091  11.861  0.2060  1.1021  0.4519
 4804SOL    HW225872   3.368   3.027  11.989 -0.8938 -0.3889 -1.1054
 4805SOL     OW25873   3.022   0.972  11.358 -0.4654 -0.5158  0.0476
 4805SOL    HW125874   3.006   0.971  11.452 -1.1262  1.6999 -0.0417
 4805SOL    HW225875   2.932   0.953  11.332  0.2079  0.4269 -3.0473
 4806SOL     OW25876   0.934   1.686   5.810  0.3117  0.3149 -0.4456
 4806SOL    HW125877   0.939   1.611   5.751  0.9121  0.1445 -0.1725
 4806SOL    HW225878   0.863   1.654   5.865  1.0074 -3.9774 -2.0586
 4807SOL     OW25879   3.074   1.994   5.393 -0.1739 -0.0290 -0.0643
 4807SOL    HW125880   3.014   2.064   5.369  1.4427  1.4664  0.2635
 4807SOL    HW225881   3.159   2.036   5.384 -0.7270  0.9686 -0.5852
 4808SOL     OW25882   4.360   1.035   3.782  0.4561  0.6814 -0.5048
 4808SOL    HW125883   4.401   1.076   3.859 -0.1202  0.9285 -0.3342
 4808SOL    HW225884   4.316   1.114   3.752  1.7343  1.6228  0.1162
 4809SOL     OW25885   1.043   3.286  11.192  0.4067 -0.0649  0.6182
 4809SOL    HW125886   1.096   3.365  11.180 -1.9437  1.4417  0.1175
 4809SOL    HW225887   1.051   3.249  11.104 -0.9785  2.2381 -0.4852
 4810SOL     OW25888   1.557   3.884  12.562 -0.3683  0.4141  0.0652
 4810SOL    HW125889   1.623   3.815  12.552 -0.0109  0.4667  2.1813
 4810SOL    HW225890   1.609   3.961  12.582 -0.6509  0.6620 -0.1486
 4811SOL     OW25891   2.513   0.913   0.841  0.1802 -0.2519 -0.6622
 4811SOL    HW125892   2.600   0.885   0.812  0.9141  1.3039  0.0186
 4811SOL    HW225893   2.456   0.912   0.765 -1.3691  0.6366  0.4832
 4812SOL     OW25894   0.365   0.686  16.355  0.3379  0.0703 -0.3062
 4812SOL    HW125895   0.418   0.661  16.430  0.3552 -1.1272 -0.7184
 4812SOL    HW225896   0.396   0.619  16.294 -0.4389 -1.0775  0.5622
 4813SOL     OW25897   4.216   0.652  13.548 -0.0772  0.2606 -0.6513
 4813SOL    HW125898   4.135   0.672  13.594 -0.6713 -0.9291 -1.1828
 4813SOL    HW225899   4.230   0.558  13.554 -1.2152  0.0232 -1.8234
 4814SOL     OW25900   1.835   0.382   8.483 -0.0858  0.2544 -0.6847
 4814SOL    HW125901   1.781   0.306   8.504  1.0995  0.0825  1.6372
 4814SOL    HW225902   1.887   0.344   8.412 -0.7463 -1.3076 -0.3360
 4815SOL     OW25903   4.263   3.001   7.079  0.1274  0.4244 -0.5764
 4815SOL    HW125904   4.313   3.024   7.158  0.3163 -0.4769 -0.4310
 4815SOL    HW225905   4.178   2.977   7.115  0.7193  0.9311  1.2062
 4816SOL     OW25906   2.333   3.626   4.640 -0.3375 -0.2678  0.1635
 4816SOL    HW125907   2.257   3.669   4.680 -0.2441 -0.2508  0.3247
 4816SOL    HW225908   2.299   3.537   4.626 -2.3473  0.9185 -2.4288
 4817SOL     OW25909   0.121   2.838  15.029  0.1651  0.0916 -0.0525
 4817SOL    HW125910   0.083   2.750  15.026 -0.2839  0.3445 -1.5928
 4817SOL    HW225911   0.182   2.844  14.956  0.4859 -0.3431  0.1788
 4818SOL     OW25912   4.425   1.235   4.025  0.0068 -0.2987  0.0349
 4818SOL    HW125913   4.481   1.228   4.102  0.1575 -1.3051 -0.1783
 4818SOL    HW225914   4.350   1.285   4.059  0.9092  0.7616  0.4590
 4819SOL     OW25915   0.844   0.180   5.057 -0.0294  0.7338  0.1159
 4819SOL    HW125916   0.805   0.193   4.970  1.2266  2.5501 -0.1629
 4819SOL    HW225917   0.907   0.116   5.024  1.8940  2.2242  0.9656
 4820SOL     OW25918   3.358   4.565   7.688 -0.0181 -0.5117 -0.0651
 4820SOL    HW125919   3.270   4.540   7.660  0.8145 -0.7670 -2.4870
 4820SOL    HW225920   3.390   4.476   7.705 -0.6537 -0.3552  1.9665
 4821SOL     OW25921   0.767   0.924   1.988  0.2565  0.4757  0.5873
 4821SOL    HW125922   0.802   0.923   2.077  0.1097  0.6010  0.6467
 4821SOL    HW225923   0.745   0.833   1.967 -1.1246  1.0536 -0.5467
 4822SOL     OW25924   3.731   2.111   5.080  0.0796  0.4255  0.0752
 4822SOL    HW125925   3.726   2.030   5.029  0.6878  1.4206 -1.5445
 4822SOL    HW225926   3.661   2.155   5.033 -0.7900 -0.2604  0.7241
 4823SOL     OW25927   1.881   0.588   7.192 -0.3088  0.1518 -0.1150
 4823SOL    HW125928   1.819   0.568   7.261 -0.9021  1.9320 -0.1218
 4823SOL    HW225929   1.953   0.644   7.220 -0.2744  0.4430 -0.7815
 4824SOL     OW25930   2.245   3.901  10.156 -0.2729  0.3838  0.4252
 4824SOL    HW125931   2.312   3.909  10.089 -0.7012 -1.6441 -0.2467
 4824SOL    HW225932   2.262   3.815  10.194 -1.6217 -0.3930 -0.7164
 4825SOL     OW25933   1.221   1.886  14.809  0.2489  0.2136 -0.1110
 4825SOL    HW125934   1.127   1.866  14.807  0.2753  0.0469  0.5443
 4825SOL    HW225935   1.211   1.976  14.839 -0.7725 -0.2098  0.8072
 4826SOL     OW25936   0.675   3.752   5.708 -0.6878  0.3098  0.4148
 4826SOL    HW125937   0.684   3.657   5.714  0.5319  0.4284  0.5585
 4826SOL    HW225938   0.593   3.765   5.755  0.3501  1.0726  2.0290
 4827SOL     OW25939   0.135   4.098   8.060 -0.1598  0.0260 -0.3605
 4827SOL    HW125940   0.100   4.032   8.000 -3.4118  0.8300  0.6604
 4827SOL    HW225941   0.059   4.156   8.057  0.5410  0.9273 -0.8717
 4828SOL     OW25942   1.994   4.218   0.014 -0.2775  0.0527 -0.5769
 4828SOL    HW125943   2.058   4.147   0.021 -2.7169 -2.3273 -2.5896
 4828SOL    HW225944   2.026   4.281  17.638  0.4757  0.2842  0.0245
 4829SOL     OW25945   2.912   1.242   3.812  0.0132 -0.0038  0.5621
 4829SOL    HW125946   2.958   1.257   3.894  1.4840 -1.0870 -0.0735
 4829SOL    HW225947   2.955   1.316   3.768 -0.9525  0.6328  0.6843
 4830SOL     OW25948   3.897   4.175  14.941  0.1819  0.4293  0.3081
 4830SOL    HW125949   3.905   4.093  14.989  0.6973 -1.0385 -2.2590
 4830SOL    HW225950   3.972   4.173  14.882 -1.6949  1.1093 -2.1308
 4831SOL     OW25951   0.476   3.674  15.493 -0.2493 -0.4951 -0.1630
 4831SOL    HW125952   0.564   3.673  15.456  0.0911  1.0395  0.5828
 4831SOL    HW225953   0.445   3.765  15.501  1.4134  0.2294 -1.8858
 4832SOL     OW25954   4.276   1.063   1.294  0.2565 -0.0468  0.0022
 4832SOL    HW125955   4.299   0.974   1.319  0.2284 -0.3394 -1.0393
 4832SOL    HW225956   4.204   1.086   1.353  0.0340 -1.3249  0.2124
 4833SOL     OW25957   0.132   3.508  16.332 -0.6234  0.2579 -0.0841
 4833SOL    HW125958   0.084   3.562  16.396  0.6851 -0.0473  1.1552
 4833SOL    HW225959   0.112   3.567  16.260  0.8504 -1.0415 -1.5459
 4834SOL     OW25960   4.288   3.047   3.066  0.3993  0.5046  0.0715
 4834SOL    HW125961   4.304   3.098   2.986  0.7445 -0.0103 -0.1849
 4834SOL    HW225962   4.326   2.962   3.047 -0.6157  0.4019 -1.4400
 4835SOL     OW25963   3.333   1.077  13.149  0.0315  0.5484  0.1222
 4835SOL    HW125964   3.428   1.078  13.158  0.0300  1.1271  0.0984
 4835SOL    HW225965   3.325   1.082  13.054  0.8849  2.9077  0.1724
 4836SOL     OW25966   3.955   2.264   8.382 -0.2008 -0.6517  0.6224
 4836SOL    HW125967   4.037   2.275   8.334  0.4997 -0.6312  1.8143
 4836SOL    HW225968   3.984   2.245   8.472  1.1256  0.3951  0.4097
 4837SOL     OW25969   1.034   3.977   1.122 -0.7918  0.2800  0.0964
 4837SOL    HW125970   0.976   3.988   1.198  0.8022 -0.9704  1.4870
 4837SOL    HW225971   1.087   4.056   1.122 -1.5193  0.7709 -0.2317
 4838SOL     OW25972   1.092   2.892  13.075  0.2257  0.3778  0.2478
 4838SOL    HW125973   1.134   2.948  13.140 -0.2537  1.5381 -0.4433
 4838SOL    HW225974   1.131   2.809  13.103  0.7074  0.6534  0.4045
 4839SOL     OW25975   3.677   0.990   0.490 -0.1614 -0.3545 -0.4961
 4839SOL    HW125976   3.609   0.942   0.443  1.1757 -1.1666 -1.6156
 4839SOL    HW225977   3.730   1.022   0.417  2.1227 -0.5884  1.0743
 4840SOL     OW25978   1.486   1.914   7.950  0.2318  0.1981 -0.5782
 4840SOL    HW125979   1.549   1.976   7.987 -1.8723  1.8680  0.2545
 4840SOL    HW225980   1.488   1.955   7.864 -2.6187 -2.5813 -1.9760
 4841SOL     OW25981   3.830   3.827   6.250  0.6020 -0.0706  0.3652
 4841SOL    HW125982   3.894   3.762   6.218 -0.6608  0.4510 -3.2383
 4841SOL    HW225983   3.800   3.789   6.332 -0.4656 -2.0011 -0.8947
 4842SOL     OW25984   2.049   2.354   7.163 -0.4577 -0.5914 -0.1851
 4842SOL    HW125985   2.133   2.389   7.193 -0.6093 -1.0437  0.7656
 4842SOL    HW225986   2.019   2.321   7.247  0.5120  0.1862  0.4717
 4843SOL     OW25987   1.279   4.550   8.082 -0.1535 -0.1417 -0.1250
 4843SOL    HW125988   1.347   4.536   8.015 -1.4521 -0.9856 -1.2609
 4843SOL    HW225989   1.201   4.527   8.031  0.1386 -0.9437 -0.2080
 4844SOL     OW25990   2.664   4.480   2.315 -0.2877  0.1597 -0.7693
 4844SOL    HW125991   2.706   4.457   2.232 -1.1384  0.0960 -1.1801
 4844SOL    HW225992   2.602   4.544   2.281 -1.4636 -1.1189 -1.0372
 4845SOL     OW25993   2.202   4.357   1.906 -0.2548  0.0338  0.0493
 4845SOL    HW125994   2.115   4.394   1.889 -0.0484 -0.2962 -1.7040
 4845SOL    HW225995   2.225   4.344   1.814  1.2978 -1.4393  0.6378
 4846SOL     OW25996   0.397   3.574   2.683  0.0859 -0.1287  0.1780
 4846SOL    HW125997   0.376   3.520   2.606 -0.4579  0.6049 -0.1988
 4846SOL    HW225998   0.306   3.588   2.709 -0.5268 -1.1611 -1.4069
 4847SOL     OW25999   0.423   2.639   5.025 -0.2305 -0.7959 -0.2192
 4847SOL    HW126000   0.437   2.726   5.062  2.6398 -0.9472 -0.9124
 4847SOL    HW226001   0.434   2.655   4.932  1.9054 -0.1728  0.1353
 4848SOL     OW26002   2.839   4.497   6.152  0.0773 -0.3929  0.5851
 4848SOL    HW126003   2.900   4.512   6.080 -0.1147 -2.3391  0.0301
 4848SOL    HW226004   2.854   4.405   6.170  2.9205 -0.0976 -0.2544
 4849SOL     OW26005   2.931   3.900   1.066  0.1687  0.1824  0.0754
 4849SOL    HW126006   2.980   3.819   1.077  1.1377  0.8183  0.4328
 4849SOL    HW226007   2.859   3.863   1.015  1.1620 -1.3535 -0.2188
 4850SOL     OW26008   3.214   4.123   0.083  0.4716  0.0418 -0.1242
 4850SOL    HW126009   3.260   4.196   0.041  2.6673 -0.4776  1.3929
 4850SOL    HW226010   3.121   4.139   0.065  0.5344  0.2406 -0.2800
 4851SOL     OW26011   3.784   2.631  13.333 -0.1283  0.0855  0.4435
 4851SOL    HW126012   3.763   2.555  13.279 -0.2537 -0.4079  1.1726
 4851SOL    HW226013   3.703   2.637  13.384 -1.0774  2.1522 -1.3213
 4852SOL     OW26014   2.010   4.610   0.693 -0.3675  0.4491 -0.0905
 4852SOL    HW126015   2.099   4.585   0.668  0.2704  2.2370  0.4143
 4852SOL    HW226016   1.982   4.524   0.722  1.9499 -0.2197  0.1853
 4853SOL     OW26017   3.596   0.518   7.688  0.3998 -0.0901  0.2388
 4853SOL    HW126018   3.616   0.528   7.595 -1.2266  0.4238 -0.0722
 4853SOL    HW226019   3.655   0.585   7.721  0.5630 -0.1111 -0.0120
 4854SOL     OW26020   2.684   1.252  11.733  0.0430 -0.1409  0.3897
 4854SOL    HW126021   2.775   1.238  11.708 -0.7717 -1.5742 -1.7709
 4854SOL    HW226022   2.695   1.280  11.824 -0.9015 -0.7531  0.6902
 4855SOL     OW26023   3.834   4.299   3.920 -0.1684  0.0054 -0.1649
 4855SOL    HW126024   3.868   4.219   3.959 -0.6701  1.0863  2.4926
 4855SOL    HW226025   3.768   4.317   3.987  1.2935  3.5108  0.3054
 4856SOL     OW26026   1.986   2.076   7.573 -0.0561 -0.1491  0.1099
 4856SOL    HW126027   1.923   2.028   7.629  0.3388 -0.8108 -0.0151
 4856SOL    HW226028   2.028   2.000   7.534  2.3498  0.1471  2.1138
 4857SOL     OW26029   2.533   4.445   9.536 -0.3405  0.2374 -0.4428
 4857SOL    HW126030   2.546   4.516   9.599  0.8797 -0.6003  0.2339
 4857SOL    HW226031   2.443   4.459   9.507 -0.2261  2.4523  0.2736
 4858SOL     OW26032   2.848   0.249  12.006 -0.0621  0.8666  0.2890
 4858SOL    HW126033   2.928   0.267  12.055 -0.3093 -0.1564  1.0808
 4858SOL    HW226034   2.822   0.171  12.054 -0.3787  1.1129  0.5125
 4859SOL     OW26035   1.111   0.618   7.069  1.3983  0.1770 -0.2530
 4859SOL    HW126036   1.093   0.526   7.052 -1.5575  0.8773 -0.9324
 4859SOL    HW226037   1.177   0.591   7.132  1.4199 -1.9888 -1.2074
 4860SOL     OW26038   0.860   1.703   3.830  0.3763  0.2875 -0.1634
 4860SOL    HW126039   0.879   1.752   3.750  1.5244 -0.9222 -0.6265
 4860SOL    HW226040   0.771   1.736   3.845  0.3074 -0.0400  0.1685
 4861SOL     OW26041   0.367   3.876   8.360  0.5296 -0.4210 -0.8159
 4861SOL    HW126042   0.284   3.923   8.371 -0.5690 -2.0091 -2.1448
 4861SOL    HW226043   0.332   3.788   8.343 -0.5205 -0.1635 -0.0357
 4862SOL     OW26044   4.476   2.655   9.543  0.3509  0.0051  0.0153
 4862SOL    HW126045   4.506   2.641   9.633 -0.8676  0.7969  0.5482
 4862SOL    HW226046   4.392   2.698   9.555  0.9771  0.7957  1.6078
 4863SOL     OW26047   4.161   0.847  16.400 -0.4852 -0.3317  0.4366
 4863SOL    HW126048   4.093   0.882  16.457  0.6115  0.8988  0.9885
 4863SOL    HW226049   4.121   0.842  16.313 -1.4805 -0.7952  0.9234
 4864SOL     OW26050   3.598   3.907   7.913  0.6369 -0.1744 -0.0122
 4864SOL    HW126051   3.663   3.850   7.873  3.1048  2.1361  0.7119
 4864SOL    HW226052   3.517   3.890   7.865  1.6154 -1.6122 -1.1470
 4865SOL     OW26053   2.591   2.016   1.248  0.1609 -0.0582 -0.2819
 4865SOL    HW126054   2.569   1.942   1.304  0.6577 -0.7680 -1.0175
 4865SOL    HW226055   2.504   2.053   1.243  0.4917  0.7068 -0.3298
 4866SOL     OW26056   3.545   0.342  11.857 -0.0875 -0.1801 -0.3948
 4866SOL    HW126057   3.571   0.264  11.905 -2.0947 -1.1299 -0.8797
 4866SOL    HW226058   3.498   0.299  11.786  1.4197  0.3112 -1.6929
 4867SOL     OW26059   3.815   3.198   5.727  0.1477 -0.0783 -0.4324
 4867SOL    HW126060   3.893   3.239   5.691  0.8337 -0.1513  0.9869
 4867SOL    HW226061   3.740   3.246   5.691 -0.0385  0.5819  0.8365
 4868SOL     OW26062   3.331   1.271   2.380 -0.0062  0.2008 -0.1426
 4868SOL    HW126063   3.301   1.185   2.410  1.5482  0.1802  1.3224
 4868SOL    HW226064   3.355   1.317   2.460 -0.0412  1.1016 -0.6558
 4869SOL     OW26065   3.035   4.298   9.724  0.1882 -0.1843 -0.1615
 4869SOL    HW126066   2.968   4.354   9.685 -0.1999 -0.8776 -0.4844
 4869SOL    HW226067   2.994   4.223   9.767  0.3695 -0.8296 -1.1126
 4870SOL     OW26068   3.073   4.181  15.227 -0.5684 -0.1444  0.1735
 4870SOL    HW126069   2.980   4.179  15.209 -0.2719  1.6984 -1.5427
 4870SOL    HW226070   3.119   4.205  15.147  1.1495 -1.0060  0.9011
 4871SOL     OW26071   2.914   4.632   4.892  0.1747 -0.5412  0.2695
 4871SOL    HW126072   2.944   4.541   4.891  0.9098 -0.3023  1.3009
 4871SOL    HW226073   2.823   4.622   4.864  0.3384  2.3572 -1.2590
 4872SOL     OW26074   4.061   4.155   6.708  0.5070  0.2549 -0.0364
 4872SOL    HW126075   4.062   4.232   6.651 -1.8314  0.9893  0.9203
 4872SOL    HW226076   3.972   4.162   6.742  1.1822  1.4254  1.4774
 4873SOL     OW26077   4.622   4.449   6.392 -0.6383 -0.4426 -0.3369
 4873SOL    HW126078   4.582   4.406   6.468  4.5192 -3.1630  0.8567
 4873SOL    HW226079   4.587   4.399   6.318  0.3822 -0.8910 -0.5266
 4874SOL     OW26080   4.492   2.240  15.573 -0.4058  0.3918 -0.3077
 4874SOL    HW126081   4.557   2.286  15.626  0.4750 -1.7527  0.4528
 4874SOL    HW226082   4.543   2.161  15.554 -0.0512  0.9688 -1.7767
 4875SOL     OW26083   2.754   0.527   7.280  0.4279  0.2744 -0.4942
 4875SOL    HW126084   2.827   0.589   7.267 -1.2277  2.2774 -0.2378
 4875SOL    HW226085   2.747   0.495   7.191 -3.2028  2.1816 -0.8876
 4876SOL     OW26086   2.251   2.011   5.767  0.1511  1.0131  0.4738
 4876SOL    HW126087   2.307   2.085   5.791  1.8215 -0.6371  1.6390
 4876SOL    HW226088   2.300   1.944   5.814  0.9619  1.4834  0.3042
 4877SOL     OW26089   1.424   2.332   3.647  0.0318  0.3484  0.0598
 4877SOL    HW126090   1.449   2.240   3.652 -0.2713  0.1946 -1.1883
 4877SOL    HW226091   1.368   2.335   3.570  1.3574  1.2588 -0.8646
 4878SOL     OW26092   3.748   2.143  16.078  0.7732 -0.0203  0.3308
 4878SOL    HW126093   3.769   2.051  16.093 -1.0595 -0.5139 -0.0725
 4878SOL    HW226094   3.706   2.137  15.992  0.6100  0.4665  0.3785
 4879SOL     OW26095   4.086   1.983   3.679 -0.0497  0.2577  0.0818
 4879SOL    HW126096   4.126   1.919   3.619  1.9731 -0.1429  1.8475
 4879SOL    HW226097   4.050   1.919   3.740  1.1654  0.1344  0.6562
 4880SOL     OW26098   0.752   0.841   9.189 -0.1387 -0.0515 -0.4096
 4880SOL    HW126099   0.838   0.831   9.147  0.4422 -2.5990  1.4173
 4880SOL    HW226100   0.738   0.935   9.179  2.5945  0.4948  0.8425
 4881SOL     OW26101   0.263   3.985   6.233 -0.0111 -0.7380  0.5946
 4881SOL    HW126102   0.200   3.928   6.189  0.0399  1.2358 -2.0016
 4881SOL    HW226103   0.210   4.004   6.310 -1.3820  1.9883 -1.0487
 4882SOL     OW26104   1.150   2.161  14.888 -0.2044  0.1919 -0.0812
 4882SOL    HW126105   1.232   2.208  14.905  0.3826 -0.7811 -0.2028
 4882SOL    HW226106   1.081   2.216  14.924  0.8819  1.8379 -0.4894
 4883SOL     OW26107   0.363   0.261   9.711 -0.2121  0.1709  0.2168
 4883SOL    HW126108   0.444   0.211   9.701 -0.4311  0.2476 -1.9679
 4883SOL    HW226109   0.404   0.342   9.679  0.7138  0.2649  1.6397
 4884SOL     OW26110   0.019   2.527   9.958  0.0534 -1.1249  0.2660
 4884SOL    HW126111   0.082   2.490   9.897 -1.1543 -1.6246 -0.6802
 4884SOL    HW226112   4.677   2.456   9.951  0.9861 -1.7741 -1.6870
 4885SOL     OW26113   4.461   0.743   7.518 -0.5672  0.8692  0.6216
 4885SOL    HW126114   4.514   0.719   7.442 -1.9832 -2.7110  0.7913
 4885SOL    HW226115   4.438   0.831   7.490  0.4070  0.7998 -0.3861
 4886SOL     OW26116   2.700   2.573  16.238 -0.0657 -0.5339  0.0564
 4886SOL    HW126117   2.683   2.480  16.247 -1.3165 -0.4878 -1.9392
 4886SOL    HW226118   2.732   2.598  16.325  0.5915  0.9259 -0.6051
 4887SOL     OW26119   0.409   2.204   9.646 -0.1750 -0.1972 -0.6055
 4887SOL    HW126120   0.467   2.253   9.587 -1.1195  1.1185 -0.4488
 4887SOL    HW226121   0.457   2.225   9.727  2.2024 -0.9085 -1.8312
 4888SOL     OW26122   1.340   3.279   9.088  0.2792 -0.5912 -0.6414
 4888SOL    HW126123   1.423   3.253   9.127  0.5268 -0.2103 -0.9157
 4888SOL    HW226124   1.283   3.277   9.164 -1.5168  0.6034 -1.9494
 4889SOL     OW26125   2.617   4.078   2.182  0.2565 -0.3581 -0.5017
 4889SOL    HW126126   2.700   4.035   2.162  0.6150  0.8909 -1.7342
 4889SOL    HW226127   2.637   4.148   2.245 -2.8704  0.3228 -0.2808
 4890SOL     OW26128   4.077   4.018  17.009  0.4967 -0.1601  0.4830
 4890SOL    HW126129   4.021   3.942  16.992  1.1264 -0.0948 -1.8725
 4890SOL    HW226130   4.093   4.044  16.919 -1.4759  0.1477  0.2244
 4891SOL     OW26131   1.991   3.623   7.168  0.6589  0.1736  0.3816
 4891SOL    HW126132   1.980   3.717   7.185 -1.0518  0.2683 -1.1631
 4891SOL    HW226133   2.069   3.605   7.220  0.4649 -0.5087  0.4332
 4892SOL     OW26134   0.279   0.581   8.153  0.4708  0.0993  1.0284
 4892SOL    HW126135   0.226   0.607   8.078  0.7226  0.2806  0.9103
 4892SOL    HW226136   0.343   0.528   8.104 -0.3616 -0.1757  0.2403
 4893SOL     OW26137   4.294   0.054   4.291 -0.0527 -0.4396 -0.4661
 4893SOL    HW126138   4.293   0.145   4.260  2.7252 -0.6726 -1.2851
 4893SOL    HW226139   4.290   0.014   4.204  0.9828 -0.3573 -0.5572
 4894SOL     OW26140   4.521   3.987   7.549  0.4904 -0.6732 -0.5834
 4894SOL    HW126141   4.428   4.003   7.562  0.8217  1.9364 -1.3129
 4894SOL    HW226142   4.563   3.995   7.635 -0.5396  0.1909 -0.1704
 4895SOL     OW26143   3.450   2.135   2.517  0.0295  0.3186 -0.2763
 4895SOL    HW126144   3.511   2.202   2.550 -0.4229  0.8014 -0.4167
 4895SOL    HW226145   3.378   2.145   2.579  0.2291  0.3294 -0.0434
 4896SOL     OW26146   0.878   1.056  14.375  0.1402  0.2682  0.4210
 4896SOL    HW126147   0.967   1.020  14.370  0.0682  0.1400  0.1064
 4896SOL    HW226148   0.819   0.981  14.370 -0.2436  0.6272 -0.3003
 4897SOL     OW26149   3.870   3.018   3.304 -0.0157 -0.3390 -0.1674
 4897SOL    HW126150   3.908   2.941   3.345  1.1572  0.2683 -0.1278
 4897SOL    HW226151   3.924   3.034   3.227  0.0676 -3.6558 -0.7562
 4898SOL     OW26152   4.579   1.904   8.068 -0.4236 -0.0705 -0.0932
 4898SOL    HW126153   4.611   1.982   8.024 -1.9774  1.5132  1.5947
 4898SOL    HW226154   4.490   1.928   8.094  0.1665  1.8798  0.1023
 4899SOL     OW26155   4.259   0.744  10.823 -0.5095  0.3042 -0.0761
 4899SOL    HW126156   4.245   0.779  10.735 -1.2993 -0.0993 -0.1113
 4899SOL    HW226157   4.270   0.652  10.800 -3.5191 -0.2749  0.7749
 4900SOL     OW26158   4.216   1.896   2.096 -0.6548 -0.1316 -0.3671
 4900SOL    HW126159   4.154   1.827   2.120 -1.1167  0.5119  0.3014
 4900SOL    HW226160   4.201   1.898   2.001 -2.0997  2.0382 -0.1015
 4901SOL     OW26161   3.567   1.910  13.815  0.4218  0.1219  0.2497
 4901SOL    HW126162   3.518   1.993  13.811  0.7710  0.2619 -1.4693
 4901SOL    HW226163   3.501   1.844  13.794 -1.6409  2.6135 -1.0843
 4902SOL     OW26164   4.326   2.941  15.516 -0.7115  0.0150  0.6308
 4902SOL    HW126165   4.409   2.905  15.548 -1.1678 -0.0074  1.7744
 4902SOL    HW226166   4.335   3.027  15.475 -2.0142 -0.6190 -1.0077
 4903SOL     OW26167   1.537   3.514  15.242  0.1824  0.4300 -0.2252
 4903SOL    HW126168   1.631   3.532  15.241  0.7761 -2.4905  1.9530
 4903SOL    HW226169   1.549   3.435  15.295 -2.4464 -1.1435 -1.9592
 4904SOL     OW26170   2.828   4.719   9.132  0.3264  0.3173  0.1707
 4904SOL    HW126171   2.767   0.070   9.141 -1.5519 -1.1318 -0.8256
 4904SOL    HW226172   2.786   4.666   9.200  0.5645 -0.1914 -0.0788
 4905SOL     OW26173   0.438   2.311   8.918  0.2794  0.1210  0.2162
 4905SOL    HW126174   0.487   2.277   8.843 -1.7179 -0.4216 -0.8478
 4905SOL    HW226175   0.377   2.361   8.864  0.8805  1.2993  0.6333
 4906SOL     OW26176   2.396   2.678   7.011  0.6729 -0.1171  0.0434
 4906SOL    HW126177   2.346   2.614   7.064  0.7236 -0.3500 -0.1902
 4906SOL    HW226178   2.331   2.747   6.997  1.0222  0.4015  0.9764
 4907SOL     OW26179   2.458   0.586   0.757  0.1867 -0.4150 -0.0121
 4907SOL    HW126180   2.508   0.652   0.806 -0.2488  0.1947 -0.3900
 4907SOL    HW226181   2.524   0.550   0.697  0.4795 -1.4292  0.9251
 4908SOL     OW26182   0.219   4.142   6.454 -0.2548 -0.3530 -0.0490
 4908SOL    HW126183   0.272   4.216   6.424  0.1734 -0.5863  0.1231
 4908SOL    HW226184   0.237   4.142   6.548 -0.8692 -1.0344  0.0745
 4909SOL     OW26185   0.467   4.015   3.398 -0.4966 -0.3494 -0.3921
 4909SOL    HW126186   0.401   4.041   3.462  0.6333 -0.8490  0.9955
 4909SOL    HW226187   0.484   3.926   3.429 -0.3993 -1.4260 -3.5666
 4910SOL     OW26188   4.540   4.320   3.386 -0.3704  0.9067 -0.7386
 4910SOL    HW126189   4.609   4.352   3.443 -0.3932  1.9389 -1.2909
 4910SOL    HW226190   4.543   4.224   3.393  1.1840  1.1109  1.0887
 4911SOL     OW26191   0.562   2.151   7.726  0.3245  0.3484 -0.4050
 4911SOL    HW126192   0.656   2.141   7.711 -0.0811 -1.4459 -1.7000
 4911SOL    HW226193   0.548   2.101   7.806  3.5999 -0.3711 -0.2771
 4912SOL     OW26194   1.838   3.139   0.229 -0.0078 -0.5258  0.1890
 4912SOL    HW126195   1.836   3.229   0.263  2.1050 -0.0710 -0.8566
 4912SOL    HW226196   1.756   3.135   0.181  0.0932 -0.8075  0.0435
 4913SOL     OW26197   4.673   3.328   6.742 -0.8419  0.2525 -0.1599
 4913SOL    HW126198   0.013   3.295   6.808 -0.1167 -0.6128 -1.2583
 4913SOL    HW226199   4.639   3.242   6.719  0.5402 -0.9221  2.1635
 4914SOL     OW26200   4.192   3.143   5.471  0.5055 -0.3249  0.4043
 4914SOL    HW126201   4.170   3.151   5.378 -1.0137  0.3940  0.8191
 4914SOL    HW226202   4.222   3.053   5.481  0.8675 -0.2578 -0.0804
 4915SOL     OW26203   2.134   2.522   5.408 -0.0714  0.3749  0.3694
 4915SOL    HW126204   2.175   2.605   5.384  2.1002 -0.1197  2.3567
 4915SOL    HW226205   2.205   2.464   5.381  0.1484  1.5043 -1.4493
 4916SOL     OW26206   1.746   0.625   8.554 -0.2573 -0.1124  0.4475
 4916SOL    HW126207   1.773   0.537   8.528  0.3447  0.4496 -0.8228
 4916SOL    HW226208   1.722   0.658   8.468 -0.8299  0.9355  1.0142
 4917SOL     OW26209   4.624   2.466   9.273 -0.1669  0.5860 -0.1947
 4917SOL    HW126210   4.562   2.460   9.200  1.1329 -0.0600 -1.2346
 4917SOL    HW226211   4.562   2.465   9.346  2.4156  0.4918  1.9632
 4918SOL     OW26212   4.318   2.155   9.213  0.2211  0.3839  0.1487
 4918SOL    HW126213   4.300   2.194   9.299 -0.9922  0.8645 -0.3300
 4918SOL    HW226214   4.412   2.135   9.217  0.0176 -0.1187  2.4564
 4919SOL     OW26215   1.055   2.911   8.280  0.6267  0.0680 -0.1204
 4919SOL    HW126216   1.117   2.896   8.351  1.2704  2.3420 -0.2011
 4919SOL    HW226217   1.117   2.929   8.209 -0.1439  0.4617 -0.6949
 4920SOL     OW26218   2.157   2.824   3.706 -0.6661 -0.0405 -0.4711
 4920SOL    HW126219   2.199   2.751   3.750 -0.6386  0.0353 -0.3711
 4920SOL    HW226220   2.072   2.826   3.751 -0.5009  1.1048 -0.1928
 4921SOL     OW26221   4.342   3.873   6.627  0.3533  0.3807  0.4080
 4921SOL    HW126222   4.403   3.814   6.670  0.7441 -0.4534 -1.2760
 4921SOL    HW226223   4.328   3.830   6.543 -1.1703  0.0617  0.8154
 4922SOL     OW26224   4.085   0.250  12.820  0.1430  0.4510 -0.3364
 4922SOL    HW126225   4.085   0.156  12.836  2.5939  0.4083 -0.5123
 4922SOL    HW226226   4.044   0.282  12.900 -0.7305 -0.0556 -0.5841
 4923SOL     OW26227   3.097   3.857   5.588  0.0286 -0.6744 -0.0676
 4923SOL    HW126228   3.174   3.890   5.636 -1.8932  0.5357  2.1825
 4923SOL    HW226229   3.076   3.783   5.645  1.0930 -0.1905  0.9536
 4924SOL     OW26230   1.928   3.752   8.831  0.2273  0.3285  0.2709
 4924SOL    HW126231   1.876   3.818   8.876 -1.0003  0.0425 -0.7093
 4924SOL    HW226232   1.866   3.711   8.770  1.0542  2.2401 -1.8496
 4925SOL     OW26233   2.642   0.296  17.610  0.2409 -0.5124 -0.1442
 4925SOL    HW126234   2.641   0.258   0.010 -0.5105  1.3026  0.6180
 4925SOL    HW226235   2.633   0.389  17.629  0.9440  0.1034 -2.8374
 4926SOL     OW26236   0.954   1.427   1.017 -0.3532 -0.4999 -0.0308
 4926SOL    HW126237   0.910   1.503   0.979  0.6452 -0.0070 -0.1911
 4926SOL    HW226238   1.033   1.456   1.063 -0.8789 -0.1544  0.6372
 4927SOL     OW26239   4.641   1.155  17.016 -0.0411  0.4377 -0.7619
 4927SOL    HW126240   4.692   1.233  17.040  0.4480 -0.0096 -0.3399
 4927SOL    HW226241   4.606   1.177  16.929 -3.5918 -2.2619  0.0068
 4928SOL     OW26242   1.116   4.466   8.741 -0.4680 -0.5347 -0.3385
 4928SOL    HW126243   1.136   4.542   8.796  2.8146  0.9254 -3.5590
 4928SOL    HW226244   1.153   4.479   8.654 -1.3570  0.2956 -0.5898
 4929SOL     OW26245   2.957   4.566   4.509  0.2472  0.3032  0.4333
 4929SOL    HW126246   2.889   4.515   4.465  1.7624 -3.0764  1.9984
 4929SOL    HW226247   2.997   4.499   4.564  1.7728 -0.3122 -1.4234
 4930SOL     OW26248   3.356   0.134   2.648 -0.0068 -0.2805 -0.3781
 4930SOL    HW126249   3.271   0.090   2.657 -0.2336  0.5838  1.9789
 4930SOL    HW226250   3.408   0.090   2.715 -0.6090  0.0380  0.3048
 4931SOL     OW26251   3.064   2.521   4.800 -0.2355  0.1200 -0.5450
 4931SOL    HW126252   2.993   2.569   4.843 -0.0927  0.0955 -0.2831
 4931SOL    HW226253   3.080   2.580   4.726  1.1826  0.3077 -0.0902
 4932SOL     OW26254   3.981   2.605   2.537  0.2684  0.2030 -0.2564
 4932SOL    HW126255   3.933   2.633   2.459 -0.0705 -0.5990 -0.3367
 4932SOL    HW226256   4.072   2.611   2.509  0.2977  2.0158  0.2518
 4933SOL     OW26257   0.916   2.420  14.653  0.0307  0.4607  0.3874
 4933SOL    HW126258   0.880   2.410  14.565  1.0078 -0.5741  0.1046
 4933SOL    HW226259   0.950   2.336  14.683 -0.3161 -0.1648 -0.9372
 4934SOL     OW26260   3.341   3.206   4.783 -0.0981 -0.6030  0.1167
 4934SOL    HW126261   3.328   3.233   4.692  1.2106  1.8774  0.6649
 4934SOL    HW226262   3.403   3.135   4.768 -0.8587 -0.8592 -1.8877
 4935SOL     OW26263   0.706   3.585  12.912  0.7172 -0.2312 -0.0300
 4935SOL    HW126264   0.756   3.608  12.834  2.2426 -1.0341  0.7045
 4935SOL    HW226265   0.626   3.544  12.879 -1.9376  3.5952  1.7021
 4936SOL     OW26266   3.330   4.626  17.279 -0.0722 -0.6503 -0.3396
 4936SOL    HW126267   3.385   4.581  17.215  1.2985 -1.4087  1.3619
 4936SOL    HW226268   3.376   4.605  17.361 -0.8635  0.6290  0.4436
 4937SOL     OW26269   1.238   3.974   3.919  0.2069 -0.1966 -0.0926
 4937SOL    HW126270   1.222   4.017   3.834  0.3575  2.2011  1.0848
 4937SOL    HW226271   1.183   3.896   3.919  0.1708 -0.1693  0.1670
 4938SOL     OW26272   0.811   2.487   8.783  0.2277 -0.0409 -0.5142
 4938SOL    HW126273   0.728   2.473   8.737  0.4414  2.0775 -1.5311
 4938SOL    HW226274   0.813   2.582   8.783 -0.1196 -0.0320  0.0412
 4939SOL     OW26275   0.064   0.924   4.773 -0.0801 -0.4844 -0.3903
 4939SOL    HW126276   0.118   0.896   4.699  0.4454  0.3209 -0.3070
 4939SOL    HW226277   0.103   0.872   4.843  1.3333  2.0662  0.7306
 4940SOL     OW26278   3.817   1.311   0.773  0.3065  0.4757 -0.2822
 4940SOL    HW126279   3.778   1.326   0.859 -0.6757 -1.0472 -0.4522
 4940SOL    HW226280   3.908   1.335   0.792  0.8678 -2.3873  0.7531
 4941SOL     OW26281   0.877   1.234   3.102  0.2917  0.1128  0.1434
 4941SOL    HW126282   0.941   1.197   3.041  2.3111  1.0423  1.7339
 4941SOL    HW226283   0.940   1.234   3.174 -0.5060 -1.4725  0.8452
 4942SOL     OW26284   1.324   2.901   2.241  0.4259 -0.3257 -0.4232
 4942SOL    HW126285   1.291   2.990   2.253  1.5379 -0.0867  0.9103
 4942SOL    HW226286   1.246   2.851   2.263 -0.5377  0.8881 -1.0431
 4943SOL     OW26287   4.535   4.598   5.194  0.4874 -0.0993 -0.1085
 4943SOL    HW126288   4.449   4.633   5.216  1.0453  1.2832 -0.1493
 4943SOL    HW226289   4.502   4.526   5.140 -0.2569  2.3774 -2.9389
 4944SOL     OW26290   3.061   2.213  12.961 -0.1431  0.5264 -0.4935
 4944SOL    HW126291   3.026   2.297  12.992 -0.4537  0.6185 -1.0996
 4944SOL    HW226292   2.987   2.158  12.988 -0.1508  2.7524  4.0098
 4945SOL     OW26293   4.033   1.250  10.090  0.7180 -0.2418  0.3316
 4945SOL    HW126294   4.033   1.265  10.185  0.9190  0.2020  0.2608
 4945SOL    HW226295   4.117   1.290  10.067 -0.5555  2.0581 -0.2389
 4946SOL     OW26296   3.632   1.200   6.275 -0.5496  0.6620 -0.2645
 4946SOL    HW126297   3.596   1.239   6.195  0.0835  0.4925 -0.6342
 4946SOL    HW226298   3.681   1.276   6.307 -0.0768  0.1693  0.1712
 4947SOL     OW26299   2.234   3.960   6.878  0.8187  0.1795  0.5739
 4947SOL    HW126300   2.182   3.978   6.956 -0.7094  0.3820 -0.5054
 4947SOL    HW226301   2.279   3.878   6.901 -0.7261 -0.3012  1.8595
 4948SOL     OW26302   3.510   1.804  11.238 -0.2068  0.3186 -0.7251
 4948SOL    HW126303   3.566   1.849  11.301  0.2285  1.6349 -2.0637
 4948SOL    HW226304   3.431   1.857  11.248 -0.1653  0.1294  0.6988
 4949SOL     OW26305   1.129   2.853   9.065  0.0145 -0.3451 -0.1894
 4949SOL    HW126306   1.048   2.859   9.013 -1.1386  1.1171  1.7977
 4949SOL    HW226307   1.120   2.762   9.093 -2.6421 -1.2007 -3.7509
 4950SOL     OW26308   1.901   4.385  10.412 -0.2712 -0.6144  0.1105
 4950SOL    HW126309   1.963   4.452  10.439  0.0779 -0.3203 -1.4347
 4950SOL    HW226310   1.936   4.361  10.326 -2.6501  2.0277 -1.6156
 4951SOL     OW26311   3.468   4.095  14.068 -0.3699 -0.2211 -0.4557
 4951SOL    HW126312   3.531   4.038  14.114 -0.2000  1.6350  1.5733
 4951SOL    HW226313   3.512   4.180  14.070  0.0252 -0.4562  0.7998
 4952SOL     OW26314   3.483   4.424  11.981 -0.2555  0.5705 -0.4812
 4952SOL    HW126315   3.390   4.442  11.970  0.1101  2.1090 -1.1218
 4952SOL    HW226316   3.501   4.340  11.941 -0.5917  0.6338 -0.7605
 4953SOL     OW26317   0.737   1.676   6.017  0.4385  0.0759 -0.2808
 4953SOL    HW126318   0.777   1.623   6.085 -1.0777  0.1043  0.6225
 4953SOL    HW226319   0.774   1.763   6.033 -0.7279  0.7272 -1.1191
 4954SOL     OW26320   0.092   2.358   3.402 -0.2038  0.0611  0.6819
 4954SOL    HW126321   0.051   2.444   3.409  1.8911  1.0360  0.9259
 4954SOL    HW226322   0.083   2.337   3.309 -0.8961  0.4788  0.6514
 4955SOL     OW26323   4.420   1.258  14.286 -0.1739  0.2864 -0.3681
 4955SOL    HW126324   4.352   1.239  14.221 -0.3393  1.2348 -0.4637
 4955SOL    HW226325   4.453   1.168  14.287  0.4206  0.5155  1.1289
 4956SOL     OW26326   4.354   1.546   2.339  0.3407 -0.2507  0.7642
 4956SOL    HW126327   4.275   1.546   2.393  2.0339  0.6282  3.2405
 4956SOL    HW226328   4.312   1.544   2.253  1.5238  0.1112  0.1888
 4957SOL     OW26329   3.207   1.627   4.978 -0.2492 -0.0160 -0.0389
 4957SOL    HW126330   3.301   1.620   4.998 -0.4618  1.2283  1.4146
 4957SOL    HW226331   3.190   1.698   5.040  0.0418  0.2062 -0.2141
 4958SOL     OW26332   3.030   2.510   7.953 -0.0579  0.3946  0.0150
 4958SOL    HW126333   2.987   2.449   8.013  0.0637 -0.2937 -0.5932
 4958SOL    HW226334   3.093   2.455   7.906 -0.2376 -0.5573  0.8869
 4959SOL     OW26335   4.034   1.653   8.786  0.0171  0.0762  0.7185
 4959SOL    HW126336   4.099   1.597   8.827  0.1880 -0.2951 -0.0648
 4959SOL    HW226337   3.958   1.642   8.843  1.2296 -1.5008  1.9982
 4960SOL     OW26338   1.305   2.540   0.933  0.3768 -0.2128  0.5763
 4960SOL    HW126339   1.239   2.478   0.966 -1.6991  0.9676 -1.4289
 4960SOL    HW226340   1.343   2.577   1.012  0.1496  0.7194  0.2412
 4961SOL     OW26341   2.818   4.489   9.651 -0.1271  0.2975 -0.2612
 4961SOL    HW126342   2.825   4.520   9.741  1.5830  0.3445 -0.4023
 4961SOL    HW226343   2.747   4.548   9.624 -1.0791  0.4906  2.6965
 4962SOL     OW26344   3.714   3.367   2.253 -0.1797 -0.2840 -0.3117
 4962SOL    HW126345   3.668   3.429   2.310 -1.2629 -0.9173 -0.4975
 4962SOL    HW226346   3.721   3.415   2.171 -2.9915 -1.7696 -1.4253
 4963SOL     OW26347   2.985   1.797   2.118  0.0289  0.1748 -0.0836
 4963SOL    HW126348   2.963   1.887   2.096  0.4192  0.4318  0.5636
 4963SOL    HW226349   2.985   1.753   2.033 -0.6229 -1.6543  0.8575
 4964SOL     OW26350   1.030   0.884   8.610 -0.2036 -0.2364 -0.0752
 4964SOL    HW126351   0.994   0.821   8.549 -2.7250  2.1018 -1.0075
 4964SOL    HW226352   1.122   0.860   8.622  0.2437  1.8331  0.7439
 4965SOL     OW26353   3.454   3.037  10.670  0.3569  0.3635 -0.0721
 4965SOL    HW126354   3.382   3.040  10.732  0.4373 -0.8253  0.0763
 4965SOL    HW226355   3.465   3.130  10.651  0.8977  0.4799  0.8028
 4966SOL     OW26356   3.077   1.519   6.773 -0.1676 -1.0315 -0.0830
 4966SOL    HW126357   3.001   1.571   6.748  0.3804  0.0167  0.4464
 4966SOL    HW226358   3.050   1.435   6.736  0.1716 -1.3574  0.4110
 4967SOL     OW26359   3.298   1.627   9.784  0.2221  0.2651 -0.3622
 4967SOL    HW126360   3.345   1.699   9.827 -2.0692  0.2367  2.2107
 4967SOL    HW226361   3.264   1.582   9.861 -0.1381 -1.2529 -1.4007
 4968SOL     OW26362   2.693   3.818   6.932  0.0243 -0.0921  0.0464
 4968SOL    HW126363   2.748   3.766   6.991 -0.8368 -1.8496 -0.7269
 4968SOL    HW226364   2.632   3.857   6.995  1.4983  0.4160  1.1720
 4969SOL     OW26365   1.367   1.730   1.945  0.0113 -0.2024  0.3923
 4969SOL    HW126366   1.337   1.777   2.023 -1.3427 -0.3815 -0.0080
 4969SOL    HW226367   1.316   1.778   1.880  0.1229  0.1226  0.5492
 4970SOL     OW26368   4.313   3.403   8.594  0.2537 -0.2537 -0.4762
 4970SOL    HW126369   4.304   3.498   8.607 -2.2497 -0.5345 -0.2533
 4970SOL    HW226370   4.372   3.392   8.519 -0.0243 -1.1123 -0.5627
 4971SOL     OW26371   0.504   1.926   5.630  0.5681  0.0394 -0.1602
 4971SOL    HW126372   0.513   1.830   5.632  0.1967 -0.0031 -0.4564
 4971SOL    HW226373   0.466   1.939   5.717 -2.3645  0.6637 -1.5442
 4972SOL     OW26374   3.200   3.755   3.139 -0.2257  0.1589  0.5052
 4972SOL    HW126375   3.153   3.819   3.085  3.0096  1.1125 -1.1667
 4972SOL    HW226376   3.292   3.781   3.133 -0.2890  0.9208  2.7187
 4973SOL     OW26377   4.245   1.732   2.658  0.0544 -0.0465  0.1787
 4973SOL    HW126378   4.329   1.775   2.675 -0.5219  1.1845 -0.1319
 4973SOL    HW226379   4.233   1.785   2.579 -2.6699  1.3248  1.5255
 4974SOL     OW26380   3.003   1.137  13.225 -0.1478  0.4664 -0.1549
 4974SOL    HW126381   3.061   1.206  13.256  0.1487  0.0514  0.2078
 4974SOL    HW226382   3.000   1.170  13.135 -0.4175 -1.9297 -1.0151
 4975SOL     OW26383   2.847   4.025   7.397 -0.3849 -0.1940  0.0889
 4975SOL    HW126384   2.845   4.120   7.390  2.3754  0.1189  3.3970
 4975SOL    HW226385   2.763   4.009   7.439 -0.8896  0.4345 -0.6831
 4976SOL     OW26386   4.404   1.110  16.523 -0.3849  0.4153 -0.5892
 4976SOL    HW126387   4.320   1.129  16.481  0.3993  1.4150 -1.7038
 4976SOL    HW226388   4.434   1.037  16.468  0.3187 -0.2732  0.7168
 4977SOL     OW26389   1.442   3.210   7.489  0.1194 -0.4909  0.0571
 4977SOL    HW126390   1.372   3.186   7.549 -1.5830  0.4642 -1.5550
 4977SOL    HW226391   1.467   3.294   7.526  0.2473 -0.3323 -0.3842
 4978SOL     OW26392   1.127   2.327   9.042 -0.0498 -0.2810  0.5025
 4978SOL    HW126393   1.033   2.326   9.025 -0.5995  2.9141  3.3392
 4978SOL    HW226394   1.121   2.233   9.055  1.9858 -0.7536 -2.0211
 4979SOL     OW26395   0.657   0.572  16.518  0.4085  0.3545  0.0774
 4979SOL    HW126396   0.717   0.577  16.444 -0.0220 -0.8117 -0.3408
 4979SOL    HW226397   0.671   0.480  16.538  2.5254  1.1423  2.2185
 4980SOL     OW26398   0.569   0.996  17.504  0.3195  0.2561  0.1938
 4980SOL    HW126399   0.538   0.962  17.420  1.5734 -0.3592 -0.0147
 4980SOL    HW226400   0.626   1.070  17.480  1.3005 -0.0910  1.4576
 4981SOL     OW26401   0.785   3.848   3.930  0.6535 -0.3492  0.0086
 4981SOL    HW126402   0.718   3.782   3.914  0.6648 -0.7396  1.5836
 4981SOL    HW226403   0.746   3.925   3.889  0.3264 -0.6646 -0.2686
 4982SOL     OW26404   1.228   3.536   3.583 -0.2632  0.0683  0.0940
 4982SOL    HW126405   1.180   3.453   3.583 -2.5530  1.4040 -1.0732
 4982SOL    HW226406   1.227   3.558   3.490  0.3988 -1.9054 -0.3823
 4983SOL     OW26407   3.124   1.357   2.190  0.0309 -0.2566  0.5079
 4983SOL    HW126408   3.191   1.386   2.251  0.6123  1.8442 -1.1174
 4983SOL    HW226409   3.180   1.317   2.124  1.4849  1.1350  0.8899
 4984SOL     OW26410   2.273   4.247   5.690  0.2086  0.2287  0.3015
 4984SOL    HW126411   2.296   4.250   5.597 -0.4063  0.0796  0.1434
 4984SOL    HW226412   2.178   4.232   5.690  0.6483 -2.4990  3.9045
 4985SOL     OW26413   3.559   3.445   7.550 -0.0588  0.3118 -0.3622
 4985SOL    HW126414   3.489   3.384   7.573  0.7451 -0.2130  0.6180
 4985SOL    HW226415   3.612   3.389   7.493 -0.4007 -1.5564  1.1572
 4986SOL     OW26416   3.402   0.022   3.084  0.0749  0.3676  0.1222
 4986SOL    HW126417   3.450   0.061   3.011  0.3589  1.4394  0.8836
 4986SOL    HW226418   3.423   4.651   3.074 -0.4424  0.2613  0.0291
 4987SOL     OW26419   2.564   3.813   6.553  0.1454  0.0392 -0.1288
 4987SOL    HW126420   2.656   3.820   6.577 -0.6131  0.3182  2.6219
 4987SOL    HW226421   2.558   3.866   6.473  0.8416  1.2235  0.6198
 4988SOL     OW26422   0.436   0.116  15.791  0.3526  0.1223 -0.4325
 4988SOL    HW126423   0.347   0.147  15.806  0.2155 -0.3135 -0.3338
 4988SOL    HW226424   0.477   0.201  15.774 -0.4616  0.6472  0.2767
 4989SOL     OW26425   2.164   1.677   6.014  0.8861 -0.5479  0.2294
 4989SOL    HW126426   2.175   1.722   5.930  0.7112 -2.4821 -0.8474
 4989SOL    HW226427   2.089   1.619   6.002  0.4987  0.7159 -3.3722
 4990SOL     OW26428   1.302   0.881   8.166 -0.2694  0.2712 -0.0962
 4990SOL    HW126429   1.387   0.922   8.147 -0.7627  2.0860  1.6446
 4990SOL    HW226430   1.329   0.793   8.194  0.5199  0.7432  0.6312
 4991SOL     OW26431   0.303   2.266   7.032  0.0596 -0.3363  0.1826
 4991SOL    HW126432   0.288   2.274   7.127  0.3383 -2.5403  0.4324
 4991SOL    HW226433   0.311   2.171   7.021  0.4519 -0.5603  2.2687
 4992SOL     OW26434   1.131   4.235   0.094  0.4362  0.0171 -0.2550
 4992SOL    HW126435   1.045   4.242   0.053  0.3334  1.1487  0.1564
 4992SOL    HW226436   1.109   4.201   0.180  0.8529  1.8057  0.5711
 4993SOL     OW26437   4.533   0.662   7.261 -0.4549  0.6896  0.4753
 4993SOL    HW126438   4.445   0.640   7.231 -0.5617  0.3955  1.0067
 4993SOL    HW226439   4.569   0.677   7.174 -0.9085 -0.9297  0.0072
 4994SOL     OW26440   4.669   3.607  11.157  0.1584 -0.5858 -0.1314
 4994SOL    HW126441   4.668   3.572  11.245  0.8693 -4.8044 -1.8018
 4994SOL    HW226442   4.672   3.700  11.179 -1.4486 -0.8093  1.0135
 4995SOL     OW26443   2.518   4.671   8.941  0.1111  0.1750  0.0242
 4995SOL    HW126444   2.539   4.707   9.028  2.6108  1.7287 -1.2166
 4995SOL    HW226445   2.423   4.680   8.943  0.0299 -0.9320  1.3270
 4996SOL     OW26446   1.034   3.831  10.757 -0.1659 -0.9578  0.5268
 4996SOL    HW126447   1.124   3.834  10.725  0.1006 -1.6048  1.2009
 4996SOL    HW226448   1.019   3.740  10.733  0.8212 -1.3080  1.2462
 4997SOL     OW26449   2.262   1.015   0.921  0.2645 -0.0621  0.3813
 4997SOL    HW126450   2.339   0.972   0.882 -0.6220  0.4351 -1.9090
 4997SOL    HW226451   2.271   1.109   0.904 -1.6734  0.2158  0.9646
 4998SOL     OW26452   4.293   1.659   8.531  0.2226  0.0044  0.0697
 4998SOL    HW126453   4.319   1.651   8.439 -0.7597 -1.5986 -0.0701
 4998SOL    HW226454   4.203   1.628   8.525  0.1459  0.3261 -0.3634
 4999SOL     OW26455   1.151   2.560   4.040  0.1499 -0.3703 -0.0806
 4999SOL    HW126456   1.121   2.488   4.095 -1.0767 -0.2452 -0.5869
 4999SOL    HW226457   1.115   2.632   4.093 -1.8512 -0.6185 -1.0932
 5000SOL     OW26458   2.162   2.587  16.826 -0.2879 -0.1500 -0.6304
 5000SOL    HW126459   2.215   2.666  16.813  2.4029 -2.0244 -1.0157
 5000SOL    HW226460   2.109   2.599  16.904  1.3133  3.7170 -0.1377
 5001SOL     OW26461   3.386   0.863   4.579 -0.3345 -0.0074 -0.1479
 5001SOL    HW126462   3.297   0.840   4.607 -0.7477  1.5000 -0.2313
 5001SOL    HW226463   3.380   0.903   4.492  0.4868 -1.2528 -0.7776
 5002SOL     OW26464   1.810   2.759  13.674 -0.3354 -0.0583 -0.0812
 5002SOL    HW126465   1.874   2.758  13.745  0.1466 -0.0810 -0.5130
 5002SOL    HW226466   1.805   2.670  13.639 -0.1528  0.5684 -1.7291
 5003SOL     OW26467   1.328   4.381  11.050 -0.5073 -0.5162  0.5545
 5003SOL    HW126468   1.327   4.365  11.144  0.4010 -0.9008  0.4969
 5003SOL    HW226469   1.407   4.331  11.029  0.7147  1.5776  0.1492
 5004SOL     OW26470   4.515   0.346   1.831  0.6252 -0.3497 -0.1605
 5004SOL    HW126471   4.531   0.387   1.746 -0.0722  0.0215 -0.1151
 5004SOL    HW226472   4.516   0.252   1.813  3.5708  0.0010 -1.7642
 5005SOL     OW26473   0.232   2.489   2.487  0.6526 -0.2317 -0.6801
 5005SOL    HW126474   0.180   2.419   2.449 -0.9475 -0.2922  1.6536
 5005SOL    HW226475   0.215   2.557   2.422  0.9073  1.1451  0.7042
 5006SOL     OW26476   3.121   1.603  12.715 -0.4973 -0.1778 -0.3775
 5006SOL    HW126477   3.138   1.696  12.697  0.4750 -0.4917 -1.0742
 5006SOL    HW226478   3.064   1.617  12.791  0.3718  2.1938 -0.1501
 5007SOL     OW26479   3.692   2.801   4.930  0.0180 -0.3620  0.3632
 5007SOL    HW126480   3.648   2.885   4.942 -0.5977 -0.6805  0.3573
 5007SOL    HW226481   3.753   2.801   5.004 -0.0273 -0.0085  0.3968
 5008SOL     OW26482   1.803   2.441   5.090  0.2199  0.3841 -0.5601
 5008SOL    HW126483   1.814   2.474   5.179 -0.9649  2.5212 -1.2171
 5008SOL    HW226484   1.756   2.513   5.047  2.2967  1.3597 -1.2118
 5009SOL     OW26485   1.589   1.951   8.307 -0.2307 -0.3179 -0.1080
 5009SOL    HW126486   1.652   1.987   8.245  0.9717 -1.3454  0.5005
 5009SOL    HW226487   1.537   2.031   8.310  0.9860  0.4508  0.5806
 5010SOL     OW26488   2.408   1.335   4.182  0.2843 -0.0574  0.1509
 5010SOL    HW126489   2.452   1.420   4.177  2.7003 -1.3802 -1.1977
 5010SOL    HW226490   2.479   1.272   4.172  1.0073  0.6321  0.9177
 5011SOL     OW26491   1.994   3.631  17.340  0.6219  0.7962  1.0751
 5011SOL    HW126492   2.022   3.693  17.408  0.7516  1.3067  0.5581
 5011SOL    HW226493   1.922   3.585  17.383  0.2626  0.7028  0.3796
 5012SOL     OW26494   4.453   3.731   0.248  0.4466 -0.0875 -0.0744
 5012SOL    HW126495   4.533   3.702   0.292 -0.1916 -3.1792 -0.9132
 5012SOL    HW226496   4.433   3.810   0.298  0.8521 -1.1540  1.7782
 5013SOL     OW26497   4.202   2.255   6.097  0.6244  0.1640  0.7230
 5013SOL    HW126498   4.265   2.313   6.140  0.3348  0.1627  1.1566
 5013SOL    HW226499   4.255   2.177   6.085  0.5734  0.0272  1.3989
 5014SOL     OW26500   3.711   3.603  14.342  0.1103  0.2121 -0.2874
 5014SOL    HW126501   3.782   3.663  14.319  0.6180 -0.6176 -0.9113
 5014SOL    HW226502   3.662   3.666  14.395 -1.0028  0.3020 -1.4323
 5015SOL     OW26503   3.436   2.150   6.127 -0.0283  1.0053 -0.5941
 5015SOL    HW126504   3.499   2.217   6.099 -0.9262  2.0973 -0.0097
 5015SOL    HW226505   3.462   2.079   6.068  1.9560  0.2862  1.1415
 5016SOL     OW26506   1.263   2.352   5.473  0.1361 -0.2766 -0.1464
 5016SOL    HW126507   1.289   2.277   5.420 -0.6639 -1.7211  1.5081
 5016SOL    HW226508   1.223   2.402   5.402 -0.8196  1.3974  1.5899
 5017SOL     OW26509   3.863   3.561  14.703  0.1083  0.3646  0.3705
 5017SOL    HW126510   3.915   3.518  14.635 -0.5453  1.0135 -0.5524
 5017SOL    HW226511   3.871   3.504  14.779 -3.4093 -1.2215 -0.3967
 5018SOL     OW26512   3.381   1.583   5.793  0.4006 -0.0243 -0.3182
 5018SOL    HW126513   3.337   1.501   5.816  0.1869  0.3727  0.6937
 5018SOL    HW226514   3.389   1.568   5.699  2.5989  1.2003 -0.3177
 5019SOL     OW26515   2.237   3.479   5.009  0.3379 -0.3150 -0.1023
 5019SOL    HW126516   2.222   3.567   4.975  0.4757  0.0818  0.8630
 5019SOL    HW226517   2.166   3.479   5.074 -0.4481 -2.1145 -0.9909
 5020SOL     OW26518   0.385   4.661   6.803  0.4014  0.6779 -0.1265
 5020SOL    HW126519   0.442   4.584   6.798 -1.9469 -0.9585 -1.7994
 5020SOL    HW226520   0.345   4.643   6.888  1.4776  0.7724  0.4027
 5021SOL     OW26521   2.590   4.210   0.459 -0.4526 -0.1952  0.4808
 5021SOL    HW126522   2.588   4.305   0.450  2.6789 -0.0315  1.8685
 5021SOL    HW226523   2.684   4.195   0.451 -0.9721 -2.7213 -0.8303
 5022SOL     OW26524   1.678   0.720   9.945 -0.4599 -0.3355  0.3639
 5022SOL    HW126525   1.606   0.665   9.914  0.1679  0.2283 -2.0899
 5022SOL    HW226526   1.742   0.709   9.875 -2.6668  3.1696 -2.2296
 5023SOL     OW26527   3.558   1.306   7.248  0.1098 -0.4274 -0.2072
 5023SOL    HW126528   3.619   1.346   7.310 -1.8068 -0.1442  1.4563
 5023SOL    HW226529   3.478   1.290   7.297  2.1987 -2.1259  2.6413
 5024SOL     OW26530   1.448   4.090   0.070 -0.5609 -0.0304  0.0085
 5024SOL    HW126531   1.441   4.039   0.151  0.5180 -0.3448 -0.0947
 5024SOL    HW226532   1.541   4.110   0.085  0.0652 -1.9245 -1.3975
 5025SOL     OW26533   2.775   0.212  17.139  0.1515  0.4511 -0.0600
 5025SOL    HW126534   2.857   0.182  17.100 -1.0809 -0.3713 -1.9854
 5025SOL    HW226535   2.723   0.212  17.059 -0.0942  1.4979  0.1051
 5026SOL     OW26536   3.800   4.481   8.892  0.1556  0.2994 -0.1561
 5026SOL    HW126537   3.846   4.555   8.852  1.2554 -0.2854  0.0214
 5026SOL    HW226538   3.790   4.421   8.818 -0.6725  1.7223 -1.2182
 5027SOL     OW26539   2.308   2.140  16.511 -0.1147 -0.5030  0.5335
 5027SOL    HW126540   2.387   2.128  16.564 -0.0862 -0.2554  0.5466
 5027SOL    HW226541   2.345   2.158  16.424 -0.9686 -1.5865 -0.0565
 5028SOL     OW26542   3.403   4.418   8.013  0.1533 -0.3638  0.3491
 5028SOL    HW126543   3.361   4.341   8.052  0.5067 -0.2067  1.0395
 5028SOL    HW226544   3.456   4.375   7.946 -0.5555  1.5496 -1.4084
 5029SOL     OW26545   4.028   3.579   5.091  0.1806 -0.9226 -0.4975
 5029SOL    HW126546   4.024   3.610   5.182 -1.0666 -0.3111 -0.7521
 5029SOL    HW226547   4.013   3.660   5.042 -1.9125 -1.6511 -1.0985
 5030SOL     OW26548   1.215   3.696  12.031  0.4831 -0.0169  0.5075
 5030SOL    HW126549   1.219   3.790  12.052 -0.5024 -0.1954  1.4713
 5030SOL    HW226550   1.127   3.692  11.994  1.3424 -0.2829 -1.5221
 5031SOL     OW26551   4.066   3.192   0.612 -0.2692 -0.6174 -0.0225
 5031SOL    HW126552   3.990   3.135   0.611 -0.5932 -0.1740 -0.9343
 5031SOL    HW226553   4.068   3.212   0.706  0.0863  0.4880 -0.2617
 5032SOL     OW26554   0.336   1.051   9.996  0.5734 -0.2931 -0.4215
 5032SOL    HW126555   0.290   1.031   9.915  1.1087 -0.5709 -0.6622
 5032SOL    HW226556   0.258   1.055  10.051  0.7903  0.1122 -0.1485
 5033SOL     OW26557   1.295   3.151   5.824  0.0216  0.4627  0.6338
 5033SOL    HW126558   1.378   3.105   5.834 -0.5420 -0.7810 -0.4275
 5033SOL    HW226559   1.233   3.082   5.847 -1.7544  1.7371 -0.2686
 5034SOL     OW26560   0.950   1.646   3.006 -0.3762 -0.2790 -0.5094
 5034SOL    HW126561   1.035   1.611   3.036 -0.8319  0.7720  2.0519
 5034SOL    HW226562   0.930   1.583   2.937 -3.0367 -1.2297  1.1379
 5035SOL     OW26563   1.135   2.929  15.075  0.3999  0.1967 -0.2823
 5035SOL    HW126564   1.118   3.011  15.029 -2.0415  0.4366  1.0710
 5035SOL    HW226565   1.064   2.873  15.044  0.6410  0.0555 -0.5835
 5036SOL     OW26566   3.184   4.359   6.266 -0.4928  0.8675 -0.3000
 5036SOL    HW126567   3.101   4.347   6.220 -0.2946 -0.7141 -0.2309
 5036SOL    HW226568   3.235   4.282   6.241 -2.7337 -1.3381  1.8613
 5037SOL     OW26569   0.204   3.417   7.453  0.3163  0.5072 -0.2498
 5037SOL    HW126570   0.263   3.432   7.378  1.6811 -2.1853  0.3023
 5037SOL    HW226571   0.178   3.507   7.472  0.8654  0.4774  0.6357
 5038SOL     OW26572   2.375   2.338   5.484 -0.7004  0.2317  0.2872
 5038SOL    HW126573   2.293   2.291   5.497 -0.9075  0.2539 -0.9205
 5038SOL    HW226574   2.415   2.335   5.570  0.6754  0.4248 -0.3506
 5039SOL     OW26575   1.659   0.912   5.270  0.8730 -0.8461 -0.4362
 5039SOL    HW126576   1.703   0.995   5.289  0.1734  0.1624 -3.1802
 5039SOL    HW226577   1.595   0.942   5.204  2.4736  0.5283 -1.3844
 5040SOL     OW26578   4.306   3.378   3.979  0.3294 -0.1604 -0.0743
 5040SOL    HW126579   4.324   3.432   4.056 -0.4401 -1.1311  0.7808
 5040SOL    HW226580   4.389   3.368   3.932  1.1528 -3.5697  2.1375
 5041SOL     OW26581   2.324   0.680  16.054 -0.2637  0.4366 -0.4334
 5041SOL    HW126582   2.345   0.594  16.091 -1.0933 -0.3195 -1.7032
 5041SOL    HW226583   2.243   0.692  16.104  1.4272 -0.3026  2.4781
 5042SOL     OW26584   1.661   3.234   4.744 -0.6272 -0.0522  0.3816
 5042SOL    HW126585   1.648   3.233   4.839  0.0449 -1.2119  0.4514
 5042SOL    HW226586   1.599   3.301   4.716  1.9272  1.8492 -0.6737
 5043SOL     OW26587   4.103   0.470   3.809  0.1491 -0.2907  0.1780
 5043SOL    HW126588   4.132   0.451   3.719  1.9758 -0.2379  0.7573
 5043SOL    HW226589   4.186   0.464   3.856 -0.9290 -0.0620  2.0991
 5044SOL     OW26590   0.219   0.512  12.499  0.6112  0.2291 -0.2482
 5044SOL    HW126591   0.225   0.510  12.404  2.8733 -0.4393 -0.0974
 5044SOL    HW226592   0.218   0.421  12.530 -1.4210  0.7061  1.0489
 5045SOL     OW26593   0.907   0.311   5.292  0.0337  0.6844  0.1838
 5045SOL    HW126594   0.955   0.234   5.324  0.2651  0.9156  0.3979
 5045SOL    HW226595   0.847   0.262   5.237 -0.0940  1.2841 -0.2115
 5046SOL     OW26596   3.567   3.354   5.697  0.3817  0.0233  0.6359
 5046SOL    HW126597   3.599   3.325   5.611 -0.3498 -0.1484  0.4196
 5046SOL    HW226598   3.471   3.357   5.689  0.3767 -1.1853  0.1534
 5047SOL     OW26599   2.630   4.366   3.092  0.4682 -0.7305  0.0037
 5047SOL    HW126600   2.658   4.371   3.001 -1.0543 -0.0195 -0.4135
 5047SOL    HW226601   2.710   4.393   3.138 -0.3976 -2.6033  2.6509
 5048SOL     OW26602   1.241   0.693   3.966 -0.0901  0.1172  0.0015
 5048SOL    HW126603   1.273   0.751   4.035  2.6235 -0.9454 -0.3687
 5048SOL    HW226604   1.251   0.750   3.891  0.2196 -1.4720 -1.1603
 5049SOL     OW26605   3.370   0.486   5.577  0.2019 -0.2759  0.0243
 5049SOL    HW126606   3.306   0.420   5.604  1.5662 -2.1058 -1.1726
 5049SOL    HW226607   3.311   0.547   5.533 -0.4344  0.2689  1.6463
 5050SOL     OW26608   0.246   0.649   4.159  0.4639  0.4908  0.1382
 5050SOL    HW126609   0.177   0.597   4.117  0.6280  0.2846  0.1205
 5050SOL    HW226610   0.290   0.583   4.213  1.1476  0.7479 -0.0936
 5051SOL     OW26611   0.830   1.778   7.980  0.1576  0.3998 -1.2479
 5051SOL    HW126612   0.765   1.710   7.999 -0.9259  1.7412 -0.2064
 5051SOL    HW226613   0.896   1.758   8.046 -3.6562 -1.6451  1.9066
 5052SOL     OW26614   2.445   3.757   2.182 -0.1463  0.2972  0.8163
 5052SOL    HW126615   2.436   3.837   2.131  1.1610 -0.8992 -1.3220
 5052SOL    HW226616   2.376   3.756   2.248 -2.4694  0.3135 -1.6286
 5053SOL     OW26617   2.336   4.261   0.563  0.0274 -0.0377 -0.7146
 5053SOL    HW126618   2.414   4.206   0.552  0.2574  0.4438 -1.5078
 5053SOL    HW226619   2.322   4.301   0.477 -0.6145  0.3873 -0.4100
 5054SOL     OW26620   1.347   2.224   7.401  0.6047 -0.4215  0.4310
 5054SOL    HW126621   1.284   2.237   7.472  2.2142  0.8905  1.6163
 5054SOL    HW226622   1.423   2.181   7.439  0.4111 -0.0670  1.2174
 5055SOL     OW26623   0.981   2.033   6.253  0.0544 -0.2245  0.0376
 5055SOL    HW126624   1.060   2.029   6.199  0.2221 -0.8869  0.3366
 5055SOL    HW226625   1.025   2.014   6.336 -0.0667 -0.8792 -0.0460
 5056SOL     OW26626   3.303   0.190   0.289  0.5826  0.5555  0.1540
 5056SOL    HW126627   3.225   0.172   0.237  1.6075 -0.9340 -0.8636
 5056SOL    HW226628   3.272   0.271   0.330 -0.3583 -0.9021  2.3367
 5057SOL     OW26629   0.842   1.047   6.488  0.2535  0.3514 -0.0644
 5057SOL    HW126630   0.785   0.999   6.548 -1.3455  1.7079 -0.5139
 5057SOL    HW226631   0.781   1.102   6.439 -0.2186 -1.2467 -1.2862
 5058SOL     OW26632   1.821   0.828   5.626 -0.5217 -0.2821 -0.2611
 5058SOL    HW126633   1.870   0.877   5.692  1.4125 -1.2667 -0.9987
 5058SOL    HW226634   1.792   0.756   5.682  0.5258 -0.6270 -0.1694
 5059SOL     OW26635   2.291   1.369  17.057 -0.4812 -0.0807 -0.3806
 5059SOL    HW126636   2.222   1.411  17.006 -3.0246 -1.6118  1.7704
 5059SOL    HW226637   2.365   1.416  17.020 -1.2890  0.6621 -1.0359
 5060SOL     OW26638   4.033   3.494  14.483  0.9220  0.9020  0.2444
 5060SOL    HW126639   4.016   3.588  14.477 -0.7232  0.6204  0.5526
 5060SOL    HW226640   4.111   3.489  14.539  1.0721 -2.5249 -0.2601
 5061SOL     OW26641   2.560   1.086   0.573  0.1939 -0.8009  0.1124
 5061SOL    HW126642   2.626   1.068   0.507 -0.1915 -2.7392  0.2556
 5061SOL    HW226643   2.526   1.001   0.602  1.1365 -1.4484 -0.7077
 5062SOL     OW26644   0.982   3.099   6.769  0.0292 -0.6003  0.2697
 5062SOL    HW126645   1.040   3.169   6.739 -1.2745  0.0284 -0.7987
 5062SOL    HW226646   1.025   3.018   6.743  0.1744 -0.4957  0.1854
 5063SOL     OW26647   4.195   2.843   7.481 -0.1738 -0.2347 -0.2892
 5063SOL    HW126648   4.139   2.920   7.469 -0.9041 -0.6129  0.6809
 5063SOL    HW226649   4.275   2.885   7.512 -1.2847  0.6636  1.3133
 5064SOL     OW26650   0.252   4.376  16.060 -0.0019 -0.6600 -0.6449
 5064SOL    HW126651   0.213   4.462  16.047 -0.5672 -1.0876 -1.7191
 5064SOL    HW226652   0.345   4.390  16.043  0.0603 -2.2844 -1.5771
 5065SOL     OW26653   2.947   0.236  17.640 -0.5310 -0.5517 -0.1707
 5065SOL    HW126654   2.963   0.268  17.551  1.2126 -3.1236 -0.8251
 5065SOL    HW226655   2.890   0.161  17.624 -0.6310 -0.5006 -0.0462
 5066SOL     OW26656   3.874   3.287   0.907  0.4544 -0.1816  0.5074
 5066SOL    HW126657   3.866   3.363   0.849 -1.2307 -0.1637  0.7772
 5066SOL    HW226658   3.822   3.220   0.863 -3.0728  1.4094  2.2710
 5067SOL     OW26659   4.557   2.480   0.197 -0.3427  0.6979 -0.1340
 5067SOL    HW126660   4.628   2.460   0.258 -0.7589 -0.6857 -0.1122
 5067SOL    HW226661   4.489   2.462   0.261  0.9252 -1.1536  0.6918
 5068SOL     OW26662   1.151   0.594   0.541 -0.3441  0.3944  0.0734
 5068SOL    HW126663   1.117   0.641   0.616 -1.7743 -1.6431  0.7150
 5068SOL    HW226664   1.173   0.655   0.471 -1.3496  0.0453 -0.5503
 5069SOL     OW26665   2.338   3.420   6.827 -0.4372  0.3087  0.5400
 5069SOL    HW126666   2.390   3.480   6.774 -0.6483  0.8553  0.9456
 5069SOL    HW226667   2.288   3.370   6.763  2.2056 -0.1535 -1.1476
 5070SOL     OW26668   3.004   0.170  12.934  0.7153 -0.5407  0.1136
 5070SOL    HW126669   2.950   0.242  12.901  1.0877 -0.2153  0.2091
 5070SOL    HW226670   3.065   0.158  12.861  0.7614  1.4357 -0.1726
 5071SOL     OW26671   3.898   3.445  13.341 -0.6430  0.2823 -0.0977
 5071SOL    HW126672   3.932   3.473  13.426  0.1450  1.6379 -0.8591
 5071SOL    HW226673   3.846   3.368  13.363  2.1454 -1.6436 -0.1928
 5072SOL     OW26674   0.427   3.020   0.113 -0.3016  0.0570 -0.3160
 5072SOL    HW126675   0.489   2.949   0.128 -1.2163 -1.0693 -1.8509
 5072SOL    HW226676   0.443   3.032   0.019  2.8490  0.7007  0.3052
 5073SOL     OW26677   3.735   0.022   9.423 -0.2052  0.3720 -0.1998
 5073SOL    HW126678   3.696   4.702   9.500  2.8956 -1.0179  0.6269
 5073SOL    HW226679   3.790   4.674   9.388 -0.1869  0.9496 -1.3103
 5074SOL     OW26680   0.488   2.690   6.641  0.6471  0.7116  0.0917
 5074SOL    HW126681   0.438   2.645   6.573 -1.5290  2.0655  0.7970
 5074SOL    HW226682   0.540   2.627   6.690  0.5834  0.5493 -0.0487
 5075SOL     OW26683   0.241   4.317   6.802 -0.0420  0.3721  0.6515
 5075SOL    HW126684   0.189   4.392   6.829 -0.5962  0.3856 -0.4370
 5075SOL    HW226685   0.183   4.244   6.823  1.5751 -1.1851 -0.3213
 5076SOL     OW26686   2.190   2.184   8.672  0.3596 -0.1198  0.2334
 5076SOL    HW126687   2.282   2.188   8.645  0.7163  2.3493  1.8202
 5076SOL    HW226688   2.186   2.110   8.733 -0.4424  0.3942  0.8005
 5077SOL     OW26689   1.008   1.280   5.347  0.1897  0.4006 -0.0970
 5077SOL    HW126690   0.924   1.248   5.312 -0.2341  0.7786  0.5698
 5077SOL    HW226691   1.059   1.311   5.273 -0.0909 -0.1730 -0.5349
 5078SOL     OW26692   4.098   1.945   9.516 -0.2939  0.5889  0.1466
 5078SOL    HW126693   4.047   1.978   9.442 -0.4672 -3.5255 -1.5488
 5078SOL    HW226694   4.037   1.965   9.587  0.7458 -0.8742  1.4290
 5079SOL     OW26695   3.292   3.941   2.561  0.0465 -0.8103  0.6176
 5079SOL    HW126696   3.368   3.990   2.530 -1.9172  0.9888 -1.3351
 5079SOL    HW226697   3.330   3.868   2.610  2.7105  0.1260 -0.0999
 5080SOL     OW26698   4.520   1.332   3.572  0.0645  0.0991 -0.1113
 5080SOL    HW126699   4.567   1.317   3.654 -1.5368  0.6711  0.9215
 5080SOL    HW226700   4.585   1.386   3.528 -0.2787  1.7291  1.3849
 5081SOL     OW26701   1.095   0.122   6.443 -0.0598 -0.0935 -0.0577
 5081SOL    HW126702   1.083   0.160   6.356 -2.2250 -0.9087 -0.1022
 5081SOL    HW226703   1.023   0.060   6.455 -0.1610  0.5217  2.6661
 5082SOL     OW26704   2.424   1.106  13.619  0.2424 -0.3590 -0.4848
 5082SOL    HW126705   2.444   1.014  13.602  1.6356 -0.4186  1.5943
 5082SOL    HW226706   2.341   1.100  13.666  1.1211  1.5304  1.3066
 5083SOL     OW26707   3.471   3.600   3.503  0.3940  0.3938  0.4024
 5083SOL    HW126708   3.376   3.607   3.516  0.2578 -1.3552  0.3737
 5083SOL    HW226709   3.492   3.509   3.523 -0.3236  1.0953  4.3514
 5084SOL     OW26710   0.256   3.818  13.598  0.2209  0.1674  0.0048
 5084SOL    HW126711   0.337   3.844  13.555 -1.4723  1.4796 -2.4128
 5084SOL    HW226712   0.251   3.724  13.583  2.7538  0.3194 -1.7381
 5085SOL     OW26713   3.127   0.522  11.137 -0.5518  0.2734  0.0705
 5085SOL    HW126714   3.143   0.531  11.231  2.2852 -0.7446 -0.3082
 5085SOL    HW226715   3.041   0.564  11.135 -1.2552 -1.1622  0.3926
 5086SOL     OW26716   4.269   0.362   4.217 -0.2521  0.2193  0.4721
 5086SOL    HW126717   4.191   0.361   4.161 -0.3482  0.5163  0.5975
 5086SOL    HW226718   4.329   0.419   4.168  0.1181 -0.0230  0.6467
 5087SOL     OW26719   0.700   3.492  13.207  0.0818 -0.0847 -0.2191
 5087SOL    HW126720   0.680   3.523  13.119  3.5156  3.6074  0.3113
 5087SOL    HW226721   0.709   3.575  13.254 -1.5380 -0.0214 -0.0257
 5088SOL     OW26722   4.592   1.247   3.800  0.4342 -0.1576  0.0190
 5088SOL    HW126723   4.653   1.174   3.803 -0.9044 -1.2161  1.6513
 5088SOL    HW226724   4.546   1.237   3.883  0.5869  0.5271  0.1836
 5089SOL     OW26725   1.009   1.674   1.297  0.1336 -0.0294 -0.4226
 5089SOL    HW126726   0.934   1.669   1.237 -1.6697 -3.5367  2.1248
 5089SOL    HW226727   0.970   1.626   1.370 -1.1425  2.0120  0.2528
 5090SOL     OW26728   4.608   0.139   1.259 -0.4535 -0.1201  0.2776
 5090SOL    HW126729   4.584   0.047   1.252 -0.4645 -0.3009  2.6643
 5090SOL    HW226730   4.692   0.127   1.302  1.2547  1.6788 -2.5160
 5091SOL     OW26731   2.409   3.789   1.420  0.1455 -0.0924  0.2440
 5091SOL    HW126732   2.450   3.726   1.480  0.9500  0.4542  0.2641
 5091SOL    HW226733   2.468   3.776   1.345  0.8490  2.6325  0.3409
 5092SOL     OW26734   4.450   0.232   4.923 -0.1153  0.1415  0.1776
 5092SOL    HW126735   4.420   0.316   4.888  2.6753  1.3668  0.7305
 5092SOL    HW226736   4.449   0.241   5.019 -1.8301  1.8000 -0.0088
 5093SOL     OW26737   3.838   1.030   8.323  0.4243 -0.0976 -0.1485
 5093SOL    HW126738   3.751   1.027   8.362 -0.4280  0.6608 -1.9639
 5093SOL    HW226739   3.862   0.940   8.301  1.2854  0.2216 -0.5092
 5094SOL     OW26740   1.962   0.829   7.027  0.9396  0.3697 -0.0874
 5094SOL    HW126741   1.946   0.851   7.118 -2.4071  0.3799 -0.6863
 5094SOL    HW226742   1.895   0.876   6.978  0.8074  0.3635  0.0918
 5095SOL     OW26743   0.902   1.772   4.314  0.1402 -0.2020  0.5132
 5095SOL    HW126744   0.862   1.806   4.394  0.5409 -0.7969  0.9708
 5095SOL    HW226745   0.835   1.743   4.252 -0.1220  3.9355 -1.1408
 5096SOL     OW26746   0.024   0.584   7.420 -0.0650 -0.0205  0.5382
 5096SOL    HW126747   4.666   0.597   7.368  1.3117  3.2110 -0.7467
 5096SOL    HW226748   0.051   0.674   7.437 -1.8072  0.3196  1.5113
 5097SOL     OW26749   0.320   2.056  14.609 -0.1804 -0.2669 -0.8806
 5097SOL    HW126750   0.306   2.140  14.651  0.3673 -1.3302  1.4281
 5097SOL    HW226751   0.230   2.028  14.596 -1.0079  1.5795  0.9686
 5098SOL     OW26752   0.142   2.436   9.638  0.7476  0.3064  0.1978
 5098SOL    HW126753   0.128   2.370   9.570  0.5891 -0.4308  0.9529
 5098SOL    HW226754   0.159   2.382   9.715  1.3119  3.1621  2.0706
 5099SOL     OW26755   0.356   4.138   5.754  0.2215 -0.1923  0.3830
 5099SOL    HW126756   0.271   4.139   5.710  0.2978 -3.1057  0.1345
 5099SOL    HW226757   0.411   4.096   5.687 -0.9516 -3.0310  1.2160
 5100SOL     OW26758   0.396   2.185   2.354 -1.1120 -0.0368  0.6452
 5100SOL    HW126759   0.366   2.126   2.423  1.0448 -0.9983  0.7724
 5100SOL    HW226760   0.307   2.205   2.325 -0.5687  1.6598  0.1716
 5101SOL     OW26761   0.646   3.259  12.585 -0.3403 -0.0259  0.2744
 5101SOL    HW126762   0.666   3.247  12.678 -0.2999 -0.3569  0.2217
 5101SOL    HW226763   0.730   3.239  12.543 -0.1362 -0.7515  1.0262
 5102SOL     OW26764   4.281   2.077   8.295 -0.2141 -0.1814 -0.0959
 5102SOL    HW126765   4.297   2.165   8.329 -3.2321 -0.0166  0.9343
 5102SOL    HW226766   4.247   2.096   8.207  0.5354  0.5037 -0.2321
 5103SOL     OW26767   4.091   2.732  12.640  0.8379 -0.0428  0.5699
 5103SOL    HW126768   4.049   2.674  12.576 -0.4110 -0.3383  1.6431
 5103SOL    HW226769   4.040   2.711  12.718 -0.1545  0.6263  0.1006
 5104SOL     OW26770   1.999   3.375   5.573  0.7584 -0.3537  0.1490
 5104SOL    HW126771   2.069   3.325   5.615 -0.5216 -0.6393  1.9420
 5104SOL    HW226772   1.976   3.437   5.642  0.1079 -0.9615  0.4816
 5105SOL     OW26773   4.159   0.866   5.433  0.7690  0.2556  0.4076
 5105SOL    HW126774   4.163   0.840   5.341  0.1580 -0.9779  0.7277
 5105SOL    HW226775   4.224   0.936   5.428 -0.6558  1.5673 -0.1605
 5106SOL     OW26776   0.960   3.932  12.046 -0.0958 -0.0812 -0.1204
 5106SOL    HW126777   1.034   3.984  12.075  0.4031 -1.3373  0.8562
 5106SOL    HW226778   0.880   3.965  12.086  1.0190  0.7080  1.4340
 5107SOL     OW26779   1.091   0.790   1.389  0.0624  0.0809 -0.3620
 5107SOL    HW126780   1.134   0.715   1.347 -0.1605 -0.5518  0.5347
 5107SOL    HW226781   1.162   0.850   1.413  1.3064 -1.1441 -0.9932
 5108SOL     OW26782   0.933   3.626   9.540 -0.0007  0.4346 -0.2462
 5108SOL    HW126783   0.914   3.696   9.478 -0.2636 -0.2208 -0.8934
 5108SOL    HW226784   0.929   3.673   9.624  1.3160 -3.5822  2.0645
 5109SOL     OW26785   2.082   3.168  17.532  0.4292  0.4843 -0.1876
 5109SOL    HW126786   2.051   3.121  17.455  1.9489 -2.1562  0.8047
 5109SOL    HW226787   2.107   3.250  17.488 -2.0284  1.8872  0.9980
 5110SOL     OW26788   3.638   3.311  16.179  0.1334 -0.3529  0.2292
 5110SOL    HW126789   3.662   3.311  16.272  0.4940  1.6220  0.1218
 5110SOL    HW226790   3.715   3.273  16.136  0.3472  1.1079 -0.6614
 5111SOL     OW26791   1.017   1.322  10.317  0.7661  0.2139  0.2201
 5111SOL    HW126792   0.951   1.253  10.317  1.4580 -0.4501  0.7694
 5111SOL    HW226793   1.097   1.277  10.342  0.1679 -1.4833 -0.8853
 5112SOL     OW26794   2.222   0.418   9.137 -0.4125  0.4128  0.2580
 5112SOL    HW126795   2.216   0.485   9.069  0.8278 -0.7388 -0.9867
 5112SOL    HW226796   2.150   0.360   9.114 -0.3588 -0.2692  1.8121
 5113SOL     OW26797   2.095   0.923   8.091  0.3303 -0.1777  0.2906
 5113SOL    HW126798   2.007   0.948   8.062  0.1285  0.8934  1.8439
 5113SOL    HW226799   2.139   1.003   8.121 -0.3290  0.2920  0.0062
 5114SOL     OW26800   2.191   2.668   7.631 -0.3325 -0.7434  0.1748
 5114SOL    HW126801   2.234   2.753   7.625 -1.2683 -0.0533  3.4126
 5114SOL    HW226802   2.101   2.699   7.621 -0.2618 -1.0566 -1.4460
 5115SOL     OW26803   0.235   3.999   3.112 -0.2943  0.0152 -0.5151
 5115SOL    HW126804   0.264   4.063   3.177 -1.1792  0.1153 -0.2206
 5115SOL    HW226805   0.171   4.059   3.074 -0.0254  0.1868 -0.7005
 5116SOL     OW26806   1.933   3.998   1.387 -0.0002 -0.0991 -0.2051
 5116SOL    HW126807   1.921   4.072   1.446 -0.2758  0.5138 -1.0192
 5116SOL    HW226808   2.024   3.993   1.416  0.3833 -0.7407 -1.5039
 5117SOL     OW26809   1.875   2.995   2.733  0.0565  0.2203  0.2455
 5117SOL    HW126810   1.956   2.974   2.779  0.7152  3.4731  0.5245
 5117SOL    HW226811   1.906   3.009   2.644 -1.1227 -0.2219 -0.2407
 5118SOL     OW26812   2.379   3.523   1.069  0.3640  0.3300  0.1815
 5118SOL    HW126813   2.334   3.594   1.022 -1.5586 -1.8766 -1.2812
 5118SOL    HW226814   2.388   3.454   1.004  0.8439  0.3235  0.2589
 5119SOL     OW26815   1.865   3.293   7.954  0.0860  0.6802 -0.2540
 5119SOL    HW126816   1.790   3.309   7.897 -0.6689 -1.2666  0.2156
 5119SOL    HW226817   1.900   3.222   7.900 -0.8265  0.2206 -0.2418
 5120SOL     OW26818   0.638   2.055   7.309  0.0245  0.2869 -0.1526
 5120SOL    HW126819   0.550   2.050   7.347 -0.0395  1.3780 -0.1623
 5120SOL    HW226820   0.683   2.121   7.362  1.0235 -1.2040  0.8748
 5121SOL     OW26821   1.273   2.762   4.845 -0.6181 -0.1496 -0.0040
 5121SOL    HW126822   1.203   2.824   4.865 -1.5130 -0.5717 -1.9438
 5121SOL    HW226823   1.228   2.684   4.814 -0.5637  0.6044 -1.9890
 5122SOL     OW26824   3.930   1.030   7.684  0.1109  0.1624 -0.2742
 5122SOL    HW126825   4.008   0.994   7.726 -1.3164 -2.4856  0.1547
 5122SOL    HW226826   3.862   0.962   7.685 -1.2199  1.5183  1.2911
 5123SOL     OW26827   1.265   2.187  10.577  0.0831 -0.3065  0.5335
 5123SOL    HW126828   1.243   2.129  10.650 -0.1087 -0.0642  0.6704
 5123SOL    HW226829   1.357   2.166  10.560  0.7233  0.3537  3.0806
 5124SOL     OW26830   1.328   1.647   7.975 -0.2564  0.5090  0.0721
 5124SOL    HW126831   1.405   1.663   7.921 -1.2341  1.3223 -1.0800
 5124SOL    HW226832   1.359   1.684   8.057  1.0068 -0.7720  0.1672
 5125SOL     OW26833   3.810   1.923  17.155  0.2380 -0.1796  0.1040
 5125SOL    HW126834   3.891   1.927  17.206  0.5122 -0.3428 -0.3237
 5125SOL    HW226835   3.777   2.011  17.172 -0.7772 -0.5003 -0.2143
 5126SOL     OW26836   4.412   3.743  17.681 -0.1561  0.1774 -0.6354
 5126SOL    HW126837   4.441   3.743   0.084 -0.4116  0.2106 -0.5527
 5126SOL    HW226838   4.417   3.650  17.660 -1.7588  0.5238 -2.5371
 5127SOL     OW26839   0.726   0.117  17.042 -0.2188  0.7615  0.3809
 5127SOL    HW126840   0.632   0.124  17.023  0.0131  5.2198  0.6832
 5127SOL    HW226841   0.738   0.200  17.089  3.6025 -0.4744  1.5884
 5128SOL     OW26842   3.164   4.049   7.704  0.5282 -0.3440  0.0910
 5128SOL    HW126843   3.116   3.987   7.650  1.2905 -0.3874 -0.5373
 5128SOL    HW226844   3.180   4.117   7.639  1.2681 -0.1694  0.4452
 5129SOL     OW26845   3.827   1.787   4.526  0.3023  0.4434  0.1893
 5129SOL    HW126846   3.914   1.811   4.556 -0.0199 -1.8350  2.9325
 5129SOL    HW226847   3.804   1.698   4.552 -0.0906  0.2776 -0.7001
 5130SOL     OW26848   4.717   3.473   1.945  0.2136  0.3039 -0.3803
 5130SOL    HW126849   0.057   3.461   2.017 -2.2562  0.2145  1.6896
 5130SOL    HW226850   0.032   3.410   1.881 -0.5076 -0.0269 -0.4626
 5131SOL     OW26851   4.394   3.315  10.229 -0.4098  0.5167 -0.1191
 5131SOL    HW126852   4.341   3.293  10.306 -0.2071  2.2233  0.5179
 5131SOL    HW226853   4.481   3.294  10.262 -0.0953  0.7427 -0.8045
 5132SOL     OW26854   3.282   4.678   8.981  0.3616  0.5271  0.0515
 5132SOL    HW126855   3.323   4.682   8.895  1.7381 -1.6060  0.6332
 5132SOL    HW226856   3.276   4.586   9.006 -1.5198  0.1912 -1.6262
 5133SOL     OW26857   0.678   2.166   5.635  0.0879 -0.3911 -0.0067
 5133SOL    HW126858   0.599   2.215   5.657 -1.0583 -0.8734 -3.0364
 5133SOL    HW226859   0.641   2.079   5.627  1.1351 -0.8454  0.0684
 5134SOL     OW26860   1.997   0.232   9.045  0.7429 -0.0020 -0.6610
 5134SOL    HW126861   1.960   0.229   8.957 -2.1916 -1.2997  0.6075
 5134SOL    HW226862   1.922   0.238   9.104  1.9447 -1.5325  1.0299
 5135SOL     OW26863   4.292   0.955   7.092  0.4402 -0.2993 -0.4891
 5135SOL    HW126864   4.220   1.013   7.068 -1.7430 -3.3174 -1.2632
 5135SOL    HW226865   4.355   0.980   7.025  0.9558 -1.5809 -0.4964
 5136SOL     OW26866   2.080   1.372  13.316 -0.6389 -0.0832 -0.7376
 5136SOL    HW126867   2.039   1.417  13.242 -1.2731  0.4248 -0.0838
 5136SOL    HW226868   2.109   1.290  13.276  1.3697 -0.2160  1.0477
 5137SOL     OW26869   4.642   0.696  17.142 -0.4864  0.0069  0.4805
 5137SOL    HW126870   4.579   0.767  17.128  1.6643  1.7572 -0.3215
 5137SOL    HW226871   4.650   0.657  17.054 -1.4908  1.7531 -0.3776
 5138SOL     OW26872   1.989   3.660  14.260  0.0925 -0.1917  0.0744
 5138SOL    HW126873   1.928   3.727  14.230 -0.8066 -1.7606 -1.5918
 5138SOL    HW226874   2.068   3.701  14.225 -0.2639 -0.2522 -0.7875
 5139SOL     OW26875   0.614   2.117   7.027  0.2142 -0.7822 -0.6500
 5139SOL    HW126876   0.695   2.074   7.000  1.0129  1.4629 -1.9056
 5139SOL    HW226877   0.617   2.092   7.120 -0.3353 -0.8515 -0.6545
 5140SOL     OW26878   4.696   4.115   2.840  0.4299 -0.0497  0.4759
 5140SOL    HW126879   4.644   4.195   2.849  0.7622  0.1045  1.0444
 5140SOL    HW226880   4.663   4.052   2.905  1.8091 -0.1991  1.0330
 5141SOL     OW26881   1.764   0.524   6.918  0.1121  0.3697  0.1209
 5141SOL    HW126882   1.742   0.579   6.993  0.8069 -1.4135  1.6452
 5141SOL    HW226883   1.859   0.528   6.925  0.1442 -2.6856  1.5535
 5142SOL     OW26884   2.358   2.179   1.470  0.7986 -0.0596 -0.3980
 5142SOL    HW126885   2.382   2.203   1.381 -0.2091 -2.0133 -1.2018
 5142SOL    HW226886   2.436   2.199   1.523  0.6147  0.9626 -0.5212
 5143SOL     OW26887   4.099   3.838   3.165 -0.0867 -0.0968  0.2707
 5143SOL    HW126888   4.008   3.861   3.183  1.2250  2.7587  3.2447
 5143SOL    HW226889   4.106   3.752   3.207  3.5092  0.4752  0.7833
 5144SOL     OW26890   1.595   3.100  10.093 -0.0625 -0.0667  0.0094
 5144SOL    HW126891   1.680   3.057  10.103 -0.9221 -1.7535  0.0477
 5144SOL    HW226892   1.621   3.176  10.041  0.2642  0.1770  0.5336
 5145SOL     OW26893   1.847   0.987   4.287  0.2287 -0.3739 -0.4231
 5145SOL    HW126894   1.917   0.943   4.240  0.5323 -0.3714  0.0321
 5145SOL    HW226895   1.773   0.939   4.250  0.4174  0.7904 -2.3265
 5146SOL     OW26896   0.693   0.227   9.619 -0.5394  0.1503 -0.1451
 5146SOL    HW126897   0.712   0.290   9.548  0.0207  0.9017  0.6706
 5146SOL    HW226898   0.710   0.298   9.681  1.1845 -1.3044  1.0626
 5147SOL     OW26899   2.694   3.638   7.969 -0.4012  0.6049 -0.2176
 5147SOL    HW126900   2.679   3.603   8.057  1.4297  1.3571  0.3937
 5147SOL    HW226901   2.614   3.603   7.930 -2.1026  1.6469  2.3070
 5148SOL     OW26902   1.941   3.603   4.430 -0.0933  0.1232  0.4715
 5148SOL    HW126903   1.968   3.573   4.343  0.4703 -0.8068  0.9706
 5148SOL    HW226904   1.913   3.690   4.403 -0.4561 -0.4438 -0.9771
 5149SOL     OW26905   0.397   2.103  12.966 -0.0402 -0.2189 -0.0573
 5149SOL    HW126906   0.405   2.018  12.923 -1.9149 -0.5298  0.2148
 5149SOL    HW226907   0.473   2.148  12.928  0.0621 -0.4488 -0.1257
 5150SOL     OW26908   4.061   3.472   3.139 -0.1764  0.3525  0.2508
 5150SOL    HW126909   4.122   3.399   3.133  0.4895  0.7914  1.6536
 5150SOL    HW226910   3.980   3.422   3.132  1.6633 -2.2561 -2.0647
 5151SOL     OW26911   2.270   1.819   8.017 -0.3246 -0.0217 -0.1103
 5151SOL    HW126912   2.263   1.738   7.966  1.5023  0.6029 -1.3514
 5151SOL    HW226913   2.204   1.875   7.976 -0.3393 -0.5035 -0.7486
 5152SOL     OW26914   1.879   1.246   7.472 -0.2760  0.2726  0.5921
 5152SOL    HW126915   1.928   1.303   7.530 -1.5691  0.2553  1.6960
 5152SOL    HW226916   1.926   1.255   7.389  0.5984 -1.2034  0.9242
 5153SOL     OW26917   4.110   1.884  14.845  0.3062  0.4858  0.6534
 5153SOL    HW126918   4.109   1.869  14.751  1.9775 -0.6632  0.8127
 5153SOL    HW226919   4.018   1.869  14.867 -0.0080  1.9275  0.2987
 5154SOL     OW26920   1.624   0.093  10.542 -0.1256  0.1638 -0.4939
 5154SOL    HW126921   1.529   0.085  10.558 -0.3178  1.5531 -0.9562
 5154SOL    HW226922   1.621   0.127  10.453  1.3681  1.7725  0.0848
 5155SOL     OW26923   0.527   1.521   1.542 -0.1732  0.5355  0.7031
 5155SOL    HW126924   0.557   1.472   1.619  0.4902  0.4077  0.3563
 5155SOL    HW226925   0.435   1.498   1.529 -0.4471  1.4631  1.0395
 5156SOL     OW26926   3.540   0.391  14.280  0.2149  1.0825  0.5617
 5156SOL    HW126927   3.592   0.314  14.259 -0.6993  0.1184  1.8098
 5156SOL    HW226928   3.511   0.375  14.370  1.0145 -0.9168  0.4500
 5157SOL     OW26929   0.124   3.328   9.017  0.3341  0.0086 -0.3828
 5157SOL    HW126930   0.034   3.316   9.045 -0.2830  1.5969 -1.6657
 5157SOL    HW226931   0.162   3.333   9.105 -1.9308 -3.0512  0.7538
 5158SOL     OW26932   0.951   1.141   1.109  0.3079 -0.2279  0.5204
 5158SOL    HW126933   0.983   1.196   1.181  1.1220  0.4635 -0.3750
 5158SOL    HW226934   0.943   1.202   1.036  0.9964  0.7807  1.2794
 5159SOL     OW26935   1.205   3.065  11.098  0.4355 -0.6614 -1.0052
 5159SOL    HW126936   1.172   3.107  11.177 -0.0906  1.6120 -2.4375
 5159SOL    HW226937   1.144   3.107  11.037  0.3181 -0.9703 -1.1034
 5160SOL     OW26938   1.497   2.388   8.827 -0.2049  0.1432  0.0986
 5160SOL    HW126939   1.536   2.354   8.746  0.4270  1.1671 -0.0292
 5160SOL    HW226940   1.545   2.471   8.827 -1.3220  0.7849 -0.5943
 5161SOL     OW26941   3.576   4.614   9.605  0.0359  0.6222  0.1293
 5161SOL    HW126942   3.494   4.659   9.621  0.8794  2.2321 -0.0958
 5161SOL    HW226943   3.559   4.546   9.671  2.2880 -1.2919 -1.2470
 5162SOL     OW26944   1.595   0.007   3.571  0.4488 -0.2652 -0.0472
 5162SOL    HW126945   1.551   4.714   3.488 -0.2775  0.0117  0.2876
 5162SOL    HW226946   1.591   4.641   3.610  1.4941 -0.2151  0.1625
 5163SOL     OW26947   4.409   1.968   5.409 -0.2464  0.2684 -0.3195
 5163SOL    HW126948   4.379   1.968   5.318 -1.0848 -1.5073 -0.0399
 5163SOL    HW226949   4.466   2.045   5.402  0.3504 -0.0993  0.4777
 5164SOL     OW26950   2.183   0.252  12.563  0.6090  0.0019  0.3915
 5164SOL    HW126951   2.146   0.332  12.527  1.0948 -0.3416 -0.8718
 5164SOL    HW226952   2.203   0.213  12.478 -1.0341 -0.0307  0.0156
 5165SOL     OW26953   3.073   2.902   7.915 -0.1981  0.3046  0.1400
 5165SOL    HW126954   3.041   2.969   7.854  1.8223  0.6427 -0.5446
 5165SOL    HW226955   3.085   2.961   7.990 -1.3568 -1.8842  2.0596
 5166SOL     OW26956   2.874   2.416  13.879 -0.1047 -0.2419 -0.1377
 5166SOL    HW126957   2.823   2.426  13.798  1.5330 -3.0325 -1.5147
 5166SOL    HW226958   2.818   2.461  13.942  3.6737  1.7795  1.7662
 5167SOL     OW26959   0.834   2.733  15.523  0.0185  0.1173  0.2959
 5167SOL    HW126960   0.741   2.747  15.504  0.5697  1.8293 -1.1584
 5167SOL    HW226961   0.864   2.819  15.492 -0.4950 -0.0025 -0.5470
 5168SOL     OW26962   2.889   2.785   3.582  0.3365  0.2702 -0.6263
 5168SOL    HW126963   2.907   2.845   3.510 -0.4849  0.2308 -0.8607
 5168SOL    HW226964   2.930   2.705   3.550  1.0418  1.6327 -3.0966
 5169SOL     OW26965   2.664   4.064   8.656  0.0432 -0.4116 -0.7560
 5169SOL    HW126966   2.607   4.140   8.642  0.8087  0.5628  1.4035
 5169SOL    HW226967   2.614   4.004   8.710 -0.6438 -0.0669 -1.0162
 5170SOL     OW26968   0.647   2.342   6.297 -0.4538 -0.0207  0.4743
 5170SOL    HW126969   0.682   2.261   6.333  2.6347  1.4185  0.6749
 5170SOL    HW226970   0.633   2.316   6.206  2.5355  1.7187 -0.4910
 5171SOL     OW26971   3.200   3.454   7.573 -0.3728 -0.7174 -0.0571
 5171SOL    HW126972   3.128   3.412   7.525 -0.6694 -0.1817 -0.0729
 5171SOL    HW226973   3.205   3.537   7.526 -0.8152 -0.8314 -0.3071
 5172SOL     OW26974   3.318   1.541   3.763 -0.4627 -0.6354  0.2894
 5172SOL    HW126975   3.401   1.494   3.768 -0.3676 -0.3945  0.9766
 5172SOL    HW226976   3.304   1.544   3.668  1.8008 -2.5386 -0.0952
 5173SOL     OW26977   3.820   4.306  15.459  0.4225 -0.3174  0.1652
 5173SOL    HW126978   3.836   4.337  15.548 -0.0585 -1.0708  0.5162
 5173SOL    HW226979   3.732   4.269  15.463 -0.0884  0.6450 -2.5094
 5174SOL     OW26980   3.625   3.309  14.842  0.4727  0.1701 -0.3197
 5174SOL    HW126981   3.717   3.285  14.841  0.0705 -1.4821  2.1743
 5174SOL    HW226982   3.591   3.242  14.783  2.0547 -1.3189  0.4588
 5175SOL     OW26983   2.835   0.453   4.383 -0.4401 -0.2338 -0.6070
 5175SOL    HW126984   2.811   0.545   4.372 -1.1809 -0.5480 -1.5737
 5175SOL    HW226985   2.915   0.460   4.436 -0.5369 -0.3542 -0.4489
 5176SOL     OW26986   3.183   1.508   7.736  0.4368  0.2309  0.1022
 5176SOL    HW126987   3.255   1.470   7.685  1.3810  0.0327  1.5800
 5176SOL    HW226988   3.210   1.595   7.765 -0.5498  0.6081 -0.1029
 5177SOL     OW26989   3.314   4.452  15.736 -0.0759 -0.4206  0.2860
 5177SOL    HW126990   3.244   4.500  15.692  0.2029 -0.0069  0.2981
 5177SOL    HW226991   3.312   4.377  15.676  1.0261  1.6919 -2.3938
 5178SOL     OW26992   0.267   3.314   1.737 -0.2488 -0.4630 -0.9258
 5178SOL    HW126993   0.195   3.259   1.766  0.2311 -0.9587 -0.6613
 5178SOL    HW226994   0.339   3.271   1.783  0.0852  1.1543  0.0706
 5179SOL     OW26995   1.298   3.499   4.940 -0.0561 -0.6133  0.8041
 5179SOL    HW126996   1.229   3.540   4.889  0.6959 -1.8638 -1.2300
 5179SOL    HW226997   1.258   3.417   4.969 -0.6397 -0.0510  1.5993
 5180SOL     OW26998   3.024   2.180  14.419  0.6012 -0.3902 -1.0477
 5180SOL    HW126999   3.028   2.218  14.331  0.7756 -0.0328 -0.8886
 5180SOL    HW227000   3.052   2.091  14.401  1.9708 -0.5984  2.0890
 5181SOL     OW27001   2.030   0.517   6.961 -0.2267  0.0458 -0.2559
 5181SOL    HW127002   2.015   0.494   7.052 -0.8081 -3.5576 -1.2899
 5181SOL    HW227003   2.045   0.612   6.969  0.1123 -0.1617  1.6683
 5182SOL     OW27004   3.600   2.126   0.186 -0.3919  0.7648 -0.2102
 5182SOL    HW127005   3.507   2.134   0.204 -0.6731  0.6447 -1.5596
 5182SOL    HW227006   3.616   2.035   0.209  0.8699  0.6333 -1.5779
 5183SOL     OW27007   4.090   1.552  14.108 -0.0792 -0.2262  0.2658
 5183SOL    HW127008   4.017   1.613  14.118  1.7710  2.0612  0.0157
 5183SOL    HW227009   4.136   1.549  14.192 -1.8494  0.3735  1.2690
 5184SOL     OW27010   4.669   4.235  16.849 -0.2769  0.1346  0.2673
 5184SOL    HW127011   4.658   4.246  16.755  1.6944  1.7673  0.2324
 5184SOL    HW227012   0.042   4.223  16.858 -0.8609 -2.9046  2.4239
 5185SOL     OW27013   0.869   4.708  10.182  0.0804 -0.0403 -0.4890
 5185SOL    HW127014   0.834   4.651  10.250 -0.0597 -2.1663 -2.3418
 5185SOL    HW227015   0.963   4.711  10.202  0.3743 -0.7661 -1.7422
 5186SOL     OW27016   0.376   1.992   6.935 -0.3794  0.2620 -0.3506
 5186SOL    HW127017   0.454   2.036   6.968 -0.2328 -0.9269  0.8916
 5186SOL    HW227018   0.398   1.971   6.844 -2.6031  0.7406 -1.0170
 5187SOL     OW27019   2.809   0.224  14.718  0.0024  0.1319  0.6439
 5187SOL    HW127020   2.763   0.177  14.787  1.5299 -2.5156 -0.1278
 5187SOL    HW227021   2.749   0.226  14.644  1.8894  2.3380 -0.8396
 5188SOL     OW27022   1.145   1.593   2.525 -0.7900 -0.3471 -0.2270
 5188SOL    HW127023   1.120   1.504   2.501  1.8600 -0.5250 -2.2797
 5188SOL    HW227024   1.217   1.579   2.587 -2.7599 -1.1177  1.8991
 5189SOL     OW27025   2.386   4.512   6.499  0.4237 -0.3578 -0.2692
 5189SOL    HW127026   2.320   4.446   6.518 -0.1908  1.2563  3.1780
 5189SOL    HW227027   2.380   4.531   6.406  0.1299  1.2149  0.0651
 5190SOL     OW27028   0.128   2.646  15.309  0.7719  0.4875 -0.2128
 5190SOL    HW127029   0.056   2.604  15.356  0.4126  1.9575  0.5457
 5190SOL    HW227030   0.102   2.633  15.218 -3.7693 -0.0408  1.1807
 5191SOL     OW27031   4.589   3.568   9.644  0.1183 -0.1171 -0.1119
 5191SOL    HW127032   4.641   3.648   9.652  1.4040 -0.9594 -0.0633
 5191SOL    HW227033   4.564   3.556   9.736  2.0891 -1.0588  0.2928
 5192SOL     OW27034   2.307   1.269   2.178 -0.5956  0.8440  0.3209
 5192SOL    HW127035   2.344   1.326   2.111  1.4182 -2.1043 -1.0784
 5192SOL    HW227036   2.218   1.304   2.177 -0.5838  0.8767  0.3930
 5193SOL     OW27037   0.102   2.825   3.655 -0.5612  0.1392 -0.6397
 5193SOL    HW127038   0.116   2.731   3.647 -0.1840  0.1071  0.4114
 5193SOL    HW227039   0.120   2.844   3.747  2.2087 -2.8006 -0.5837
 5194SOL     OW27040   1.873   2.768   8.496  0.4111  0.2751 -0.5429
 5194SOL    HW127041   1.852   2.703   8.429  0.3299 -0.9952  0.7089
 5194SOL    HW227042   1.807   2.832   8.469 -0.6485 -0.9676 -0.8991
 5195SOL     OW27043   4.620   0.607   2.551  0.1393  0.1021 -0.3754
 5195SOL    HW127044   4.700   0.604   2.603  0.2490  2.2541 -0.4166
 5195SOL    HW227045   4.631   0.673   2.483  0.5787  0.0194 -0.3836
 5196SOL     OW27046   2.521   2.355   4.125 -0.3469 -0.1324 -0.3126
 5196SOL    HW127047   2.454   2.330   4.062 -0.8780 -1.0448  0.6180
 5196SOL    HW227048   2.468   2.402   4.190  1.0265  1.6868 -0.5119
 5197SOL     OW27049   3.035   4.493   5.965 -0.1923  0.5491 -1.1364
 5197SOL    HW127050   3.061   4.404   5.941 -1.1529 -0.1864  0.5504
 5197SOL    HW227051   3.043   4.548   5.888 -0.2719 -0.7684 -2.0886
 5198SOL     OW27052   1.839   0.697   6.291  0.6160 -1.0748 -0.1167
 5198SOL    HW127053   1.917   0.750   6.307  1.2726 -2.1145  0.1370
 5198SOL    HW227054   1.770   0.751   6.330  1.4210 -1.2175  1.5085
 5199SOL     OW27055   0.784   1.843   2.474 -0.0963 -0.1673 -0.7818
 5199SOL    HW127056   0.850   1.851   2.404 -0.7623 -1.1021 -1.5062
 5199SOL    HW227057   0.741   1.762   2.449 -0.8693 -1.0870  3.5607
 5200SOL     OW27058   1.486   4.141  11.960 -0.3699  0.2343  0.3275
 5200SOL    HW127059   1.546   4.182  11.898 -1.1779  1.1498  0.1522
 5200SOL    HW227060   1.447   4.075  11.903 -1.2414  0.6237  0.4768
 5201SOL     OW27061   3.468   3.702   9.071  0.6149 -0.4895 -0.4688
 5201SOL    HW127062   3.376   3.683   9.090  1.3058 -2.2316  1.0691
 5201SOL    HW227063   3.490   3.783   9.117 -0.7262  0.0203 -0.7181
 5202SOL     OW27064   3.019   4.117   4.151  0.4322  0.2604 -0.7787
 5202SOL    HW127065   2.958   4.074   4.209 -1.5891 -0.7744 -3.6562
 5202SOL    HW227066   2.994   4.083   4.065 -0.9989  2.3551 -1.2048
 5203SOL     OW27067   1.563   1.844   3.086 -0.0400  0.2936  0.6632
 5203SOL    HW127068   1.555   1.749   3.099 -0.5367  0.5011  1.8885
 5203SOL    HW227069   1.637   1.854   3.026 -1.8522  0.6380 -1.5351
 5204SOL     OW27070   0.794   4.327   6.496  0.7670  0.3336  0.2257
 5204SOL    HW127071   0.823   4.286   6.414  1.1379  1.7946 -0.3743
 5204SOL    HW227072   0.872   4.331   6.552  0.3403  0.5755  0.8004
 5205SOL     OW27073   1.824   1.209   0.823 -0.2171  0.2546 -0.4110
 5205SOL    HW127074   1.879   1.149   0.874  1.2229  3.1173  1.3677
 5205SOL    HW227075   1.891   1.256   0.773 -2.1589  1.0211 -2.2517
 5206SOL     OW27076   1.855   4.244   9.175  0.3677  0.1687  0.0489
 5206SOL    HW127077   1.808   4.219   9.254 -2.4475 -1.5719 -2.1878
 5206SOL    HW227078   1.938   4.199   9.190  0.7960  0.7193 -0.6567
 5207SOL     OW27079   4.700   0.477   0.788 -0.1402  0.4373 -0.3738
 5207SOL    HW127080   0.073   0.463   0.793 -0.4548 -1.2692  0.6328
 5207SOL    HW227081   4.675   0.476   0.881  3.3441 -1.9586  0.5237
 5208SOL     OW27082   4.375   2.914   6.496 -0.6063 -0.4651  0.2054
 5208SOL    HW127083   4.432   2.965   6.554 -2.5366 -0.1640  1.8352
 5208SOL    HW227084   4.438   2.862   6.446 -0.6337 -1.9681  1.7152
 5209SOL     OW27085   0.795   2.000   8.991 -0.6607  0.3729  0.9230
 5209SOL    HW127086   0.810   2.025   8.900  0.6700 -2.4318  0.3867
 5209SOL    HW227087   0.700   1.999   8.995 -0.8220 -0.4554 -3.4065
 5210SOL     OW27088   2.443   3.408  16.458  0.2333 -0.1989 -0.0210
 5210SOL    HW127089   2.449   3.501  16.477 -2.7531  0.4277 -2.1146
 5210SOL    HW227090   2.473   3.397  16.368  1.5174  2.7860  0.0349
 5211SOL     OW27091   4.308   3.771  15.396 -0.6349 -0.2133  0.1768
 5211SOL    HW127092   4.333   3.838  15.332 -0.0217 -0.5860  0.0256
 5211SOL    HW227093   4.265   3.705  15.342 -1.1780 -2.3110  3.1464
 5212SOL     OW27094   2.048   2.602   0.376 -0.3760  0.4617 -0.2770
 5212SOL    HW127095   1.991   2.538   0.333 -1.1051  2.0918 -1.7534
 5212SOL    HW227096   2.117   2.621   0.312 -1.4313  0.2953 -1.4791
 5213SOL     OW27097   2.074   4.347   9.603 -0.6960  0.2165  0.7642
 5213SOL    HW127098   2.011   4.395   9.549 -0.5800  0.3304  0.7287
 5213SOL    HW227099   2.021   4.318   9.677  1.1849 -0.5844  1.7908
 5214SOL     OW27100   2.480   1.173  13.376  0.4061 -0.4188 -0.1293
 5214SOL    HW127101   2.455   1.147  13.465 -0.2746  0.5343 -0.0335
 5214SOL    HW227102   2.398   1.178  13.327 -0.8313 -2.8942  1.6562
 5215SOL     OW27103   0.020   4.192  13.210  0.0971  0.4194 -0.3907
 5215SOL    HW127104   0.080   4.166  13.280 -0.6627  0.5501  0.3086
 5215SOL    HW227105   0.071   4.184  13.130  0.9648  0.3828  0.1599
 5216SOL     OW27106   2.364   4.467  15.526 -0.0457 -0.3625  0.2840
 5216SOL    HW127107   2.324   4.543  15.568  1.3291 -0.1272  1.1958
 5216SOL    HW227108   2.453   4.464  15.561 -0.3053 -2.1979  0.8130
 5217SOL     OW27109   1.047   0.440  15.824  0.2913 -0.1882  0.1313
 5217SOL    HW127110   1.085   0.366  15.777  0.7711  0.0419  0.1529
 5217SOL    HW227111   1.055   0.510  15.759 -2.0946  1.0376  1.1564
 5218SOL     OW27112   3.655   3.779  10.122 -0.6865 -0.1237 -0.8183
 5218SOL    HW127113   3.656   3.687  10.096  2.0364 -0.1721 -0.5834
 5218SOL    HW227114   3.709   3.777  10.202 -1.2653 -3.2976 -0.5147
 5219SOL     OW27115   2.716   3.824   0.528  0.2531  1.6704 -0.2912
 5219SOL    HW127116   2.682   3.741   0.495 -1.1972  1.9322  0.5426
 5219SOL    HW227117   2.804   3.797   0.553 -0.7780 -2.6784 -1.3453
 5220SOL     OW27118   1.783   3.392   3.845 -0.1198  0.3361 -0.2871
 5220SOL    HW127119   1.692   3.378   3.869 -0.4042 -0.0152 -1.6231
 5220SOL    HW227120   1.780   3.386   3.750 -2.0964 -1.9553 -0.0623
 5221SOL     OW27121   0.112   4.365   6.038  0.3151  0.1742 -0.0341
 5221SOL    HW127122   0.062   4.437   6.002 -1.0578  0.3090  2.1445
 5221SOL    HW227123   0.051   4.293   6.053  0.7742 -0.3366 -0.5911
 5222SOL     OW27124   4.656   2.635   5.999 -0.2631  0.6329 -0.1883
 5222SOL    HW127125   4.646   2.552   6.047  2.1607  1.0971  1.0963
 5222SOL    HW227126   4.567   2.667   6.011 -0.3498 -0.2204  1.4773
 5223SOL     OW27127   4.507   4.256  14.724 -0.1171  0.4093 -1.1508
 5223SOL    HW127128   4.564   4.330  14.704  1.0926  0.6194  3.1526
 5223SOL    HW227129   4.489   4.270  14.816 -0.6601  0.1971 -1.2234
 5224SOL     OW27130   1.122   0.004   7.402 -1.3298  0.9803  0.1010
 5224SOL    HW127131   1.161   0.080   7.444  0.3077 -0.5824  1.4100
 5224SOL    HW227132   1.056   4.694   7.465  1.9993 -2.3442  1.9313
 5225SOL     OW27133   0.348   3.946   2.869  0.4251  0.6623  0.0459
 5225SOL    HW127134   0.366   3.940   2.962  0.8428  0.6704 -0.0327
 5225SOL    HW227135   0.315   4.034   2.883  0.6324  0.5600  1.1854
 5226SOL     OW27136   4.538   1.019   1.478 -0.6112  0.6341  0.1765
 5226SOL    HW127137   4.548   1.074   1.400 -2.9624  0.8041  0.0091
 5226SOL    HW227138   4.630   0.996   1.493 -0.9073 -0.1151  0.8491
 5227SOL     OW27139   2.558   4.332  17.106  0.0508 -0.6472 -0.1080
 5227SOL    HW127140   2.622   4.376  17.051 -0.6698  1.7674  0.9620
 5227SOL    HW227141   2.556   4.406  17.167 -0.6977 -0.4131 -0.4120
 5228SOL     OW27142   1.039   2.938  11.999  0.3130 -0.2082 -0.1800
 5228SOL    HW127143   0.992   2.972  12.075  1.1971  0.5515  0.0258
 5228SOL    HW227144   0.994   2.980  11.926 -2.2775 -1.4308  0.6827
 5229SOL     OW27145   3.417   1.515   4.457  0.1216 -0.0071  0.6192
 5229SOL    HW127146   3.359   1.522   4.381  1.3744 -1.1116 -0.4359
 5229SOL    HW227147   3.466   1.435   4.438 -0.7805 -0.1071 -1.2015
 5230SOL     OW27148   0.254   1.256  13.942  0.1074 -0.1010 -0.5920
 5230SOL    HW127149   0.210   1.301  13.869  0.4057 -0.1228 -0.7837
 5230SOL    HW227150   0.238   1.170  13.903  0.4647 -0.4790  0.1009
 5231SOL     OW27151   2.349   0.973   7.186  0.3199 -0.1098 -0.3505
 5231SOL    HW127152   2.321   0.964   7.095 -1.7292  0.4073  0.2302
 5231SOL    HW227153   2.385   1.062   7.187  0.2890 -0.0706 -1.7184
 5232SOL     OW27154   3.188   2.570   3.115  0.1955  0.1090 -0.8626
 5232SOL    HW127155   3.281   2.578   3.092  0.3288  0.8532 -0.0608
 5232SOL    HW227156   3.204   2.483   3.151  1.6969 -0.2476 -2.3916
 5233SOL     OW27157   2.199   1.090   5.371 -0.5521 -0.1711 -0.4241
 5233SOL    HW127158   2.107   1.070   5.389 -0.3964  0.3512  0.9527
 5233SOL    HW227159   2.203   1.184   5.390 -0.7067 -0.0725 -0.8681
 5234SOL     OW27160   2.317   0.881   3.289 -0.4939 -0.1711  0.7290
 5234SOL    HW127161   2.313   0.852   3.380  0.5747 -1.7260  0.2903
 5234SOL    HW227162   2.402   0.844   3.262  0.0823  1.1092  0.7801
 5235SOL     OW27163   1.598   0.900   4.152 -0.1948 -0.7114 -0.4987
 5235SOL    HW127164   1.673   0.875   4.098  0.3034 -0.0311 -0.1113
 5235SOL    HW227165   1.596   0.838   4.224  3.0142  0.2891  0.4552
 5236SOL     OW27166   3.146   2.126  11.949  0.3588 -0.1108 -0.5390
 5236SOL    HW127167   3.096   2.133  12.030  0.5512 -0.5286 -0.3886
 5236SOL    HW227168   3.078   2.126  11.881  1.2989  0.6031 -1.4921
 5237SOL     OW27169   1.497   2.312   3.887  0.0535 -0.0568  0.0820
 5237SOL    HW127170   1.480   2.317   3.793 -0.9973 -0.8602  0.2372
 5237SOL    HW227171   1.479   2.402   3.914  3.1050  0.2771  1.0888
 5238SOL     OW27172   1.242   2.461   3.154  0.1819  0.2951  0.5275
 5238SOL    HW127173   1.178   2.433   3.220  0.9884 -0.0180  1.1807
 5238SOL    HW227174   1.235   2.556   3.160 -0.3126  0.4254 -2.1501
 5239SOL     OW27175   2.424   3.895   2.787 -0.4736  0.1048 -0.8661
 5239SOL    HW127176   2.361   3.950   2.834  0.1444 -1.7242  2.0995
 5239SOL    HW227177   2.412   3.808   2.825 -0.4903 -0.4334 -2.0890
 5240SOL     OW27178   2.567   2.379  14.619  0.4211  0.5703 -1.0395
 5240SOL    HW127179   2.593   2.402  14.709 -1.9555 -0.6542 -0.0387
 5240SOL    HW227180   2.645   2.328  14.597 -0.1782 -0.1053 -1.5919
 5241SOL     OW27181   0.622   0.552   4.565 -0.4161 -0.0829  0.4832
 5241SOL    HW127182   0.705   0.535   4.608  0.0785  0.3743 -0.2964
 5241SOL    HW227183   0.642   0.565   4.473 -0.5058 -1.7324  0.2371
 5242SOL     OW27184   1.595   4.482   3.203 -0.1033  0.8661  0.3195
 5242SOL    HW127185   1.514   4.526   3.227  0.5863  1.9471  0.6827
 5242SOL    HW227186   1.570   4.394   3.232 -0.4344  1.4163  1.6818
 5243SOL     OW27187   2.542   3.036   3.332  0.1827  0.0008 -0.3867
 5243SOL    HW127188   2.541   3.041   3.237  2.2172 -1.6348 -0.4913
 5243SOL    HW227189   2.600   3.105   3.365 -0.1404  0.4995 -0.8545
 5244SOL     OW27190   0.676   1.194   2.087 -0.0071 -0.6318  0.2730
 5244SOL    HW127191   0.701   1.133   2.018 -0.1236 -0.1591 -0.1884
 5244SOL    HW227192   0.696   1.280   2.049 -0.8300 -1.2257 -1.4970
 5245SOL     OW27193   1.482   2.537   5.397 -0.3134  0.0489  0.1312
 5245SOL    HW127194   1.516   2.461   5.350  0.4388 -0.3640  1.3402
 5245SOL    HW227195   1.390   2.513   5.405  0.0633 -1.4805 -0.0478
 5246SOL     OW27196   3.223   0.768   3.641  0.1364  0.1772 -0.1478
 5246SOL    HW127197   3.130   0.790   3.638 -0.5657 -2.6995 -0.1342
 5246SOL    HW227198   3.230   0.728   3.727  1.5373 -0.8122 -0.7325
 5247SOL     OW27199   2.599   3.470  14.936 -0.1785  0.0011 -0.1655
 5247SOL    HW127200   2.571   3.393  14.887  2.0487  0.5113 -2.2389
 5247SOL    HW227201   2.519   3.493  14.983 -1.4109 -3.3593 -0.6507
 5248SOL     OW27202   2.249   4.512   0.639 -0.3392 -0.4309 -0.1900
 5248SOL    HW127203   2.258   4.418   0.626 -0.8899 -0.6280  0.8962
 5248SOL    HW227204   2.311   4.533   0.709  0.8755 -0.5276 -1.2201
 5249SOL     OW27205   3.709   3.541   4.039 -0.4484 -0.5885 -0.2545
 5249SOL    HW127206   3.779   3.503   4.092 -0.7781  0.5120  0.9884
 5249SOL    HW227207   3.627   3.506   4.075 -1.7064  2.5714 -0.0309
 5250SOL     OW27208   1.764   4.093  10.023  0.0174  0.0010  0.4008
 5250SOL    HW127209   1.751   4.017   9.966  1.3661  1.1387 -1.4262
 5250SOL    HW227210   1.774   4.050  10.108 -1.3798 -1.8179 -0.3486
 5251SOL     OW27211   3.766   3.198   4.670 -0.5933  0.4427  0.2335
 5251SOL    HW127212   3.776   3.253   4.592 -2.3683  3.0322  1.8506
 5251SOL    HW227213   3.795   3.258   4.739  0.4691  0.7796 -0.5010
 5252SOL     OW27214   3.377   3.850   8.213  0.7805  0.3076  0.0082
 5252SOL    HW127215   3.376   3.765   8.169 -1.3110  1.4398 -2.1190
 5252SOL    HW227216   3.318   3.906   8.163 -0.9476 -0.7584  0.8397
 5253SOL     OW27217   0.444   4.634   5.990 -0.0510  0.1726  0.4136
 5253SOL    HW127218   0.373   4.651   6.052 -0.3365  2.2473 -0.4959
 5253SOL    HW227219   0.413   4.555   5.947  0.5337  0.7292 -1.0108
 5254SOL     OW27220   3.966   0.424  15.934  0.4302 -0.2553 -0.0385
 5254SOL    HW127221   3.938   0.444  16.023 -1.0632 -0.2543 -0.4984
 5254SOL    HW227222   3.979   0.514  15.903 -0.8775 -0.7108 -1.8998
 5255SOL     OW27223   3.807   4.529  17.339 -0.1737 -0.3642 -0.3698
 5255SOL    HW127224   3.769   4.534  17.426 -0.3291  0.8428 -0.5109
 5255SOL    HW227225   3.899   4.542  17.362 -0.1792  2.0432 -1.6623
 5256SOL     OW27226   0.153   0.271   7.997  0.7399  0.6634 -0.0173
 5256SOL    HW127227   0.182   0.306   7.913  1.4159 -2.8849 -1.2637
 5256SOL    HW227228   0.097   0.199   7.969  0.7361  0.4352  0.5807
 5257SOL     OW27229   2.313   1.205  16.794  0.1966 -0.0665  0.0095
 5257SOL    HW127230   2.259   1.178  16.869  0.5433 -0.7624  0.0064
 5257SOL    HW227231   2.318   1.121  16.748  0.5924 -0.9547  1.6776
 5258SOL     OW27232   3.695   0.905   7.729 -0.0039  0.4055  0.0928
 5258SOL    HW127233   3.609   0.864   7.737 -0.5616  1.3298 -1.0315
 5258SOL    HW227234   3.739   0.832   7.685 -1.6882 -0.6815  0.2172
 5259SOL     OW27235   2.819   0.259   7.919 -0.1221  0.8797  0.1697
 5259SOL    HW127236   2.843   0.256   7.827  2.1858  0.2524  0.7916
 5259SOL    HW227237   2.755   0.188   7.926 -1.4520  1.8312 -2.5467
 5260SOL     OW27238   3.524   4.517   3.858  0.3168  0.3919  0.4331
 5260SOL    HW127239   3.467   4.446   3.889 -1.1904  1.5819  0.3802
 5260SOL    HW227240   3.539   4.567   3.938  1.4007 -0.0872  0.5335
 5261SOL     OW27241   2.390   1.335   5.167  0.0100 -0.0851 -0.2225
 5261SOL    HW127242   2.441   1.342   5.247  0.7711  0.8031 -0.7800
 5261SOL    HW227243   2.462   1.327   5.105 -0.2566  3.7615 -1.0392
 5262SOL     OW27244   0.952   3.291   3.347 -0.3493 -0.7907  0.1828
 5262SOL    HW127245   0.891   3.365   3.339  1.1876  0.5031  0.4774
 5262SOL    HW227246   1.029   3.305   3.292 -0.5661  2.0040  0.5969
 5263SOL     OW27247   2.703   4.368   7.595 -0.1597 -0.2181  0.2039
 5263SOL    HW127248   2.679   4.329   7.679  2.3443  0.6404  1.3153
 5263SOL    HW227249   2.636   4.333   7.537 -0.6136  0.1802  0.4957
 5264SOL     OW27250   4.489   1.971  15.089  0.3517  0.0226  0.0643
 5264SOL    HW127251   4.460   2.014  15.170 -2.7081 -1.4117 -0.2794
 5264SOL    HW227252   4.569   2.023  15.075  0.4369 -0.7314 -2.2578
 5265SOL     OW27253   2.423   3.805   5.748  0.2566  0.6576  0.5231
 5265SOL    HW127254   2.391   3.884   5.792 -2.7359  0.6494 -1.6715
 5265SOL    HW227255   2.367   3.804   5.671 -0.6372 -0.5030  1.2031
 5266SOL     OW27256   2.558   1.365   4.675  0.7704 -0.9768  0.1376
 5266SOL    HW127257   2.494   1.325   4.615  0.6340 -2.1232  1.0657
 5266SOL    HW227258   2.507   1.442   4.700 -0.8083 -1.1590 -2.4862
 5267SOL     OW27259   3.843   3.880  16.396  0.2483  0.5238  0.8554
 5267SOL    HW127260   3.809   3.947  16.456  0.4063  0.7825  0.6526
 5267SOL    HW227261   3.861   3.805  16.453  1.8613  1.6852  1.8731
 5268SOL     OW27262   1.211   0.320   5.394  0.0257  0.6606 -0.7239
 5268SOL    HW127263   1.209   0.265   5.472 -0.5172 -0.3441 -1.4504
 5268SOL    HW227264   1.148   0.389   5.413 -0.3646  0.2798 -0.6555
 5269SOL     OW27265   0.983   3.000  12.335  0.0423  0.1679  0.3802
 5269SOL    HW127266   1.010   3.086  12.303  2.3536 -1.5517 -2.2787
 5269SOL    HW227267   0.937   3.033  12.413  0.6578  4.8896 -1.2552
 5270SOL     OW27268   3.754   1.415   7.713  0.0039  0.2182 -0.1935
 5270SOL    HW127269   3.844   1.402   7.683  1.4035  0.8024  3.7621
 5270SOL    HW227270   3.726   1.333   7.754 -1.3124  1.7576  2.0164
 5271SOL     OW27271   0.522   0.697   1.566  0.0540 -0.4591 -0.2374
 5271SOL    HW127272   0.612   0.707   1.536  0.7878 -0.3416  2.0014
 5271SOL    HW227273   0.540   0.702   1.660 -0.3135  1.0107 -0.2445
 5272SOL     OW27274   3.640   1.090  13.201  0.8015  0.4807  0.1326
 5272SOL    HW127275   3.690   1.073  13.121 -0.5937  0.9133 -0.8187
 5272SOL    HW227276   3.681   1.166  13.244  2.6903 -0.5370  0.1397
 5273SOL     OW27277   2.988   3.532   2.283  0.0710 -0.2879  0.1965
 5273SOL    HW127278   3.003   3.485   2.201  0.0947 -1.9047  1.1388
 5273SOL    HW227279   2.972   3.619   2.246 -0.0793 -0.5106 -0.2684
 5274SOL     OW27280   0.106   4.070   2.594  0.0485  0.1222 -0.4634
 5274SOL    HW127281   0.048   3.997   2.574 -1.0187  0.8229  0.0362
 5274SOL    HW227282   0.102   4.069   2.689 -0.2808  0.2633 -0.4745
 5275SOL     OW27283   4.031   2.415   1.118  0.0555  0.3128  1.0174
 5275SOL    HW127284   4.069   2.450   1.198 -0.7066  2.1840  0.5540
 5275SOL    HW227285   3.992   2.495   1.082 -3.6934 -2.5387 -1.2743
 5276SOL     OW27286   4.493   4.285  15.000 -0.0003  0.4031  0.0494
 5276SOL    HW127287   4.432   4.225  15.042 -0.6244 -0.0167 -1.4667
 5276SOL    HW227288   4.466   4.364  15.047 -2.6415 -0.9920  0.8951
 5277SOL     OW27289   4.639   1.463   7.811  0.0980 -0.0938  0.4233
 5277SOL    HW127290   4.660   1.439   7.901  0.2787 -1.5135  0.0075
 5277SOL    HW227291   4.696   1.398   7.770  2.2193  1.0457  1.5656
 5278SOL     OW27292   0.321   0.376   8.353  0.3772 -0.4469  0.0670
 5278SOL    HW127293   0.261   0.342   8.287  0.4060 -1.6592  0.6729
 5278SOL    HW227294   0.315   0.467   8.324 -1.1654 -0.8175 -0.7908
 5279SOL     OW27295   3.204   3.704   8.435  0.0199  0.0225 -0.1220
 5279SOL    HW127296   3.187   3.613   8.411  2.2773 -0.2821 -0.5156
 5279SOL    HW227297   3.122   3.736   8.398 -0.6332 -1.3046  0.1893
 5280SOL     OW27298   1.147   1.939   2.548  0.3998  0.0090  0.3444
 5280SOL    HW127299   1.103   1.890   2.478  1.3063  0.7736 -0.7429
 5280SOL    HW227300   1.095   1.901   2.619  1.8931  0.2905  1.5900
 5281SOL     OW27301   1.004   1.125   4.955  0.1663  0.0078 -0.1631
 5281SOL    HW127302   1.055   1.158   4.881 -2.0685  0.5531 -1.4600
 5281SOL    HW227303   0.911   1.135   4.936 -0.4785 -1.4619  2.2483
 5282SOL     OW27304   1.509   1.053  10.056 -0.4531  0.4630  0.1744
 5282SOL    HW127305   1.550   1.132  10.022  1.0927  0.3390  1.8074
 5282SOL    HW227306   1.581   1.005  10.097  0.1353  0.5185 -0.7885
 5283SOL     OW27307   0.692   2.327  14.840 -0.0393 -0.3884 -0.5220
 5283SOL    HW127308   0.649   2.411  14.857 -1.3482 -1.2154  0.1802
 5283SOL    HW227309   0.673   2.319  14.747  1.7001  0.2884 -0.9439
 5284SOL     OW27310   2.605   2.467   4.425 -0.2441 -0.5241  0.2610
 5284SOL    HW127311   2.628   2.555   4.454  0.8624 -1.5796  2.5488
 5284SOL    HW227312   2.673   2.406   4.454  1.5654  0.6126 -1.5924
 5285SOL     OW27313   2.427   3.264  14.833 -0.4786  0.0176 -0.4674
 5285SOL    HW127314   2.420   3.213  14.752  1.1454 -1.0877  0.0929
 5285SOL    HW227315   2.364   3.335  14.821 -0.0629  0.9262  2.7777
 5286SOL     OW27316   3.848   0.785   5.416  0.2514 -0.4504 -0.3579
 5286SOL    HW127317   3.802   0.794   5.333  1.5828 -1.1895 -1.1586
 5286SOL    HW227318   3.942   0.777   5.398  0.3992  0.8355 -0.1690
 5287SOL     OW27319   4.582   1.071  13.744  0.8637  0.2363  0.4999
 5287SOL    HW127320   4.544   1.084  13.831  2.4133  3.9712  0.5980
 5287SOL    HW227321   4.581   0.975  13.735 -1.6016  0.2305  0.7516
 5288SOL     OW27322   1.108   4.514   2.330 -0.1314 -0.3132 -0.1867
 5288SOL    HW127323   1.065   4.478   2.408  0.7877 -0.9473  0.0395
 5288SOL    HW227324   1.191   4.466   2.332 -0.2595 -0.5483 -0.6086
 5289SOL     OW27325   0.094   1.509   8.525 -0.5498  0.7983 -0.0417
 5289SOL    HW127326   0.142   1.449   8.468  0.4994  2.1427 -0.5691
 5289SOL    HW227327   0.147   1.503   8.604 -0.5031 -2.7204 -0.3324
 5290SOL     OW27328   1.534   0.458  10.537 -0.0756 -0.0244 -0.3581
 5290SOL    HW127329   1.465   0.500  10.589 -0.5568 -0.3642 -0.7155
 5290SOL    HW227330   1.532   0.503  10.453 -2.4371 -0.2889 -0.4528
 5291SOL     OW27331   1.464   3.351   5.992  0.2139 -0.2044 -0.3346
 5291SOL    HW127332   1.511   3.299   6.057  0.4965 -0.5617 -0.8244
 5291SOL    HW227333   1.447   3.292   5.919 -0.7950 -1.0438  0.5952
 5292SOL     OW27334   4.698   2.571   5.181  0.4866  0.0918  0.5435
 5292SOL    HW127335   4.627   2.537   5.236  2.0781 -1.4354  1.6746
 5292SOL    HW227336   4.716   2.656   5.220  0.6153 -0.1887  1.1131
 5293SOL     OW27337   4.338   1.234   4.507 -0.4099  0.0367 -0.5796
 5293SOL    HW127338   4.409   1.276   4.555 -0.1689  0.7654 -1.5764
 5293SOL    HW227339   4.371   1.227   4.417  1.5230 -2.8104  0.3431
 5294SOL     OW27340   1.930   3.659   9.097 -0.5939 -0.8387 -0.6583
 5294SOL    HW127341   2.024   3.647   9.112 -0.4920 -1.0012 -1.4502
 5294SOL    HW227342   1.935   3.645   9.003 -0.1980 -0.9012 -0.6288
 5295SOL     OW27343   1.321   2.024   5.439  0.8448 -0.1339  0.5989
 5295SOL    HW127344   1.272   1.963   5.384 -0.1382  1.6170 -0.4755
 5295SOL    HW227345   1.253   2.057   5.497 -0.0174 -1.1114  0.1368
 5296SOL     OW27346   3.887   1.891   9.976 -0.0157  0.8294  0.5337
 5296SOL    HW127347   3.902   1.915   9.884 -0.9606  0.5726  0.3107
 5296SOL    HW227348   3.971   1.849   9.993 -0.0318 -0.0108 -1.3966
 5297SOL     OW27349   2.221   3.581   7.324  0.0543 -0.2370  0.3654
 5297SOL    HW127350   2.223   3.675   7.344 -1.3809  0.0163 -0.7195
 5297SOL    HW227351   2.231   3.546   7.412  0.7151 -0.4622  0.2022
 5298SOL     OW27352   0.075   4.301  17.192  0.0056  0.3483  0.5059
 5298SOL    HW127353   0.047   4.364  17.126 -0.3094  0.8677  1.1355
 5298SOL    HW227354   4.720   4.253  17.223 -0.1249  0.6305  0.6258
 5299SOL     OW27355   0.279   3.294   5.219  0.0640  0.1286  0.6207
 5299SOL    HW127356   0.223   3.282   5.295 -0.3618  0.8485  0.4229
 5299SOL    HW227357   0.263   3.387   5.204  0.3649  0.6801  3.9083
 5300SOL     OW27358   0.584   1.250   9.000 -0.4336 -0.0198  0.6428
 5300SOL    HW127359   0.644   1.189   9.041  1.1002  0.9166 -0.2158
 5300SOL    HW227360   0.614   1.338   9.023  1.6128 -1.1267  2.1398
 5301SOL     OW27361   0.610   0.868   8.158  0.5050  0.0946 -0.3515
 5301SOL    HW127362   0.690   0.828   8.192  1.4286  2.7516  0.5823
 5301SOL    HW227363   0.563   0.896   8.236 -1.1187  0.6892 -1.5341
 5302SOL     OW27364   1.094   1.001  10.180 -0.6059 -0.1313  0.0340
 5302SOL    HW127365   1.094   0.934  10.249  1.8469  0.7527  0.8811
 5302SOL    HW227366   1.170   1.058  10.193 -0.7337  0.0519 -0.0364
 5303SOL     OW27367   2.499   4.047  17.393  0.0872 -0.4252 -0.4286
 5303SOL    HW127368   2.561   4.030  17.322 -1.3881 -1.8602 -1.3777
 5303SOL    HW227369   2.491   4.141  17.408 -3.6430 -0.6276 -1.2571
 5304SOL     OW27370   4.504   3.373  11.567 -0.8154 -0.3244  0.9529
 5304SOL    HW127371   4.572   3.333  11.622  1.0159 -1.2530 -1.9879
 5304SOL    HW227372   4.431   3.342  11.621 -1.4197  3.1382  2.1136
 5305SOL     OW27373   4.635   3.325   4.138 -0.4454  0.5183  0.1461
 5305SOL    HW127374   4.569   3.266   4.176  0.1273  0.1156  0.5086
 5305SOL    HW227375   4.692   3.353   4.209  0.7598  0.2555 -0.7214
 5306SOL     OW27376   0.157   3.683   7.361 -0.4493 -0.6535  0.3265
 5306SOL    HW127377   0.209   3.763   7.374 -2.0627  0.7097 -1.4811
 5306SOL    HW227378   0.158   3.674   7.266  2.5592 -1.2414  0.4136
 5307SOL     OW27379   2.225   0.010   4.594 -0.0350 -0.0512 -0.1558
 5307SOL    HW127380   2.318   4.713   4.579 -0.4231 -1.8368 -0.2748
 5307SOL    HW227381   2.190   0.032   4.507 -0.2565  0.2596  0.0100
 5308SOL     OW27382   3.623   2.308   1.396  0.0004  0.2488 -0.2980
 5308SOL    HW127383   3.570   2.248   1.449 -1.5659  0.8242 -1.2389
 5308SOL    HW227384   3.664   2.248   1.333 -1.5837 -1.8263  0.6656
 5309SOL     OW27385   0.634   4.062   3.802  0.0531 -0.6677  0.1071
 5309SOL    HW127386   0.556   4.080   3.751  0.1284  1.3814  0.6932
 5309SOL    HW227387   0.698   4.120   3.762 -1.4846  1.2526  0.4344
 5310SOL     OW27388   3.877   3.947  16.771 -0.5094 -0.3398  1.0153
 5310SOL    HW127389   3.893   4.031  16.815  1.4651 -0.6603  0.9245
 5310SOL    HW227390   3.841   3.969  16.685  2.2652 -1.1645 -0.3542
 5311SOL     OW27391   2.610   3.638   2.496 -0.3188  0.0286 -0.0317
 5311SOL    HW127392   2.686   3.664   2.547 -0.0199 -0.0343 -0.4472
 5311SOL    HW227393   2.624   3.547   2.472 -1.3012  0.2020 -1.2590
 5312SOL     OW27394   0.607   4.321   6.145 -0.0539  0.8260  0.6152
 5312SOL    HW127395   0.586   4.289   6.057 -0.1888  1.9404  0.2331
 5312SOL    HW227396   0.698   4.299   6.163  0.2782  0.6061 -1.3738
 5313SOL     OW27397   0.602   1.552   7.942 -0.2130 -0.1269  0.0660
 5313SOL    HW127398   0.515   1.580   7.913 -0.5155 -0.2408  0.8716
 5313SOL    HW227399   0.598   1.546   8.037  1.1077 -1.1626  0.0623
 5314SOL     OW27400   2.684   3.697   0.202 -0.1808 -0.5426  0.2304
 5314SOL    HW127401   2.683   3.644   0.283  0.0063  2.3359  2.1198
 5314SOL    HW227402   2.758   3.660   0.155 -0.1105 -0.1406  0.0282
 5315SOL     OW27403   3.986   2.702   6.032 -0.2871  0.0424 -0.3297
 5315SOL    HW127404   4.004   2.694   5.938 -2.4095  2.7863 -0.9544
 5315SOL    HW227405   4.065   2.664   6.070  0.3751  1.2270 -0.5441
 5316SOL     OW27406   2.363   2.865   1.331  0.0543 -0.1875 -0.1561
 5316SOL    HW127407   2.399   2.780   1.306 -2.6517 -2.0022  2.1498
 5316SOL    HW227408   2.445   2.914   1.338  0.1389 -0.4608  0.7108
 5317SOL     OW27409   2.020   3.586   5.363  0.7490  0.9516 -0.2790
 5317SOL    HW127410   2.021   3.555   5.453 -0.7881  2.1070  0.1362
 5317SOL    HW227411   2.109   3.574   5.332  1.2745  1.5885  0.9804
 5318SOL     OW27412   4.197   0.164   7.449  0.5635 -0.4771  0.6314
 5318SOL    HW127413   4.203   0.125   7.536 -1.3030 -1.5249  0.2978
 5318SOL    HW227414   4.285   0.201   7.447 -0.0320  0.8809 -0.3767
 5319SOL     OW27415   1.809   0.525   9.086 -0.3382  0.9839  0.1000
 5319SOL    HW127416   1.783   0.441   9.125 -0.6755  0.1860 -1.8689
 5319SOL    HW227417   1.840   0.508   8.997 -1.6576 -0.1925 -0.1386
 5320SOL     OW27418   3.637   3.575   0.885  0.3876  0.5175  0.3462
 5320SOL    HW127419   3.729   3.562   0.907  0.4216 -1.8498 -1.2971
 5320SOL    HW227420   3.645   3.615   0.798  0.5460  1.8152  0.9570
 5321SOL     OW27421   1.339   2.909  14.790  0.2784  0.4525  0.0401
 5321SOL    HW127422   1.246   2.889  14.800  0.6542 -0.4144  1.7758
 5321SOL    HW227423   1.337   2.982  14.728  0.7223  0.4275 -0.0025
 5322SOL     OW27424   1.287   0.941   5.815 -0.2100  0.1862 -0.6736
 5322SOL    HW127425   1.342   0.970   5.743  0.3728  1.0681  0.1269
 5322SOL    HW227426   1.202   0.964   5.777 -0.7263  2.1021  1.6569
 5323SOL     OW27427   3.162   4.404   1.335 -0.2494 -0.4897  0.1812
 5323SOL    HW127428   3.250   4.433   1.359 -0.1115 -0.3662 -0.4776
 5323SOL    HW227429   3.111   4.482   1.359  3.1806  1.4184  1.4331
 5324SOL     OW27430   3.508   3.302  10.147 -0.3706 -0.0907 -0.1271
 5324SOL    HW127431   3.547   3.288  10.061 -0.4053  0.3770 -0.2177
 5324SOL    HW227432   3.453   3.224  10.153  0.9893 -1.1237 -1.2999
 5325SOL     OW27433   2.848   2.998  15.337 -0.1990 -0.0028 -0.3121
 5325SOL    HW127434   2.783   3.021  15.403  0.4692  0.8583  0.0462
 5325SOL    HW227435   2.865   2.909  15.368  0.6279  0.5498  0.8108
 5326SOL     OW27436   0.948   3.281   2.597 -0.1240  0.2017  0.9956
 5326SOL    HW127437   0.996   3.319   2.670 -1.3590 -0.1910  2.0093
 5326SOL    HW227438   0.858   3.284   2.629 -0.5175 -1.0738 -0.0197
 5327SOL     OW27439   1.492   4.357   1.541  0.2629  0.1478 -0.7072
 5327SOL    HW127440   1.428   4.421   1.572  0.7699  0.5763 -0.5556
 5327SOL    HW227441   1.462   4.339   1.452  1.9408 -1.3417 -0.9753
 5328SOL     OW27442   2.309   2.333   7.874 -0.2136 -0.1422  0.1363
 5328SOL    HW127443   2.282   2.248   7.839 -1.4789  0.2913  0.0842
 5328SOL    HW227444   2.383   2.365   7.822  0.3482 -1.4759  0.1027
 5329SOL     OW27445   0.117   2.558   4.826 -0.3694 -0.2650 -0.4240
 5329SOL    HW127446   0.139   2.637   4.778 -1.2770 -0.0675 -0.5234
 5329SOL    HW227447   0.128   2.496   4.754  0.4521  1.3140 -1.6516
 5330SOL     OW27448   2.145   2.804   6.137 -0.6005 -0.0870 -0.8200
 5330SOL    HW127449   2.056   2.808   6.173 -0.6337 -0.8948 -0.8010
 5330SOL    HW227450   2.172   2.725   6.184 -0.1173  0.0225 -0.9095
 5331SOL     OW27451   1.573   4.407  16.259  0.0392 -0.2536 -0.4115
 5331SOL    HW127452   1.600   4.477  16.318 -3.0099  1.4288 -1.0181
 5331SOL    HW227453   1.605   4.327  16.301 -0.7905 -0.7256 -0.6730
 5332SOL     OW27454   2.364   2.049  13.740  0.4167 -0.5154  0.2082
 5332SOL    HW127455   2.429   2.099  13.692  0.7474 -0.3703  0.8018
 5332SOL    HW227456   2.296   2.046  13.673  0.0532 -0.1547  0.5613
 5333SOL     OW27457   1.434   3.554   0.622  0.4893  0.0746 -0.1444
 5333SOL    HW127458   1.386   3.531   0.702  0.6688 -0.1363 -0.0949
 5333SOL    HW227459   1.422   3.648   0.615 -0.7365 -0.2250 -1.8995
 5334SOL     OW27460   1.501   3.513   1.262 -0.3022  0.2852  0.0809
 5334SOL    HW127461   1.541   3.575   1.201  0.4304 -0.1829  0.0800
 5334SOL    HW227462   1.508   3.430   1.213 -1.1572 -0.0774  0.5768
 5335SOL     OW27463   0.174   3.015   9.228 -0.3252  0.3380  0.3036
 5335SOL    HW127464   0.234   3.023   9.302  1.0921 -0.0559 -0.8022
 5335SOL    HW227465   0.107   3.075   9.259 -0.6209 -0.4036  1.0826
 5336SOL     OW27466   1.920   0.343   4.911  0.2350 -0.0169 -0.0976
 5336SOL    HW127467   1.912   0.357   5.005  0.0992 -0.4751 -0.0377
 5336SOL    HW227468   1.857   0.272   4.899 -0.2125  0.7594 -2.3186
 5337SOL     OW27469   1.104   3.572  11.203 -0.5730  0.7348 -0.4154
 5337SOL    HW127470   1.079   3.655  11.164 -1.3036  0.2450 -0.9850
 5337SOL    HW227471   1.173   3.596  11.265  1.4491 -0.6481 -2.1366
 5338SOL     OW27472   1.589   3.198   5.114 -0.7651  0.1006  1.0844
 5338SOL    HW127473   1.667   3.209   5.168  0.5226 -1.0387 -0.5646
 5338SOL    HW227474   1.584   3.284   5.072 -1.1049 -0.1531  0.6033
 5339SOL     OW27475   4.197   2.761   0.807  0.3575 -0.3140  0.5388
 5339SOL    HW127476   4.190   2.667   0.827  1.9576 -0.5766 -0.0974
 5339SOL    HW227477   4.165   2.774   0.718 -0.5995 -0.2039  0.9054
 5340SOL     OW27478   2.536   1.529  17.000  0.3405  0.2510 -0.4625
 5340SOL    HW127479   2.562   1.438  16.987 -3.1574 -0.6676 -1.0846
 5340SOL    HW227480   2.544   1.557  16.909 -2.4759  1.9527 -0.1815
 5341SOL     OW27481   0.249   1.405   8.305 -0.3586 -0.6497  0.2769
 5341SOL    HW127482   0.215   1.471   8.245  1.1622  0.8096  1.0352
 5341SOL    HW227483   0.341   1.432   8.306 -0.6249  0.2320  1.3843
 5342SOL     OW27484   1.297   3.585  12.543 -0.0323 -0.4184  0.6189
 5342SOL    HW127485   1.233   3.566  12.612  0.7123 -0.6273  1.2530
 5342SOL    HW227486   1.281   3.679  12.538  2.0329  0.0005  2.0500
 5343SOL     OW27487   1.761   0.258   6.134  0.3079 -0.4559 -0.1602
 5343SOL    HW127488   1.681   0.206   6.143  1.0282 -1.6928 -0.8462
 5343SOL    HW227489   1.828   0.194   6.159  1.8955  0.3428 -2.3978
 5344SOL     OW27490   3.021   4.477  11.545 -0.1419  0.1661 -0.3184
 5344SOL    HW127491   2.955   4.480  11.476 -0.3532 -1.0386 -0.1592
 5344SOL    HW227492   2.963   4.477  11.622 -0.8844  1.8451 -0.8579
 5345SOL     OW27493   0.701   3.285   3.942 -0.2182 -0.0342  0.1964
 5345SOL    HW127494   0.793   3.262   3.959 -1.4787 -1.1750  5.4254
 5345SOL    HW227495   0.700   3.378   3.965 -0.8736  0.3261 -1.2935
 5346SOL     OW27496   0.114   0.492  10.365 -0.0815 -0.4821 -0.7132
 5346SOL    HW127497   0.140   0.582  10.385  1.5187 -0.9257 -0.8052
 5346SOL    HW227498   0.161   0.474  10.283 -1.6492  1.5132 -2.0726
 5347SOL     OW27499   2.721   0.381  14.078  0.6872  0.0511 -0.1617
 5347SOL    HW127500   2.726   0.442  14.005  1.5018  0.8353  0.5487
 5347SOL    HW227501   2.710   0.447  14.147  0.9974 -0.0927  0.0281
 5348SOL     OW27502   4.181   0.783   2.206 -0.0296  0.6661 -0.5116
 5348SOL    HW127503   4.264   0.742   2.230 -0.7554  0.1568  1.1234
 5348SOL    HW227504   4.142   0.718   2.148  0.0285  0.7083 -0.5972
 5349SOL     OW27505   1.853   3.370  12.318  0.2696 -0.9849 -0.0756
 5349SOL    HW127506   1.794   3.441  12.290 -2.3737 -3.4650 -0.7468
 5349SOL    HW227507   1.927   3.421  12.351 -0.4551 -1.1957  1.8567
 5350SOL     OW27508   0.022   4.319   4.995  0.4698  0.4295  0.6864
 5350SOL    HW127509   0.058   4.266   5.065 -2.8496  1.6104  3.3129
 5350SOL    HW227510   4.655   4.326   5.031 -0.0621 -1.1567 -0.2966
 5351SOL     OW27511   3.901   1.042  16.081 -0.5528 -0.5097 -0.3857
 5351SOL    HW127512   3.978   1.097  16.096 -1.2319  0.7523 -1.4609
 5351SOL    HW227513   3.918   1.022  15.988 -1.7103  0.2260 -0.7572
 5352SOL     OW27514   2.378   2.059   7.550 -0.1846  0.3607  0.5587
 5352SOL    HW127515   2.339   2.031   7.467 -1.7689  2.0735  0.7171
 5352SOL    HW227516   2.362   2.154   7.546 -0.7384  0.2029 -1.1741
 5353SOL     OW27517   2.509   4.400   8.885  0.2627 -0.1202  0.0538
 5353SOL    HW127518   2.505   4.312   8.924  0.3352 -0.0153  0.3017
 5353SOL    HW227519   2.471   4.456   8.954 -0.6035 -0.7114  0.0648
 5354SOL     OW27520   1.836   1.592  11.739 -0.0842  0.4781  0.1471
 5354SOL    HW127521   1.928   1.570  11.756  0.5276  1.2362 -2.1897
 5354SOL    HW227522   1.841   1.683  11.707 -1.6613  0.8352  0.9293
 5355SOL     OW27523   3.232   3.031  13.450  0.3314  0.6668  0.4469
 5355SOL    HW127524   3.237   3.110  13.395 -1.8807  1.2618  1.0968
 5355SOL    HW227525   3.172   3.055  13.520 -0.8978 -0.6214 -0.1615
 5356SOL     OW27526   1.679   3.434   3.234 -0.1606  0.2126 -0.1314
 5356SOL    HW127527   1.707   3.381   3.159  0.7868 -1.1370  1.1829
 5356SOL    HW227528   1.716   3.379   3.303  1.1790 -1.2326 -2.0064
 5357SOL     OW27529   0.043   1.194  16.618  0.0772 -0.4670 -0.8388
 5357SOL    HW127530   0.093   1.117  16.644  0.9509 -0.3789 -2.2525
 5357SOL    HW227531   0.100   1.271  16.620 -0.7510  0.1196 -0.0990
 5358SOL     OW27532   3.980   4.665  14.259  0.3154 -0.0974 -0.7038
 5358SOL    HW127533   3.991   4.687  14.351  1.2135 -2.3899 -0.2752
 5358SOL    HW227534   4.043   4.596  14.238 -1.3947 -2.3574  1.6274
 5359SOL     OW27535   2.641   1.338   0.360  0.0140  0.3827  0.1136
 5359SOL    HW127536   2.561   1.292   0.384 -0.7996  1.1214 -1.1396
 5359SOL    HW227537   2.698   1.280   0.410 -0.1596 -0.1735 -0.3357
 5360SOL     OW27538   1.617   1.124   6.449  0.2019 -0.1546  0.1941
 5360SOL    HW127539   1.666   1.206   6.440  2.2774 -1.1776  2.1682
 5360SOL    HW227540   1.527   1.147   6.424  0.3242 -0.0494 -0.1482
 5361SOL     OW27541   3.334   3.404   2.508 -0.0961  0.2764  0.5786
 5361SOL    HW127542   3.380   3.320   2.510 -0.3664  0.0726 -1.8652
 5361SOL    HW227543   3.397   3.442   2.448 -1.3251 -0.1493 -0.9943
 5362SOL     OW27544   1.603   2.373   1.935 -0.3401  0.4664 -0.4534
 5362SOL    HW127545   1.622   2.460   1.969  2.0210  0.1010 -0.8165
 5362SOL    HW227546   1.691   2.335   1.927 -0.4004  0.2236  0.0359
 5363SOL     OW27547   1.773   3.903   0.910 -0.1767 -0.3816  0.0642
 5363SOL    HW127548   1.837   3.943   0.852 -0.3792  2.5149  1.8248
 5363SOL    HW227549   1.836   3.852   0.961  2.2245  2.3981 -0.1320
 5364SOL     OW27550   4.113   3.199   2.640  0.3099 -0.0942 -0.0459
 5364SOL    HW127551   4.038   3.250   2.607 -0.9097 -0.7140  1.7349
 5364SOL    HW227552   4.155   3.181   2.556  0.6002 -1.7345  0.4588
 5365SOL     OW27553   0.393   2.306  15.874  0.4871 -0.0216 -0.1464
 5365SOL    HW127554   0.483   2.338  15.873  0.0927  1.1471  1.9919
 5365SOL    HW227555   0.401   2.252  15.953  1.8915  1.2910  0.6225
 5366SOL     OW27556   3.987   1.965   7.105 -0.2043 -0.7303  0.4448
 5366SOL    HW127557   3.979   1.916   7.186  1.9883  2.0376  2.3331
 5366SOL    HW227558   3.930   2.040   7.118  0.1880 -0.1195 -1.2557
 5367SOL     OW27559   3.513   4.071   0.093  0.0910 -0.4883  0.8587
 5367SOL    HW127560   3.448   4.009   0.125 -0.3531  0.4553  1.7775
 5367SOL    HW227561   3.496   4.148   0.148 -3.1705  1.7703 -3.3639
 5368SOL     OW27562   0.604   4.458   8.879  0.3703 -0.3720 -0.1680
 5368SOL    HW127563   0.690   4.442   8.918 -0.2663  1.1007  1.8551
 5368SOL    HW227564   0.564   4.371   8.883 -0.3695 -0.0781 -1.1697
 5369SOL     OW27565   2.160   2.705   6.482 -0.1149 -0.3558 -0.0658
 5369SOL    HW127566   2.178   2.645   6.410 -0.3902  1.3241 -1.5385
 5369SOL    HW227567   2.138   2.643   6.551  1.0299 -1.7463 -0.9683
 5370SOL     OW27568   0.077   4.460   8.674 -0.0521 -0.2047  0.3991
 5370SOL    HW127569   0.072   4.530   8.608 -0.0914  0.7245  1.4001
 5370SOL    HW227570   4.706   4.460   8.700  0.6051 -0.2807  2.6628
 5371SOL     OW27571   4.348   2.182   5.724  1.3211  0.3970  0.3242
 5371SOL    HW127572   4.442   2.168   5.715  1.1458 -0.4869 -0.1374
 5371SOL    HW227573   4.320   2.091   5.716 -2.2930  1.5300  0.1294
 5372SOL     OW27574   3.463   2.532   6.652 -0.2152  0.2776  0.1879
 5372SOL    HW127575   3.459   2.555   6.559  0.5025  2.2830  0.6393
 5372SOL    HW227576   3.554   2.510   6.669  0.3099  0.9995 -1.5892
 5373SOL     OW27577   3.909   1.503  10.667 -0.0728  0.0200 -0.3599
 5373SOL    HW127578   3.950   1.579  10.708 -0.0353 -1.0519  1.5658
 5373SOL    HW227579   3.829   1.489  10.718  0.3318 -0.0590  0.2437
 5374SOL     OW27580   3.984   2.855   2.040  0.0617  0.0458 -0.6931
 5374SOL    HW127581   3.918   2.807   1.990 -0.1854  1.3157 -1.5967
 5374SOL    HW227582   3.933   2.932   2.064  2.2344  0.3357  2.8981
 5375SOL     OW27583   4.546   1.580   9.102  0.0815 -0.5844 -0.0637
 5375SOL    HW127584   4.613   1.639   9.137 -1.2273  0.5338  0.5467
 5375SOL    HW227585   4.474   1.597   9.163  0.2000  1.9740 -0.6504
 5376SOL     OW27586   0.498   1.514   5.149 -0.8138 -0.4544 -0.5823
 5376SOL    HW127587   0.518   1.599   5.188  1.3598 -1.1030 -0.2621
 5376SOL    HW227588   0.566   1.511   5.081 -0.1959 -2.1871  0.1143
 5377SOL     OW27589   3.556   4.202   7.893  0.1804  0.0999  0.0935
 5377SOL    HW127590   3.649   4.220   7.901  0.5658 -1.1669 -1.3699
 5377SOL    HW227591   3.558   4.106   7.891  3.4533  0.1793 -1.1720
 5378SOL     OW27592   1.468   3.238  12.928  0.4224  0.0087  0.0478
 5378SOL    HW127593   1.387   3.200  12.895  1.5281 -1.6857 -0.6919
 5378SOL    HW227594   1.439   3.257  13.018  1.9685  0.1956  0.5158
 5379SOL     OW27595   2.731   2.734   0.752  0.0610  0.6177  0.1228
 5379SOL    HW127596   2.798   2.667   0.736  0.9019  0.8356  2.6842
 5379SOL    HW227597   2.653   2.689   0.719  0.5636 -0.3855  0.2869
 5380SOL     OW27598   1.883   0.648  12.902 -0.5057  0.2765 -0.3684
 5380SOL    HW127599   1.807   0.636  12.845 -0.9790  1.2739  0.0523
 5380SOL    HW227600   1.867   0.570  12.957 -0.9229  0.8724  0.3607
 5381SOL     OW27601   0.971   4.257  16.821  0.0960 -0.6527  0.1871
 5381SOL    HW127602   1.065   4.268  16.835  0.4474 -0.7449 -2.0220
 5381SOL    HW227603   0.930   4.265  16.907  1.4896 -0.9602  0.8780
 5382SOL     OW27604   3.737   4.114  14.383 -0.1736 -0.0202 -0.8095
 5382SOL    HW127605   3.758   4.081  14.471 -1.0570  1.4384 -0.0616
 5382SOL    HW227606   3.695   4.199  14.393 -0.2346 -0.0232 -1.0652
 5383SOL     OW27607   4.511   1.336  10.382  0.1386 -0.1153  0.3294
 5383SOL    HW127608   4.428   1.383  10.387 -0.1732 -0.6970  0.6772
 5383SOL    HW227609   4.577   1.405  10.387  1.6830 -1.6355  1.1480
 5384SOL     OW27610   4.176   0.733   4.544  0.1186 -0.1102 -0.2816
 5384SOL    HW127611   4.238   0.723   4.471  1.1630  0.3839  0.5360
 5384SOL    HW227612   4.199   0.825   4.561  2.2811 -0.6967 -0.1152
 5385SOL     OW27613   4.176   0.858   3.879  1.0353 -0.3323  0.4181
 5385SOL    HW127614   4.091   0.886   3.843  1.0803  0.2120  0.7351
 5385SOL    HW227615   4.226   0.929   3.839 -1.6097  0.4541 -1.5578
 5386SOL     OW27616   0.897   0.641  17.405 -0.5652 -0.7060 -0.5057
 5386SOL    HW127617   0.808   0.638  17.440 -0.7368 -0.1777 -0.9093
 5386SOL    HW227618   0.944   0.563  17.436 -1.1563 -0.7203  0.3778
 5387SOL     OW27619   4.250   3.392   5.833 -0.1079  0.3668  0.6866
 5387SOL    HW127620   4.201   3.377   5.752  0.7695  0.3025  0.1693
 5387SOL    HW227621   4.244   3.310   5.882 -1.6607 -0.7461 -1.3753
 5388SOL     OW27622   0.998   0.802   9.086 -0.1697  0.0092  0.3713
 5388SOL    HW127623   1.008   0.760   9.001  1.9049  0.3357  0.4625
 5388SOL    HW227624   1.005   0.729   9.147 -0.6023 -0.6858 -0.4152
 5389SOL     OW27625   3.140   1.161   6.286  0.2088  0.5015  0.7643
 5389SOL    HW127626   3.121   1.072   6.256 -1.2458  0.7561  0.9022
 5389SOL    HW227627   3.060   1.203   6.254  0.8070  0.2861 -1.0042
 5390SOL     OW27628   1.118   0.761   4.395  0.0908 -0.5609  0.0224
 5390SOL    HW127629   1.120   0.711   4.476 -1.1746  3.2312  2.3604
 5390SOL    HW227630   1.158   0.840   4.431  0.9332 -0.7687 -0.4527
 5391SOL     OW27631   0.786   4.600   4.015 -0.4905  0.5280  0.7979
 5391SOL    HW127632   0.875   4.624   3.989 -1.0542  0.6247 -0.9976
 5391SOL    HW227633   0.767   4.684   4.056 -3.3421 -0.0623  0.6682
 5392SOL     OW27634   4.479   1.960   6.590  0.2566  0.3379 -0.2569
 5392SOL    HW127635   4.409   1.914   6.636  0.8208 -0.7390 -0.4758
 5392SOL    HW227636   4.553   1.903   6.611  0.5743  0.9433  0.2605
 5393SOL     OW27637   1.815   2.161  11.960  0.5455 -0.4408 -0.1041
 5393SOL    HW127638   1.782   2.075  11.934  0.8953 -0.6436  0.1323
 5393SOL    HW227639   1.828   2.154  12.054 -0.7542  0.0415  0.1197
 5394SOL     OW27640   3.521   4.325  13.022 -0.2823  0.2498 -0.3552
 5394SOL    HW127641   3.551   4.257  12.961  0.8565  0.4590 -0.0256
 5394SOL    HW227642   3.431   4.299  13.038 -0.2795  1.0933  1.0259
 5395SOL     OW27643   2.126   4.378   2.589 -0.5643  0.0741  0.1974
 5395SOL    HW127644   2.084   4.300   2.627 -0.5267 -1.6190 -3.1820
 5395SOL    HW227645   2.211   4.366   2.632  0.2380 -1.7086 -1.8352
 5396SOL     OW27646   0.634   0.913   5.215  0.0501  0.3658 -0.0260
 5396SOL    HW127647   0.656   1.006   5.209 -0.4911  0.4054 -1.4596
 5396SOL    HW227648   0.712   0.868   5.246 -0.5401  0.2586  1.3076
 5397SOL     OW27649   3.103   3.409  12.169  0.5744  0.3686  0.3671
 5397SOL    HW127650   3.154   3.470  12.221  1.0081  2.5438 -2.5949
 5397SOL    HW227651   3.070   3.470  12.103 -3.0933 -2.4327 -0.4137
 5398SOL     OW27652   2.377   1.152  17.195  0.2442 -0.0860 -0.0724
 5398SOL    HW127653   2.322   1.211  17.143 -1.4895 -2.4040 -0.8219
 5398SOL    HW227654   2.428   1.222  17.237 -1.5222  0.8620  0.4610
 5399SOL     OW27655   3.995   3.108  13.228  0.1612 -0.0099 -0.6202
 5399SOL    HW127656   4.026   3.028  13.271 -0.4223 -0.1084 -0.3865
 5399SOL    HW227657   3.934   3.148  13.290  2.2146 -1.5631  2.3869
 5400SOL     OW27658   3.767   4.513   6.926 -0.0566 -0.3714 -0.4924
 5400SOL    HW127659   3.735   4.600   6.904 -0.0444 -0.8366 -2.3804
 5400SOL    HW227660   3.725   4.455   6.862  1.8782 -0.9091 -1.2607
 5401SOL     OW27661   0.603   2.336  17.677  0.4048  0.1727 -0.5048
 5401SOL    HW127662   0.567   2.271   0.049 -0.3457 -0.8954 -2.1280
 5401SOL    HW227663   0.571   2.310  17.591  0.9813 -1.0487 -0.3535
 5402SOL     OW27664   4.448   0.991   5.162 -0.7792  0.7765  0.3575
 5402SOL    HW127665   4.362   0.952   5.147 -1.2788  2.0182  0.0571
 5402SOL    HW227666   4.451   1.042   5.081  2.8212  0.0973  0.0725
 5403SOL     OW27667   1.511   3.539   3.002  0.1743  0.5386 -0.1964
 5403SOL    HW127668   1.560   3.502   3.076 -1.1384  2.1931  1.4854
 5403SOL    HW227669   1.566   3.522   2.925  1.1631 -0.9908  0.8290
 5404SOL     OW27670   2.246   3.541   9.474  0.4049  0.3454  0.5960
 5404SOL    HW127671   2.197   3.571   9.550 -0.3768  1.9591 -0.5229
 5404SOL    HW227672   2.247   3.614   9.412  0.5863 -0.9180 -0.8921
 5405SOL     OW27673   2.335   3.762   5.025 -0.2119  0.1038  0.3701
 5405SOL    HW127674   2.407   3.796   4.973 -0.9606  2.9445  1.1772
 5405SOL    HW227675   2.378   3.700   5.084  0.2970 -0.7928 -0.9531
 5406SOL     OW27676   2.897   3.604   4.745  0.2248  0.7635 -0.4516
 5406SOL    HW127677   2.915   3.669   4.813  1.6326  0.4473 -0.5084
 5406SOL    HW227678   2.833   3.648   4.689  1.3029  1.9889 -0.7213
 5407SOL     OW27679   0.416   3.787   5.181 -0.0348  0.4656 -0.4337
 5407SOL    HW127680   0.488   3.775   5.119 -0.2323  1.3830 -0.8418
 5407SOL    HW227681   0.381   3.867   5.142 -1.0940 -0.5993 -1.6643
 5408SOL     OW27682   1.345   3.236  10.224  0.2674  0.2828 -0.0226
 5408SOL    HW127683   1.306   3.270  10.144  0.7857 -0.3491 -0.5482
 5408SOL    HW227684   1.292   3.276  10.293  0.5419 -0.9865  0.9206
 5409SOL     OW27685   3.264   1.774  10.279 -0.5731 -0.2762  0.2139
 5409SOL    HW127686   3.348   1.818  10.271 -1.1031 -0.0315 -3.8035
 5409SOL    HW227687   3.199   1.843  10.292  1.5607  1.6932  0.2493
 5410SOL     OW27688   1.409   2.465   4.983 -0.3448 -0.3948  0.3288
 5410SOL    HW127689   1.428   2.371   4.989  1.3495 -0.1757 -1.5725
 5410SOL    HW227690   1.359   2.469   4.902  1.9790 -0.7178 -1.1190
 5411SOL     OW27691   1.190   3.544   4.200  0.4798  0.4929  0.0053
 5411SOL    HW127692   1.177   3.529   4.107 -0.9452  2.0622 -0.0402
 5411SOL    HW227693   1.286   3.545   4.197  0.4165  0.0996 -1.6287
 5412SOL     OW27694   0.041   0.842   5.042 -0.2127  0.4246  0.3799
 5412SOL    HW127695   0.070   0.893   5.117 -0.7465  0.4254  0.5887
 5412SOL    HW227696   0.101   0.768   5.050 -1.6889 -0.8665 -0.4766
 5413SOL     OW27697   3.348   3.113   6.504  0.3229 -0.4194  0.0884
 5413SOL    HW127698   3.307   3.195   6.530  0.9808 -0.0214 -0.1119
 5413SOL    HW227699   3.274   3.053   6.514 -0.4713  0.4649 -0.4676
 5414SOL     OW27700   3.744   2.182  17.230  0.0452 -0.5789  0.0141
 5414SOL    HW127701   3.768   2.168  17.322  1.8192  2.1126 -0.0107
 5414SOL    HW227702   3.792   2.264  17.214  0.5127 -1.3799 -2.6972
 5415SOL     OW27703   0.887   4.693   6.638 -0.1737  0.1113  0.8712
 5415SOL    HW127704   0.971   4.649   6.638 -0.5341 -0.5732  0.7604
 5415SOL    HW227705   0.863   4.691   6.546 -0.7895  0.5748  1.0154
 5416SOL     OW27706   3.516   0.445   0.970 -0.2723 -0.0813 -0.1541
 5416SOL    HW127707   3.604   0.461   1.005  0.1086  0.7085 -1.4743
 5416SOL    HW227708   3.486   0.535   0.958  0.8918  0.2245 -0.7662
 5417SOL     OW27709   0.269   2.556   9.210  0.5005 -0.7260  0.1852
 5417SOL    HW127710   0.247   2.471   9.248  1.7068 -0.9888  0.3141
 5417SOL    HW227711   0.310   2.593   9.289 -1.8664 -0.9302  1.5001
 5418SOL     OW27712   2.070   4.554   3.623  0.2081 -0.4610  0.1935
 5418SOL    HW127713   2.129   4.566   3.548 -1.2426 -1.3077 -1.0635
 5418SOL    HW227714   2.027   4.639   3.612  0.2759 -0.5408 -0.7309
 5419SOL     OW27715   4.602   1.771   9.589 -0.0076  0.2250  0.7814
 5419SOL    HW127716   4.526   1.820   9.558  0.8162  2.1450  1.7809
 5419SOL    HW227717   4.673   1.816   9.543 -0.2836 -1.5264 -1.3295
 5420SOL     OW27718   0.157   1.980   8.324 -0.1560 -0.1155 -0.4490
 5420SOL    HW127719   0.128   2.068   8.348 -1.7348 -1.5008  2.6792
 5420SOL    HW227720   0.071   1.939   8.324  0.1359 -0.7063  1.9961
 5421SOL     OW27721   2.305   0.651   4.786 -0.1215 -0.2077  0.0589
 5421SOL    HW127722   2.218   0.637   4.824 -0.4475  2.0333  0.1777
 5421SOL    HW227723   2.300   0.606   4.703 -1.1568 -2.1592  1.1808
 5422SOL     OW27724   3.880   3.654  16.530 -0.2786  0.1102  0.6230
 5422SOL    HW127725   3.954   3.598  16.551  0.4054 -0.6731 -4.0493
 5422SOL    HW227726   3.841   3.657  16.618  0.3808  2.0882  0.8460
 5423SOL     OW27727   2.036   0.159   3.034  0.2402  0.4942  0.4170
 5423SOL    HW127728   2.031   0.073   2.992 -0.8613  0.1992  1.1756
 5423SOL    HW227729   2.019   0.131   3.124  0.4538 -0.8679  0.0304
 5424SOL     OW27730   0.039   0.645   2.020  0.2137 -1.0712  0.0780
 5424SOL    HW127731   4.704   0.649   1.943  0.8129 -0.8575 -0.3481
 5424SOL    HW227732   0.017   0.726   2.066 -0.2172 -0.3440 -1.4153
 5425SOL     OW27733   1.876   3.390   4.835  0.2929  0.1957 -0.0696
 5425SOL    HW127734   1.877   3.451   4.761 -2.1459  0.1418 -0.1450
 5425SOL    HW227735   1.809   3.327   4.812  1.9380 -1.1884 -1.0674
 5426SOL     OW27736   0.988   1.243   9.109  0.2315  0.2944  0.1753
 5426SOL    HW127737   1.062   1.300   9.089 -0.8975  1.9034  0.5750
 5426SOL    HW227738   0.914   1.298   9.085 -0.1466  1.1727  3.3379
 5427SOL     OW27739   3.659   2.183   6.696  0.3025 -0.4340  0.0703
 5427SOL    HW127740   3.740   2.133   6.687  0.6014  0.4251 -1.8569
 5427SOL    HW227741   3.659   2.256   6.634  2.9061 -1.1751 -0.7751
 5428SOL     OW27742   3.158   2.908   2.814  0.3307 -0.3093 -0.2216
 5428SOL    HW127743   3.117   2.831   2.775 -2.2066  1.2897 -0.6604
 5428SOL    HW227744   3.218   2.867   2.877 -1.5275 -0.1967  1.5941
 5429SOL     OW27745   4.047   0.608  14.738 -0.3717 -0.1745 -0.0961
 5429SOL    HW127746   3.988   0.533  14.730 -0.5690  0.0021 -0.3174
 5429SOL    HW227747   4.115   0.574  14.796 -1.0417  0.3680  1.0203
 5430SOL     OW27748   0.898   0.963   1.466  0.2159  0.1071  0.4850
 5430SOL    HW127749   0.966   0.916   1.418  1.2996 -0.2891  2.4065
 5430SOL    HW227750   0.929   0.981   1.554  1.5291  2.8978 -0.5409
 5431SOL     OW27751   4.560   2.488  12.627 -0.9011 -0.2271  0.1385
 5431SOL    HW127752   4.477   2.536  12.627 -0.9348 -0.2842  1.0940
 5431SOL    HW227753   4.611   2.553  12.579  0.2003 -0.1523  1.4064
 5432SOL     OW27754   0.635   3.438  11.453  0.2296 -0.1848  0.5045
 5432SOL    HW127755   0.588   3.502  11.400  0.7173 -0.2014  0.0602
 5432SOL    HW227756   0.726   3.457  11.431 -0.4432  0.5258 -1.5724
 5433SOL     OW27757   2.125   2.741  15.321 -0.1148  0.1732 -0.0344
 5433SOL    HW127758   2.053   2.703  15.371 -2.3432 -0.7788 -3.9536
 5433SOL    HW227759   2.144   2.659  15.275 -0.9099  0.3086 -0.6000
 5434SOL     OW27760   0.057   4.202   9.263  0.9823  0.1314 -0.1479
 5434SOL    HW127761   0.118   4.265   9.226  1.8394 -0.8752 -0.4780
 5434SOL    HW227762   0.038   4.248   9.345 -0.0344  0.2884 -0.4742
 5435SOL     OW27763   4.098   3.608   3.399  0.1099  0.5810  0.5134
 5435SOL    HW127764   4.038   3.545   3.438  0.1922 -1.5523 -2.7377
 5435SOL    HW227765   4.098   3.577   3.308 -0.9975 -0.7804  0.9901
 5436SOL     OW27766   0.361   0.798   8.822 -0.6847  0.0638 -0.3423
 5436SOL    HW127767   0.406   0.881   8.836  0.1392 -0.7313  1.6682
 5436SOL    HW227768   0.361   0.804   8.726  0.9692  2.1359 -0.2046
 5437SOL     OW27769   1.830   1.866  17.276 -0.7199  0.2267 -0.0419
 5437SOL    HW127770   1.874   1.879  17.360  1.9098 -0.0131 -1.3856
 5437SOL    HW227771   1.894   1.804  17.241 -0.5939 -1.5080  3.3295
 5438SOL     OW27772   2.697   2.224  15.070  0.1930  0.0551  0.1666
 5438SOL    HW127773   2.624   2.241  15.129 -1.1108  1.3270 -1.8256
 5438SOL    HW227774   2.753   2.178  15.133 -1.4178  0.7093  2.0855
 5439SOL     OW27775   2.430   3.373   4.405 -0.7235  0.4430 -0.3596
 5439SOL    HW127776   2.480   3.361   4.486  1.2757  0.0404 -1.6616
 5439SOL    HW227777   2.371   3.298   4.408 -0.3130  0.0606 -1.7643
 5440SOL     OW27778   0.627   0.445   5.833  0.9322  0.3216 -0.1458
 5440SOL    HW127779   0.661   0.418   5.919  0.7452 -2.3443 -0.9109
 5440SOL    HW227780   0.645   0.370   5.776  0.9088  0.9915 -1.0303
 5441SOL     OW27781   3.798   4.666   7.925 -0.6757 -0.7661  0.0987
 5441SOL    HW127782   3.784   0.010   7.993 -2.3339  2.0109 -2.9164
 5441SOL    HW227783   3.798   4.585   7.976 -0.1900 -1.2166 -0.6046
 5442SOL     OW27784   3.133   3.085   4.939  0.1722 -0.1816 -0.1159
 5442SOL    HW127785   3.214   3.117   4.900 -0.7400 -1.6756 -3.1977
 5442SOL    HW227786   3.110   3.164   4.989  1.1031 -0.0965  0.1682
 5443SOL     OW27787   1.947   1.641   3.676  0.1325 -0.5354  0.0932
 5443SOL    HW127788   1.952   1.677   3.764 -0.5074 -0.6625  0.1812
 5443SOL    HW227789   2.039   1.614   3.668  0.6400  0.8890  1.1483
 5444SOL     OW27790   3.297   1.069  11.523 -0.2204  0.3635  0.0460
 5444SOL    HW127791   3.233   1.006  11.556  1.7202 -1.7338 -0.2263
 5444SOL    HW227792   3.360   1.069  11.595  0.5739  0.8897 -0.6591
 5445SOL     OW27793   0.968   1.668   7.429  0.2972 -0.6119 -0.0345
 5445SOL    HW127794   1.049   1.704   7.392  1.5678 -3.8200 -0.4096
 5445SOL    HW227795   0.899   1.713   7.381 -0.7806 -3.3648 -1.0757
 5446SOL     OW27796   0.355   1.343   2.330  0.5227  0.0325 -0.8670
 5446SOL    HW127797   0.339   1.329   2.424 -0.2664 -2.0478 -1.3240
 5446SOL    HW227798   0.276   1.388   2.300 -1.3918 -1.9495  1.1762
 5447SOL     OW27799   2.707   3.137   8.052  0.2591 -0.1373  0.6251
 5447SOL    HW127800   2.766   3.207   8.023 -0.8973  0.0374 -1.3836
 5447SOL    HW227801   2.677   3.177   8.133  1.9720 -0.4822  1.4352
 5448SOL     OW27802   2.815   3.135   7.534 -0.0074  0.0820 -0.0488
 5448SOL    HW127803   2.746   3.190   7.498  0.1940 -0.5699 -1.4529
 5448SOL    HW227804   2.814   3.058   7.477 -1.7408 -0.8648  1.2540
 5449SOL     OW27805   2.510   3.898   8.814 -0.1221 -0.0152 -0.3300
 5449SOL    HW127806   2.518   3.975   8.870 -0.2809 -0.4161  0.2542
 5449SOL    HW227807   2.529   3.830   8.880  1.8870  0.2898 -0.6056
 5450SOL     OW27808   1.548   1.363   4.251  0.1081  0.5711  0.2500
 5450SOL    HW127809   1.544   1.357   4.156 -0.1248  0.4900  0.2654
 5450SOL    HW227810   1.594   1.447   4.263 -0.2658  0.1771  4.2828
 5451SOL     OW27811   1.819   1.924   4.163  0.2055  0.0491  0.3924
 5451SOL    HW127812   1.884   1.952   4.099 -0.6412 -1.9263 -1.3318
 5451SOL    HW227813   1.742   1.973   4.137  0.5416  1.4515  2.0272
 5452SOL     OW27814   4.091   2.939   3.725 -0.4346 -0.0169  0.6101
 5452SOL    HW127815   4.068   2.864   3.780 -1.0918 -0.3407 -0.1030
 5452SOL    HW227816   4.151   2.988   3.781 -0.3864 -1.3295  1.6938
 5453SOL     OW27817   3.956   0.091  17.344 -0.7121 -0.9229  0.6289
 5453SOL    HW127818   4.036   0.138  17.322 -2.5270  2.0263  0.4692
 5453SOL    HW227819   3.905   0.170  17.359 -0.5639 -0.3838 -1.8102
 5454SOL     OW27820   1.039   1.183   3.325  0.3639 -0.0254 -0.0398
 5454SOL    HW127821   0.974   1.139   3.380  0.3986  1.5151  1.2489
 5454SOL    HW227822   1.057   1.269   3.364 -0.5218  0.6946 -1.1974
 5455SOL     OW27823   4.190   0.305   8.944 -0.2481 -0.4540 -1.3761
 5455SOL    HW127824   4.211   0.224   8.990 -1.6775 -0.7405 -1.2273
 5455SOL    HW227825   4.251   0.372   8.973 -1.7685 -0.1125  1.0225
 5456SOL     OW27826   1.593   2.346   4.624  0.0578 -0.1996 -0.2748
 5456SOL    HW127827   1.585   2.277   4.558 -1.8679  0.6123 -0.8714
 5456SOL    HW227828   1.627   2.298   4.700 -0.7947 -0.6393 -0.1699
 5457SOL     OW27829   2.673   1.048  16.156  0.0673 -0.3079 -0.3139
 5457SOL    HW127830   2.759   1.082  16.180  0.9553 -1.3241 -2.0152
 5457SOL    HW227831   2.661   0.970  16.210 -0.0164  0.2952  0.5364
 5458SOL     OW27832   3.336   4.178   8.148  0.1915 -0.0805  0.9028
 5458SOL    HW127833   3.291   4.136   8.074  0.8734  1.1970 -0.2389
 5458SOL    HW227834   3.259   4.200   8.200 -1.1179 -2.7500  0.1201
 5459SOL     OW27835   1.253   1.821   2.834  0.0515 -0.0471  0.1515
 5459SOL    HW127836   1.227   1.867   2.914  1.7596  1.8000 -0.3678
 5459SOL    HW227837   1.165   1.799   2.804  0.2844 -3.6324  2.0642
 5460SOL     OW27838   4.590   0.957  16.090 -0.6270 -0.0743 -0.6245
 5460SOL    HW127839   4.640   1.018  16.035  0.4854 -0.8324 -0.4457
 5460SOL    HW227840   4.644   0.878  16.095  0.4791  0.5472 -2.5703
 5461SOL     OW27841   3.841   1.318   8.318 -0.4009  0.2436 -0.4452
 5461SOL    HW127842   3.934   1.329   8.297 -0.2608  0.0958  0.0904
 5461SOL    HW227843   3.829   1.223   8.317 -0.3729  0.2270  0.7749
 5462SOL     OW27844   2.209   4.444   4.804 -0.0112 -1.2801 -0.4613
 5462SOL    HW127845   2.295   4.419   4.771  0.9163  0.4869  0.5464
 5462SOL    HW227846   2.237   4.522   4.852 -0.2209 -0.0092 -2.3967
 5463SOL     OW27847   0.446   0.447   9.341  0.2681  0.3242  0.2541
 5463SOL    HW127848   0.356   0.471   9.319  0.1992 -1.0594 -1.0313
 5463SOL    HW227849   0.484   0.452   9.254 -1.5110 -0.7926 -0.6050
 5464SOL     OW27850   3.931   3.029   7.845 -0.4691 -0.4733  0.0119
 5464SOL    HW127851   3.994   2.984   7.789 -1.0912 -2.3415  0.7993
 5464SOL    HW227852   3.885   3.077   7.776  0.2981  1.5968  0.9624
 5465SOL     OW27853   2.796   3.732   9.403 -0.0880  0.1290 -0.3859
 5465SOL    HW127854   2.773   3.775   9.486  0.6849 -1.5025  0.6774
 5465SOL    HW227855   2.716   3.742   9.352 -1.2209  2.4198  1.8418
 5466SOL     OW27856   0.358   1.721   7.484  0.7538 -0.5530 -0.1731
 5466SOL    HW127857   0.383   1.805   7.522 -1.5372 -1.4362  3.2953
 5466SOL    HW227858   0.412   1.668   7.544 -0.9908  0.9999  2.7580
 5467SOL     OW27859   1.775   4.689   1.932  0.2394 -0.3549 -0.0798
 5467SOL    HW127860   1.827   0.048   1.924  2.2382 -1.5004  1.4818
 5467SOL    HW227861   1.688   0.007   1.939  1.0543  1.3300  0.4778
 5468SOL     OW27862   2.762   3.021  16.620 -0.0020  0.4226  0.0251
 5468SOL    HW127863   2.769   2.980  16.534 -2.8197  0.6311 -0.3094
 5468SOL    HW227864   2.851   2.991  16.641 -0.0587  0.0667 -0.2573
 5469SOL     OW27865   1.491   2.870  13.292 -0.1902  1.0017 -0.2824
 5469SOL    HW127866   1.533   2.933  13.351 -2.1022  1.3170  0.7345
 5469SOL    HW227867   1.528   2.899  13.208 -0.6026  1.1079 -0.4276
 5470SOL     OW27868   4.677   4.263   4.493 -0.5286 -0.2819 -0.0228
 5470SOL    HW127869   4.643   4.352   4.501  1.1205  0.3996 -0.7311
 5470SOL    HW227870   0.051   4.269   4.492 -0.4770 -0.9639  0.6587
 5471SOL     OW27871   4.347   0.319   5.734  0.5117  0.6281  0.6967
 5471SOL    HW127872   4.283   0.357   5.794  0.2530 -0.8955  1.4052
 5471SOL    HW227873   4.332   0.361   5.649  1.2827  1.4052  0.9496
 5472SOL     OW27874   2.521   4.108   8.035 -0.1191 -0.5043 -0.9337
 5472SOL    HW127875   2.517   4.202   8.014 -0.3142  0.2672  2.4250
 5472SOL    HW227876   2.583   4.109   8.108  0.3982 -0.0588 -1.3845
 5473SOL     OW27877   0.329   3.113   9.478  0.3086  0.1199 -0.3676
 5473SOL    HW127878   0.360   3.187   9.530  1.0300 -1.6254  1.7115
 5473SOL    HW227879   0.293   3.054   9.545  0.0148 -0.2530 -0.8555
 5474SOL     OW27880   4.465   3.972   2.309 -0.0828 -0.9086 -0.5647
 5474SOL    HW127881   4.517   3.892   2.294  1.4336  0.0852 -0.6025
 5474SOL    HW227882   4.535   4.037   2.300 -2.8311  2.1132 -0.0262
 5475SOL     OW27883   2.486   2.247   0.205 -0.1694 -0.1669  0.0932
 5475SOL    HW127884   2.416   2.233   0.269  0.2682 -3.2060 -0.1200
 5475SOL    HW227885   2.436   2.282   0.132  0.9913 -0.1089 -0.6841
 5476SOL     OW27886   3.944   3.592   5.639 -0.2993 -0.0892 -0.8534
 5476SOL    HW127887   3.934   3.649   5.715  2.4397 -1.9587  0.9080
 5476SOL    HW227888   3.855   3.593   5.603 -0.3415  1.3823 -0.6977
 5477SOL     OW27889   3.321   3.707  12.272 -0.8611  0.2844 -0.4785
 5477SOL    HW127890   3.310   3.626  12.322  2.6630  1.3647  1.9846
 5477SOL    HW227891   3.388   3.753  12.322 -0.2488 -0.6925 -0.4184
 5478SOL     OW27892   2.447   1.873   8.912  0.3662 -0.0879 -0.3576
 5478SOL    HW127893   2.476   1.942   8.972 -0.4684  1.3154 -1.5636
 5478SOL    HW227894   2.356   1.900   8.901  0.7375  0.3157 -2.5126
 5479SOL     OW27895   2.692   3.382   6.389 -0.0975  0.3296 -0.0583
 5479SOL    HW127896   2.697   3.418   6.477  1.6269 -0.0859  0.0132
 5479SOL    HW227897   2.605   3.342   6.393 -0.5861  1.3992 -0.1617
 5480SOL     OW27898   3.121   0.624   5.203  0.3431 -0.0313  0.4236
 5480SOL    HW127899   3.069   0.549   5.231 -1.1570  0.5290 -0.8075
 5480SOL    HW227900   3.122   0.613   5.108  1.0473  0.2564  0.4026
 5481SOL     OW27901   1.784   4.239  13.268 -0.0199  0.1244  0.4784
 5481SOL    HW127902   1.864   4.198  13.302 -0.1342  0.7022  1.4594
 5481SOL    HW227903   1.764   4.304  13.335 -0.1523  0.0775  0.4858
 5482SOL     OW27904   1.994   4.613   0.197 -0.8309 -0.2787  0.9589
 5482SOL    HW127905   1.981   4.657   0.282  0.2803 -3.9913  3.0342
 5482SOL    HW227906   1.918   4.561   0.172  1.6732 -1.6449 -3.6656
 5483SOL     OW27907   1.147   0.099  10.971 -0.5795  0.2616 -1.2130
 5483SOL    HW127908   1.167   0.190  10.951  2.7129 -0.1490  0.3115
 5483SOL    HW227909   1.223   0.048  10.944 -1.1458 -0.9933 -0.4670
 5484SOL     OW27910   1.429   1.580  13.558  0.2045  0.2256 -0.4506
 5484SOL    HW127911   1.511   1.625  13.577 -0.5386  0.8208  1.4212
 5484SOL    HW227912   1.415   1.590  13.464 -3.0365 -2.4902 -0.2416
 5485SOL     OW27913   4.351   1.656   3.088 -0.0221 -0.4629  0.7886
 5485SOL    HW127914   4.425   1.667   3.148 -1.0220 -2.8096  2.4483
 5485SOL    HW227915   4.396   1.600   3.025  0.0334 -1.0216  1.3297
 5486SOL     OW27916   3.265   2.216  17.614 -0.2857 -0.3862  0.2919
 5486SOL    HW127917   3.202   2.241  17.547 -0.0167  0.7939  0.4745
 5486SOL    HW227918   3.346   2.216  17.563 -1.8687  0.1337 -2.2338
 5487SOL     OW27919   2.304   2.760   4.286 -0.7481  0.3481  0.0711
 5487SOL    HW127920   2.288   2.760   4.381  3.0607 -1.4243  0.7448
 5487SOL    HW227921   2.375   2.823   4.276 -0.5557  0.1497  0.1805
 5488SOL     OW27922   4.633   1.567   2.397  0.5343 -0.2992 -0.1654
 5488SOL    HW127923   4.645   1.493   2.337 -1.1090 -0.1906 -0.6361
 5488SOL    HW227924   4.537   1.561   2.391  0.5146 -0.9945  0.7579
 5489SOL     OW27925   2.515   3.035   6.308  0.0494  0.4680 -0.8234
 5489SOL    HW127926   2.436   2.983   6.325 -2.4814  4.0037 -1.9120
 5489SOL    HW227927   2.499   3.112   6.363  0.0141 -1.5582  2.0122
 5490SOL     OW27928   0.197   3.547   5.193  0.4343 -0.1822 -0.3718
 5490SOL    HW127929   0.103   3.550   5.209  0.6550 -0.8057  0.9850
 5490SOL    HW227930   0.217   3.625   5.140 -3.6483  1.3805  0.3737
 5491SOL     OW27931   1.532   2.145  15.810  0.0217  0.5308 -0.5996
 5491SOL    HW127932   1.606   2.132  15.870 -1.4641 -0.4289  1.0035
 5491SOL    HW227933   1.503   2.235  15.823 -1.4640  0.3712 -2.8858
 5492SOL     OW27934   0.591   3.794   2.759 -0.0562  0.8742 -0.0651
 5492SOL    HW127935   0.532   3.835   2.695 -2.0359 -0.0312  1.1940
 5492SOL    HW227936   0.532   3.771   2.830  1.2043 -3.1517 -0.3122
 5493SOL     OW27937   4.376   1.677  10.614  0.4404  0.3944  0.2966
 5493SOL    HW127938   4.379   1.619  10.690 -2.1128  0.4935  0.4706
 5493SOL    HW227939   4.309   1.634  10.561  1.3307  1.0507 -1.3635
 5494SOL     OW27940   2.806   0.060  15.775  0.6763 -0.4633  0.1787
 5494SOL    HW127941   2.828   0.148  15.744  0.3099  0.1590  1.6927
 5494SOL    HW227942   2.730   0.095  15.822 -0.0024 -0.7902 -0.6813
 5495SOL     OW27943   2.442   3.397   3.698 -0.3338  0.4339  0.0212
 5495SOL    HW127944   2.500   3.368   3.629 -0.4720  1.0221 -0.3433
 5495SOL    HW227945   2.493   3.403   3.779 -0.0199 -1.1458 -0.0734
 5496SOL     OW27946   1.451   0.119   3.985 -0.3149 -0.1241 -0.1630
 5496SOL    HW127947   1.514   0.190   3.994  0.3334 -0.7871  0.5436
 5496SOL    HW227948   1.381   0.134   4.049  0.5776 -0.7705  0.9643
 5497SOL     OW27949   3.878   0.619   3.816  0.4458  0.0578 -0.1180
 5497SOL    HW127950   3.890   0.714   3.820  0.4081 -0.0399  2.7773
 5497SOL    HW227951   3.966   0.582   3.816  0.8021  0.9091  2.0465
 5498SOL     OW27952   2.689   2.960   5.548 -0.0700  0.1182  0.0031
 5498SOL    HW127953   2.648   3.046   5.537 -1.0761 -0.2452  0.8382
 5498SOL    HW227954   2.607   2.913   5.530 -0.3924  0.3878  0.7709
 5499SOL     OW27955   1.989   4.444   4.324  0.9319 -0.4553 -0.2632
 5499SOL    HW127956   2.007   4.359   4.364  1.3829  1.0373  2.6865
 5499SOL    HW227957   2.003   4.504   4.397 -2.2651 -0.0264  0.0017
 5500SOL     OW27958   1.723   0.338   0.915  0.0278  0.0772 -0.0914
 5500SOL    HW127959   1.741   0.431   0.931  2.8354 -0.2707 -1.1307
 5500SOL    HW227960   1.808   0.294   0.917  0.7900  1.4957 -0.9880
 5501SOL     OW27961   1.678   2.756   1.746 -0.3277 -0.4423  0.2476
 5501SOL    HW127962   1.621   2.823   1.784  1.3707  0.7143  0.7190
 5501SOL    HW227963   1.647   2.762   1.655 -1.7033  0.6781  0.7925
 5502SOL     OW27964   3.791   2.631  11.821 -0.3595  0.0917 -0.1408
 5502SOL    HW127965   3.831   2.718  11.813  2.3713 -0.9824  1.8448
 5502SOL    HW227966   3.707   2.645  11.779  0.2004  1.0691 -0.9522
 5503SOL     OW27967   2.748   2.301  16.334  0.4351  0.2947 -0.1051
 5503SOL    HW127968   2.822   2.279  16.277 -0.4320 -0.9736 -0.7273
 5503SOL    HW227969   2.750   2.225  16.391  2.1077 -0.6905 -1.4695
 5504SOL     OW27970   0.780   1.440   9.027  0.3811 -0.1647 -0.6003
 5504SOL    HW127971   0.814   1.498   9.095  1.6856 -1.3455 -0.2596
 5504SOL    HW227972   0.757   1.509   8.965  2.1575  1.6853  0.8036
 5505SOL     OW27973   1.543   2.823   8.466 -0.0957 -0.2281  0.0750
 5505SOL    HW127974   1.596   2.903   8.465 -0.9504  0.3086 -2.3051
 5505SOL    HW227975   1.508   2.822   8.555 -1.7681 -1.9683 -0.6137
 5506SOL     OW27976   4.496   2.945  12.081  0.3778 -0.3095  0.4781
 5506SOL    HW127977   4.581   2.979  12.054  1.0051 -1.4754  0.9639
 5506SOL    HW227978   4.502   2.957  12.175  0.9255  0.2964  0.3662
 5507SOL     OW27979   2.855   1.335   5.287  0.1453 -0.1657 -0.3703
 5507SOL    HW127980   2.907   1.355   5.209 -0.5570 -0.0173 -0.8012
 5507SOL    HW227981   2.888   1.399   5.350  1.4409  0.6141 -1.8356
 5508SOL     OW27982   3.740   2.441  13.158  0.2806 -0.4655 -0.4460
 5508SOL    HW127983   3.678   2.372  13.178 -0.0218 -0.5841 -1.8039
 5508SOL    HW227984   3.788   2.404  13.084  2.4931  0.2427  0.6175
 5509SOL     OW27985   3.610   4.374   2.883  0.6847 -0.4244 -0.0265
 5509SOL    HW127986   3.677   4.393   2.818  0.3121  0.2860 -0.1973
 5509SOL    HW227987   3.639   4.285   2.904 -0.4569 -1.2424 -1.9879
 5510SOL     OW27988   3.781   0.264   7.885  0.1072  0.1917 -0.1032
 5510SOL    HW127989   3.743   0.338   7.933  2.2312  0.2648  1.4777
 5510SOL    HW227990   3.780   0.212   7.965 -1.1616  0.2223 -0.1056
 5511SOL     OW27991   3.420   4.383   5.034  0.1654 -0.0614  0.4200
 5511SOL    HW127992   3.379   4.450   5.089  0.0192 -0.0339  0.2788
 5511SOL    HW227993   3.468   4.439   4.973  1.4289 -0.6748  0.8480
 5512SOL     OW27994   0.288   3.669   8.686  0.3980  0.5266 -1.2377
 5512SOL    HW127995   0.205   3.625   8.707  1.6650 -0.8094  1.0901
 5512SOL    HW227996   0.345   3.606   8.641 -1.5156 -1.7093 -0.5081
 5513SOL     OW27997   0.982   2.454   6.125  0.2769 -0.4748 -0.0466
 5513SOL    HW127998   1.074   2.467   6.103 -0.2965  2.6873 -0.6186
 5513SOL    HW227999   0.965   2.510   6.200  1.3448  1.1184 -0.9902
 5514SOL     OW28000   0.500   2.024  11.865  0.1242  0.6880  0.2156
 5514SOL    HW128001   0.439   2.011  11.938 -0.8171 -0.8644 -0.8582
 5514SOL    HW228002   0.584   2.036  11.909  0.4842  2.0790 -0.8749
 5515SOL     OW28003   2.276   3.532   7.989 -0.0063 -0.1157  0.1716
 5515SOL    HW128004   2.280   3.613   8.040  1.2042  0.8968 -1.5049
 5515SOL    HW228005   2.191   3.505   8.022  0.0333 -0.9746 -0.4248
 5516SOL     OW28006   4.349   1.646  12.519 -0.6898  0.8270 -0.0010
 5516SOL    HW128007   4.318   1.556  12.513 -0.1398  0.6119  0.4005
 5516SOL    HW228008   4.364   1.659  12.426  1.8802 -0.7862  0.1846
 5517SOL     OW28009   4.250   0.904   7.651  0.2457 -0.2584 -0.3552
 5517SOL    HW128010   4.288   0.931   7.567 -1.8635 -0.0340 -1.2304
 5517SOL    HW228011   4.297   0.964   7.709 -1.2165  0.8174 -0.2872
 5518SOL     OW28012   3.502   1.823  14.553  0.2797  0.0999  0.6584
 5518SOL    HW128013   3.497   1.848  14.461  1.1566  2.6246  1.3075
 5518SOL    HW228014   3.573   1.875  14.589 -0.2125  0.2393  1.4412
 5519SOL     OW28015   4.658   4.525   8.187 -0.6005  0.0139 -0.0503
 5519SOL    HW128016   4.612   4.578   8.122  0.8813  4.6579  2.6500
 5519SOL    HW228017   0.013   4.491   8.139  1.2307  0.9632  2.1878
 5520SOL     OW28018   0.646   0.373   6.404 -0.0099  0.0747 -0.4987
 5520SOL    HW128019   0.697   0.369   6.324 -3.3014 -0.2892 -2.5607
 5520SOL    HW228020   0.647   0.464   6.434 -0.3536 -0.3706  0.8805
 5521SOL     OW28021   0.148   0.039   4.053  0.4661 -0.0300 -0.7787
 5521SOL    HW128022   0.182   0.093   3.981  2.6137 -0.7524 -0.3137
 5521SOL    HW228023   0.057   0.038   4.024  0.1649  0.0577  0.1782
 5522SOL     OW28024   1.855   1.398   4.031 -0.2011 -0.0449 -0.6291
 5522SOL    HW128025   1.779   1.340   4.033  0.5158 -0.9399  0.7508
 5522SOL    HW228026   1.878   1.394   4.124 -0.7926 -2.9666 -0.6049
 5523SOL     OW28027   2.644   0.055   3.123 -0.2156 -0.5512  0.2672
 5523SOL    HW128028   2.675   0.039   3.034 -0.6039 -0.8071  0.1740
 5523SOL    HW228029   2.560   0.009   3.129 -0.7726  0.2575 -1.4059
 5524SOL     OW28030   1.455   0.725   4.639 -0.3359  0.0730 -0.4204
 5524SOL    HW128031   1.384   0.710   4.701 -0.5272  0.5188 -0.5313
 5524SOL    HW228032   1.503   0.647   4.665  0.2232  0.4218 -0.3966
 5525SOL     OW28033   1.009   1.313   6.368 -0.2439  0.2324  0.0816
 5525SOL    HW128034   1.051   1.228   6.362 -1.8109 -0.5530  0.0884
 5525SOL    HW228035   1.081   1.375   6.366 -0.0450 -0.0116 -0.5681
 5526SOL     OW28036   2.459   0.952   6.569 -0.4723 -0.3042  0.5879
 5526SOL    HW128037   2.433   1.043   6.578 -0.7158 -0.2392 -0.7848
 5526SOL    HW228038   2.553   0.958   6.582 -0.6998  1.6149  1.2674
 5527SOL     OW28039   3.207   1.973   0.057  0.2436  0.4326 -0.2040
 5527SOL    HW128040   3.112   1.963   0.058  0.1411  1.4150 -0.2406
 5527SOL    HW228041   3.220   2.010  17.658 -0.0518  2.0773  0.4479
 5528SOL     OW28042   0.905   3.137   7.555 -0.2531 -0.5053 -0.4301
 5528SOL    HW128043   0.879   3.188   7.632  2.4861  0.0471  0.1292
 5528SOL    HW228044   0.841   3.067   7.543 -0.8494  0.1689 -1.1476
 5529SOL     OW28045   0.897   3.857   8.955  0.5239  0.0264  0.0984
 5529SOL    HW128046   0.881   3.763   8.951  0.1315  0.0767  0.4955
 5529SOL    HW228047   0.883   3.872   8.861  0.0419  2.7102  0.5878
 5530SOL     OW28048   2.463   1.712  11.786 -0.4842 -0.3362  0.0060
 5530SOL    HW128049   2.368   1.716  11.778 -0.5079 -0.2533  0.3366
 5530SOL    HW228050   2.481   1.630  11.739  2.0180  0.1085  0.1862
 5531SOL     OW28051   2.902   0.391  12.817  0.1095  0.3883 -0.4295
 5531SOL    HW128052   2.833   0.445  12.856 -0.6247 -1.2877  0.5817
 5531SOL    HW228053   2.922   0.451  12.745 -0.2138  2.3132  1.0522
 5532SOL     OW28054   1.680   0.746   8.309  0.4655  0.1936  0.2804
 5532SOL    HW128055   1.657   0.830   8.350  1.9517  0.8749 -0.2742
 5532SOL    HW228056   1.760   0.771   8.262  0.5806  1.9763  1.4028
 5533SOL     OW28057   4.107   0.870  17.643  0.4654  0.8401  0.0572
 5533SOL    HW128058   4.147   0.796   0.002  0.4891  1.8958  1.7149
 5533SOL    HW228059   4.159   0.939  17.684 -0.4287  1.4120  0.2052
 5534SOL     OW28060   1.577   0.477   9.726 -0.0596  0.2363 -0.2919
 5534SOL    HW128061   1.646   0.492   9.790  0.4712 -0.9450 -0.5945
 5534SOL    HW228062   1.504   0.448   9.781  0.7695  0.7361  1.0712
 5535SOL     OW28063   0.943   1.875   3.644  0.2994 -0.1464 -0.4884
 5535SOL    HW128064   0.994   1.861   3.564  0.3753 -1.2621 -0.2386
 5535SOL    HW228065   1.009   1.907   3.705  0.4664  0.7971 -1.1583
 5536SOL     OW28066   4.158   0.384   7.690 -0.4445 -0.1486 -0.2471
 5536SOL    HW128067   4.203   0.466   7.710 -0.3182 -0.1808 -0.4018
 5536SOL    HW228068   4.230   0.323   7.704 -1.0338 -0.9142 -0.6069
 5537SOL     OW28069   0.762   3.657   8.072 -0.4295  0.4182  0.5857
 5537SOL    HW128070   0.678   3.612   8.075 -0.7982  1.2823  3.0900
 5537SOL    HW228071   0.785   3.642   8.164  1.0951 -0.2919  0.0971
 5538SOL     OW28072   4.003   2.995   9.733 -0.5020  0.4537 -0.7932
 5538SOL    HW128073   3.958   2.912   9.747 -0.6098  0.2634 -2.2363
 5538SOL    HW228074   4.021   2.991   9.639  0.2553 -1.6848 -0.5474
 5539SOL     OW28075   3.846   3.195  15.109 -0.0257  0.1247 -0.3338
 5539SOL    HW128076   3.933   3.170  15.138 -0.1241  1.8608  1.4238
 5539SOL    HW228077   3.857   3.218  15.016 -0.2294 -0.0472 -0.4010
 5540SOL     OW28078   2.079   1.569  15.938 -0.3253 -0.2899  0.2951
 5540SOL    HW128079   2.052   1.661  15.942 -0.7157 -0.3747 -0.4402
 5540SOL    HW228080   2.020   1.528  16.001  0.9767  1.6274  2.7438
 5541SOL     OW28081   0.439   1.481  16.845 -0.6045  0.0219 -0.1625
 5541SOL    HW128082   0.407   1.392  16.831  1.1025 -0.4144 -1.3364
 5541SOL    HW228083   0.350   1.515  16.841 -0.4323  0.3456 -1.1902
 5542SOL     OW28084   1.173   3.743   7.355  0.0221 -0.1431 -0.2712
 5542SOL    HW128085   1.197   3.785   7.273  0.6542  0.3864  0.1845
 5542SOL    HW228086   1.095   3.690   7.341 -1.0583  0.9398  1.5168
 5543SOL     OW28087   1.730   2.998   5.236  0.2053 -0.2421 -0.6041
 5543SOL    HW128088   1.648   3.001   5.187  0.5007  1.1342 -1.0326
 5543SOL    HW228089   1.726   2.906   5.262  0.2334 -0.2100 -0.4860
 5544SOL     OW28090   3.081   1.668  14.066  0.1339  0.0834  0.3876
 5544SOL    HW128091   3.092   1.607  14.140 -0.1344  0.5584  0.8153
 5544SOL    HW228092   3.146   1.735  14.088  0.3676 -1.0773  3.2431
 5545SOL     OW28093   3.649   1.001   8.507 -0.2128 -0.2986  0.4469
 5545SOL    HW128094   3.717   1.027   8.568  0.2499 -1.0517  0.2538
 5545SOL    HW228095   3.602   0.928   8.548  0.0307 -1.5995 -1.5932
 5546SOL     OW28096   0.837   3.911   4.225 -0.2575  0.6559 -0.2266
 5546SOL    HW128097   0.907   3.973   4.204  0.3440 -0.3569 -1.2518
 5546SOL    HW228098   0.788   3.909   4.143 -0.5745 -3.0617  0.0311
 5547SOL     OW28099   0.890   4.352  15.335 -0.3650 -0.2864 -0.6652
 5547SOL    HW128100   0.921   4.307  15.414  3.7777  1.8959 -1.0275
 5547SOL    HW228101   0.845   4.427  15.374 -1.0829  0.0076 -2.0565
 5548SOL     OW28102   1.066   2.100  17.008  0.0972  0.0499  0.3219
 5548SOL    HW128103   1.012   2.179  17.010 -0.8423 -0.5416 -1.6081
 5548SOL    HW228104   1.090   2.086  16.916 -0.7681  0.0845  0.0955
 5549SOL     OW28105   2.708   3.408   2.265  0.7128  0.2779 -0.0384
 5549SOL    HW128106   2.770   3.458   2.212  1.3231 -2.8248 -2.2159
 5549SOL    HW228107   2.754   3.325   2.266  1.8948  0.9321 -0.0039
 5550SOL     OW28108   3.495   0.345  14.567  0.3258  0.0376 -0.4128
 5550SOL    HW128109   3.426   0.306  14.621  0.3438 -0.2471 -0.5961
 5550SOL    HW228110   3.571   0.289  14.580 -0.9239 -1.1032  2.1462
 5551SOL     OW28111   2.275   0.497   5.217 -0.5172 -0.1025  0.5078
 5551SOL    HW128112   2.270   0.462   5.128 -0.3896  2.0918 -0.3670
 5551SOL    HW228113   2.277   0.427   5.282  0.5163 -1.1906 -0.6893
 5552SOL     OW28114   1.550   4.292   9.332 -0.0569  0.6127 -0.0623
 5552SOL    HW128115   1.568   4.246   9.414  0.9465  0.8589 -0.1394
 5552SOL    HW228116   1.511   4.377   9.349 -0.1612  1.0133 -2.2253
 5553SOL     OW28117   1.023   2.084  14.673  0.4665 -0.4293 -0.1699
 5553SOL    HW128118   1.088   2.118  14.735  0.5880  0.9196 -1.0292
 5553SOL    HW228119   0.980   2.017  14.726 -1.0210 -0.2816 -1.1821
 5554SOL     OW28120   1.513   1.514   3.430 -0.7872 -0.2325 -0.0481
 5554SOL    HW128121   1.444   1.535   3.367  0.6317  2.1213 -0.8138
 5554SOL    HW228122   1.461   1.540   3.506  2.8685  1.4598  1.8638
 5555SOL     OW28123   2.544   3.731   7.472  0.5896  0.2800 -0.2945
 5555SOL    HW128124   2.572   3.822   7.474  0.0080  0.4435  0.1660
 5555SOL    HW228125   2.457   3.731   7.431  0.4533  0.2304 -0.0039
 5556SOL     OW28126   2.563   2.718  10.376 -0.0815 -0.8685  0.0779
 5556SOL    HW128127   2.616   2.640  10.393 -0.1439 -0.6814  1.1202
 5556SOL    HW228128   2.573   2.738  10.283  0.8461  0.3587  0.4312
 5557SOL     OW28129   0.517   1.114   0.619  0.5013 -0.2720 -0.1651
 5557SOL    HW128130   0.490   1.086   0.707 -0.1157  2.2209  0.4311
 5557SOL    HW228131   0.491   1.041   0.563  2.9333 -0.7103 -0.7402
 5558SOL     OW28132   2.258   2.002   6.524 -0.3692 -0.3307  0.3025
 5558SOL    HW128133   2.232   2.091   6.500  1.3917 -0.3013 -1.5505
 5558SOL    HW228134   2.186   1.982   6.583  0.2493  0.6287  1.3799
 5559SOL     OW28135   2.276   0.729   3.522 -0.1893  0.0315  0.1314
 5559SOL    HW128136   2.200   0.672   3.514 -1.0678  0.9166  1.9867
 5559SOL    HW228137   2.249   0.784   3.596  0.7001 -0.7445  1.0305
 5560SOL     OW28138   0.628   2.615  17.088  0.1682  0.2649  0.8400
 5560SOL    HW128139   0.684   2.591  17.161 -0.2072  0.5906  1.2324
 5560SOL    HW228140   0.614   2.706  17.112  1.1372  0.6083  0.1007
 5561SOL     OW28141   2.753   4.054  10.784  0.1035  0.7374  0.2097
 5561SOL    HW128142   2.712   4.121  10.839  0.2851 -0.1004  1.3446
 5561SOL    HW228143   2.683   3.989  10.782  1.3204 -0.5498 -0.5863
 5562SOL     OW28144   2.063   2.434   8.638  0.5625 -0.1939  0.2490
 5562SOL    HW128145   2.112   2.457   8.559  2.2924 -2.2965  0.6924
 5562SOL    HW228146   2.110   2.354   8.664  0.5123 -0.6291 -0.9756
 5563SOL     OW28147   3.844   1.507  10.375  0.4563 -0.0413 -0.4527
 5563SOL    HW128148   3.894   1.426  10.390 -1.1875 -0.8424  0.8478
 5563SOL    HW228149   3.810   1.529  10.462 -0.4752  0.8689 -1.0535
 5564SOL     OW28150   2.662   0.725  16.061  0.1524  0.1729 -0.3231
 5564SOL    HW128151   2.715   0.647  16.042  0.9475  0.9972 -1.4867
 5564SOL    HW228152   2.609   0.729  15.981 -0.7346 -1.9735  0.1495
 5565SOL     OW28153   3.230   4.130   9.914  0.1992 -0.0479  0.2981
 5565SOL    HW128154   3.205   4.213   9.956  1.0688  1.0969 -1.4465
 5565SOL    HW228155   3.169   4.061   9.939  0.7423 -0.2288  1.1284
 5566SOL     OW28156   1.388   3.791   4.879 -0.4697 -0.1428 -0.4336
 5566SOL    HW128157   1.371   3.728   4.809  0.8794  0.5554 -1.3832
 5566SOL    HW228158   1.441   3.864   4.848 -2.1473  1.1301 -0.2897
 5567SOL     OW28159   4.035   2.043   0.751  1.0092  0.4382 -0.2073
 5567SOL    HW128160   4.075   2.111   0.805  0.0060  1.9842 -1.4332
 5567SOL    HW228161   3.996   2.094   0.680 -1.0544  1.5963  1.7986
 5568SOL     OW28162   2.941   4.548   6.418 -0.3412 -0.7060 -0.0319
 5568SOL    HW128163   2.892   4.625   6.448 -0.3544  0.0730 -2.0796
 5568SOL    HW228164   2.916   4.536   6.326  0.1355 -0.8213 -0.1465
 5569SOL     OW28165   1.908   4.390   6.594  0.3794 -0.2568  0.0802
 5569SOL    HW128166   1.913   4.485   6.606 -0.1598 -0.0268 -1.5931
 5569SOL    HW228167   1.814   4.376   6.588  0.0833  1.3236  0.9323
 5570SOL     OW28168   2.924   2.473   8.853  0.0901 -0.3445  0.0534
 5570SOL    HW128169   2.876   2.552   8.878  0.7712  0.5525 -1.5012
 5570SOL    HW228170   2.920   2.428   8.938  1.2209 -1.3337 -0.4185
 5571SOL     OW28171   4.601   4.048   5.186 -0.4304  0.0738 -0.4219
 5571SOL    HW128172   4.657   3.971   5.178 -0.6933 -0.0285 -1.2321
 5571SOL    HW228173   4.656   4.120   5.217 -0.0773  0.4050 -1.7926
 5572SOL     OW28174   1.655   4.615  11.155 -0.1164  0.3264 -0.2801
 5572SOL    HW128175   1.726   4.678  11.140 -1.2210  1.6614  0.0510
 5572SOL    HW228176   1.623   4.592  11.068  0.1471 -1.7623  0.1759
 5573SOL     OW28177   0.740   4.208   8.254  0.3239  0.1829  0.3966
 5573SOL    HW128178   0.718   4.148   8.183  1.6907  0.3753 -0.2085
 5573SOL    HW228179   0.740   4.292   8.207 -3.2202  1.3182  2.4118
 5574SOL     OW28180   0.235   2.531   0.801 -0.0732  0.0160  0.0993
 5574SOL    HW128181   0.160   2.531   0.860 -0.7088  1.3665 -0.7025
 5574SOL    HW228182   0.301   2.492   0.858 -1.1485 -2.1774 -0.1640
 5575SOL     OW28183   1.448   1.778   9.101  0.3472 -1.1948 -0.0562
 5575SOL    HW128184   1.426   1.816   9.016  1.9912 -0.1144  0.0175
 5575SOL    HW228185   1.522   1.722   9.079 -1.0114 -2.7647 -0.6682
 5576SOL     OW28186   1.140   1.845   3.462  0.2156 -0.4638 -0.0853
 5576SOL    HW128187   1.218   1.866   3.411 -0.3714  1.7062 -0.0867
 5576SOL    HW228188   1.075   1.825   3.394 -0.7366  3.3275 -0.2795
 5577SOL     OW28189   2.285   4.213   6.257 -0.1989  0.2078 -0.1827
 5577SOL    HW128190   2.199   4.244   6.228 -0.5114  0.3247  0.8794
 5577SOL    HW228191   2.280   4.236   6.350  1.7176  2.6943 -0.7036
 5578SOL     OW28192   0.497   2.026   9.270 -0.5378  0.3364 -0.0629
 5578SOL    HW128193   0.442   2.097   9.237  0.0587 -0.4194 -2.6734
 5578SOL    HW228194   0.540   1.983   9.197  1.8581  0.1462  1.4338
 5579SOL     OW28195   0.067   0.154   8.302  0.2489  0.6752  0.1032
 5579SOL    HW128196   4.695   0.167   8.287  0.2481  0.3554 -0.1670
 5579SOL    HW228197   0.088   0.176   8.393  0.4178  0.7261  0.0519
 5580SOL     OW28198   0.900   0.863   4.759  0.2433 -0.0811  0.2606
 5580SOL    HW128199   0.861   0.949   4.743  0.1361 -0.2521 -0.4026
 5580SOL    HW228200   0.896   0.820   4.674 -0.7455 -0.2595  0.4031
 5581SOL     OW28201   0.568   1.404   7.552 -0.1936  0.0327  0.2035
 5581SOL    HW128202   0.613   1.327   7.518 -3.6300 -1.8732 -0.0237
 5581SOL    HW228203   0.481   1.370   7.573 -0.6122 -0.0016 -1.6814
 5582SOL     OW28204   0.126   0.631   1.119 -0.2389  0.4785  0.3197
 5582SOL    HW128205   0.117   0.700   1.186 -1.6999  0.1908  0.4239
 5582SOL    HW228206   0.123   0.685   1.041  1.6942 -0.7938 -0.6260
 5583SOL     OW28207   4.650   0.951   2.959 -0.1721 -0.2975  0.5565
 5583SOL    HW128208   4.561   0.921   2.938  0.4204 -2.1619  0.7589
 5583SOL    HW228209   4.624   0.987   3.044 -0.6076  1.8076 -0.4696
 5584SOL     OW28210   0.172   0.452   2.578  0.3336 -0.0060  0.3103
 5584SOL    HW128211   0.258   0.412   2.566  0.8727  0.8083  1.4648
 5584SOL    HW228212   0.115   0.382   2.546  0.3123 -0.2333  0.8520
 5585SOL     OW28213   0.659   3.163  14.150  0.4966  0.5522 -0.2271
 5585SOL    HW128214   0.601   3.234  14.123  0.0221  0.2533  0.0132
 5585SOL    HW228215   0.677   3.135  14.060  0.7491 -0.3199  0.1015
 5586SOL     OW28216   2.525   1.639  16.740  0.2039  0.1185 -0.6951
 5586SOL    HW128217   2.452   1.584  16.712  1.0774 -1.2113 -0.3728
 5586SOL    HW228218   2.500   1.722  16.699  1.0173  0.6897 -0.0575
 5587SOL     OW28219   3.081   3.192   0.324  0.1634  0.3697 -0.5082
 5587SOL    HW128220   3.102   3.121   0.384 -1.0355 -0.4860 -1.0962
 5587SOL    HW228221   3.014   3.137   0.283  1.6425 -1.3121 -0.6752
 5588SOL     OW28222   2.141   2.816   2.480  0.1171  0.2496 -0.7657
 5588SOL    HW128223   2.154   2.735   2.430  2.0453  0.5563 -0.7371
 5588SOL    HW228224   2.047   2.809   2.462 -0.2410 -4.3943  3.2119
 5589SOL     OW28225   0.548   0.178   8.426 -0.0572  0.8309 -0.2430
 5589SOL    HW128226   0.621   0.220   8.381  0.5017 -0.4378 -0.4889
 5589SOL    HW228227   0.468   0.199   8.377  0.5376  1.2502 -1.0511
 5590SOL     OW28228   0.622   0.409   3.257  0.0945 -0.5576 -0.1220
 5590SOL    HW128229   0.532   0.423   3.226  0.8130 -2.6467 -3.1317
 5590SOL    HW228230   0.638   0.496   3.294  0.1936 -0.9068  0.6628
 5591SOL     OW28231   0.917   2.400   8.397 -0.0569 -0.1496  0.4958
 5591SOL    HW128232   0.842   2.414   8.339  0.3644 -1.6688 -0.4223
 5591SOL    HW228233   0.986   2.424   8.335 -1.0551  0.7043 -0.2824
 5592SOL     OW28234   4.575   2.884   1.922  0.5707 -0.8146 -0.2522
 5592SOL    HW128235   4.556   2.811   1.863 -0.2001 -0.2980 -0.6527
 5592SOL    HW228236   4.591   2.954   1.858  1.9704 -1.4166 -0.5658
 5593SOL     OW28237   0.939   3.212   4.051 -0.5794  0.7432 -0.4821
 5593SOL    HW128238   0.902   3.124   4.046  2.1589 -0.4374  0.0490
 5593SOL    HW228239   1.028   3.205   4.016 -1.1690 -2.0614 -1.3604
 5594SOL     OW28240   1.905   3.737   9.344  0.5195 -0.3142 -0.1743
 5594SOL    HW128241   1.867   3.664   9.394 -1.7363  1.4831  0.7661
 5594SOL    HW228242   1.905   3.699   9.256  0.6399  0.2400 -0.4077
 5595SOL     OW28243   2.073   3.297   2.309 -0.4049  0.0626 -0.6589
 5595SOL    HW128244   2.035   3.262   2.228 -0.2119 -3.5181  0.7801
 5595SOL    HW228245   2.023   3.378   2.316  1.7740  1.2302  1.4719
 5596SOL     OW28246   3.709   3.469   6.289  0.2337 -0.4813  0.4457
 5596SOL    HW128247   3.661   3.409   6.346  0.1785 -1.3246 -0.4892
 5596SOL    HW228248   3.700   3.546   6.346 -0.2814  0.3513 -0.7441
 5597SOL     OW28249   3.482   4.438  13.262  0.0414  0.3424 -0.4381
 5597SOL    HW128250   3.523   4.400  13.185  0.7719 -0.0092  0.1165
 5597SOL    HW228251   3.552   4.498  13.290 -0.8060  1.6307 -1.0875
 5598SOL     OW28252   3.875   0.725  16.391 -0.2561  0.2048  0.2453
 5598SOL    HW128253   3.849   0.817  16.387  1.9782  0.8030 -0.4358
 5598SOL    HW228254   3.930   0.732  16.313  1.4420 -1.1420  1.3148
 5599SOL     OW28255   2.278   4.671   2.822 -0.0967 -0.7600  0.0571
 5599SOL    HW128256   2.264   4.640   2.732 -1.4412  1.9360 -0.6777
 5599SOL    HW228257   2.245   0.039   2.819  2.2319  0.1242  0.8537
 5600SOL     OW28258   0.034   3.347  10.558 -0.0117  0.2877  0.5691
 5600SOL    HW128259   0.064   3.259  10.581  0.1760  0.4658  1.0090
 5600SOL    HW228260   0.101   3.398  10.604 -0.8651  2.4269 -0.5626
 5601SOL     OW28261   3.587   3.661   3.256 -0.2308  0.3560  0.6927
 5601SOL    HW128262   3.549   3.600   3.192 -0.3483 -0.2729  1.3662
 5601SOL    HW228263   3.564   3.622   3.340  1.9538 -0.3874  0.9655
 5602SOL     OW28264   0.451   0.059   0.171  0.5450 -0.3265  0.2358
 5602SOL    HW128265   0.511   0.074   0.097  0.3974  1.3085  0.4431
 5602SOL    HW228266   0.473   4.689   0.187  0.4267 -0.4013 -0.0298
 5603SOL     OW28267   2.355   1.256   0.883 -0.4204 -0.0369  0.0204
 5603SOL    HW128268   2.387   1.255   0.974 -0.3786 -4.7212 -0.0633
 5603SOL    HW228269   2.432   1.279   0.831  0.1179  1.6092  1.5090
 5604SOL     OW28270   1.722   4.308  16.538 -0.2369  0.8650 -0.4916
 5604SOL    HW128271   1.760   4.236  16.589  0.4273  0.6058 -1.3497
 5604SOL    HW228272   1.781   4.377  16.567  0.8550 -0.7776  1.2203
 5605SOL     OW28273   2.287   3.850   9.376  0.2133  0.4369 -0.0457
 5605SOL    HW128274   2.271   3.917   9.442 -0.7234 -0.8281  1.0106
 5605SOL    HW228275   2.236   3.884   9.303 -0.0753 -2.0413 -1.0227
 5606SOL     OW28276   1.317   4.333   7.541 -0.0421 -1.0156  0.0760
 5606SOL    HW128277   1.306   4.408   7.600  0.6795 -0.6316 -0.2846
 5606SOL    HW228278   1.267   4.263   7.585  0.6568 -0.9952  0.9121
 5607SOL     OW28279   3.615   3.605   7.789 -0.0340 -0.4905  0.1809
 5607SOL    HW128280   3.546   3.562   7.739  1.5985 -1.3160 -1.3573
 5607SOL    HW228281   3.631   3.534   7.852  1.6154 -1.7118 -1.6077
 5608SOL     OW28282   3.825   3.848  12.807  0.0973  0.1531  0.9049
 5608SOL    HW128283   3.880   3.926  12.796  0.0464 -0.1752 -1.6699
 5608SOL    HW228284   3.808   3.852  12.901  1.4674  0.6300  1.1434
 5609SOL     OW28285   4.711   0.679   6.428  0.1483 -0.2856  0.2090
 5609SOL    HW128286   0.001   0.589   6.398  1.8802  0.0316 -0.0610
 5609SOL    HW228287   4.624   0.666   6.467 -0.3347 -1.5969 -1.3116
 5610SOL     OW28288   0.912   2.120   6.729 -0.0000  0.3904  0.2860
 5610SOL    HW128289   0.967   2.107   6.651  0.1472  0.9988  0.2926
 5610SOL    HW228290   0.826   2.121   6.687 -0.2465 -0.7380  0.7602
 5611SOL     OW28291   1.109   3.848   6.178 -0.2130  0.1541 -0.0214
 5611SOL    HW128292   1.056   3.774   6.209  1.3615 -1.1694 -0.4773
 5611SOL    HW228293   1.081   3.844   6.086 -0.3521  2.3944 -0.0677
 5612SOL     OW28294   4.328   1.735  16.672 -0.2088 -0.4639  0.3386
 5612SOL    HW128295   4.340   1.765  16.761  2.3285 -1.0272  0.1918
 5612SOL    HW228296   4.383   1.656  16.670  0.9778  0.3549  0.2391
 5613SOL     OW28297   0.855   3.302  17.079 -0.4496 -0.4126  0.3464
 5613SOL    HW128298   0.949   3.319  17.087 -0.5447  0.0260  0.5538
 5613SOL    HW228299   0.869   3.213  17.046 -0.7067 -2.1940  5.0240
 5614SOL     OW28300   4.048   3.274   6.738 -0.2780  0.3603 -0.0980
 5614SOL    HW128301   4.020   3.209   6.801  1.7144  0.2145  0.6514
 5614SOL    HW228302   3.982   3.250   6.673  0.6500 -0.2219 -0.8419
 5615SOL     OW28303   1.419   3.978   1.563 -0.0829  0.4838 -0.7614
 5615SOL    HW128304   1.372   4.008   1.641  2.7965  1.4957  0.6020
 5615SOL    HW228305   1.498   4.030   1.577  0.0387  0.2179 -0.4650
 5616SOL     OW28306   0.812   3.785  14.757  0.6132 -0.4005  0.1666
 5616SOL    HW128307   0.718   3.770  14.771  1.0490 -0.9566  2.4733
 5616SOL    HW228308   0.819   3.765  14.663 -1.5591 -2.0667  0.3367
 5617SOL     OW28309   1.161   0.147   8.653  1.0740  0.3633  0.6696
 5617SOL    HW128310   1.139   0.059   8.621  2.1260  0.3298  0.0368
 5617SOL    HW228311   1.255   0.154   8.636  1.4067 -0.3911  2.1293
 5618SOL     OW28312   0.198   4.500   8.887  0.4106 -0.2089 -0.4582
 5618SOL    HW128313   0.133   4.570   8.897  2.2360  1.1395  1.6965
 5618SOL    HW228314   0.159   4.460   8.809  0.3388 -0.3498 -0.3505
 5619SOL     OW28315   4.592   0.804   5.339  0.1249  0.4118  0.2040
 5619SOL    HW128316   4.642   0.882   5.315  0.8533 -0.2120 -0.3214
 5619SOL    HW228317   4.534   0.806   5.263 -1.2644 -0.9197  1.2251
 5620SOL     OW28318   0.694   1.787   3.427 -0.2318 -0.3839 -0.5043
 5620SOL    HW128319   0.656   1.740   3.353 -0.4304  0.8325 -1.1745
 5620SOL    HW228320   0.708   1.867   3.376  0.8478 -0.3999 -0.2320
 5621SOL     OW28321   1.999   1.688  11.519 -0.9050  0.4024 -0.2839
 5621SOL    HW128322   1.950   1.763  11.552 -2.6791 -1.1979  0.7470
 5621SOL    HW228323   1.955   1.657  11.440 -0.7355 -2.1531  0.6256
 5622SOL     OW28324   2.329   2.366  14.812 -0.0278  0.4305  0.1238
 5622SOL    HW128325   2.424   2.364  14.822 -0.1739 -1.6931  0.9908
 5622SOL    HW228326   2.325   2.459  14.788 -0.2079  0.7323  1.3033
 5623SOL     OW28327   1.359   0.651  12.824  0.0696  0.3737  0.2009
 5623SOL    HW128328   1.446   0.615  12.844 -0.4007 -0.4355  0.7816
 5623SOL    HW228329   1.315   0.567  12.832 -0.3629  0.6036  0.2271
 5624SOL     OW28330   0.962   2.742   7.372  0.5047  0.2262 -0.2256
 5624SOL    HW128331   0.956   2.810   7.305 -0.7809  1.7520  1.4451
 5624SOL    HW228332   1.045   2.701   7.345  0.1070 -2.8575  3.2079
 5625SOL     OW28333   4.613   1.771  12.588 -0.2184 -0.1584  0.0827
 5625SOL    HW128334   4.538   1.714  12.601  0.7528 -1.3369  0.4472
 5625SOL    HW228335   4.568   1.853  12.564  0.2520  0.0569 -0.0552
 5626SOL     OW28336   3.073   1.939  15.345  0.8703  0.0420  0.2820
 5626SOL    HW128337   3.025   1.887  15.410 -0.3041  1.0018  0.1791
 5626SOL    HW228338   3.154   1.961  15.393  1.0128  0.1687 -0.0202
 5627SOL     OW28339   0.296   3.877   7.759 -0.1400  0.0901  0.0701
 5627SOL    HW128340   0.277   3.948   7.698  2.4787 -1.1686 -2.1715
 5627SOL    HW228341   0.376   3.911   7.798  0.5291 -0.7475 -0.5880
 5628SOL     OW28342   3.009   3.717  17.420 -0.6965  0.1847  0.3196
 5628SOL    HW128343   3.077   3.766  17.467 -0.0485 -1.8378  1.5026
 5628SOL    HW228344   2.973   3.784  17.362 -0.5041  1.4972  1.7191
 5629SOL     OW28345   0.858   0.597   8.374  0.2596 -0.0647  0.0674
 5629SOL    HW128346   0.795   0.537   8.413  0.8782 -0.1353  0.9564
 5629SOL    HW228347   0.912   0.530   8.332 -0.4696  0.2122 -1.3371
 5630SOL     OW28348   3.321   4.588   0.082 -0.4187 -0.3060 -0.3120
 5630SOL    HW128349   3.234   4.548   0.088 -0.8791  1.2529  3.0510
 5630SOL    HW228350   3.352   4.587   0.172  0.9096 -1.7002 -0.7932
 5631SOL     OW28351   1.697   2.198   4.833  0.2126 -0.6744  0.5747
 5631SOL    HW128352   1.699   2.102   4.831 -0.9323 -0.7403  2.3497
 5631SOL    HW228353   1.616   2.211   4.882  2.6593 -0.2892  4.4370
 5632SOL     OW28354   3.735   2.595   6.063 -0.2274 -0.5270 -0.1944
 5632SOL    HW128355   3.688   2.630   5.988 -0.3914 -0.4289 -0.0467
 5632SOL    HW228356   3.822   2.633   6.055 -0.5343  0.5720  1.6518
 5633SOL     OW28357   3.492   4.238   0.305  0.2547  0.0930 -0.0587
 5633SOL    HW128358   3.405   4.240   0.345 -0.0440 -0.3648 -0.6883
 5633SOL    HW228359   3.501   4.333   0.312 -0.1835  0.2064 -1.0068
 5634SOL     OW28360   3.597   1.636   5.349  0.5993 -0.0045  0.1548
 5634SOL    HW128361   3.630   1.709   5.297 -0.2308  0.8146  0.7711
 5634SOL    HW228362   3.569   1.577   5.279 -0.0071  0.9030 -0.3729
 5635SOL     OW28363   4.703   2.425   4.226 -0.4607 -0.2787  0.0541
 5635SOL    HW128364   0.018   2.457   4.143  1.7164 -1.0228  0.7159
 5635SOL    HW228365   4.612   2.452   4.216 -0.2932  0.3435  0.1963
 5636SOL     OW28366   4.401   4.491   7.979  0.3963  0.6025  0.3647
 5636SOL    HW128367   4.379   4.418   7.921 -1.3533 -1.0368  3.0914
 5636SOL    HW228368   4.329   4.497   8.042  1.8068 -2.1116  2.1931
 5637SOL     OW28369   2.256   3.087   2.612 -0.5843 -0.1666  0.2510
 5637SOL    HW128370   2.251   2.996   2.641 -1.9314 -0.1432  0.0970
 5637SOL    HW228371   2.299   3.084   2.526 -2.1339  0.3201 -0.5255
 5638SOL     OW28372   2.898   2.987   5.333 -0.3653  0.3454  0.5126
 5638SOL    HW128373   2.960   2.916   5.313  0.3710  0.7037  1.4927
 5638SOL    HW228374   2.827   2.931   5.364 -0.1910 -0.3911 -0.4164
 5639SOL     OW28375   1.902   3.019   4.517 -0.0146 -0.5951 -0.3946
 5639SOL    HW128376   1.863   3.007   4.603  0.1513  1.1220 -0.0750
 5639SOL    HW228377   1.910   3.114   4.509 -1.8839 -0.3630  0.3944
 5640SOL     OW28378   1.253   1.324   9.590  0.2453 -0.0603 -0.3664
 5640SOL    HW128379   1.265   1.287   9.503  1.7756  0.4201 -0.3482
 5640SOL    HW228380   1.304   1.404   9.578  1.0136 -0.7794 -1.7990
 5641SOL     OW28381   1.707   0.812   8.006  0.7263 -0.3187 -0.6170
 5641SOL    HW128382   1.670   0.828   7.919  1.7590 -1.6008 -1.2950
 5641SOL    HW228383   1.696   0.718   8.015  2.3896 -0.4313  0.2228
 5642SOL     OW28384   4.307   3.451  14.555  0.3778 -0.0144 -0.0097
 5642SOL    HW128385   4.393   3.411  14.573  0.4312  0.3208  0.4703
 5642SOL    HW228386   4.341   3.517  14.495  0.9315 -1.6980 -1.5634
 5643SOL     OW28387   2.514   0.176   1.832  0.4983  0.0591  0.5745
 5643SOL    HW128388   2.433   0.226   1.844  1.4271  1.5741  0.4944
 5643SOL    HW228389   2.524   0.176   1.737  1.2712 -0.9144  0.6565
 5644SOL     OW28390   0.475   1.237   8.120  0.1729 -0.1775  0.0039
 5644SOL    HW128391   0.482   1.312   8.179 -1.6016  0.4277 -0.5521
 5644SOL    HW228392   0.550   1.253   8.062  0.8502  0.8977  1.1649
 5645SOL     OW28393   2.471   2.029   4.939  0.2626 -0.9674  0.3566
 5645SOL    HW128394   2.408   2.035   4.866  2.3856 -0.0843 -1.4026
 5645SOL    HW228395   2.493   1.937   4.928  0.5616 -0.8854  0.2741
 5646SOL     OW28396   3.608   2.913   1.432  0.4548  0.3030 -0.0574
 5646SOL    HW128397   3.633   3.000   1.401  1.8588  0.4087  1.3674
 5646SOL    HW228398   3.693   2.869   1.440  1.0093  1.2928 -0.5219
 5647SOL     OW28399   3.683   4.362   4.126  0.1728  0.6429  0.5322
 5647SOL    HW128400   3.732   4.437   4.159 -0.4235  0.3604  2.0261
 5647SOL    HW228401   3.594   4.389   4.146  0.3208  0.8930  0.8471
 5648SOL     OW28402   2.884   2.140   7.886 -0.0109  0.0237  0.0487
 5648SOL    HW128403   2.873   2.200   7.960 -1.5017 -1.0564  0.6945
 5648SOL    HW228404   2.926   2.070   7.935 -1.5186 -0.9188  0.0135
 5649SOL     OW28405   4.467   3.929   5.741 -0.2335 -0.2112 -0.4772
 5649SOL    HW128406   4.423   3.860   5.691 -2.8633  1.0033  0.1361
 5649SOL    HW228407   4.397   3.962   5.798  0.2440 -1.3379  0.7629
 5650SOL     OW28408   4.277   2.275   1.296  0.0489  0.2379  0.1842
 5650SOL    HW128409   4.289   2.366   1.270 -1.1742  0.8084  1.6342
 5650SOL    HW228410   4.183   2.271   1.315 -0.2235  0.2187 -1.1473
 5651SOL     OW28411   1.795   2.075   3.223  0.2405  0.7003  0.0281
 5651SOL    HW128412   1.869   2.016   3.208  0.4995  0.6028  1.7283
 5651SOL    HW228413   1.802   2.131   3.146 -2.6533  0.7684 -0.1990
 5652SOL     OW28414   4.277   0.914   6.656 -0.2201  0.0544  0.0914
 5652SOL    HW128415   4.296   0.993   6.706 -1.1680  0.6003 -0.4332
 5652SOL    HW228416   4.191   0.935   6.622  0.7008  1.4647 -1.3635
 5653SOL     OW28417   2.471   4.402   4.764  0.0881 -0.3282  0.5520
 5653SOL    HW128418   2.557   4.384   4.802 -1.0230 -0.4183  3.0253
 5653SOL    HW228419   2.455   4.322   4.714 -1.7366 -0.3082  1.1270
 5654SOL     OW28420   1.473   0.229   8.914 -0.0416 -0.5020 -0.3876
 5654SOL    HW128421   1.382   0.207   8.894 -0.2811  0.1864 -0.0619
 5654SOL    HW228422   1.474   0.304   8.975 -1.6095 -0.8350  0.0647
 5655SOL     OW28423   3.051   3.825   1.512 -0.1763  0.0587 -0.3154
 5655SOL    HW128424   3.049   3.815   1.607  0.6063  0.7650 -0.2242
 5655SOL    HW228425   2.986   3.756   1.498 -1.9442  1.0223  3.3040
 5656SOL     OW28426   1.081   2.068   8.904 -0.0351 -0.4158 -0.1771
 5656SOL    HW128427   1.068   2.000   8.970  0.6477 -0.8686 -0.5080
 5656SOL    HW228428   1.042   2.038   8.822  1.8265 -0.7632 -0.9305
 5657SOL     OW28429   0.261   1.630   2.926 -0.4453 -0.0786 -0.1670
 5657SOL    HW128430   0.242   1.722   2.948 -0.8350 -0.0279 -0.6978
 5657SOL    HW228431   0.172   1.603   2.948 -0.7549  0.5907 -0.5893
 5658SOL     OW28432   2.161   2.360   3.713 -0.1269 -0.0839 -0.0430
 5658SOL    HW128433   2.206   2.324   3.790 -0.9746 -0.3262  0.3369
 5658SOL    HW228434   2.157   2.451   3.743  1.5872  0.2967 -0.9505
 5659SOL     OW28435   2.818   3.101  13.934  0.0224 -0.6482  0.1836
 5659SOL    HW128436   2.911   3.085  13.914  0.5147  0.4357  1.6238
 5659SOL    HW228437   2.807   3.047  14.012 -1.2064  1.9513  1.8200
 5660SOL     OW28438   0.323   0.120   5.583  0.0657  0.1055 -0.5906
 5660SOL    HW128439   0.409   0.099   5.618 -0.6640  1.5252  2.0881
 5660SOL    HW228440   0.288   0.155   5.665  1.9469 -1.9536  1.0617
 5661SOL     OW28441   1.924   2.733   9.452 -0.2623 -0.3583 -0.8431
 5661SOL    HW128442   1.898   2.813   9.404  0.4058 -0.4785 -1.4007
 5661SOL    HW228443   1.890   2.758   9.538  2.9775 -2.0479  0.9257
 5662SOL     OW28444   0.670   0.636   8.671  0.1826  1.0148 -0.3805
 5662SOL    HW128445   0.729   0.585   8.614 -0.5194 -1.1420  0.8288
 5662SOL    HW228446   0.635   0.565   8.724 -0.4807  1.8484  0.2952
 5663SOL     OW28447   0.839   0.668  10.315 -0.2840  0.0520 -0.3186
 5663SOL    HW128448   0.745   0.655  10.302  0.0390 -2.4666 -0.2317
 5663SOL    HW228449   0.863   0.618  10.236 -0.6812  0.4495 -0.6916
 5664SOL     OW28450   2.917   3.198   9.911  0.4051 -0.4433  0.2885
 5664SOL    HW128451   2.842   3.162   9.865 -0.4458  0.1289  1.2307
 5664SOL    HW228452   2.903   3.163   9.999  0.3854 -0.0900  0.4274
 5665SOL     OW28453   4.648   2.398   6.146 -0.0841  0.1392  0.4844
 5665SOL    HW128454   4.680   2.312   6.176 -2.5767 -0.0646  2.5417
 5665SOL    HW228455   4.705   2.454   6.198  1.5823  0.2449 -1.4732
 5666SOL     OW28456   0.552   0.540   5.524  0.3967 -0.0249 -0.1057
 5666SOL    HW128457   0.461   0.568   5.529  0.6635  0.8514 -0.0929
 5666SOL    HW228458   0.538   0.450   5.494 -1.7046  0.8400 -1.7302
 5667SOL     OW28459   3.123   4.416   6.774  0.0143  0.0360  0.4434
 5667SOL    HW128460   3.173   4.369   6.840  1.0596 -0.2308 -0.5444
 5667SOL    HW228461   3.142   4.376   6.690 -1.5623  0.7929 -0.2862
 5668SOL     OW28462   0.086   3.247  15.754  0.1203 -0.2088 -0.4528
 5668SOL    HW128463   0.069   3.304  15.830 -1.1272 -0.3146 -0.6414
 5668SOL    HW228464   0.174   3.221  15.778  0.6018  1.7290 -0.1092
 5669SOL     OW28465   0.952   0.460  13.087 -0.2799  0.0091 -0.1177
 5669SOL    HW128466   1.034   0.510  13.076  0.0839 -0.6273 -0.2951
 5669SOL    HW228467   0.919   0.513  13.160 -2.4474  0.0961 -1.1709
 5670SOL     OW28468   1.789   0.961  10.154 -0.4452  0.6242  0.3345
 5670SOL    HW128469   1.842   0.971  10.074 -1.2473  1.9890 -0.0386
 5670SOL    HW228470   1.855   0.997  10.212 -1.0772  1.0176  0.8144
 5671SOL     OW28471   4.659   0.462  13.583 -0.0041  0.4669 -0.1037
 5671SOL    HW128472   4.719   0.533  13.605 -1.1995  0.8193  2.0390
 5671SOL    HW228473   4.614   0.502  13.509  0.0193  0.4639 -0.1198
 5672SOL     OW28474   0.209   1.960   5.189  0.9049  0.5742 -0.2502
 5672SOL    HW128475   0.181   2.049   5.211 -0.5483  0.1749 -0.5031
 5672SOL    HW228476   0.295   1.977   5.151  1.2136 -0.1263  0.1375
 5673SOL     OW28477   1.754   4.242   5.581 -0.0820  0.4416 -0.0016
 5673SOL    HW128478   1.729   4.170   5.523  0.4251  1.8578 -1.9682
 5673SOL    HW228479   1.744   4.323   5.530 -0.2642 -0.2360 -1.0478
 5674SOL     OW28480   0.268   0.439   0.802  0.2299 -0.5590 -0.0024
 5674SOL    HW128481   0.300   0.529   0.806  1.3050 -0.8032 -3.4366
 5674SOL    HW228482   0.297   0.407   0.717 -0.4473  0.9273 -0.7939
 5675SOL     OW28483   3.141   3.344   5.290  0.0003 -0.0886  0.1353
 5675SOL    HW128484   3.229   3.368   5.260 -1.3351  0.3529 -3.4176
 5675SOL    HW228485   3.084   3.334   5.214 -4.5464 -1.1052  3.6997
 5676SOL     OW28486   1.593   0.805  13.492  0.0623  0.0445  0.6591
 5676SOL    HW128487   1.653   0.816  13.419 -1.0878 -0.4021 -0.3415
 5676SOL    HW228488   1.643   0.871  13.540 -0.0873  2.0388 -1.9484
 5677SOL     OW28489   0.019   1.335  11.341  0.2737 -0.2351  0.3309
 5677SOL    HW128490   0.091   1.273  11.353 -0.2040 -0.4339  2.2517
 5677SOL    HW228491   4.720   1.308  11.252 -2.0515  1.3933  0.3634
 5678SOL     OW28492   3.536   2.511   7.916  0.1705 -0.1008 -0.4909
 5678SOL    HW128493   3.513   2.535   8.006  1.8643  2.0411 -0.6127
 5678SOL    HW228494   3.621   2.472   7.934 -0.2504 -0.0413  1.5750
 5679SOL     OW28495   0.305   0.853   4.661 -0.1492  0.2946  0.0055
 5679SOL    HW128496   0.335   0.828   4.748 -0.6426 -0.0324  0.0780
 5679SOL    HW228497   0.356   0.805   4.596 -1.5492 -3.0129  1.3598
 5680SOL     OW28498   0.131   1.148  15.738 -0.0532 -0.1007  0.2845
 5680SOL    HW128499   0.139   1.095  15.659  0.6822 -2.6797  2.1050
 5680SOL    HW228500   0.130   1.238  15.706  3.6761  0.5543  1.9272
 5681SOL     OW28501   1.680   3.484   0.556  0.2579  0.2521  0.3190
 5681SOL    HW128502   1.704   3.513   0.645  0.0108 -2.5919  1.3124
 5681SOL    HW228503   1.586   3.504   0.562  0.7425  2.6721 -0.0093
 5682SOL     OW28504   0.290   3.125   6.835 -0.2911  0.5669 -0.0579
 5682SOL    HW128505   0.267   3.069   6.761 -1.9686 -0.3866  1.1991
 5682SOL    HW228506   0.206   3.140   6.879  0.3077  2.4484  0.4294
 5683SOL     OW28507   1.433   0.672   8.248  0.2268  0.6091 -1.1337
 5683SOL    HW128508   1.442   0.602   8.184  0.6468 -0.3078 -0.0799
 5683SOL    HW228509   1.518   0.695   8.285  1.0874 -0.3319 -2.5750
 5684SOL     OW28510   1.791   2.020   6.768 -0.0401  0.2535  0.1247
 5684SOL    HW128511   1.858   2.072   6.811 -1.6399  2.0393  0.4756
 5684SOL    HW228512   1.836   1.935   6.762 -0.8340 -0.0403 -1.6135
 5685SOL     OW28513   0.008   2.439   7.674  0.2226 -0.4054 -0.0788
 5685SOL    HW128514   0.022   2.382   7.599 -0.1539  0.3484 -0.7266
 5685SOL    HW228515   4.693   2.373   7.733  0.5437 -1.6440 -1.2684
 5686SOL     OW28516   0.698   2.727   4.958 -0.3811  0.2072 -0.9030
 5686SOL    HW128517   0.619   2.694   4.915  0.0094 -1.7621 -0.0628
 5686SOL    HW228518   0.730   2.788   4.891 -0.2685  0.5489 -0.5357
 5687SOL     OW28519   4.209   0.452   1.745 -0.1000  0.4776  0.0573
 5687SOL    HW128520   4.175   0.374   1.789  1.8194  0.0975  0.8513
 5687SOL    HW228521   4.123   0.493   1.738 -1.3917 -2.0537  1.4433
 5688SOL     OW28522   1.452   0.606   5.619 -0.5722 -0.6100 -0.2160
 5688SOL    HW128523   1.481   0.652   5.697  0.0146  0.3679 -1.0053
 5688SOL    HW228524   1.451   0.679   5.557  0.7694  1.3260  2.0484
 5689SOL     OW28525   3.589   3.014   3.593  0.2412  0.5383  0.6229
 5689SOL    HW128526   3.616   2.965   3.516 -0.2215  1.0495  0.1327
 5689SOL    HW228527   3.507   2.975   3.622  0.4853 -1.0373 -0.8251
 5690SOL     OW28528   2.738   0.990   6.509 -0.2566 -0.5764  0.8995
 5690SOL    HW128529   2.742   0.966   6.601  1.6570  1.7271  1.4348
 5690SOL    HW228530   2.817   0.943   6.483  0.0520  1.7421 -2.3189
 5691SOL     OW28531   3.958   3.508   4.291  0.2714 -0.1096  0.5293
 5691SOL    HW128532   3.986   3.436   4.234 -0.0101  1.1524 -1.2004
 5691SOL    HW228533   4.004   3.584   4.256  2.2044 -0.7598  1.6555
 5692SOL     OW28534   3.901   3.799  14.261 -0.1615  0.5720 -0.3418
 5692SOL    HW128535   3.966   3.824  14.195  0.2878  2.2294  0.7348
 5692SOL    HW228536   3.955   3.785  14.339  0.8154  0.5916 -1.0035
 5693SOL     OW28537   4.707   3.343  16.197 -0.1325  0.1464 -0.2127
 5693SOL    HW128538   0.052   3.278  16.179 -1.3518 -1.6367  1.7568
 5693SOL    HW228539   0.033   3.411  16.245 -0.1274 -0.2973  0.4099
 5694SOL     OW28540   2.357   0.585   7.130 -0.0301 -0.2985 -0.0050
 5694SOL    HW128541   2.378   0.529   7.056 -0.4018  0.0168 -0.3453
 5694SOL    HW228542   2.399   0.533   7.199  1.3964  0.0867 -0.5794
 5695SOL     OW28543   4.129   3.651   7.957 -0.3228 -0.8847 -0.0999
 5695SOL    HW128544   4.223   3.645   7.975 -0.3926  2.1756  1.4141
 5695SOL    HW228545   4.103   3.720   8.018 -3.6939 -2.8987  0.7494
 5696SOL     OW28546   3.100   1.371  17.426 -0.3517 -0.6505  0.2069
 5696SOL    HW128547   3.149   1.441  17.384  0.3840 -2.3963 -1.8179
 5696SOL    HW228548   3.100   1.308  17.354 -1.6593  1.0215 -1.2639
 5697SOL     OW28549   2.715   3.798  15.093  0.1378 -0.5117 -0.3948
 5697SOL    HW128550   2.715   3.784  14.998 -0.7178  1.2645 -0.6500
 5697SOL    HW228551   2.625   3.829  15.104 -0.0971 -2.0792  2.0823
 5698SOL     OW28552   0.765   1.377   9.814 -0.6559 -0.1534 -0.4247
 5698SOL    HW128553   0.785   1.390   9.907  0.7145  2.5279 -1.1083
 5698SOL    HW228554   0.852   1.396   9.778  0.3585 -0.3829  1.8625
 5699SOL     OW28555   1.267   1.570   4.131  0.1148  0.6411 -0.1239
 5699SOL    HW128556   1.183   1.597   4.095  1.3391  0.8979 -2.7358
 5699SOL    HW228557   1.260   1.481   4.165 -0.6764  1.1891  1.1569
 5700SOL     OW28558   0.033   4.600   2.200  0.1455  0.4751 -0.4151
 5700SOL    HW128559   0.038   4.695   2.205  0.1967  0.4440  0.1148
 5700SOL    HW228560   4.667   4.574   2.230 -0.1985  1.7726 -0.3140
 5701SOL     OW28561   3.687   2.645   0.293 -0.0588 -0.4337  0.8570
 5701SOL    HW128562   3.759   2.699   0.325 -0.9355  0.3595  1.4782
 5701SOL    HW228563   3.624   2.716   0.279  1.7848  1.3192  1.4399
 5702SOL     OW28564   1.303   3.100   4.733 -0.2845 -0.1371  1.1654
 5702SOL    HW128565   1.304   3.194   4.752  0.5684  0.4069 -1.5347
 5702SOL    HW228566   1.213   3.088   4.702 -0.2141  0.6127  0.6824
 5703SOL     OW28567   4.176   1.444   4.061 -0.1435 -0.8371  0.3677
 5703SOL    HW128568   4.143   1.467   3.974  1.0077  0.1450  0.2014
 5703SOL    HW228569   4.100   1.411   4.109 -1.5029  1.3823 -0.2927
 5704SOL     OW28570   4.265   0.052   9.864 -0.4498 -0.6996 -0.0035
 5704SOL    HW128571   4.185   0.013   9.901 -0.1863 -2.2875 -1.1247
 5704SOL    HW228572   4.276   0.131   9.917  2.5367  0.6598 -2.6502
 5705SOL     OW28573   1.348   4.120   2.162  0.5522  0.1439 -0.4834
 5705SOL    HW128574   1.374   4.203   2.121  1.3716 -0.2997 -0.8579
 5705SOL    HW228575   1.406   4.059   2.116  1.2186 -1.1817  2.1170
 5706SOL     OW28576   3.794   2.949   2.438  0.0020 -0.0230  0.0781
 5706SOL    HW128577   3.752   3.022   2.392 -0.2701 -0.2753 -0.0714
 5706SOL    HW228578   3.786   2.890   2.363 -2.7287 -0.0748  0.4253
 5707SOL     OW28579   2.065   2.621  17.072 -0.1130  0.4924 -0.6963
 5707SOL    HW128580   1.971   2.635  17.087 -0.5257 -1.6463 -1.3052
 5707SOL    HW228581   2.079   2.536  17.115  0.6352  0.8422 -0.2542
 5708SOL     OW28582   2.418   2.228   5.132  0.7011  0.3972  0.6416
 5708SOL    HW128583   2.356   2.284   5.087 -1.8791 -1.5295  1.8270
 5708SOL    HW228584   2.441   2.160   5.069  1.8041  1.9600 -0.6368
 5709SOL     OW28585   2.328   4.551   5.645  0.2689  0.5430 -0.1396
 5709SOL    HW128586   2.302   4.460   5.655 -0.7273  0.8916  0.4049
 5709SOL    HW228587   2.325   4.576   5.738 -0.3282 -1.3529  0.3453
 5710SOL     OW28588   4.157   1.275  14.152 -0.1836  0.1947  0.0969
 5710SOL    HW128589   4.114   1.223  14.084  1.0317  2.7287 -2.6258
 5710SOL    HW228590   4.103   1.354  14.158 -0.5985  0.0446 -1.6453
 5711SOL     OW28591   4.197   0.934   8.257 -0.1464 -0.4130 -0.0028
 5711SOL    HW128592   4.205   0.992   8.182 -2.5263 -2.1017 -1.5696
 5711SOL    HW228593   4.226   0.851   8.219 -3.2002  0.1169 -3.4243
 5712SOL     OW28594   2.868   1.093   3.163 -0.3125 -0.4407 -0.2546
 5712SOL    HW128595   2.797   1.121   3.221 -1.7669  1.0533 -2.7645
 5712SOL    HW228596   2.871   1.153   3.088 -1.6131  1.0750  0.8824
 5713SOL     OW28597   0.307   4.602  16.329 -0.0140  0.0976  0.4391
 5713SOL    HW128598   0.335   4.643  16.247 -0.3841 -1.3347 -0.3930
 5713SOL    HW228599   0.386   4.580  16.379  1.1107  3.8169  0.3047
 5714SOL     OW28600   0.822   0.959  10.059  0.0271  0.4472 -0.2244
 5714SOL    HW128601   0.901   0.966  10.112 -0.1093  0.2518  0.0042
 5714SOL    HW228602   0.770   1.031  10.094 -2.0845 -1.8916  1.4518
 5715SOL     OW28603   4.460   1.682  16.034 -0.0493 -0.2550 -0.1357
 5715SOL    HW128604   4.422   1.713  15.952  3.8139 -1.1620 -2.2602
 5715SOL    HW228605   4.445   1.588  16.026  1.3390 -0.5533  0.8153
 5716SOL     OW28606   2.963   3.038  11.027 -0.4084 -0.0177  0.4430
 5716SOL    HW128607   2.889   2.987  10.995  0.2132  0.5556 -1.8778
 5716SOL    HW228608   2.987   2.989  11.106 -1.5774  0.4410  1.0820
 5717SOL     OW28609   2.856   1.385   4.130 -1.0478  0.1426 -0.0099
 5717SOL    HW128610   2.774   1.341   4.106 -1.1184 -1.2310  2.7488
 5717SOL    HW228611   2.850   1.473   4.093  1.6166  0.6155  0.6733
 5718SOL     OW28612   1.857   2.738   2.075 -0.2643 -0.1534  0.0208
 5718SOL    HW128613   1.933   2.746   2.017 -1.5595 -0.1643 -1.6662
 5718SOL    HW228614   1.847   2.831   2.095 -3.0709 -0.5026  0.1577
 5719SOL     OW28615   1.435   1.594  12.649  0.2510  0.0694  0.1967
 5719SOL    HW128616   1.454   1.577  12.741 -2.3713 -2.4438  0.2681
 5719SOL    HW228617   1.498   1.667  12.649  0.4500 -0.0955  1.6260
 5720SOL     OW28618   0.549   0.172   5.880  0.2270  0.0175  0.6247
 5720SOL    HW128619   0.529   0.082   5.906 -0.6415 -0.2523 -0.9906
 5720SOL    HW228620   0.514   0.233   5.946  2.1868  1.3665  0.4182
 5721SOL     OW28621   2.685   2.001  16.855  0.2274 -0.0610 -0.0042
 5721SOL    HW128622   2.646   1.941  16.918  0.3367 -0.9625 -0.7955
 5721SOL    HW228623   2.736   2.060  16.910  1.0841 -0.9355  0.1179
 5722SOL     OW28624   2.070   3.690   9.646 -0.2231  0.0998  0.3392
 5722SOL    HW128625   2.064   3.732   9.732 -0.6956 -1.3705  1.0252
 5722SOL    HW228626   2.059   3.762   9.584  0.7576  0.2173  0.2961
 5723SOL     OW28627   4.264   1.479   8.848 -0.2361 -0.1655 -0.3690
 5723SOL    HW128628   4.356   1.502   8.831  0.2201 -0.5274  1.5725
 5723SOL    HW228629   4.280   1.385   8.836 -1.9520 -0.4002 -0.7863
 5724SOL     OW28630   2.930   2.983  12.276  0.1905  0.0120  0.2767
 5724SOL    HW128631   2.912   2.988  12.370  1.0034  2.8910  0.2747
 5724SOL    HW228632   2.891   2.900  12.249  1.0009 -0.0322 -0.7814
 5725SOL     OW28633   1.781   2.306  16.401  0.2900 -0.0199 -0.4587
 5725SOL    HW128634   1.724   2.234  16.428  1.5835 -1.1795 -0.8209
 5725SOL    HW228635   1.852   2.254  16.365  0.0923 -0.6079 -0.0162
 5726SOL     OW28636   3.276   0.486  13.511 -0.1566 -0.0095  0.2464
 5726SOL    HW128637   3.347   0.480  13.575 -0.8398 -3.3080  0.7398
 5726SOL    HW228638   3.319   0.547  13.451 -0.4040 -0.6422 -0.5782
 5727SOL     OW28639   3.595   3.131   0.079  0.1899 -0.5295  0.1804
 5727SOL    HW128640   3.598   3.054   0.022  0.6582 -0.7926  0.5565
 5727SOL    HW228641   3.680   3.167   0.053  0.8825 -1.2941  1.3670
 5728SOL     OW28642   1.163   1.625  17.331  0.0470 -0.4110 -0.0792
 5728SOL    HW128643   1.188   1.702  17.383  1.0751 -0.5453 -0.3661
 5728SOL    HW228644   1.082   1.653  17.289  0.2588 -0.4218 -0.4899
 5729SOL     OW28645   0.476   3.305   4.181  0.2748 -0.0362 -0.0848
 5729SOL    HW128646   0.381   3.295   4.182  0.3623 -0.8350 -0.2703
 5729SOL    HW228647   0.500   3.395   4.202 -0.8119  0.5191 -1.1863
 5730SOL     OW28648   0.767   1.110   9.138  0.8413  0.2254 -0.0725
 5730SOL    HW128649   0.859   1.135   9.135  0.0864  3.0105 -0.3243
 5730SOL    HW228650   0.739   1.125   9.228  0.8583  1.3654 -0.2625
 5731SOL     OW28651   0.245   0.636   6.140 -0.3572  0.5444 -0.4477
 5731SOL    HW128652   0.168   0.589   6.108  0.0892 -1.2326  1.0993
 5731SOL    HW228653   0.303   0.623   6.065  1.8456  1.4319  1.1142
 5732SOL     OW28654   2.384   3.506   8.750  0.3996  0.2166  0.4113
 5732SOL    HW128655   2.414   3.494   8.840  1.1608 -2.3561 -0.1859
 5732SOL    HW228656   2.289   3.513   8.763  0.0025  1.7378 -3.2464
 5733SOL     OW28657   0.086   3.673  16.102  0.5930  0.3286 -0.1216
 5733SOL    HW128658   0.080   3.768  16.110 -1.4491  0.5219 -3.6345
 5733SOL    HW228659   0.033   3.656  16.024 -0.6831  1.7362  0.4469
 5734SOL     OW28660   2.754   2.482   1.087 -0.1032 -0.2649 -0.5414
 5734SOL    HW128661   2.724   2.392   1.077 -0.9397  0.1526 -1.7527
 5734SOL    HW228662   2.845   2.477   1.056  0.7114  0.5771  1.7217
 5735SOL     OW28663   1.630   4.516   6.006  0.4108 -0.1266  0.1591
 5735SOL    HW128664   1.688   4.584   5.970 -1.2483  1.2844  0.1345
 5735SOL    HW228665   1.648   4.536   6.098  0.8180 -1.2093  0.3113
 5736SOL     OW28666   4.316   2.061   1.541 -0.5426 -0.4358  0.0008
 5736SOL    HW128667   4.291   2.132   1.482 -0.1836 -1.0284 -0.8470
 5736SOL    HW228668   4.411   2.072   1.547 -0.7338  2.0925 -1.6518
 5737SOL     OW28669   2.716   1.739   6.509 -0.4298  0.1213 -0.0422
 5737SOL    HW128670   2.668   1.743   6.426 -1.3565 -0.5441  0.4529
 5737SOL    HW228671   2.774   1.815   6.510  1.0880 -1.0446  1.6407
 5738SOL     OW28672   3.850   2.275  11.262  0.6088 -0.8132 -0.0958
 5738SOL    HW128673   3.895   2.358  11.244 -0.7019  0.4125  2.2958
 5738SOL    HW228674   3.927   2.220  11.252  2.0596  0.9646  1.2685
 5739SOL     OW28675   4.200   1.121   8.068 -0.2698  0.5622  0.5288
 5739SOL    HW128676   4.292   1.144   8.076  0.2880 -1.2996 -0.3483
 5739SOL    HW228677   4.174   1.181   7.998  1.8789  0.4796 -0.3553
 5740SOL     OW28678   4.457   1.961   8.913  0.1378 -0.2157  0.0090
 5740SOL    HW128679   4.450   2.047   8.872 -1.1389  0.6475  2.0433
 5740SOL    HW228680   4.377   1.920   8.881  1.1296 -1.8989 -0.3383
 5741SOL     OW28681   2.584   0.743   2.886 -0.3101  0.1462 -0.3828
 5741SOL    HW128682   2.489   0.747   2.888 -0.2553  0.9943  0.5148
 5741SOL    HW228683   2.603   0.832   2.914 -1.9130 -0.0440  1.3157
 5742SOL     OW28684   4.307   1.108   1.621  0.0659  0.2852 -0.2909
 5742SOL    HW128685   4.261   1.024   1.619  1.1063 -0.3135  1.3943
 5742SOL    HW228686   4.395   1.093   1.585  0.7380 -2.0353  2.3215
 5743SOL     OW28687   4.155   4.528   2.561 -0.1388  0.2897  0.0506
 5743SOL    HW128688   4.066   4.521   2.525 -0.0971 -0.5629  0.1009
 5743SOL    HW228689   4.138   4.576   2.642  1.6388 -1.4315  1.4364
 5744SOL     OW28690   4.051   0.743   9.177 -0.6366 -0.4376 -0.4049
 5744SOL    HW128691   4.141   0.720   9.196 -0.0042  2.2514 -0.2081
 5744SOL    HW228692   4.001   0.688   9.238  1.2609 -0.7037  0.8759
 5745SOL     OW28693   0.402   1.606   7.743 -0.5779  0.3910  0.2352
 5745SOL    HW128694   0.331   1.669   7.748 -1.8148 -0.8807 -1.1226
 5745SOL    HW228695   0.376   1.519   7.774 -0.2542  0.3586  0.4167
 5746SOL     OW28696   2.752   3.490   4.995 -0.0236  0.4461  0.5369
 5746SOL    HW128697   2.769   3.429   4.924 -1.0106  0.3397  0.3920
 5746SOL    HW228698   2.838   3.495   5.038 -0.2345 -2.3474  1.2511
 5747SOL     OW28699   0.285   2.443   5.468  0.2980  0.0110  0.2058
 5747SOL    HW128700   0.264   2.463   5.377 -1.9289  0.9965  0.9288
 5747SOL    HW228701   0.371   2.482   5.487 -0.0917  2.1604 -2.3438
 5748SOL     OW28702   2.757   1.986   6.966 -0.7481  0.0777  0.2057
 5748SOL    HW128703   2.692   2.038   6.918  0.8534  1.3537 -0.5453
 5748SOL    HW228704   2.787   2.037   7.040  0.2383 -1.1903  0.6843
 5749SOL     OW28705   1.157   2.853   6.754  0.1316  0.7376  0.1047
 5749SOL    HW128706   1.197   2.813   6.677  0.7862  0.4539  0.5897
 5749SOL    HW228707   1.147   2.780   6.816 -3.2390  1.1615  0.0574
 5750SOL     OW28708   3.766   3.687   2.850  0.0250  0.1511 -0.4463
 5750SOL    HW128709   3.780   3.605   2.804 -0.0235  0.9692 -1.9192
 5750SOL    HW228710   3.720   3.742   2.787  0.1513  0.1286 -0.5593
 5751SOL     OW28711   3.843   3.218   6.554  0.3265  0.4863 -0.0065
 5751SOL    HW128712   3.753   3.236   6.528  0.5627  3.1322  1.1052
 5751SOL    HW228713   3.844   3.122   6.561  2.8700  0.3957 -1.6735
 5752SOL     OW28714   0.704   4.448   8.619 -0.0042 -0.7930 -0.3402
 5752SOL    HW128715   0.658   4.496   8.550  0.5860 -1.1086 -0.9586
 5752SOL    HW228716   0.726   4.505   8.693 -0.5095 -0.8342 -0.1579
 5753SOL     OW28717   3.762   4.490  10.355 -0.1026  0.0198  0.1139
 5753SOL    HW128718   3.713   4.567  10.386  0.7952  0.7973 -0.3822
 5753SOL    HW228719   3.692   4.429  10.336  0.6349 -0.4556 -1.0479
 5754SOL     OW28720   1.590   3.696   2.013 -0.6723 -0.2227 -0.2248
 5754SOL    HW128721   1.654   3.627   2.001  0.0829  0.3740  0.4129
 5754SOL    HW228722   1.648   3.768   2.037  0.4971 -1.2495  0.0201
 5755SOL     OW28723   0.366   3.192  15.492  0.5217  0.3048  0.5703
 5755SOL    HW128724   0.392   3.223  15.579  0.3565  1.6863  0.1354
 5755SOL    HW228725   0.309   3.263  15.464  3.7266  2.3961 -0.6899
 5756SOL     OW28726   4.096   1.497   5.238  0.5267 -0.0493  0.0160
 5756SOL    HW128727   4.156   1.422   5.238 -1.3394 -1.5157 -0.3655
 5756SOL    HW228728   4.032   1.467   5.302  0.2532 -0.2833 -0.3704
 5757SOL     OW28729   0.636   3.239   7.282  0.2592  0.4318  0.6410
 5757SOL    HW128730   0.570   3.180   7.319  0.0265  1.7704  2.3701
 5757SOL    HW228731   0.616   3.224   7.190  0.7938 -1.2184  0.7973
 5758SOL     OW28732   2.238   2.694   0.186  0.5797  0.4971 -0.0942
 5758SOL    HW128733   2.319   2.745   0.180  0.5514  0.3977 -1.4137
 5758SOL    HW228734   2.188   2.746   0.122 -1.1542 -1.0268  0.0139
 5759SOL     OW28735   3.159   0.172   4.504  0.4559 -0.2758 -0.2430
 5759SOL    HW128736   3.243   0.182   4.547 -0.5834  2.5303  1.1570
 5759SOL    HW228737   3.117   0.094   4.541 -1.0140  1.4696  1.7594
 5760SOL     OW28738   3.174   0.084  13.139  0.2381  0.0478  0.1151
 5760SOL    HW128739   3.098   0.128  13.100  0.7459  2.0252  1.3428
 5760SOL    HW228740   3.187   0.018  13.071 -0.4971  1.1063 -1.0294
 5761SOL     OW28741   2.755   1.617   7.881 -0.2906  0.0830 -0.1682
 5761SOL    HW128742   2.802   1.580   7.956  0.7099  1.8965  0.0871
 5761SOL    HW228743   2.816   1.598   7.810  0.6318  0.1858  0.6006
 5762SOL     OW28744   2.940   0.580   3.623 -0.3600  0.4545 -0.4425
 5762SOL    HW128745   3.010   0.525   3.658 -0.0166  1.9382  1.1993
 5762SOL    HW228746   2.963   0.673   3.630 -0.4623  0.3201  1.4885
 5763SOL     OW28747   1.599   4.253  16.027  0.0211 -0.0537  0.4740
 5763SOL    HW128748   1.541   4.321  16.061  1.1178  0.9353  0.3412
 5763SOL    HW228749   1.659   4.221  16.095  1.1836  1.2341  0.0536
 5764SOL     OW28750   3.138   0.657   3.297  0.0874 -0.3258  0.0679
 5764SOL    HW128751   3.115   0.739   3.342  2.2469  0.9049 -1.0970
 5764SOL    HW228752   3.221   0.645   3.342  1.5055  0.1620 -2.4118
 5765SOL     OW28753   2.827   2.980   0.718 -0.4806 -0.0425 -0.0889
 5765SOL    HW128754   2.789   2.898   0.747  0.1953 -0.6458 -0.9062
 5765SOL    HW228755   2.917   2.964   0.744 -1.4287 -2.6354  1.5096
 5766SOL     OW28756   0.077   3.167   3.944 -0.3628  0.3016 -0.0819
 5766SOL    HW128757   0.036   3.221   4.011  0.4232  2.3265 -1.2337
 5766SOL    HW228758   0.108   3.232   3.881  1.7171  2.0117  2.7304
 5767SOL     OW28759   1.034   0.967  16.243 -0.0279 -0.1807  0.4603
 5767SOL    HW128760   1.063   0.922  16.322  0.7587  0.1126  0.3299
 5767SOL    HW228761   1.045   0.894  16.181  2.0693  1.6382 -1.3075
 5768SOL     OW28762   1.910   2.422  14.043 -0.2638  0.2269 -0.9440
 5768SOL    HW128763   1.855   2.383  14.111 -0.1700 -0.6629 -1.3847
 5768SOL    HW228764   1.840   2.444  13.981 -0.1685 -0.2788 -1.2313
 5769SOL     OW28765   1.372   3.577   6.142  0.1569  0.0106 -0.1291
 5769SOL    HW128766   1.423   3.505   6.106 -2.2734 -1.1900 -1.1992
 5769SOL    HW228767   1.282   3.559   6.116  0.5196 -1.5986 -0.2728
 5770SOL     OW28768   2.625   0.840   7.957  0.4174 -0.0647 -0.1586
 5770SOL    HW128769   2.693   0.897   7.922 -0.1495  0.1884 -0.8487
 5770SOL    HW228770   2.629   0.847   8.052  0.0394  1.3818 -0.2448
 5771SOL     OW28771   3.293   1.767   6.802 -0.2458  0.4269 -0.2619
 5771SOL    HW128772   3.327   1.746   6.889  0.6354 -1.6338 -1.1320
 5771SOL    HW228773   3.255   1.682   6.783  1.8283 -0.7443  0.9214
 5772SOL     OW28774   1.871   1.609   9.573  0.8365  0.0073  0.2864
 5772SOL    HW128775   1.880   1.606   9.669  2.3030  0.4031  0.1639
 5772SOL    HW228776   1.777   1.594   9.567  0.9856 -1.3522  1.3508
 5773SOL     OW28777   1.323   3.202  17.046  0.0357 -0.6234  0.1537
 5773SOL    HW128778   1.386   3.260  17.090 -0.9367 -1.0773  2.1369
 5773SOL    HW228779   1.376   3.181  16.968  0.9748  0.5615  0.4690
 5774SOL     OW28780   3.096   0.885   6.205 -0.1045  0.1523 -0.0795
 5774SOL    HW128781   3.128   0.847   6.123 -0.3063  2.1666 -1.1023
 5774SOL    HW228782   3.093   0.807   6.260  0.5720  1.2060  1.4440
 5775SOL     OW28783   3.282   1.586   8.444  0.0189 -0.0605 -0.1576
 5775SOL    HW128784   3.347   1.575   8.374 -0.1113 -0.1687 -0.2613
 5775SOL    HW228785   3.285   1.495   8.473 -0.1998 -0.6789 -2.0373
 5776SOL     OW28786   3.698   1.464   5.620 -0.1045  0.0729 -0.4649
 5776SOL    HW128787   3.614   1.509   5.616  0.4753  1.0223 -2.1315
 5776SOL    HW228788   3.669   1.373   5.624 -0.2238  0.0504 -1.7999
 5777SOL     OW28789   1.219   0.824  16.433  0.1294 -0.2162 -0.2012
 5777SOL    HW128790   1.234   0.848  16.524 -3.3497  1.2917  0.0022
 5777SOL    HW228791   1.211   0.728  16.432 -2.2651  0.0036 -2.5196
 5778SOL     OW28792   4.669   0.859  15.228  0.0264  0.7203 -0.5301
 5778SOL    HW128793   4.631   0.911  15.157  2.5635  0.9685 -1.6806
 5778SOL    HW228794   0.040   0.847  15.206 -0.1267 -1.8126  0.2537
 5779SOL     OW28795   3.324   1.076  16.098  0.2337  0.3545 -0.4272
 5779SOL    HW128796   3.347   1.117  16.181 -0.0076 -1.0645  0.3393
 5779SOL    HW228797   3.276   1.000  16.130  0.9595  0.0394 -0.0869
 5780SOL     OW28798   1.774   4.495   4.804  0.1135 -0.4365  0.2515
 5780SOL    HW128799   1.742   4.423   4.749  1.6258 -0.8360 -0.1235
 5780SOL    HW228800   1.811   4.550   4.735  0.2953  0.4689  1.0742
 5781SOL     OW28801   4.638   0.744   3.821 -0.2411 -0.1696  0.2462
 5781SOL    HW128802   4.693   0.672   3.791 -1.5234 -1.3550  0.7131
 5781SOL    HW228803   4.556   0.707   3.789  0.3830 -1.9406  0.7202
 5782SOL     OW28804   2.652   2.263   7.198  0.5252  0.0523 -0.1902
 5782SOL    HW128805   2.682   2.337   7.252 -0.3053  1.8112 -2.1401
 5782SOL    HW228806   2.653   2.190   7.260 -1.7939  2.7074  3.0010
 5783SOL     OW28807   2.513   3.824  11.101  0.1023 -0.0944  0.0236
 5783SOL    HW128808   2.560   3.821  11.184  0.3756 -2.5329 -0.2210
 5783SOL    HW228809   2.465   3.907  11.100  0.3636  0.0534 -0.2547
 5784SOL     OW28810   2.003   2.772   6.786  0.3458 -0.3848 -0.6077
 5784SOL    HW128811   1.922   2.724   6.800 -0.0777  0.6567  0.5082
 5784SOL    HW228812   2.060   2.695   6.776 -1.7239 -2.0770  0.7891
 5785SOL     OW28813   3.402   2.275   3.911  0.2321 -0.3170 -0.3685
 5785SOL    HW128814   3.324   2.239   3.953 -0.0147  0.0374 -0.5334
 5785SOL    HW228815   3.418   2.211   3.841  2.0791  1.4299 -1.5649
 5786SOL     OW28816   1.988   1.832   8.726 -0.2607  0.2764 -0.0802
 5786SOL    HW128817   1.894   1.819   8.733 -0.3738  0.8842 -0.4964
 5786SOL    HW228818   1.990   1.848   8.632 -0.8359 -1.9508 -0.4890
 5787SOL     OW28819   2.679   3.555   7.308 -0.4622 -0.3694  0.1283
 5787SOL    HW128820   2.627   3.611   7.365  1.2731  1.2042  0.1566
 5787SOL    HW228821   2.673   3.471   7.352  0.5784 -1.8469 -2.4934
 5788SOL     OW28822   3.922   3.405   3.460  0.1275  0.5899  0.0618
 5788SOL    HW128823   3.893   3.321   3.495 -2.1428  1.9163  1.3623
 5788SOL    HW228824   3.858   3.414   3.389 -1.6143 -0.1796  1.5264
 5789SOL     OW28825   2.081   1.398  11.209  0.0095 -0.0326  0.5594
 5789SOL    HW128826   2.036   1.314  11.199  0.4508 -0.5600  3.0412
 5789SOL    HW228827   2.022   1.439  11.272 -1.2956 -0.7146 -0.2318
 5790SOL     OW28828   1.578   1.611   5.987 -0.1506 -0.2432 -0.6681
 5790SOL    HW128829   1.570   1.661   6.068  0.5409  0.3579 -0.9770
 5790SOL    HW228830   1.492   1.629   5.950  0.3025  2.7449 -0.2658
 5791SOL     OW28831   4.218   3.953   0.218  0.4226 -0.0939 -0.3233
 5791SOL    HW128832   4.133   3.915   0.197 -0.6823  1.5861  1.1663
 5791SOL    HW228833   4.239   3.924   0.307  1.4398  1.5973 -0.0231
 5792SOL     OW28834   1.999   1.471   5.948 -0.4409 -0.4344  0.4654
 5792SOL    HW128835   1.940   1.470   5.872 -1.2070 -1.4441  1.0756
 5792SOL    HW228836   2.052   1.399   5.914 -1.0461  0.0153 -1.4877
 5793SOL     OW28837   0.310   2.870  14.831  0.5167 -0.0151  0.3324
 5793SOL    HW128838   0.403   2.890  14.819 -0.0536  1.5506 -1.4044
 5793SOL    HW228839   0.314   2.777  14.809  1.0312  0.2688 -0.7778
 5794SOL     OW28840   4.285   3.881   4.882 -0.1082  0.4176  0.4842
 5794SOL    HW128841   4.375   3.872   4.911  0.1431  0.2049 -0.3635
 5794SOL    HW228842   4.248   3.902   4.968 -1.4333 -3.6621  0.9253
 5795SOL     OW28843   2.564   0.087   0.781 -0.0270  0.3798 -0.1930
 5795SOL    HW128844   2.565   0.173   0.823  0.0529  0.1218  0.3281
 5795SOL    HW228845   2.562   0.111   0.688  1.7602 -0.6983 -0.5050
 5796SOL     OW28846   2.899   2.903   3.347 -0.4816  0.3867  0.6180
 5796SOL    HW128847   2.879   2.990   3.382  1.4896  1.3178 -0.5499
 5796SOL    HW228848   2.924   2.923   3.257 -3.9019 -1.8599 -0.8045
 5797SOL     OW28849   2.606   1.893   7.564 -0.6802 -0.4481 -0.2074
 5797SOL    HW128850   2.639   1.924   7.648  0.5210  1.5204 -1.3938
 5797SOL    HW228851   2.533   1.955   7.555  0.1744  0.4292 -1.2500
 5798SOL     OW28852   1.280   1.088  14.838  0.2233 -0.5397 -0.1872
 5798SOL    HW128853   1.205   1.134  14.801 -0.5081 -0.9660  0.7766
 5798SOL    HW228854   1.345   1.132  14.783 -0.9706  2.7660  1.0831
 5799SOL     OW28855   4.253   2.764   8.861  0.4002 -0.1688  0.2565
 5799SOL    HW128856   4.283   2.855   8.855  0.6605 -0.3057 -0.5199
 5799SOL    HW228857   4.324   2.710   8.828 -0.3757 -1.2602  0.3652
 5800SOL     OW28858   3.863   3.304   3.080  0.6875  0.0280  0.5895
 5800SOL    HW128859   3.902   3.224   3.115  2.8412  1.4304  1.3811
 5800SOL    HW228860   3.854   3.291   2.986 -1.8033 -2.3833  1.1785
 5801SOL     OW28861   1.594   3.061   1.200  0.3687  0.2606  0.2570
 5801SOL    HW128862   1.603   3.131   1.136 -2.2622  0.3266 -0.0518
 5801SOL    HW228863   1.682   3.025   1.208 -0.4564 -1.7867 -0.0058
 5802SOL     OW28864   3.141   1.253   3.988  0.1970  0.5842 -0.4847
 5802SOL    HW128865   3.224   1.237   4.033 -1.5097 -2.4012  1.5910
 5802SOL    HW228866   3.089   1.250   4.069  0.3026 -1.9119 -0.4846
 5803SOL     OW28867   1.607   0.008   4.592 -0.1186 -0.3967 -0.2458
 5803SOL    HW128868   1.643   4.659   4.537  2.7247  0.6788  0.2407
 5803SOL    HW228869   1.532   4.685   4.632  1.0565 -0.6509  1.6729
 5804SOL     OW28870   1.572   1.393   5.547 -0.4729  0.3311 -0.0665
 5804SOL    HW128871   1.559   1.371   5.455  0.6757 -1.6631  0.2408
 5804SOL    HW228872   1.664   1.365   5.548 -0.0159  1.7226 -1.9013
 5805SOL     OW28873   1.343   3.814   8.066  0.1990 -0.0991  0.2121
 5805SOL    HW128874   1.411   3.878   8.085  1.7773 -1.2848 -1.3915
 5805SOL    HW228875   1.279   3.824   8.137  0.3061  0.8269  0.1789
 5806SOL     OW28876   0.839   4.618   3.007 -0.0646 -0.6789 -0.8155
 5806SOL    HW128877   0.786   4.593   2.931  0.9575 -3.2957 -0.6730
 5806SOL    HW228878   0.855   4.711   2.989 -1.7707  0.3606  2.9298
 5807SOL     OW28879   2.202   2.804  10.109 -0.4752 -0.0351 -0.3879
 5807SOL    HW128880   2.274   2.867  10.114 -1.0388  0.7568 -2.2707
 5807SOL    HW228881   2.175   2.789  10.200  0.9033  0.0641  0.0375
 5808SOL     OW28882   0.728   2.184   0.819  0.3665 -0.2343  0.1931
 5808SOL    HW128883   0.729   2.095   0.854  2.6465 -0.5752 -0.7642
 5808SOL    HW228884   0.787   2.220   0.884 -0.3550 -1.6601  1.6258
 5809SOL     OW28885   3.416   1.560   5.539 -0.2653 -0.0020  0.1175
 5809SOL    HW128886   3.479   1.600   5.479  0.1247  0.2821  0.7139
 5809SOL    HW228887   3.347   1.560   5.473  0.0854  0.3297 -0.2525
 5810SOL     OW28888   3.162   2.990   8.836 -0.3979  0.0329  0.0209
 5810SOL    HW128889   3.202   2.989   8.923 -1.1918  0.2681  0.3883
 5810SOL    HW228890   3.135   3.082   8.843  0.4224  0.2317  0.6246
 5811SOL     OW28891   3.220   4.468  11.936  0.0656  0.2646  0.0609
 5811SOL    HW128892   3.173   4.551  11.933  1.1511  0.8829  0.2197
 5811SOL    HW228893   3.147   4.413  11.965  1.0388 -1.0646  0.0033
 5812SOL     OW28894   4.409   1.298  11.304  0.3517  0.0862 -0.0182
 5812SOL    HW128895   4.340   1.237  11.330  1.7778 -2.0818 -1.3431
 5812SOL    HW228896   4.464   1.239  11.253 -0.4645 -0.0522 -0.7289
 5813SOL     OW28897   2.925   0.312  16.084  0.2072  0.2129 -0.1483
 5813SOL    HW128898   2.987   0.238  16.078 -1.3820 -1.0033 -1.6040
 5813SOL    HW228899   2.955   0.338  16.171  2.5894  0.7023 -1.1082
 5814SOL     OW28900   2.405   3.353   1.786  0.2324 -0.4841 -0.0195
 5814SOL    HW128901   2.344   3.349   1.860  1.2026  1.4074  0.8609
 5814SOL    HW228902   2.337   3.352   1.718 -1.0455 -2.1163  1.2878
 5815SOL     OW28903   2.011   0.745  12.603  0.2974  1.3459  0.0303
 5815SOL    HW128904   2.101   0.717  12.617 -0.7898 -1.3280  1.6719
 5815SOL    HW228905   1.973   0.696  12.676 -1.1619  0.6305 -1.1970
 5816SOL     OW28906   3.654   4.596   8.359 -0.0492  1.0714 -0.3495
 5816SOL    HW128907   3.688   4.549   8.435 -0.8899  1.0833  0.0352
 5816SOL    HW228908   3.731   4.617   8.306  1.6460 -1.0066  1.2851
 5817SOL     OW28909   1.588   2.554   3.596  0.3673 -0.1288  0.5042
 5817SOL    HW128910   1.515   2.584   3.541  1.7965  1.4563 -0.5191
 5817SOL    HW228911   1.537   2.497   3.654 -0.2528 -0.5804 -0.4719
 5818SOL     OW28912   4.706   3.143   5.239 -0.5610  0.7327 -0.2096
 5818SOL    HW128913   0.002   3.211   5.174  2.4555  2.2362  2.1499
 5818SOL    HW228914   4.617   3.112   5.224 -0.5575 -0.2284  1.7417
 5819SOL     OW28915   1.259   1.411   6.715 -0.6723 -0.5219  0.6240
 5819SOL    HW128916   1.329   1.399   6.779 -0.1665 -1.4770 -0.0997
 5819SOL    HW228917   1.296   1.475   6.653  2.7392 -2.0640  1.0773
 5820SOL     OW28918   3.569   1.878   8.501 -0.4145 -0.1339 -0.1241
 5820SOL    HW128919   3.591   1.808   8.439  0.4877  0.1518 -0.1229
 5820SOL    HW228920   3.638   1.943   8.493 -0.4337 -0.2735 -1.4176
 5821SOL     OW28921   1.537   3.753   7.539 -0.5086  0.0159 -0.2788
 5821SOL    HW128922   1.478   3.822   7.511 -0.0275  0.1412 -0.9906
 5821SOL    HW228923   1.505   3.685   7.480  0.6366 -1.7947  1.1406
 5822SOL     OW28924   3.960   3.005   7.493  0.4156  0.1582 -0.1960
 5822SOL    HW128925   3.887   3.063   7.514  0.9087  1.1116 -1.0815
 5822SOL    HW228926   4.008   3.070   7.441  1.3676 -0.0931  0.3652
 5823SOL     OW28927   2.112   3.507  16.052  0.5730 -0.3481  0.0802
 5823SOL    HW128928   2.061   3.562  15.992 -1.3622  0.0189  2.1021
 5823SOL    HW228929   2.117   3.555  16.134  1.0189 -0.0488 -0.1175
 5824SOL     OW28930   4.116   2.231   0.924  0.0776  0.4813 -0.2511
 5824SOL    HW128931   4.071   2.294   0.982 -1.6087 -0.3564 -0.6418
 5824SOL    HW228932   4.206   2.255   0.947  0.0925  0.1372  0.0466
 5825SOL     OW28933   3.213   2.748   7.335 -0.3666  0.3975 -0.2396
 5825SOL    HW128934   3.187   2.673   7.282  0.0654  0.7801 -0.9897
 5825SOL    HW228935   3.299   2.709   7.351 -1.7279 -2.1579  0.7138
 5826SOL     OW28936   4.514   0.074   2.313  0.2756  0.4028 -0.1509
 5826SOL    HW128937   4.440   0.022   2.345  0.7687 -0.1795  0.0455
 5826SOL    HW228938   4.584   0.038   2.367 -0.6912 -0.7371  0.3543
 5827SOL     OW28939   1.607   3.951   5.476 -0.1350  0.0030 -0.2036
 5827SOL    HW128940   1.575   3.902   5.400 -2.3144 -1.2099  1.4919
 5827SOL    HW228941   1.532   3.941   5.536 -0.2769  2.1304 -0.0345
 5828SOL     OW28942   2.626   1.722  15.402 -0.3971 -0.0463 -0.2687
 5828SOL    HW128943   2.608   1.657  15.470  0.3126  0.6156  0.5505
 5828SOL    HW228944   2.560   1.695  15.338  0.3830  1.1115 -1.5465
 5829SOL     OW28945   1.201   1.887   9.108  0.3895  0.1956 -0.5683
 5829SOL    HW128946   1.135   1.821   9.088  0.1884 -0.2669  1.5563
 5829SOL    HW228947   1.279   1.836   9.126  0.1187  0.1186  0.3891
 5830SOL     OW28948   1.647   2.387  16.164 -0.2435 -0.0446 -0.4220
 5830SOL    HW128949   1.699   2.371  16.243 -1.0784 -0.3268  0.0690
 5830SOL    HW228950   1.663   2.315  16.104 -0.7800  0.6075 -1.3478
 5831SOL     OW28951   0.877   1.423  16.925  0.6134 -0.1990  0.3915
 5831SOL    HW128952   0.951   1.480  16.947  0.0975  1.1069 -1.2431
 5831SOL    HW228953   0.824   1.484  16.874  1.8205  2.0045  1.7841
 5832SOL     OW28954   1.991   1.041   0.966  0.2021  0.5409  0.4615
 5832SOL    HW128955   2.038   1.100   1.025  0.6643 -0.1198  0.7627
 5832SOL    HW228956   2.062   1.017   0.907 -0.7187 -1.3171  0.1218
 5833SOL     OW28957   2.308   0.659   4.278  0.4569  0.8674  0.0396
 5833SOL    HW128958   2.382   0.673   4.220 -0.3739 -1.0652 -1.4948
 5833SOL    HW228959   2.291   0.567   4.260  2.0465  0.4353  0.7627
 5834SOL     OW28960   1.763   2.888   4.317 -0.2434 -0.0142  0.0231
 5834SOL    HW128961   1.674   2.919   4.335 -1.4751 -4.2521  1.2724
 5834SOL    HW228962   1.816   2.939   4.379 -0.9969 -0.4382  1.0049
 5835SOL     OW28963   3.488   2.174   2.827  0.1164 -0.4040  0.2748
 5835SOL    HW128964   3.550   2.138   2.891  0.0780 -0.0648  0.5016
 5835SOL    HW228965   3.417   2.121   2.861  0.2917  0.4618  1.9856
 5836SOL     OW28966   0.214   0.615   5.075 -0.6885  0.1497 -0.1660
 5836SOL    HW128967   0.301   0.614   5.114 -0.4050  1.4808 -0.7811
 5836SOL    HW228968   0.162   0.569   5.140 -0.1152  1.0539  0.9260
 5837SOL     OW28969   2.513   1.465  11.663 -0.0405 -0.2103  0.2332
 5837SOL    HW128970   2.574   1.393  11.679  0.1288  0.0097  0.5847
 5837SOL    HW228971   2.440   1.416  11.625 -1.3687  1.5723  0.5148
 5838SOL     OW28972   1.590   1.215  12.856 -0.0621 -0.3997 -0.4330
 5838SOL    HW128973   1.631   1.147  12.909 -0.1622  0.3801  0.6511
 5838SOL    HW228974   1.583   1.181  12.767  1.8884 -1.4459 -0.1785
 5839SOL     OW28975   3.375   3.431  17.499 -0.3470 -0.3134  0.1790
 5839SOL    HW128976   3.362   3.520  17.532  0.8131  0.3548 -1.2171
 5839SOL    HW228977   3.341   3.441  17.410 -1.5396 -2.2728  0.4081
 5840SOL     OW28978   3.473   1.345   8.063  0.2437 -0.7311  0.0878
 5840SOL    HW128979   3.451   1.259   8.025 -0.4140 -0.3616 -0.3629
 5840SOL    HW228980   3.399   1.403   8.045  0.1778  0.2397  3.4398
 5841SOL     OW28981   4.031   0.570   8.958 -0.1861 -0.1668 -0.2481
 5841SOL    HW128982   4.043   0.625   9.035  0.8174  0.1568 -0.6348
 5841SOL    HW228983   3.978   0.499   8.995 -0.1072  0.0391  0.2547
 5842SOL     OW28984   3.664   4.295   2.548 -0.4519  0.2182  0.0159
 5842SOL    HW128985   3.624   4.363   2.602 -3.0735 -0.0599 -1.5906
 5842SOL    HW228986   3.616   4.314   2.468 -1.0733 -0.4935  0.2186
 5843SOL     OW28987   3.651   0.039   7.284 -0.1742  0.2732  0.4885
 5843SOL    HW128988   3.602   0.120   7.271 -1.0424 -0.2063  0.7553
 5843SOL    HW228989   3.612   4.695   7.226  1.5098 -0.7507  0.4967
 5844SOL     OW28990   2.232   1.038   0.448  0.2005 -1.1450  0.1915
 5844SOL    HW128991   2.146   1.018   0.485 -0.4212 -1.2841 -1.3179
 5844SOL    HW228992   2.224   1.006   0.358 -2.0884  3.2008 -1.1483
 5845SOL     OW28993   1.675   4.283   3.887  0.5208 -0.5053  0.1952
 5845SOL    HW128994   1.625   4.229   3.825  1.4233 -0.0420 -0.9495
 5845SOL    HW228995   1.726   4.338   3.827 -0.4216 -1.1935 -1.2461
 5846SOL     OW28996   2.562   1.768   7.177 -0.2330  0.5310 -0.0622
 5846SOL    HW128997   2.632   1.714   7.140 -0.1407 -1.3794  2.9463
 5846SOL    HW228998   2.524   1.706   7.239  2.1810 -0.0247  0.8482
 5847SOL     OW28999   0.451   3.773   3.480 -0.4147  0.2431  0.3280
 5847SOL    HW129000   0.395   3.755   3.405  0.0900  0.2400 -0.0482
 5847SOL    HW229001   0.402   3.780   3.562 -0.7398  2.1409 -0.0457
 5848SOL     OW29002   1.411   2.845   9.848 -0.1471  0.1824  0.3384
 5848SOL    HW129003   1.360   2.836   9.768 -0.3916  1.2950  0.3566
 5848SOL    HW229004   1.471   2.772   9.834 -0.2263  0.1605  0.1191
 5849SOL     OW29005   0.306   3.641   8.247 -0.2423  0.0037  0.1365
 5849SOL    HW129006   0.361   3.563   8.256  0.9552  0.7646 -0.6275
 5849SOL    HW229007   0.268   3.631   8.159 -1.0162  1.3325  0.3277
 5850SOL     OW29008   2.381   0.373   3.848  0.3285  0.1434 -0.1320
 5850SOL    HW129009   2.393   0.352   3.755 -0.0156 -0.1390 -0.1141
 5850SOL    HW229010   2.419   0.460   3.853  3.6366 -1.3991  1.6121
 5851SOL     OW29011   0.818   0.688   6.533  0.5414 -0.0486  0.3139
 5851SOL    HW129012   0.822   0.741   6.613 -2.3940 -0.2506  0.5991
 5851SOL    HW229013   0.748   0.737   6.489 -1.0943 -1.7202  1.0645
 5852SOL     OW29014   3.508   2.494   5.600  0.4222  0.6385 -0.2202
 5852SOL    HW129015   3.431   2.445   5.572  0.3485 -0.3483  1.7221
 5852SOL    HW229016   3.581   2.436   5.580  0.5291  0.2159  1.4501
 5853SOL     OW29017   2.287   0.777   7.644 -0.3692 -0.0126 -0.0271
 5853SOL    HW129018   2.246   0.862   7.658  0.5211  0.1704  1.4861
 5853SOL    HW229019   2.379   0.806   7.645  0.3027 -2.0289 -2.0144
 5854SOL     OW29020   1.534   2.939   7.471  0.6915  0.0571 -0.0644
 5854SOL    HW129021   1.574   2.914   7.554 -0.5372  0.6099  0.7066
 5854SOL    HW229022   1.501   3.025   7.496  0.6239  0.1108 -0.3321
 5855SOL     OW29023   1.979   0.643  10.132  0.7062 -0.4941 -0.1044
 5855SOL    HW129024   1.993   0.562  10.181 -0.5423  0.1573  1.3337
 5855SOL    HW229025   2.047   0.700  10.168  1.3611 -1.2420 -0.1642
 5856SOL     OW29026   1.362   0.842   1.508  0.0519  0.2870  0.1574
 5856SOL    HW129027   1.423   0.796   1.451 -0.9276  0.6263 -1.1638
 5856SOL    HW229028   1.367   0.784   1.585 -1.3263  1.3663  1.0588
 5857SOL     OW29029   0.087   3.292  16.648 -0.0907  0.0632  0.0097
 5857SOL    HW129030   0.131   3.219  16.690 -0.9201 -1.0162 -1.0116
 5857SOL    HW229031   0.140   3.367  16.676 -3.3985  1.9088  1.3374
 5858SOL     OW29032   0.794   3.169   9.354 -0.0420  0.2307  0.1998
 5858SOL    HW129033   0.819   3.248   9.305  0.5691 -0.6076 -0.8241
 5858SOL    HW229034   0.725   3.139   9.295 -0.2217 -0.2461  0.6557
 5859SOL     OW29035   3.292   3.364   5.653 -0.4429 -0.3767  0.1582
 5859SOL    HW129036   3.240   3.296   5.609  0.0393 -0.5861 -0.0778
 5859SOL    HW229037   3.227   3.410   5.708 -0.6518 -0.0109 -0.3855
 5860SOL     OW29038   4.601   1.031   7.187  0.1685 -0.1631  0.1612
 5860SOL    HW129039   4.620   0.945   7.151 -2.1184  0.2627 -2.0711
 5860SOL    HW229040   4.633   1.082   7.113  0.0059 -2.3812 -1.4320
 5861SOL     OW29041   4.557   2.668   2.388  0.2146  0.3675 -0.5540
 5861SOL    HW129042   4.498   2.740   2.369 -1.7072 -1.0982 -0.1575
 5861SOL    HW229043   4.511   2.605   2.333 -0.7478 -0.0298  0.7013
 5862SOL     OW29044   4.071   1.605   3.827  0.2177  0.2358  0.5804
 5862SOL    HW129045   4.123   1.680   3.799  3.1456 -2.4308 -1.1443
 5862SOL    HW229046   3.990   1.630   3.781 -0.0588  0.2910  1.0979
 5863SOL     OW29047   4.418   0.102   3.263 -0.5734 -0.0102  0.3191
 5863SOL    HW129048   4.430   0.161   3.189  4.0158 -0.6293  0.5860
 5863SOL    HW229049   4.403   0.021   3.214 -0.9449  0.2996 -0.0777
 5864SOL     OW29050   1.078   4.541   5.156  0.0487 -0.5151  0.0832
 5864SOL    HW129051   1.136   4.544   5.080 -1.0711  3.9891 -0.5816
 5864SOL    HW229052   1.117   4.480   5.219  1.6856 -0.6638 -1.0751
 5865SOL     OW29053   0.690   4.586  11.536  0.2957 -0.0436 -0.8171
 5865SOL    HW129054   0.731   4.627  11.459  1.3555  1.2025  0.4216
 5865SOL    HW229055   0.698   4.653  11.604 -0.6239  1.2802 -2.0082
 5866SOL     OW29056   0.106   4.035   5.907 -0.2257  0.1073  0.3257
 5866SOL    HW129057   0.200   4.015   5.907  0.0804  1.5401  0.7851
 5866SOL    HW229058   0.110   4.114   5.853 -1.3236 -1.6324 -2.2985
 5867SOL     OW29059   2.763   0.626   8.401 -1.0035  0.6105 -0.6288
 5867SOL    HW129060   2.833   0.567   8.377 -0.9997  0.2662  0.2400
 5867SOL    HW229061   2.811   0.690   8.454 -0.1153  0.6414 -1.4672
 5868SOL     OW29062   1.873   4.263   5.837  0.8092  0.1995  0.1231
 5868SOL    HW129063   1.797   4.269   5.896 -0.0334 -3.3780 -0.6432
 5868SOL    HW229064   1.842   4.251   5.747 -1.9751  0.5575  1.0095
 5869SOL     OW29065   2.498   1.564   4.314 -0.2921  0.2505 -0.4961
 5869SOL    HW129066   2.413   1.607   4.308 -0.7543 -0.3570  1.5284
 5869SOL    HW229067   2.544   1.615   4.381  1.5675 -1.8140 -0.1830
 5870SOL     OW29068   4.109   3.296   4.165  0.5566  0.3263  0.6055
 5870SOL    HW129069   4.079   3.232   4.100  1.5688  0.2467  0.2236
 5870SOL    HW229070   4.179   3.335   4.113  0.8454  0.4913  1.1124
 5871SOL     OW29071   3.148   2.854   9.739  0.2312  0.1409  0.3435
 5871SOL    HW129072   3.141   2.948   9.722  2.8874  0.4250  0.7119
 5871SOL    HW229073   3.167   2.821   9.651  1.9523  1.3568  0.2391
 5872SOL     OW29074   3.683   1.053   8.041 -0.0460 -0.3691  0.3678
 5872SOL    HW129075   3.675   1.008   8.125 -0.9611  2.6323  1.8986
 5872SOL    HW229076   3.772   1.026   8.019 -0.0079  0.8141 -0.9024
 5873SOL     OW29077   1.067   3.447   8.237 -0.1217 -0.4553 -0.0911
 5873SOL    HW129078   1.091   3.455   8.145  1.0992  0.2958  0.2888
 5873SOL    HW229079   0.995   3.506   8.259  1.8776  1.1255  2.1961
 5874SOL     OW29080   1.916   2.245   4.093 -0.0516  0.5121 -0.1602
 5874SOL    HW129081   1.879   2.200   4.169 -1.6722  1.0874 -0.6016
 5874SOL    HW229082   1.985   2.294   4.137  1.2661 -1.8235  0.3718
 5875SOL     OW29083   2.723   2.693   8.899 -0.0546  0.6499 -0.1962
 5875SOL    HW129084   2.766   2.763   8.948  0.7708  1.3747 -1.9586
 5875SOL    HW229085   2.657   2.744   8.852  0.1520  0.3963 -0.7648
 5876SOL     OW29086   0.153   3.603   8.014  0.0158 -0.2179  0.5568
 5876SOL    HW129087   0.132   3.532   8.073  0.8096 -0.1825  0.8870
 5876SOL    HW229088   0.188   3.569   7.931 -0.6481 -0.1788  0.2580
 5877SOL     OW29089   1.780   1.956  15.396 -0.2320  0.0008  0.4022
 5877SOL    HW129090   1.793   1.922  15.485 -0.0804  0.8125  0.6873
 5877SOL    HW229091   1.724   2.031  15.414  0.8260  0.7708  0.5276
 5878SOL     OW29092   1.424   3.087   8.268  0.0452 -0.3061  0.2778
 5878SOL    HW129093   1.454   3.000   8.242  1.7831 -0.1580  1.8023
 5878SOL    HW229094   1.502   3.138   8.245  1.4346 -1.7247  1.9049
 5879SOL     OW29095   1.894   4.702  16.807  0.1997 -0.4959 -0.0723
 5879SOL    HW129096   1.982   4.700  16.845  0.1206  2.1777  0.1904
 5879SOL    HW229097   1.891   4.620  16.757  1.7472 -0.4646 -0.2267
 5880SOL     OW29098   0.524   1.545   5.901  0.3292 -0.0032  0.0378
 5880SOL    HW129099   0.527   1.584   5.814  1.2401  0.2664  0.1858
 5880SOL    HW229100   0.600   1.592   5.936 -1.4819  2.2714  0.9551
 5881SOL     OW29101   2.539   0.144   4.864  0.5255  0.4459 -0.2150
 5881SOL    HW129102   2.609   0.197   4.900  1.3205 -1.3089  0.7853
 5881SOL    HW229103   2.478   0.143   4.937 -0.6297 -0.4425 -1.1817
 5882SOL     OW29104   2.184   3.107   3.784  0.2581  0.1563  0.2548
 5882SOL    HW129105   2.273   3.117   3.749  0.5718 -0.4581  0.8828
 5882SOL    HW229106   2.177   3.013   3.772 -1.2520  0.3261 -0.1460
 5883SOL     OW29107   4.700   0.412   8.179 -0.3705 -0.5213  0.2116
 5883SOL    HW129108   0.040   0.362   8.124 -1.0175 -1.1585  0.0719
 5883SOL    HW229109   4.631   0.346   8.186 -0.7397  0.1864  3.0620
 5884SOL     OW29110   3.845   0.474   2.020  0.4066  0.0996  0.1793
 5884SOL    HW129111   3.801   0.535   1.960  0.5577 -0.0427 -0.0742
 5884SOL    HW229112   3.937   0.468   1.995  0.6271 -1.2101  1.3025
 5885SOL     OW29113   3.617   0.446  10.660 -0.2855 -0.5337  0.0503
 5885SOL    HW129114   3.568   0.435  10.579 -2.3997  4.9903  0.5786
 5885SOL    HW229115   3.543   0.472  10.716  1.0071  1.5511  0.7661
 5886SOL     OW29116   3.623   2.695  15.008  0.8384  0.1302 -0.3391
 5886SOL    HW129117   3.533   2.689  15.042  1.0369 -1.3144 -0.0459
 5886SOL    HW229118   3.613   2.751  14.932  3.0208 -0.2104 -0.8541
 5887SOL     OW29119   2.527   0.524  17.174  0.1678 -0.2959 -0.0330
 5887SOL    HW129120   2.554   0.459  17.239  1.2435 -1.5983 -1.7990
 5887SOL    HW229121   2.565   0.484  17.097  0.6983  0.6654 -0.2657
 5888SOL     OW29122   1.200   0.242  13.024 -0.0762 -0.6734 -0.1818
 5888SOL    HW129123   1.238   0.284  12.947 -4.4295  0.7020 -1.5857
 5888SOL    HW229124   1.120   0.293  13.040  0.1604  0.7284 -3.4898
 5889SOL     OW29125   4.453   4.222  12.999 -0.3283 -0.2061 -0.4865
 5889SOL    HW129126   4.483   4.266  12.919  2.4526  2.0694  1.8057
 5889SOL    HW229127   4.375   4.185  12.958  2.0565 -3.1477 -2.3584
 5890SOL     OW29128   0.293   1.306   0.689  0.1029  0.1639  0.2664
 5890SOL    HW129129   0.208   1.267   0.670 -0.6726  2.6785 -1.3578
 5890SOL    HW229130   0.354   1.255   0.636  1.7473  2.8143 -0.4081
 5891SOL     OW29131   1.394   4.187   7.057 -0.2055 -0.3594 -0.4571
 5891SOL    HW129132   1.461   4.170   7.123 -2.2692  0.1544  1.7555
 5891SOL    HW229133   1.426   4.255   6.997  3.1750 -0.7690  0.9047
 5892SOL     OW29134   4.651   2.656   7.863 -0.4563  0.4094 -0.2857
 5892SOL    HW129135   4.657   2.584   7.799 -1.0949  0.2734 -0.1950
 5892SOL    HW229136   4.559   2.647   7.886 -0.6459 -0.6201 -1.4524
 5893SOL     OW29137   2.597   3.352   6.108 -0.5374 -0.0790 -0.8274
 5893SOL    HW129138   2.652   3.361   6.187  0.3841  2.0957 -1.7002
 5893SOL    HW229139   2.611   3.264   6.073  0.2776  0.1513 -1.0788
 5894SOL     OW29140   3.091   2.425  11.992  0.2777 -0.0324 -0.1524
 5894SOL    HW129141   3.097   2.350  11.933  0.4434  0.0061 -0.1832
 5894SOL    HW229142   3.183   2.444  12.007  0.5376 -1.8522  0.5286
 5895SOL     OW29143   0.267   0.862   8.301  0.4733  0.4871  0.1072
 5895SOL    HW129144   0.187   0.884   8.348  0.3114 -0.8420  0.4699
 5895SOL    HW229145   0.225   0.798   8.243 -1.3876  1.5122  0.3433
 5896SOL     OW29146   1.269   0.786   8.497 -0.1340  0.1969 -0.0185
 5896SOL    HW129147   1.285   0.773   8.404 -0.5451 -0.8904  0.0641
 5896SOL    HW229148   1.249   0.696   8.524  0.8381 -0.7637 -2.5478
 5897SOL     OW29149   2.301   0.719   2.917  0.1576 -0.2779  0.3366
 5897SOL    HW129150   2.294   0.678   3.003 -1.0859 -0.8784 -0.0413
 5897SOL    HW229151   2.249   0.654   2.869  0.4570  0.2104 -0.6546
 5898SOL     OW29152   2.187   2.362  17.133 -0.1577 -0.0483 -0.1932
 5898SOL    HW129153   2.168   2.299  17.065  1.4506  0.6248 -1.2759
 5898SOL    HW229154   2.173   2.311  17.213  2.5247 -0.6968 -0.1499
 5899SOL     OW29155   3.039   4.714  13.453 -0.0337  0.3372 -0.2857
 5899SOL    HW129156   3.081   0.077  13.468 -0.2658  0.5384 -0.7620
 5899SOL    HW229157   2.990   0.022  13.376 -0.7613 -0.1855 -0.0252
 5900SOL     OW29158   1.865   3.470   8.304  0.0231  0.2961 -0.2866
 5900SOL    HW129159   1.902   3.487   8.218  0.3800 -1.7981 -0.5356
 5900SOL    HW229160   1.886   3.552   8.349 -0.4291 -0.7932  1.9415
 5901SOL     OW29161   2.829   0.100   7.318 -0.0442  0.1351  0.2454
 5901SOL    HW129162   2.909   0.152   7.327  0.5741 -1.0628  1.6845
 5901SOL    HW229163   2.796   0.132   7.234 -0.2972 -2.7739 -0.7795
 5902SOL     OW29164   1.338   3.549  15.907  0.4474  0.0953  0.4673
 5902SOL    HW129165   1.301   3.490  15.973 -1.6543  0.9914  0.1051
 5902SOL    HW229166   1.332   3.639  15.937  0.7142  1.1078 -2.5133
 5903SOL     OW29167   2.086   3.915   4.286  0.0396  0.1754 -0.0112
 5903SOL    HW129168   2.118   3.971   4.214 -0.7549  2.2910  1.2785
 5903SOL    HW229169   2.166   3.883   4.327  0.4129  1.3716  0.2086
 5904SOL     OW29170   1.463   2.876  17.060  0.4922 -0.5634  0.3321
 5904SOL    HW129171   1.464   2.947  17.124  2.1027 -0.4443  0.1670
 5904SOL    HW229172   1.482   2.804  17.120  0.0224 -0.7993  0.1951
 5905SOL     OW29173   4.271   3.871   5.524  0.2194  0.0287 -0.6694
 5905SOL    HW129174   4.280   3.964   5.504 -2.5021  0.1008 -1.4787
 5905SOL    HW229175   4.188   3.876   5.570 -0.7833 -0.8236 -2.3975
 5906SOL     OW29176   2.613   3.358   2.790  0.2597 -0.0088  0.2144
 5906SOL    HW129177   2.624   3.374   2.696 -0.0863 -0.6523  0.0681
 5906SOL    HW229178   2.523   3.377   2.814  0.0926  0.3004 -0.6550
 5907SOL     OW29179   3.481   4.638   7.100  0.7046  0.2029  0.0161
 5907SOL    HW129180   3.408   4.645   7.162  0.8597  1.6087  0.0499
 5907SOL    HW229181   3.446   4.670   7.017  1.0108 -0.8018 -0.4941
 5908SOL     OW29182   3.668   4.694   6.112  0.6592  0.5565 -0.4219
 5908SOL    HW129183   3.696   0.063   6.124  0.1126  0.4285  1.9400
 5908SOL    HW229184   3.747   4.640   6.109 -0.8815 -1.6629 -1.1054
 5909SOL     OW29185   1.628   1.889   4.416 -0.1417  0.0683 -0.0707
 5909SOL    HW129186   1.690   1.925   4.480  0.9767  0.1280 -1.1881
 5909SOL    HW229187   1.567   1.963   4.417  0.6627  0.7065  0.9787
 5910SOL     OW29188   1.727   4.351  11.109  0.6484 -0.2107 -0.7136
 5910SOL    HW129189   1.703   4.424  11.053 -0.8115  0.9023  1.3677
 5910SOL    HW229190   1.768   4.297  11.041  1.6140 -0.6462  0.2178
 5911SOL     OW29191   2.988   1.047   2.208 -0.4253  0.3598  0.0282
 5911SOL    HW129192   3.023   0.982   2.269 -0.7555 -0.6774 -0.8743
 5911SOL    HW229193   2.899   1.015   2.193 -0.7745  0.9999  0.7787
 5912SOL     OW29194   1.378   0.890  14.019 -0.1464 -0.2566  0.2038
 5912SOL    HW129195   1.339   0.961  13.968 -3.7421 -2.8068 -0.6287
 5912SOL    HW229196   1.329   0.819  13.978  0.3355 -2.0187  2.7326
 5913SOL     OW29197   3.491   4.487   5.394 -0.6684 -0.3038 -0.3466
 5913SOL    HW129198   3.549   4.434   5.449 -0.4194  0.5368  0.2191
 5913SOL    HW229199   3.406   4.463   5.432  0.0839  0.3852  1.8023
 5914SOL     OW29200   3.444   1.057  17.101 -0.1490 -0.0601 -0.0951
 5914SOL    HW129201   3.385   1.125  17.069 -0.2295 -0.5207 -0.9272
 5914SOL    HW229202   3.424   0.987  17.038 -0.9528  0.1916 -0.1156
 5915SOL     OW29203   0.978   2.672  15.725  0.2439 -0.6192 -0.0118
 5915SOL    HW129204   0.970   2.578  15.710 -1.0959 -0.6373  0.8819
 5915SOL    HW229205   0.911   2.700  15.663 -0.6900  0.2745  1.4070
 5916SOL     OW29206   1.219   4.542   4.925  0.8306 -0.4174 -0.0459
 5916SOL    HW129207   1.261   4.580   4.848 -0.6573  1.5856  0.1342
 5916SOL    HW229208   1.288   4.483   4.955 -0.2948 -1.0432  1.3116
 5917SOL     OW29209   1.882   3.450   6.884  0.4187 -0.2292  0.0199
 5917SOL    HW129210   1.891   3.544   6.894 -0.2270 -0.2507  0.7595
 5917SOL    HW229211   1.975   3.425   6.887  0.4373 -0.1073  0.4024
 5918SOL     OW29212   1.028   0.101  14.946 -0.3830  0.3109 -0.1578
 5918SOL    HW129213   0.950   0.088  14.892 -1.3454 -1.3371  1.6000
 5918SOL    HW229214   1.029   0.196  14.940  0.9262  0.1701 -2.0749
 5919SOL     OW29215   2.061   0.249  12.816 -0.5728 -0.1682 -0.0849
 5919SOL    HW129216   2.050   0.154  12.822  1.8021 -0.3990  0.6602
 5919SOL    HW229217   2.106   0.245  12.731  2.4675  1.5182  1.4227
 5920SOL     OW29218   4.111   2.835   6.548  0.3351 -0.4167 -0.5446
 5920SOL    HW129219   4.139   2.746   6.526 -0.0178 -0.9120  1.0273
 5920SOL    HW229220   4.196   2.880   6.550 -0.5890  1.4766 -3.1007
 5921SOL     OW29221   0.115   2.305   9.225  0.4171  0.3042  0.0348
 5921SOL    HW129222   0.041   2.366   9.232  0.0240  0.0809 -2.0565
 5921SOL    HW229223   0.104   2.265   9.311  0.1104  0.5506  0.1118
 5922SOL     OW29224   0.220   3.129   6.359 -0.0298 -0.4964  0.1904
 5922SOL    HW129225   0.249   3.193   6.294 -0.7288  1.3661  1.7338
 5922SOL    HW229226   0.129   3.152   6.373  0.3995  0.3381  1.5642
 5923SOL     OW29227   3.145   3.586   6.572 -0.4205  0.2557  0.2762
 5923SOL    HW129228   3.064   3.637   6.579  0.1778  1.5823 -2.2995
 5923SOL    HW229229   3.208   3.652   6.603  0.4826  0.0803 -1.1981
 5924SOL     OW29230   4.404   3.103   2.468  0.3600  0.0617  0.8138
 5924SOL    HW129231   4.353   3.139   2.395  0.4438 -0.0344  0.7077
 5924SOL    HW229232   4.436   3.175   2.522 -0.5162  1.2441 -0.2409
 5925SOL     OW29233   1.652   3.328   1.082 -0.1199  0.2075 -0.2519
 5925SOL    HW129234   1.596   3.343   1.006 -0.3970 -2.1625 -0.5436
 5925SOL    HW229235   1.735   3.316   1.035 -0.2056  0.0101 -0.3551
 5926SOL     OW29236   4.156   2.182   8.064  1.0319 -0.0980 -0.1195
 5926SOL    HW129237   4.066   2.158   8.046  0.3260  1.3995  1.4599
 5926SOL    HW229238   4.157   2.259   8.006 -1.4756  0.7276  0.9532
 5927SOL     OW29239   3.711   4.110  15.798  0.0435 -0.1830 -0.4611
 5927SOL    HW129240   3.666   4.026  15.801  0.3266 -0.2713  1.0551
 5927SOL    HW229241   3.802   4.085  15.778  0.2896 -0.4599  0.9988
 5928SOL     OW29242   2.398   1.716  17.213  0.2422  0.8499 -0.2106
 5928SOL    HW129243   2.432   1.648  17.155  1.6612  1.3970 -0.0144
 5928SOL    HW229244   2.429   1.682  17.297 -0.1419  2.2373  0.4944
 5929SOL     OW29245   2.184   1.021   7.781 -0.1746  0.5550  0.1021
 5929SOL    HW129246   2.253   1.013   7.846 -1.0539 -1.3162  0.8106
 5929SOL    HW229247   2.108   1.042   7.836  0.0375  2.4828 -0.3143
 5930SOL     OW29248   1.112   0.445   4.009  0.0236  0.3880 -0.3001
 5930SOL    HW129249   1.147   0.534   4.011  1.3170 -0.1527  0.7485
 5930SOL    HW229250   1.138   0.417   4.096 -3.7410  0.3579  0.8364
 5931SOL     OW29251   1.164   3.629   1.031  0.7715 -0.3224 -0.2309
 5931SOL    HW129252   1.170   3.702   0.968  2.4939 -0.2167  0.0468
 5931SOL    HW229253   1.136   3.676   1.110 -1.3778 -0.9535 -0.6209
 5932SOL     OW29254   1.746   0.019  17.270 -0.1898 -0.0012  0.7968
 5932SOL    HW129255   1.709   0.002  17.183  1.3739 -1.5035  0.4409
 5932SOL    HW229256   1.808   0.087  17.244 -1.9791  0.9922 -0.9689
 5933SOL     OW29257   1.042   4.715   8.933 -0.4359 -0.4791  0.1730
 5933SOL    HW129258   1.134   4.691   8.920 -0.9903 -1.3690 -2.1924
 5933SOL    HW229259   1.016   4.676   9.017  1.3163 -2.9402 -0.4105
 5934SOL     OW29260   0.799   1.871   5.427 -0.2979 -0.2975 -0.4388
 5934SOL    HW129261   0.820   1.904   5.514  0.3550  1.4468 -1.2786
 5934SOL    HW229262   0.741   1.943   5.403 -1.6181 -1.5185 -0.9345
 5935SOL     OW29263   1.746   0.277   9.185 -0.7169  0.1658 -0.2152
 5935SOL    HW129264   1.730   0.209   9.250 -0.1945 -0.8954 -1.2059
 5935SOL    HW229265   1.661   0.319   9.178 -0.2973  0.8948 -0.9919
 5936SOL     OW29266   3.855   4.283   5.236 -0.4485 -0.2035 -0.0726
 5936SOL    HW129267   3.899   4.308   5.317 -1.7965  2.8833 -0.2554
 5936SOL    HW229268   3.793   4.356   5.226  1.7655  1.7972  1.0246
 5937SOL     OW29269   0.277   0.715   6.534  0.5944  0.3037  0.0965
 5937SOL    HW129270   0.299   0.628   6.568  0.0419 -0.4383 -1.4602
 5937SOL    HW229271   0.185   0.704   6.510  1.1272 -1.3744 -1.1997
 5938SOL     OW29272   4.361   4.458  13.974  0.3360  0.3329 -0.2401
 5938SOL    HW129273   4.306   4.463  13.896 -1.3860 -0.0908  0.9452
 5938SOL    HW229274   4.402   4.373  13.958  1.5240  0.7626  0.4386
 5939SOL     OW29275   4.708   3.621  17.666 -0.0988  0.5906 -0.1432
 5939SOL    HW129276   4.710   3.660  17.579 -1.2743 -1.3220 -1.0230
 5939SOL    HW229277   4.720   3.699   0.033 -1.4086  0.0574  0.8993
 5940SOL     OW29278   0.306   1.832   6.350 -0.5688 -0.4372  0.1106
 5940SOL    HW129279   0.401   1.833   6.361 -0.8500  0.3043  2.3305
 5940SOL    HW229280   0.281   1.790   6.432  3.7265 -1.0684  1.1116
 5941SOL     OW29281   4.593   2.423   8.218 -0.3938  0.9077 -0.6415
 5941SOL    HW129282   4.568   2.481   8.146  1.1226  0.3504 -1.6027
 5941SOL    HW229283   4.607   2.476   8.297  1.3545  0.1228 -0.4350
 5942SOL     OW29284   1.732   0.123   6.529  0.1219  0.1470  0.0731
 5942SOL    HW129285   1.768   0.209   6.552  1.9441 -0.4599 -0.5181
 5942SOL    HW229286   1.816   0.083   6.507 -0.4566 -0.2713 -1.4309
 5943SOL     OW29287   4.448   1.042   6.049  0.0564  0.1120  0.3195
 5943SOL    HW129288   4.435   1.108   6.117  0.4638 -0.0245  0.5369
 5943SOL    HW229289   4.359   1.035   6.015  0.3259  0.0350 -0.3755
 5944SOL     OW29290   1.114   1.558  16.920  0.8407 -0.3849 -0.0669
 5944SOL    HW129291   1.208   1.560  16.938  0.8203  0.4911 -0.0716
 5944SOL    HW229292   1.118   1.555  16.824  1.0540  0.8320 -0.0962
 5945SOL     OW29293   2.400   3.169   8.184  0.3893 -0.2257  0.1259
 5945SOL    HW129294   2.316   3.207   8.207  0.8619  0.0570  1.4172
 5945SOL    HW229295   2.420   3.207   8.098 -2.5390  0.6734 -0.1501
 5946SOL     OW29296   3.208   0.766   6.000 -0.2933 -0.2035  0.1201
 5946SOL    HW129297   3.208   0.841   5.940 -1.6500  0.2426  0.6878
 5946SOL    HW229298   3.234   0.694   5.942 -0.1534 -1.3719  1.6368
 5947SOL     OW29299   3.380   2.339   1.923 -0.3881 -0.0532 -0.3743
 5947SOL    HW129300   3.285   2.344   1.937 -0.4471 -0.5478 -0.6183
 5947SOL    HW229301   3.390   2.312   1.832 -0.0368 -0.1079 -0.3216
 5948SOL     OW29302   3.594   4.668  10.502 -0.4215  0.0067  0.1304
 5948SOL    HW129303   3.638   4.702  10.580  0.4608 -0.6157 -0.0932
 5948SOL    HW229304   3.508   4.647  10.539 -0.2720  0.6131  0.8242
 5949SOL     OW29305   3.991   3.901  11.983 -0.0865  0.0439 -0.1004
 5949SOL    HW129306   4.034   3.822  11.951 -1.4058  0.0662 -1.9417
 5949SOL    HW229307   3.914   3.900  11.926 -2.3946  1.9747  2.9617
 5950SOL     OW29308   3.649   0.735  13.953 -0.0164 -1.0975 -0.2313
 5950SOL    HW129309   3.599   0.702  14.028 -1.1107 -0.8217 -0.8343
 5950SOL    HW229310   3.725   0.678  13.947  0.9328  0.3956 -2.0863
 5951SOL     OW29311   3.409   3.146   3.133 -0.1730  0.4498  0.2809
 5951SOL    HW129312   3.329   3.093   3.127 -0.3957  0.8054  0.0945
 5951SOL    HW229313   3.460   3.103   3.064 -1.4252  1.1470 -1.0721
 5952SOL     OW29314   1.241   4.068   6.078 -0.1997 -0.4780 -0.3408
 5952SOL    HW129315   1.326   4.030   6.099  1.1962  2.1108 -1.3338
 5952SOL    HW229316   1.188   3.994   6.107 -0.3449  0.1590  1.0075
 5953SOL     OW29317   4.486   0.924  15.450  0.0753  0.1244 -0.4602
 5953SOL    HW129318   4.536   0.845  15.429 -0.6370 -1.1723  2.6733
 5953SOL    HW229319   4.525   0.986  15.388  0.5901 -1.0299 -1.2867
 5954SOL     OW29320   3.548   3.761  11.807 -0.2871  0.3545 -0.6310
 5954SOL    HW129321   3.512   3.746  11.895  2.0158 -1.3308  0.0221
 5954SOL    HW229322   3.640   3.766  11.831 -0.9400  2.5080  1.4899
 5955SOL     OW29323   1.919   3.431  14.421 -0.7487  0.5607 -0.6489
 5955SOL    HW129324   1.929   3.507  14.364 -3.3490  0.8247 -0.7555
 5955SOL    HW229325   1.873   3.370  14.363 -0.9715 -1.7278  1.9235
 5956SOL     OW29326   1.880   4.596   5.709  0.3460 -0.1499 -0.6291
 5956SOL    HW129327   1.838   4.561   5.630  0.1804  0.9163 -1.0251
 5956SOL    HW229328   1.894   4.687   5.682  2.7688 -0.7899 -1.5303
 5957SOL     OW29329   0.507   3.342   2.154  0.1039  0.5224  0.0984
 5957SOL    HW129330   0.596   3.362   2.183  0.3221 -1.0223  0.5021
 5957SOL    HW229331   0.455   3.366   2.231  0.4667 -0.4115  0.6475
 5958SOL     OW29332   2.869   1.639   2.484  0.5406  0.2671 -0.6421
 5958SOL    HW129333   2.884   1.588   2.563 -0.3234  1.6738  0.4476
 5958SOL    HW229334   2.939   1.594   2.437  0.6024  0.0404 -0.3258
 5959SOL     OW29335   0.821   0.956  14.623  0.0107  0.0766  0.2733
 5959SOL    HW129336   0.894   0.920  14.674  0.4892 -1.6017 -1.6279
 5959SOL    HW229337   0.870   1.003  14.556  1.2572 -2.5415 -0.6380
 5960SOL     OW29338   0.592   1.324   2.641  0.5456 -0.2532 -0.4998
 5960SOL    HW129339   0.532   1.383   2.596  1.0610 -0.1324 -1.0267
 5960SOL    HW229340   0.581   1.342   2.734  1.2936 -0.5281 -0.3608
 5961SOL     OW29341   1.990   3.165   7.622  0.2501 -0.1802  0.1789
 5961SOL    HW129342   1.955   3.101   7.684  0.9311 -2.5398 -1.8588
 5961SOL    HW229343   2.018   3.111   7.548 -1.6563  1.0565 -1.4231
 5962SOL     OW29344   2.900   0.591   5.787  0.2914  0.1754  0.4554
 5962SOL    HW129345   2.854   0.549   5.860 -1.6101 -1.0513 -1.4664
 5962SOL    HW229346   2.910   0.675   5.832 -1.5660  1.5089 -1.5840
 5963SOL     OW29347   0.560   1.667   0.803 -0.3609 -0.1810 -0.3599
 5963SOL    HW129348   0.519   1.738   0.753 -0.1512  1.1586  1.3583
 5963SOL    HW229349   0.651   1.688   0.780  0.1789 -2.3409 -0.1624
 5964SOL     OW29350   2.787   1.075   7.906  0.3328 -0.4082 -0.5297
 5964SOL    HW129351   2.836   1.069   7.988  0.9348  0.6085 -0.8170
 5964SOL    HW229352   2.737   1.154   7.925  0.3408 -0.5876  0.2425
 5965SOL     OW29353   0.965   1.871   1.917  0.3819  0.7024 -0.5987
 5965SOL    HW129354   1.055   1.904   1.914 -0.0554  2.1242  1.9415
 5965SOL    HW229355   0.950   1.865   1.822 -0.4873 -0.5779 -0.3757
 5966SOL     OW29356   3.848   2.252   3.180  0.0187  0.5816 -0.0097
 5966SOL    HW129357   3.900   2.296   3.114 -1.9657 -0.4817 -2.2747
 5966SOL    HW229358   3.911   2.228   3.249 -1.5547 -1.9083  0.5417
 5967SOL     OW29359   2.017   3.007   3.489  0.3809  0.1455 -0.4852
 5967SOL    HW129360   2.108   3.037   3.487  0.5983 -0.5917 -1.1283
 5967SOL    HW229361   1.977   3.063   3.556  1.9871  0.7724 -0.0518
 5968SOL     OW29362   1.766   1.905  11.893 -0.1288 -0.3884 -0.3127
 5968SOL    HW129363   1.689   1.858  11.925 -0.9146  0.7218 -0.5622
 5968SOL    HW229364   1.837   1.851  11.928  0.9277 -0.5898 -2.8038
 5969SOL     OW29365   3.381   3.839   4.630 -0.0533  0.1949  0.0400
 5969SOL    HW129366   3.396   3.760   4.577 -1.5111 -1.3991  1.9732
 5969SOL    HW229367   3.421   3.907   4.576  2.8075 -2.3111 -1.0075
 5970SOL     OW29368   2.898   3.892  13.452  0.8380 -0.4269  0.3581
 5970SOL    HW129369   2.902   3.829  13.524  0.3391 -2.3232 -1.2609
 5970SOL    HW229370   2.989   3.882  13.422  0.7318  0.8542 -0.3883
 5971SOL     OW29371   1.504   3.660   6.463  0.1814 -0.1509  0.1740
 5971SOL    HW129372   1.425   3.702   6.427 -0.4519  0.0521  1.8227
 5971SOL    HW229373   1.535   3.633   6.376  0.5515  2.2119 -0.4419
 5972SOL     OW29374   3.060   4.527   3.701  0.3660 -0.5236 -0.3262
 5972SOL    HW129375   3.131   4.462   3.706 -0.2565 -1.0334  2.2255
 5972SOL    HW229376   3.045   4.523   3.796  1.0003 -1.3420 -0.2582
 5973SOL     OW29377   2.858   2.708   1.230  0.4293  0.2682 -0.5549
 5973SOL    HW129378   2.915   2.641   1.268  1.0412  1.5227  0.7447
 5973SOL    HW229379   2.893   2.787   1.270  1.1816 -0.5533  0.4066
 5974SOL     OW29380   4.098   2.364   7.439 -0.0023 -0.0139  0.2715
 5974SOL    HW129381   4.015   2.326   7.412  0.7950 -0.7617 -1.1247
 5974SOL    HW229382   4.063   2.434   7.494  0.9985  0.1744  0.6767
 5975SOL     OW29383   3.758   1.937  14.636  0.0972  0.5118  0.0563
 5975SOL    HW129384   3.769   1.910  14.545 -1.5399  1.4897 -0.4355
 5975SOL    HW229385   3.835   1.895  14.675  0.4331 -0.0611 -1.2329
 5976SOL     OW29386   4.472   1.689   6.939  0.6266 -0.2720 -0.5601
 5976SOL    HW129387   4.422   1.770   6.937  0.8643 -0.0510  2.0055
 5976SOL    HW229388   4.545   1.722   6.993 -0.7100 -0.0207  1.0968
 5977SOL     OW29389   2.322   3.835   7.278 -0.2267 -0.6255 -0.1704
 5977SOL    HW129390   2.394   3.875   7.229 -1.3692 -0.7498 -1.9382
 5977SOL    HW229391   2.252   3.895   7.255  0.9266  0.5333 -0.6954
 5978SOL     OW29392   1.853   3.516   1.497 -0.2777  0.2786  0.3831
 5978SOL    HW129393   1.901   3.596   1.472 -0.2703 -0.2317 -1.2481
 5978SOL    HW229394   1.869   3.522   1.591  0.1845  0.4552  0.2961
 5979SOL     OW29395   1.714   1.565   2.800  0.1756 -0.4100 -0.1751
 5979SOL    HW129396   1.724   1.600   2.711  1.3445 -1.9140 -0.6356
 5979SOL    HW229397   1.718   1.650   2.844  2.4460 -0.0782 -1.0312
 5980SOL     OW29398   0.641   0.681  17.536  0.2720  0.4037 -0.1625
 5980SOL    HW129399   0.605   0.687  17.624  2.1556 -0.3303  0.6578
 5980SOL    HW229400   0.581   0.615  17.502 -0.9827  0.5254  1.8001
 5981SOL     OW29401   0.968   2.846  14.751  0.5765  0.4472 -0.0856
 5981SOL    HW129402   0.959   2.764  14.799 -1.3578  0.5792 -0.2086
 5981SOL    HW229403   0.884   2.848  14.705  0.7144 -0.8814 -0.3856
 5982SOL     OW29404   2.839   2.354  13.326 -0.2364  0.1131 -0.5159
 5982SOL    HW129405   2.924   2.398  13.331 -0.8254  1.2090 -0.2089
 5982SOL    HW229406   2.794   2.386  13.404  0.4925 -0.1731  0.0190
 5983SOL     OW29407   1.611   2.630   5.789  0.0384  0.5612 -0.2996
 5983SOL    HW129408   1.520   2.657   5.776 -0.5740 -1.6987 -0.7087
 5983SOL    HW229409   1.609   2.552   5.733 -1.6958  1.0869 -0.9904
 5984SOL     OW29410   3.790   0.749   2.633  0.1116  0.0447 -0.0172
 5984SOL    HW129411   3.769   0.656   2.630  1.7281 -0.4445  3.8021
 5984SOL    HW229412   3.745   0.782   2.556 -0.8618 -1.7333 -0.1903
 5985SOL     OW29413   1.649   4.539  12.171 -0.0400  0.2035  0.2081
 5985SOL    HW129414   1.675   4.451  12.145  3.1079  1.6285 -1.4827
 5985SOL    HW229415   1.605   4.571  12.092 -1.8919 -1.5791  0.5194
 5986SOL     OW29416   0.378   3.722   4.802  1.1469 -0.1088 -0.7703
 5986SOL    HW129417   0.410   3.684   4.884 -0.5984 -0.3527 -0.1902
 5986SOL    HW229418   0.350   3.809   4.833  2.1639  0.9430 -2.8115
 5987SOL     OW29419   3.952   2.349   6.012  0.1053  0.3660  0.1981
 5987SOL    HW129420   4.042   2.317   6.017  0.3888  1.4168  1.9923
 5987SOL    HW229421   3.949   2.418   6.078 -1.7664 -0.5261  1.0407
 5988SOL     OW29422   2.842   4.307   3.285 -0.5452 -0.0490  0.0429
 5988SOL    HW129423   2.782   4.282   3.354  0.0625  0.5219  0.7783
 5988SOL    HW229424   2.882   4.378   3.335  0.5549 -0.5065 -0.1802
 5989SOL     OW29425   1.257   4.696  13.110  0.5809  0.9266 -0.3178
 5989SOL    HW129426   1.198   4.701  13.185  2.1867 -1.1284  1.0773
 5989SOL    HW229427   1.251   0.061  13.069 -0.6298  1.3376  0.7047
 5990SOL     OW29428   4.201   1.709   6.023 -0.0036 -0.4124  0.1855
 5990SOL    HW129429   4.295   1.722   6.021  0.1161 -1.3318 -0.1849
 5990SOL    HW229430   4.163   1.775   6.081 -0.9966  0.4727 -1.4723
 5991SOL     OW29431   2.110   1.238   2.419  0.4834 -0.3495 -0.2781
 5991SOL    HW129432   2.073   1.212   2.334  0.3145  0.0002 -0.3126
 5991SOL    HW229433   2.044   1.200   2.477 -0.7988  1.5724 -0.4463
 5992SOL     OW29434   1.411   0.075  14.589 -0.2731 -0.2424  0.0948
 5992SOL    HW129435   1.460   0.081  14.506  1.2518 -1.1733  0.9202
 5992SOL    HW229436   1.378   4.709  14.565  1.0758 -1.2351  1.8577
 5993SOL     OW29437   0.804   3.654   4.333  0.5593  0.1190  0.0341
 5993SOL    HW129438   0.826   3.742   4.303 -0.3842 -0.0971 -1.3116
 5993SOL    HW229439   0.872   3.633   4.397  0.5915 -0.9181 -0.3545
 5994SOL     OW29440   3.690   1.409  11.834 -0.2121 -0.5692 -0.1057
 5994SOL    HW129441   3.786   1.400  11.835 -0.2505 -0.8126  1.1323
 5994SOL    HW229442   3.663   1.329  11.880 -0.1896 -0.2953  0.3898
 5995SOL     OW29443   3.482   3.700  10.414  0.5138  0.5268  0.6318
 5995SOL    HW129444   3.559   3.757  10.411 -0.0041  1.2090  0.3238
 5995SOL    HW229445   3.526   3.622  10.449 -0.8205 -0.8159 -0.6856
 5996SOL     OW29446   0.802   0.316   7.782 -0.2788  0.6341  0.2212
 5996SOL    HW129447   0.791   0.382   7.850 -1.3171  1.3651 -0.6431
 5996SOL    HW229448   0.731   0.347   7.724  0.2143  0.8585 -0.2653
 5997SOL     OW29449   2.081   0.608   7.490 -0.3535  0.3273  0.0784
 5997SOL    HW129450   2.119   0.647   7.411  1.3723 -1.3105  0.1036
 5997SOL    HW229451   2.135   0.667   7.543  0.1511  0.4520 -0.5775
 5998SOL     OW29452   2.266   4.185   7.620  0.2908 -0.3802 -0.2901
 5998SOL    HW129453   2.283   4.153   7.709 -0.5299  1.5750  0.5590
 5998SOL    HW229454   2.186   4.136   7.598  0.8231 -1.3659 -0.0505
 5999SOL     OW29455   4.186   1.469  15.990 -0.3027 -0.8154  0.1390
 5999SOL    HW129456   4.280   1.469  15.972 -0.7732 -2.9558 -2.2244
 5999SOL    HW229457   4.179   1.539  16.056 -0.7094 -0.0586 -0.7031
 6000SOL     OW29458   4.295   4.253  17.359 -0.9592  0.1032  0.1839
 6000SOL    HW129459   4.239   4.184  17.325 -1.0041  1.1794 -1.9738
 6000SOL    HW229460   4.224   4.314  17.377  0.7107  2.2647 -0.5040
 6001SOL     OW29461   4.688   1.185   6.971  0.0559  0.0614  0.3288
 6001SOL    HW129462   0.046   1.135   6.954 -1.4536 -2.7693  1.5525
 6001SOL    HW229463   4.672   1.214   6.882  0.1827 -1.0650 -0.0557
 6002SOL     OW29464   3.682   2.803   3.438  0.8533  0.3521  0.2391
 6002SOL    HW129465   3.768   2.784   3.401  0.5902  1.0111 -0.7334
 6002SOL    HW229466   3.627   2.752   3.379  0.0299  1.2465  0.2319
 6003SOL     OW29467   4.290   2.956   0.040  0.3335  0.1158  0.3072
 6003SOL    HW129468   4.253   2.920  17.648  0.3389 -0.4343  0.5556
 6003SOL    HW229469   4.323   2.880   0.088 -1.4474 -3.0179 -3.4376
 6004SOL     OW29470   0.636   1.343   7.212 -0.1569 -0.4971 -0.4968
 6004SOL    HW129471   0.600   1.430   7.224 -0.1666 -0.6018  0.2338
 6004SOL    HW229472   0.701   1.346   7.283 -0.8447 -0.7234  0.1350
 6005SOL     OW29473   4.204   1.794   3.554  0.7892  0.0998  0.4085
 6005SOL    HW129474   4.151   1.782   3.475  0.1821 -1.9044  1.1206
 6005SOL    HW229475   4.246   1.708   3.550 -1.5145 -1.0815  1.4129
 6006SOL     OW29476   1.836   0.863   2.283 -0.0043  0.0879 -0.8400
 6006SOL    HW129477   1.809   0.793   2.223 -0.0665 -2.0158  1.6463
 6006SOL    HW229478   1.864   0.812   2.359 -0.9257  2.3271  1.0084
 6007SOL     OW29479   1.745   3.912   6.555  0.0039  0.0073  0.0920
 6007SOL    HW129480   1.743   3.907   6.460  4.0024 -0.1662  0.0027
 6007SOL    HW229481   1.833   3.941   6.578 -0.2572  1.3557 -0.6664
 6008SOL     OW29482   0.353   1.213  11.362  0.2826 -0.6479  0.4546
 6008SOL    HW129483   0.410   1.136  11.355 -0.5133 -1.2623  0.8141
 6008SOL    HW229484   0.301   1.204  11.282 -0.9583 -1.9775  1.4042
 6009SOL     OW29485   3.894   4.553   6.145  0.2917  0.0893 -0.0015
 6009SOL    HW129486   3.883   4.533   6.238  3.1091 -1.3951  0.0335
 6009SOL    HW229487   3.976   4.507   6.128  0.4428 -0.1016  1.1923
 6010SOL     OW29488   3.076   4.023   8.392 -0.3346 -0.0275  0.3978
 6010SOL    HW129489   3.073   4.099   8.333 -0.4100  0.0121  0.4526
 6010SOL    HW229490   3.090   3.946   8.336  0.0229 -0.5200  1.1625
 6011SOL     OW29491   2.812   3.603  11.664 -0.3935  0.2005  0.4015
 6011SOL    HW129492   2.849   3.653  11.736 -1.9049  1.5171  0.2493
 6011SOL    HW229493   2.873   3.529  11.660  3.8481  3.6230  2.2223
 6012SOL     OW29494   2.031   4.442   8.158  0.1695  0.4544  0.4331
 6012SOL    HW129495   2.063   4.447   8.068 -0.6667 -2.9761 -0.0474
 6012SOL    HW229496   2.103   4.388   8.191 -0.8632 -1.4334 -0.3900
 6013SOL     OW29497   0.313   1.028  12.830  0.0193 -0.2418 -0.4231
 6013SOL    HW129498   0.264   1.019  12.911 -1.3836 -0.0367 -1.2469
 6013SOL    HW229499   0.376   0.956  12.826  0.8293  0.3584  1.8170
 6014SOL     OW29500   2.545   3.904  12.378 -0.2744  0.3351  0.4551
 6014SOL    HW129501   2.628   3.908  12.330  1.9803 -0.8388  4.2937
 6014SOL    HW229502   2.505   3.830  12.333  0.1248 -0.0171  0.6905
 6015SOL     OW29503   1.112   2.545   3.740 -0.2015 -0.0918 -0.6072
 6015SOL    HW129504   1.084   2.579   3.825 -1.5079  1.2468 -1.5710
 6015SOL    HW229505   1.133   2.453   3.757 -1.5728 -0.5186 -1.2267
 6016SOL     OW29506   3.040   2.976   7.356  0.2461 -0.3801  0.1620
 6016SOL    HW129507   3.077   2.890   7.338 -1.8039 -1.8636  2.8899
 6016SOL    HW229508   2.960   2.981   7.304 -0.1144 -0.4903  0.6985
 6017SOL     OW29509   3.158   2.911   6.519  0.6159 -0.5659  0.1907
 6017SOL    HW129510   3.172   2.856   6.442 -0.6305 -1.2305  0.4390
 6017SOL    HW229511   3.182   2.835   6.572  1.7597 -0.2457  0.1471
 6018SOL     OW29512   3.234   3.004   5.330 -0.9200  0.0055 -0.6260
 6018SOL    HW129513   3.214   3.085   5.283 -0.4898 -0.5748 -1.8085
 6018SOL    HW229514   3.292   3.036   5.399 -1.3712  1.9505 -1.1477
 6019SOL     OW29515   4.026   1.701   5.783 -0.3034 -0.0728 -0.3951
 6019SOL    HW129516   4.091   1.695   5.853  3.3049 -1.3458 -3.9245
 6019SOL    HW229517   4.006   1.795   5.778  0.6976  0.3465  3.2109
 6020SOL     OW29518   1.569   3.426   4.936  0.2436 -0.7604  0.4659
 6020SOL    HW129519   1.633   3.495   4.956 -0.2273 -0.2402  0.1793
 6020SOL    HW229520   1.486   3.472   4.949  1.2962  0.9643  1.0662
 6021SOL     OW29521   0.493   3.501  11.703 -0.2473 -0.1787 -0.2004
 6021SOL    HW129522   0.519   3.444  11.630  2.0365  1.1008 -0.3878
 6021SOL    HW229523   0.487   3.586  11.658 -3.1786  0.0545  0.6333
 6022SOL     OW29524   2.421   2.454   8.567  0.0438  0.0510  0.0246
 6022SOL    HW129525   2.460   2.438   8.653  1.0426 -2.1550 -0.8303
 6022SOL    HW229526   2.497   2.485   8.518  0.2292 -0.3864  0.0361
 6023SOL     OW29527   0.592   0.921   4.522 -0.5878 -0.5451  0.1296
 6023SOL    HW129528   0.628   0.886   4.440 -1.2595 -0.2212 -0.3075
 6023SOL    HW229529   0.513   0.868   4.523 -0.4538 -0.7277  1.1234
 6024SOL     OW29530   2.480   0.803  16.249  0.0795 -0.0096  0.5725
 6024SOL    HW129531   2.424   0.869  16.209 -0.2811 -0.5903  0.1272
 6024SOL    HW229532   2.545   0.786  16.181  0.9470  0.7155  1.2134
 6025SOL     OW29533   4.223   4.694  17.460 -0.3412  0.0132 -0.1736
 6025SOL    HW129534   4.194   0.062  17.477 -1.0334 -0.0908 -0.8384
 6025SOL    HW229535   4.210   4.688  17.365 -0.8706 -0.3388 -0.0783
 6026SOL     OW29536   0.722   1.972   1.007  0.2410  0.5000  0.4175
 6026SOL    HW129537   0.675   2.007   1.082 -1.6485  0.3799 -0.7068
 6026SOL    HW229538   0.673   1.889   1.004  1.0169  0.0099  1.6840
 6027SOL     OW29539   4.328   4.063   7.880 -0.1749 -0.4740  0.6371
 6027SOL    HW129540   4.382   4.130   7.839  0.5718 -1.4854 -0.0297
 6027SOL    HW229541   4.339   4.098   7.968 -0.5776 -2.4124  1.4674
 6028SOL     OW29542   4.303   0.486   9.542 -0.0208 -0.1902 -0.1118
 6028SOL    HW129543   4.344   0.401   9.556 -2.1451 -1.1703  0.2073
 6028SOL    HW229544   4.348   0.541   9.605  1.5513 -0.6922 -0.7994
 6029SOL     OW29545   0.485   1.128   2.249  0.4918 -0.0832  0.3640
 6029SOL    HW129546   0.570   1.146   2.209 -0.4404  1.5313 -0.9230
 6029SOL    HW229547   0.454   1.218   2.261  2.2154  0.5374  0.0970
 6030SOL     OW29548   3.435   0.958   4.058 -0.5196  0.6710 -0.2083
 6030SOL    HW129549   3.407   0.914   3.978 -0.9660  1.0327 -0.2467
 6030SOL    HW229550   3.500   1.017   4.019 -0.1521  0.8229  0.6352
 6031SOL     OW29551   1.736   0.060   6.905 -0.5318 -0.5936 -0.3627
 6031SOL    HW129552   1.766   4.697   6.872  0.0598 -0.9321  1.0614
 6031SOL    HW229553   1.651   0.069   6.861 -0.5925 -1.8692 -0.5068
 6032SOL     OW29554   2.819   4.635   7.676 -0.3195  0.4742 -0.4861
 6032SOL    HW129555   2.773   4.703   7.626 -0.0114  0.2436 -1.0811
 6032SOL    HW229556   2.791   4.552   7.636 -3.3756  1.6541 -0.8368
 6033SOL     OW29557   1.882   1.924   9.612  0.6959  0.1281  0.8753
 6033SOL    HW129558   1.933   1.843   9.618  1.4285  0.6398  1.6688
 6033SOL    HW229559   1.869   1.936   9.706  3.0715 -1.5059  1.4299
 6034SOL     OW29560   1.350   2.635  12.041  0.2427  0.2260  0.5384
 6034SOL    HW129561   1.272   2.661  12.090  0.3086  2.5044 -0.5723
 6034SOL    HW229562   1.339   2.543  12.016  2.9179  0.4572 -1.4879
 6035SOL     OW29563   4.034   4.312   3.528  0.1230  0.2353  0.4596
 6035SOL    HW129564   4.128   4.330   3.531  0.1966 -0.3939  1.7619
 6035SOL    HW229565   4.026   4.217   3.533  2.4353  0.0913  1.7799
 6036SOL     OW29566   2.866   4.000   5.295  0.6463 -0.1730  0.0065
 6036SOL    HW129567   2.829   3.911   5.296 -0.7899  0.4406  1.6460
 6036SOL    HW229568   2.875   4.022   5.387  1.2040 -0.4831  0.0242
 6037SOL     OW29569   4.637   0.786   2.370 -0.4792 -0.3452 -0.0827
 6037SOL    HW129570   4.548   0.765   2.342 -0.5886 -1.4611  1.1031
 6037SOL    HW229571   4.668   0.848   2.304 -3.0256  0.5188 -0.4507
 6038SOL     OW29572   2.417   0.127   8.052  0.2163 -0.0388  0.2403
 6038SOL    HW129573   2.342   0.070   8.036 -0.7473  1.1699  0.4683
 6038SOL    HW229574   2.493   0.069   8.051  0.2537  0.0070  0.6023
 6039SOL     OW29575   2.208   3.593   8.378 -0.5313  0.6200 -0.1197
 6039SOL    HW129576   2.247   3.509   8.404 -1.0620  0.4474  0.1043
 6039SOL    HW229577   2.282   3.652   8.362  1.0034 -1.6616 -1.4398
 6040SOL     OW29578   1.008   2.883  11.492  0.2076  0.0366  0.5076
 6040SOL    HW129579   0.986   2.975  11.475  1.1268  0.1137 -0.2264
 6040SOL    HW229580   0.960   2.832  11.427  1.1556 -2.6566  1.9399
 6041SOL     OW29581   4.511   2.420   1.530 -0.2471 -0.7271 -0.0246
 6041SOL    HW129582   4.569   2.370   1.473  1.2316 -0.4189  1.2111
 6041SOL    HW229583   4.570   2.495   1.537 -2.1669  0.8459 -0.6251
 6042SOL     OW29584   1.943   1.121   2.226  0.0413 -0.0197 -0.6681
 6042SOL    HW129585   2.013   1.067   2.188  1.5039  2.6003 -1.6823
 6042SOL    HW229586   1.894   1.042   2.249 -0.9098  1.2421  1.6160
 6043SOL     OW29587   1.353   1.599  10.726 -0.3166  0.3596  0.1595
 6043SOL    HW129588   1.257   1.592  10.719 -0.1203 -0.5874 -1.5926
 6043SOL    HW229589   1.374   1.688  10.700 -1.0618  0.1906 -1.0653
 6044SOL     OW29590   3.262   0.703   7.115  0.4578 -0.2078  0.0295
 6044SOL    HW129591   3.283   0.640   7.046 -3.0343  0.6755 -1.8276
 6044SOL    HW229592   3.334   0.693   7.177  1.2283  2.1173 -0.4852
 6045SOL     OW29593   1.354   0.280   1.991 -0.3812 -0.1873  0.1111
 6045SOL    HW129594   1.297   0.315   2.060 -0.9209  0.4532 -0.6511
 6045SOL    HW229595   1.292   0.237   1.932 -1.6565  0.3005  1.0830
 6046SOL     OW29596   0.175   1.512   2.201 -0.0997  0.2403 -0.3540
 6046SOL    HW129597   0.201   1.591   2.153  1.6856 -0.5496 -0.6537
 6046SOL    HW229598   0.163   1.450   2.129  0.0816 -0.2272  0.0236
 6047SOL     OW29599   4.116   2.741   3.104 -0.3213 -0.1124 -0.2339
 6047SOL    HW129600   4.188   2.773   3.050  0.2519 -0.3505  0.3973
 6047SOL    HW229601   4.088   2.662   3.056 -0.5619 -0.5648  0.6490
 6048SOL     OW29602   1.477   2.401  16.442  0.5385 -0.3095  0.2680
 6048SOL    HW129603   1.437   2.478  16.483 -1.5184 -1.0566 -0.3164
 6048SOL    HW229604   1.551   2.386  16.501  0.2547 -0.3329  0.6171
 6049SOL     OW29605   1.918   0.271  13.795 -0.6147 -0.1302  0.3614
 6049SOL    HW129606   1.949   0.287  13.884 -0.9533  0.9186  0.2893
 6049SOL    HW229607   1.823   0.278  13.806 -0.1965  1.2629  3.1702
 6050SOL     OW29608   4.475   1.483   2.924 -0.6667  0.6807 -0.0858
 6050SOL    HW129609   4.562   1.445   2.918 -0.5401  0.6648  1.8886
 6050SOL    HW229610   4.486   1.554   2.861  1.0154 -0.6341 -1.2765
 6051SOL     OW29611   3.885   4.017   4.865  0.2560 -0.1654  0.4090
 6051SOL    HW129612   3.852   4.107   4.862  2.3076  0.6362  1.8299
 6051SOL    HW229613   3.952   4.018   4.797 -0.1755  0.6409 -0.0065
 6052SOL     OW29614   3.211   1.890  14.519 -0.3126 -0.0726  0.0011
 6052SOL    HW129615   3.296   1.885  14.474  0.1158  0.6919  0.7277
 6052SOL    HW229616   3.161   1.922  14.444  0.7083  0.3214 -0.5201
 6053SOL     OW29617   0.135   2.330   7.988  0.4346  0.4700  0.0811
 6053SOL    HW129618   0.180   2.414   7.978  0.2340  0.7643  1.6894
 6053SOL    HW229619   0.168   2.286   8.066 -0.9923  1.1459  1.0669
 6054SOL     OW29620   3.270   1.998   6.551 -0.3123 -0.6783 -0.0087
 6054SOL    HW129621   3.321   2.065   6.505  1.5771 -1.0166  1.5810
 6054SOL    HW229622   3.269   2.024   6.643 -1.3219  0.3824 -0.3265
 6055SOL     OW29623   3.470   3.428   3.142 -0.4015 -0.2851 -0.2506
 6055SOL    HW129624   3.440   3.339   3.159  1.8813 -0.7722  1.1839
 6055SOL    HW229625   3.429   3.446   3.057  0.6281  1.0510 -0.4639
 6056SOL     OW29626   0.851   2.585   2.592 -0.2694 -0.2006  0.1655
 6056SOL    HW129627   0.783   2.588   2.525 -1.2597 -2.2522  1.0474
 6056SOL    HW229628   0.794   2.605   2.666  1.7702  2.2279  1.0658
 6057SOL     OW29629   1.841   3.034  11.116  0.4517 -0.5564  0.0378
 6057SOL    HW129630   1.861   3.009  11.206  1.2650 -0.3443 -0.0796
 6057SOL    HW229631   1.811   3.124  11.129  1.0081 -0.4295  0.4538
 6058SOL     OW29632   1.497   4.239   5.355 -0.0036 -0.5896 -0.0736
 6058SOL    HW129633   1.464   4.204   5.437  1.3559 -0.1140  0.6862
 6058SOL    HW229634   1.508   4.333   5.370 -0.7888 -0.5439  0.2044
 6059SOL     OW29635   2.270   0.605  17.177  0.7948  0.1393 -0.1006
 6059SOL    HW129636   2.358   0.568  17.174  0.5918 -0.0880 -2.8611
 6059SOL    HW229637   2.292   0.696  17.196  0.6297  0.7837 -3.0986
 6060SOL     OW29638   3.982   3.702   3.829  0.5159 -0.3393 -0.4670
 6060SOL    HW129639   3.896   3.735   3.859  0.1586 -1.3211 -0.4018
 6060SOL    HW229640   3.960   3.618   3.788 -0.6023  0.2947 -1.1576
 6061SOL     OW29641   2.683   2.414   4.703 -0.1999  0.0552 -0.2618
 6061SOL    HW129642   2.737   2.338   4.725 -0.9854 -0.0264  1.3884
 6061SOL    HW229643   2.743   2.459   4.643 -1.0277  0.1257 -1.0237
 6062SOL     OW29644   0.306   2.182   4.117  0.3707  0.0443  0.4677
 6062SOL    HW129645   0.220   2.169   4.157 -0.1109  0.8445 -0.2831
 6062SOL    HW229646   0.333   2.094   4.091  1.1818  0.5345 -0.3597
 6063SOL     OW29647   1.170   1.283   3.033  0.1955 -0.1195 -0.5506
 6063SOL    HW129648   1.222   1.256   3.108 -0.6438 -0.8974 -0.2531
 6063SOL    HW229649   1.184   1.377   3.043  0.0614 -0.5179  3.2762
 6064SOL     OW29650   2.224   4.514   0.082 -0.1879 -0.3809  0.0836
 6064SOL    HW129651   2.175   4.475   0.010  0.0393 -2.4626  1.0476
 6064SOL    HW229652   2.152   4.549   0.135 -0.8749 -1.9066  0.1592
 6065SOL     OW29653   0.926   0.680   4.217 -0.0386  0.4125 -0.1427
 6065SOL    HW129654   0.958   0.749   4.159  0.8942  0.0091 -0.1046
 6065SOL    HW229655   1.000   0.668   4.276  1.5183  3.2628 -1.5147
 6066SOL     OW29656   1.070   2.656   5.187 -0.5490 -0.1322 -0.5879
 6066SOL    HW129657   1.155   2.697   5.169 -1.0348  0.5249 -1.3890
 6066SOL    HW229658   1.017   2.729   5.217 -2.9153 -1.4101 -1.6781
 6067SOL     OW29659   3.872   1.899  14.380 -0.0191  0.1535  0.0694
 6067SOL    HW129660   3.865   1.971  14.317 -0.2385  0.0400 -0.0356
 6067SOL    HW229661   3.890   1.836  14.310 -0.3865  2.4215 -2.1187
 6068SOL     OW29662   3.754   3.386   8.860 -0.1444  0.1476  0.6883
 6068SOL    HW129663   3.749   3.388   8.956 -0.6819  0.8269  0.6451
 6068SOL    HW229664   3.730   3.475   8.835  0.9769  0.2271 -0.0885
 6069SOL     OW29665   0.409   2.516   4.557  0.3142  0.2247  0.3430
 6069SOL    HW129666   0.402   2.447   4.492 -5.1157 -0.2226  1.4215
 6069SOL    HW229667   0.320   2.552   4.559  1.0333  2.1382 -2.6882
 6070SOL     OW29668   0.220   2.973   6.623 -0.0455  0.0846  0.5555
 6070SOL    HW129669   0.144   2.927   6.587 -1.4899  1.4574  1.7938
 6070SOL    HW229670   0.263   3.023   6.555 -0.3859  1.2738  1.2055
 6071SOL     OW29671   2.949   2.550   5.500  0.0579 -0.1912  0.1537
 6071SOL    HW129672   2.931   2.600   5.421 -1.0346 -2.2272 -0.8935
 6071SOL    HW229673   3.035   2.586   5.522  0.0222 -1.5121  2.4598
 6072SOL     OW29674   2.130   4.264   7.126  0.2239  0.5039  0.9641
 6072SOL    HW129675   2.194   4.268   7.054 -1.6523 -2.5462 -0.8695
 6072SOL    HW229676   2.101   4.356   7.129 -0.8471  0.2889 -2.0422
 6073SOL     OW29677   2.266   4.159   3.357 -0.3415  0.6368 -0.0929
 6073SOL    HW129678   2.208   4.180   3.284  3.2666  0.4523 -3.0313
 6073SOL    HW229679   2.347   4.202   3.330  0.1705 -0.5742 -0.5065
 6074SOL     OW29680   1.541   3.388   8.485  0.6503  0.0422 -0.2967
 6074SOL    HW129681   1.608   3.350   8.428  0.0786 -1.9741  0.3930
 6074SOL    HW229682   1.592   3.453   8.533 -1.6001  0.4798  1.5462
 6075SOL     OW29683   2.590   3.325   3.493 -0.0883 -0.1567  0.0236
 6075SOL    HW129684   2.629   3.409   3.470  0.6501 -0.8995 -1.4247
 6075SOL    HW229685   2.668   3.276   3.522  0.7133  0.6476 -0.7795
 6076SOL     OW29686   0.915   4.367  11.061  0.2541 -0.7885  0.4776
 6076SOL    HW129687   0.839   4.425  11.049 -0.3829 -1.8220 -0.5069
 6076SOL    HW229688   0.917   4.327  10.974  2.4464 -0.1370  0.2324
 6077SOL     OW29689   3.764   4.190  13.441  0.2067 -0.1267 -0.0373
 6077SOL    HW129690   3.783   4.263  13.381  0.2470 -0.9027 -0.9778
 6077SOL    HW229691   3.734   4.245  13.513 -2.5695 -1.1474 -0.4234
 6078SOL     OW29692   1.295   1.310   1.336 -0.2082  0.4186  0.0101
 6078SOL    HW129693   1.330   1.317   1.425 -1.2566  1.7020  0.3282
 6078SOL    HW229694   1.291   1.216   1.321 -0.1467  0.5144 -0.6003
 6079SOL     OW29695   4.581   3.122  15.832  0.0780 -0.5244  0.2741
 6079SOL    HW129696   4.668   3.132  15.794  0.3563 -0.1478  1.0042
 6079SOL    HW229697   4.584   3.196  15.894  1.9680 -2.2865  2.2816
 6080SOL     OW29698   2.979   0.683   0.845  0.3669  0.1183 -0.0594
 6080SOL    HW129699   3.073   0.691   0.861 -0.0371 -1.1458  2.9855
 6080SOL    HW229700   2.948   0.639   0.924 -2.3115  0.9207 -0.6834
 6081SOL     OW29701   0.606   2.268   4.240 -0.6363 -0.5512 -0.0861
 6081SOL    HW129702   0.528   2.284   4.293  1.1361 -0.9657  2.6803
 6081SOL    HW229703   0.575   2.211   4.169 -1.1433 -0.8239  0.3563
 6082SOL     OW29704   1.848   3.835   5.857  0.1327  0.5199  0.0435
 6082SOL    HW129705   1.830   3.774   5.929 -0.1646  0.4041 -0.1347
 6082SOL    HW229706   1.766   3.883   5.860  0.0362  0.4726 -2.1140
 6083SOL     OW29707   2.088   2.056   3.444 -0.3568  0.2086 -0.0543
 6083SOL    HW129708   2.040   2.029   3.365 -0.5143  0.6876 -0.1214
 6083SOL    HW229709   2.048   1.998   3.510 -1.1159  0.5951 -0.1706
 6084SOL     OW29710   2.591   3.612   3.232 -0.1113 -0.4113  0.0884
 6084SOL    HW129711   2.499   3.586   3.242  0.3336 -2.1383 -0.2858
 6084SOL    HW229712   2.605   3.632   3.325 -1.3301  1.1640 -0.0684
 6085SOL     OW29713   0.059   2.925  12.600 -0.1293 -0.0795  0.1130
 6085SOL    HW129714   0.100   2.842  12.575 -0.1710 -0.1533  0.2920
 6085SOL    HW229715   0.016   2.898  12.681 -1.2618  0.6339 -0.2439
 6086SOL     OW29716   0.042   3.479  13.540 -0.2730 -0.2100  0.0717
 6086SOL    HW129717   0.075   3.405  13.489 -1.5120 -0.4598 -0.3736
 6086SOL    HW229718   0.101   3.487  13.615 -0.8835  1.0310  0.4202
 6087SOL     OW29719   3.795   2.318   0.210  0.0988 -0.3004  0.0397
 6087SOL    HW129720   3.852   2.320   0.133 -0.4116 -1.2163 -0.3613
 6087SOL    HW229721   3.742   2.244   0.178 -0.3610 -0.0927  0.3250
 6088SOL     OW29722   2.621   3.716  14.662 -0.4515 -0.0054 -0.4236
 6088SOL    HW129723   2.541   3.729  14.713  1.1664  1.4341  1.7511
 6088SOL    HW229724   2.680   3.734  14.736 -0.9774 -0.0760  0.0118
 6089SOL     OW29725   3.707   0.976   5.908 -0.1454  0.0687 -0.1507
 6089SOL    HW129726   3.614   0.997   5.919  0.4368  1.9280  1.2621
 6089SOL    HW229727   3.744   1.064   5.906  0.1002  0.0073  1.5282
 6090SOL     OW29728   2.942   3.125   6.162  0.1615  0.1840 -0.4116
 6090SOL    HW129729   2.852   3.157   6.154  0.1381 -0.1483 -1.4989
 6090SOL    HW229730   2.962   3.076   6.083 -1.0177  0.8846 -1.1552
 6091SOL     OW29731   3.635   0.837   8.230 -0.6092  0.3353 -0.6634
 6091SOL    HW129732   3.722   0.797   8.221 -0.9266 -0.2684 -1.0148
 6091SOL    HW229733   3.617   0.841   8.324 -0.0291  1.2902 -0.5922
 6092SOL     OW29734   3.151   4.285  17.131 -0.3397  0.0912 -0.1280
 6092SOL    HW129735   3.190   4.291  17.218 -0.0238  0.3693 -0.2895
 6092SOL    HW229736   3.113   4.371  17.110 -0.4015  0.4735  1.5178
 6093SOL     OW29737   0.091   2.939   7.627  0.9345 -0.3448  0.4377
 6093SOL    HW129738   0.043   2.951   7.709  0.7211  3.4456 -0.2582
 6093SOL    HW229739   0.064   2.849   7.607 -0.4876  0.4823 -1.2977
 6094SOL     OW29740   3.058   2.551   6.619  0.3332  0.2402  0.6115
 6094SOL    HW129741   3.143   2.593   6.624  0.1542  0.9872 -2.8226
 6094SOL    HW229742   3.014   2.600   6.688  0.6092  0.5860  0.5426
 6095SOL     OW29743   0.305   2.369   3.574 -0.3269 -0.5424 -0.1459
 6095SOL    HW129744   0.359   2.397   3.500  0.1015 -2.3109 -0.4872
 6095SOL    HW229745   0.216   2.362   3.539 -0.0021  1.5854 -1.4057
 6096SOL     OW29746   3.058   1.566   7.047  0.1363  0.1625  0.2180
 6096SOL    HW129747   3.079   1.543   6.956 -0.9480 -1.5321  0.3980
 6096SOL    HW229748   3.078   1.493   7.105  0.0168  0.9464  1.2484
 6097SOL     OW29749   3.631   3.002   3.179 -0.1476  0.4983  0.3540
 6097SOL    HW129750   3.709   3.002   3.233 -0.6433 -1.4999  1.0619
 6097SOL    HW229751   3.596   3.091   3.188 -1.8119 -0.0490 -0.6441
 6098SOL     OW29752   0.104   3.120   2.887 -0.1344  0.1562 -0.1498
 6098SOL    HW129753   0.117   3.094   2.796 -0.0606 -0.0878 -0.0671
 6098SOL    HW229754   0.024   3.075   2.915  0.8320 -0.7896  1.0644
 6099SOL     OW29755   3.523   0.863   3.229 -0.0377  0.2565 -0.4704
 6099SOL    HW129756   3.439   0.851   3.185  0.3518 -0.7294 -0.9514
 6099SOL    HW229757   3.500   0.833   3.317  0.9401 -0.3423 -0.4210
 6100SOL     OW29758   2.770   2.877  10.897  0.3089 -0.4445 -0.3356
 6100SOL    HW129759   2.818   2.938  10.840 -0.7100  2.2616  1.6863
 6100SOL    HW229760   2.688   2.869  10.848 -1.4313 -2.5709  2.9477
 6101SOL     OW29761   0.395   2.294   2.621 -0.8809 -0.4602  0.0592
 6101SOL    HW129762   0.355   2.207   2.614 -0.6764 -0.2937 -3.2221
 6101SOL    HW229763   0.324   2.341   2.579  1.7039  1.9231 -1.6192
 6102SOL     OW29764   3.456   2.757   5.508 -0.7839  0.0949 -0.5129
 6102SOL    HW129765   3.471   2.669   5.543 -2.5825  0.4691  1.1936
 6102SOL    HW229766   3.473   2.739   5.415  1.1266  1.7682 -0.4727
 6103SOL     OW29767   2.630   3.191  11.080 -0.6806  0.4889  0.6508
 6103SOL    HW129768   2.688   3.216  11.153  1.7108 -0.1285 -1.0160
 6103SOL    HW229769   2.696   3.186  11.011  0.9745  1.1020  2.1798
 6104SOL     OW29770   1.488   4.460   4.969 -0.1242  0.3694  0.1776
 6104SOL    HW129771   1.549   4.521   4.928 -0.4817 -0.4881 -1.6798
 6104SOL    HW229772   1.536   4.377   4.979  0.5242  0.7307  0.0288
 6105SOL     OW29773   0.041   0.940   8.471 -0.0726 -0.2129 -0.7904
 6105SOL    HW129774   0.078   1.027   8.457 -2.6261  1.3558  2.2978
 6105SOL    HW229775   4.672   0.965   8.488  0.4830  1.3062 -0.0470
 6106SOL     OW29776   1.345   1.778   4.624 -0.5222 -0.5631 -0.0554
 6106SOL    HW129777   1.351   1.833   4.546 -0.9881  2.5907  2.1540
 6106SOL    HW229778   1.263   1.729   4.617 -1.8205  1.5108  0.8772
 6107SOL     OW29779   4.275   4.232  13.623 -0.1443 -0.2100  0.2485
 6107SOL    HW129780   4.348   4.268  13.572  0.7610  1.4504  2.7022
 6107SOL    HW229781   4.211   4.218  13.553  0.6717  1.5576 -0.8711
 6108SOL     OW29782   3.357   2.708  10.274 -0.1794 -0.1737 -0.1345
 6108SOL    HW129783   3.388   2.772  10.338  0.5954 -0.0381 -0.6346
 6108SOL    HW229784   3.415   2.632  10.285  0.3852  0.5937  2.1653
 6109SOL     OW29785   1.012   4.269   4.060 -0.7084  0.0521 -0.4767
 6109SOL    HW129786   1.019   4.217   4.140 -0.3636 -1.7387 -1.6815
 6109SOL    HW229787   1.105   4.282   4.043 -0.8363  1.5318 -0.1169
 6110SOL     OW29788   4.209   4.393   5.327 -0.2605 -0.5001  0.4421
 6110SOL    HW129789   4.273   4.419   5.394 -0.2577  0.2246  0.1670
 6110SOL    HW229790   4.138   4.390   5.391  0.5573 -2.4164  1.2591
 6111SOL     OW29791   3.459   1.373   7.637  0.1221 -0.2380 -0.3322
 6111SOL    HW129792   3.532   1.428   7.609 -0.3559  0.7393  0.3445
 6111SOL    HW229793   3.499   1.317   7.703 -0.5264  0.0483  0.2998
 6112SOL     OW29794   0.101   0.728  12.607  0.1989  0.3623 -0.5869
 6112SOL    HW129795   0.096   0.675  12.687  1.0054  0.1038 -0.7065
 6112SOL    HW229796   0.141   0.659  12.553  2.1643 -0.7271  2.2681
 6113SOL     OW29797   0.084   4.401   3.290 -0.8786  0.1389 -0.1945
 6113SOL    HW129798   0.172   4.366   3.307 -0.9395  0.5245  0.9414
 6113SOL    HW229799   0.058   4.437   3.375 -0.7404  1.6139 -0.7749
 6114SOL     OW29800   1.770   4.414  11.618 -0.4452  0.4693 -0.2720
 6114SOL    HW129801   1.745   4.414  11.525 -0.1364 -2.1161 -0.3798
 6114SOL    HW229802   1.732   4.495  11.649 -1.0891 -0.4688  1.4056
 6115SOL     OW29803   1.735   0.315   2.476  0.1087 -0.0530  0.1376
 6115SOL    HW129804   1.737   0.273   2.390  3.1342 -0.3481  0.3395
 6115SOL    HW229805   1.673   0.255   2.518  2.9373 -1.5278  2.2308
 6116SOL     OW29806   4.507   0.754   8.277  0.1190 -0.1527  0.2186
 6116SOL    HW129807   4.498   0.821   8.344  1.4005  0.1419  0.1038
 6116SOL    HW229808   4.597   0.725   8.288 -0.8611 -2.3913  2.1141
 6117SOL     OW29809   0.893   0.571   5.347 -0.1935 -0.2874 -0.3021
 6117SOL    HW129810   0.898   0.562   5.442 -0.4740 -1.0891 -0.3649
 6117SOL    HW229811   0.882   0.480   5.319  2.2652 -0.1271 -1.7876
 6118SOL     OW29812   1.340   0.285   2.909 -0.3790 -0.8832 -0.0748
 6118SOL    HW129813   1.369   0.313   2.996 -0.8513  1.6608 -0.7619
 6118SOL    HW229814   1.348   0.366   2.859 -1.5670 -2.0632 -2.1846
 6119SOL     OW29815   3.967   1.768   5.422  0.4064  0.3774  0.1868
 6119SOL    HW129816   4.021   1.765   5.343  0.2277 -0.3037  0.0893
 6119SOL    HW229817   3.973   1.677   5.452  0.9654  0.6028  0.7595
 6120SOL     OW29818   2.684   3.921   5.767  0.1295  0.0492 -0.3032
 6120SOL    HW129819   2.721   3.844   5.723  0.3955  0.2947 -0.5129
 6120SOL    HW229820   2.590   3.902   5.766  0.4218 -1.2690 -1.6770
 6121SOL     OW29821   0.118   1.230   2.108 -0.2701  0.2313 -0.0339
 6121SOL    HW129822   0.157   1.148   2.138 -0.5957 -0.5592 -1.7900
 6121SOL    HW229823   0.132   1.217   2.015  0.0181  1.4811 -0.1541
 6122SOL     OW29824   1.224   0.911   0.362  0.2453  0.4565  0.3877
 6122SOL    HW129825   1.187   0.981   0.308 -1.0924 -0.6835 -0.1865
 6122SOL    HW229826   1.173   0.836   0.330 -1.4637  1.4938  0.6738
 6123SOL     OW29827   0.766   2.932   4.789  0.1017  0.5817 -0.0081
 6123SOL    HW129828   0.815   2.909   4.710 -0.4525 -1.2522  0.1618
 6123SOL    HW229829   0.829   2.997   4.819  0.7964  0.2040 -0.6338
 6124SOL     OW29830   1.823   2.977   5.825 -0.3677  0.5141  0.8212
 6124SOL    HW129831   1.909   2.969   5.866  0.4269  0.8727 -0.7669
 6124SOL    HW229832   1.835   2.899   5.771  0.2173  0.8740  0.4135
 6125SOL     OW29833   1.564   3.153   2.780  0.1148 -0.5056 -0.2580
 6125SOL    HW129834   1.603   3.103   2.852 -0.2118 -0.3311  0.0406
 6125SOL    HW229835   1.569   3.243   2.813  0.8723 -0.2834 -0.9782
 6126SOL     OW29836   0.339   0.550   6.787 -0.1287  0.1360  0.2295
 6126SOL    HW129837   0.417   0.495   6.779  0.1686  0.4776  0.7339
 6126SOL    HW229838   0.375   0.617   6.845 -0.5478  0.6966 -0.1657
 6127SOL     OW29839   2.868   4.377   6.901 -0.4810 -0.5123 -0.2141
 6127SOL    HW129840   2.952   4.343   6.870 -0.2382  0.5334 -0.6815
 6127SOL    HW229841   2.891   4.453   6.954 -1.9425 -0.3734  0.2279
 6128SOL     OW29842   4.201   3.273   3.728 -0.3000 -0.2383 -0.1833
 6128SOL    HW129843   4.207   3.352   3.674  3.5504 -0.7601 -0.4914
 6128SOL    HW229844   4.267   3.295   3.794  0.7593  2.8050 -2.2897
 6129SOL     OW29845   2.937   2.667  12.218 -0.2398 -0.4586  0.5974
 6129SOL    HW129846   2.952   2.662  12.123  0.5195 -1.5401  0.7728
 6129SOL    HW229847   3.018   2.637  12.259 -1.1846 -0.3161  2.5559
 6130SOL     OW29848   2.317   2.497   8.308  0.9245  0.0266 -0.1412
 6130SOL    HW129849   2.352   2.465   8.392  3.4443  1.6018 -0.5931
 6130SOL    HW229850   2.393   2.549   8.281 -1.4642  3.1493 -0.9105
 6131SOL     OW29851   3.832   0.888   6.733  0.0383  0.2405  0.0932
 6131SOL    HW129852   3.744   0.875   6.698  2.0122 -2.3859 -3.8245
 6131SOL    HW229853   3.895   0.869   6.664 -0.3167 -2.0799  0.4082
 6132SOL     OW29854   4.411   0.822   4.721  0.1749  0.1014 -0.2656
 6132SOL    HW129855   4.471   0.819   4.647 -0.6323  1.2270 -0.9554
 6132SOL    HW229856   4.466   0.775   4.785 -1.1979  0.7257  1.3768
 6133SOL     OW29857   4.301   4.379   3.500 -0.0825  0.4900 -0.0895
 6133SOL    HW129858   4.340   4.345   3.581 -0.4312 -3.1467 -1.4350
 6133SOL    HW229859   4.376   4.369   3.441 -0.6768  0.9636 -0.9309
 6134SOL     OW29860   4.034   4.499   7.508  0.0906 -0.1093  0.1164
 6134SOL    HW129861   4.016   4.535   7.421  3.0802 -2.4176 -1.4585
 6134SOL    HW229862   3.948   4.511   7.549  0.4836  0.6162  0.7228
 6135SOL     OW29863   0.504   4.232  14.274 -0.1111  0.1866 -0.8397
 6135SOL    HW129864   0.540   4.145  14.259  1.3141  0.7497 -0.6504
 6135SOL    HW229865   0.446   4.242  14.198 -0.6532 -0.4525 -0.5098
 6136SOL     OW29866   1.704   0.005   5.151 -0.3788  0.1759 -0.0188
 6136SOL    HW129867   1.791   0.039   5.172  0.0848  1.0155 -3.2553
 6136SOL    HW229868   1.660   0.090   5.159 -1.6352 -0.2463 -2.4719
 6137SOL     OW29869   3.556   1.155   4.723 -0.8354  0.2292 -0.8192
 6137SOL    HW129870   3.588   1.244   4.740  1.6314 -0.9002  0.4777
 6137SOL    HW229871   3.631   1.099   4.701  0.3115  2.2004 -1.9594
 6138SOL     OW29872   4.286   2.466   1.686  0.1167  0.0897  0.0521
 6138SOL    HW129873   4.370   2.435   1.651  0.6603  1.5294  0.1041
 6138SOL    HW229874   4.236   2.405   1.632 -0.5870  1.0618 -0.3834
 6139SOL     OW29875   3.474   2.575   8.204 -0.2675 -0.2253 -0.0091
 6139SOL    HW129876   3.520   2.504   8.250  0.9485 -0.2240 -1.2535
 6139SOL    HW229877   3.381   2.563   8.226 -0.1881 -0.9693 -0.0656
 6140SOL     OW29878   0.116   4.103   3.358  0.0980  0.3927 -0.7402
 6140SOL    HW129879   0.046   4.155   3.396 -1.6867 -1.8120 -0.9868
 6140SOL    HW229880   0.182   4.124   3.424 -0.5815  1.8477 -0.5228
 6141SOL     OW29881   0.362   2.992  14.153  0.5518  0.0075  0.1348
 6141SOL    HW129882   0.352   3.086  14.165 -1.4855 -0.0505 -1.1186
 6141SOL    HW229883   0.331   2.956  14.237 -0.4025  2.0850  0.6662
 6142SOL     OW29884   2.538   4.623   1.917 -0.3770  0.0826  0.6456
 6142SOL    HW129885   2.579   4.706   1.895  0.1316 -0.3759 -0.1637
 6142SOL    HW229886   2.468   4.645   1.978 -1.7337  0.2234 -0.9671
 6143SOL     OW29887   0.188   2.692   9.584 -0.3021 -0.2592  0.1983
 6143SOL    HW129888   0.188   2.596   9.585  0.5697 -0.2934 -3.1672
 6143SOL    HW229889   0.139   2.711   9.504  0.0941  0.7707  0.2039
 6144SOL     OW29890   1.895   4.585   6.831  0.3009 -0.5402  0.0250
 6144SOL    HW129891   1.963   4.636   6.875  0.8563 -3.5720  2.6398
 6144SOL    HW229892   1.858   4.537   6.905 -0.5583  0.0250 -0.0422
 6145SOL     OW29893   0.891   0.342  12.024 -0.6072 -0.1591  0.0437
 6145SOL    HW129894   0.849   0.418  12.064  0.8751  1.2394 -1.0365
 6145SOL    HW229895   0.985   0.357  12.036 -0.6572 -0.5128  0.8686
 6146SOL     OW29896   2.551   0.383   4.558 -0.6772 -0.3250  0.0878
 6146SOL    HW129897   2.541   0.366   4.652  0.3121  0.3285  0.3080
 6146SOL    HW229898   2.464   0.417   4.538 -0.3136  0.7123  0.2498
 6147SOL     OW29899   3.363   2.316   3.361  0.0513 -0.6575 -0.0643
 6147SOL    HW129900   3.437   2.255   3.362 -0.3237 -1.0413  2.2541
 6147SOL    HW229901   3.332   2.303   3.271  0.6628  1.8381 -0.6214
 6148SOL     OW29902   1.396   1.605  12.176 -0.3452 -0.1532  0.2676
 6148SOL    HW129903   1.343   1.666  12.126 -1.1827 -1.0035  0.1250
 6148SOL    HW229904   1.365   1.605  12.267 -0.1993  1.3271  0.3190
 6149SOL     OW29905   1.954   0.071   6.109 -0.3659 -0.3790  0.0770
 6149SOL    HW129906   1.997   0.151   6.080  1.2448 -1.1285  0.4155
 6149SOL    HW229907   2.026   0.008   6.111  0.6153  0.7509  0.5834
 6150SOL     OW29908   3.616   3.533   9.288 -0.9854  0.3350  0.3334
 6150SOL    HW129909   3.637   3.456   9.234  3.6168  0.8889  1.3072
 6150SOL    HW229910   3.548   3.569   9.231  0.1285 -0.0172 -1.2252
 6151SOL     OW29911   1.008   4.013   2.791  0.5825 -0.1367 -0.0526
 6151SOL    HW129912   0.934   4.071   2.808  1.2890  0.7420  0.0140
 6151SOL    HW229913   0.976   3.959   2.719 -0.0446  0.6701 -0.3851
 6152SOL     OW29914   0.081   3.385   5.783 -0.5077  0.7648 -0.2047
 6152SOL    HW129915   0.039   3.368   5.698  1.6745  1.8043 -1.5062
 6152SOL    HW229916   0.170   3.401   5.752  0.0022 -0.1219  0.8133
 6153SOL     OW29917   2.797   0.403   6.736  0.1153  0.6699 -0.6753
 6153SOL    HW129918   2.790   0.309   6.720 -1.5207 -0.0181  4.0341
 6153SOL    HW229919   2.727   0.429   6.676  0.3054 -0.9449 -1.5811
 6154SOL     OW29920   2.502   3.954   3.293  0.2391  0.3908  0.4536
 6154SOL    HW129921   2.446   3.899   3.348  2.7290 -2.4330  0.1748
 6154SOL    HW229922   2.432   3.957   3.228  0.3091 -0.4097  0.3324
 6155SOL     OW29923   1.224   3.340   8.760  0.3694 -0.4600  0.3942
 6155SOL    HW129924   1.187   3.422   8.726 -1.1984 -1.8115 -1.1626
 6155SOL    HW229925   1.293   3.324   8.695  1.9193  2.2456  1.3670
 6156SOL     OW29926   1.065   1.219   3.619  0.0899  0.0258  0.1234
 6156SOL    HW129927   1.069   1.301   3.667  0.5613  0.1397 -0.1001
 6156SOL    HW229928   0.971   1.203   3.616  0.3695 -1.9155  1.9188
 6157SOL     OW29929   3.180   3.244  11.276  0.4780 -0.6262  0.6110
 6157SOL    HW129930   3.156   3.234  11.369  0.0984  3.3823  0.9167
 6157SOL    HW229931   3.264   3.199  11.270  1.3792  1.2747 -0.8774
 6158SOL     OW29932   3.130   3.385   0.137  0.2569 -0.0108  0.5928
 6158SOL    HW129933   3.129   3.319   0.207  2.6544 -2.1443 -1.4104
 6158SOL    HW229934   3.204   3.362   0.081 -0.6226 -0.0558 -0.5385
 6159SOL     OW29935   0.285   0.644   2.433 -0.1564 -0.0798  0.0825
 6159SOL    HW129936   0.284   0.624   2.339 -0.5140 -2.9919  0.7037
 6159SOL    HW229937   0.224   0.579   2.466 -1.1994  0.9680  0.1854
 6160SOL     OW29938   3.123   4.213   7.476  0.5158  0.6467 -0.0308
 6160SOL    HW129939   3.053   4.260   7.430 -0.8230 -0.7491  0.6009
 6160SOL    HW229940   3.174   4.202   7.396  0.7431 -3.1838  0.6520
 6161SOL     OW29941   3.925   4.170   8.795  0.7537 -0.3093  0.0283
 6161SOL    HW129942   4.019   4.161   8.779  1.1581 -0.6860  2.4783
 6161SOL    HW229943   3.926   4.113   8.873  1.2858 -1.3977 -0.7738
 6162SOL     OW29944   3.217   0.491   8.713  0.0586 -0.4286  0.2556
 6162SOL    HW129945   3.192   0.574   8.754 -1.5768 -1.0207  0.4389
 6162SOL    HW229946   3.289   0.456   8.765  0.7254  0.9202  0.2381
 6163SOL     OW29947   2.682   1.985   7.296  0.3529 -0.4124 -0.5294
 6163SOL    HW129948   2.650   1.942   7.375  2.1088  1.3382  1.1333
 6163SOL    HW229949   2.644   1.925   7.232  0.3743 -0.5291 -0.4336
 6164SOL     OW29950   3.569   3.600  16.984  0.3995 -0.3120  0.0871
 6164SOL    HW129951   3.494   3.544  16.964 -0.2704  0.7509 -0.4263
 6164SOL    HW229952   3.585   3.579  17.076 -1.1926 -1.2496  0.1437
 6165SOL     OW29953   3.698   2.019  13.086 -0.0160 -0.7650 -0.2422
 6165SOL    HW129954   3.687   2.036  13.180 -2.5920 -4.7189  0.2164
 6165SOL    HW229955   3.609   1.999  13.059 -0.1612 -0.0159 -0.2926
 6166SOL     OW29956   0.772   4.128  10.994  0.1245 -0.2717  0.7374
 6166SOL    HW129957   0.835   4.096  10.929  0.4874 -2.4132  2.1427
 6166SOL    HW229958   0.736   4.211  10.963 -1.9089 -1.5751 -0.3416
 6167SOL     OW29959   1.736   3.989   3.751  0.1553 -0.1982  0.1293
 6167SOL    HW129960   1.824   3.989   3.790  1.0272 -0.9299 -1.8731
 6167SOL    HW229961   1.676   3.929   3.795 -0.2889  0.3494  0.2838
 6168SOL     OW29962   2.386   1.726   6.576  0.0467 -0.3798  0.1885
 6168SOL    HW129963   2.351   1.810   6.545  0.9745 -0.3590 -0.7773
 6168SOL    HW229964   2.363   1.671   6.501  1.8863 -1.0068  0.0832
 6169SOL     OW29965   1.703   1.827  12.361 -0.4852 -0.0905 -0.1135
 6169SOL    HW129966   1.694   1.732  12.373 -0.3148  0.0696  1.2549
 6169SOL    HW229967   1.655   1.870  12.432 -1.0883  2.2988 -1.9915
 6170SOL     OW29968   2.776   4.114   5.925  0.6705  0.1128 -0.2013
 6170SOL    HW129969   2.747   4.056   5.854  0.9726 -0.2967  0.0129
 6170SOL    HW229970   2.730   4.195   5.906  0.0032 -0.3618 -0.5982
 6171SOL     OW29971   1.432   1.888   6.656 -0.4034  0.2001  0.4337
 6171SOL    HW129972   1.414   1.918   6.567 -1.4818 -1.6295  0.0415
 6171SOL    HW229973   1.434   1.974   6.697  2.5290  1.2358 -1.8535
 6172SOL     OW29974   3.931   0.389   2.977  0.1458 -0.2287 -0.4862
 6172SOL    HW129975   3.838   0.391   2.958 -0.1817  1.8666  1.2573
 6172SOL    HW229976   3.964   0.474   2.948  1.2377 -1.7885 -3.8031
 6173SOL     OW29977   2.909   0.802   3.074  0.0310  0.0484 -0.6404
 6173SOL    HW129978   2.942   0.796   3.163 -0.4261 -0.7407 -0.5275
 6173SOL    HW229979   2.888   0.893   3.056 -0.7981  0.4043  2.2158
 6174SOL     OW29980   2.440   1.115   4.650 -0.0433 -0.4779 -0.1616
 6174SOL    HW129981   2.416   1.054   4.719  1.1870  0.2325  0.9018
 6174SOL    HW229982   2.366   1.099   4.591 -1.6679 -0.5467  1.9016
 6175SOL     OW29983   3.352   3.998  17.303 -0.5682  0.1944  0.3485
 6175SOL    HW129984   3.382   3.923  17.253 -1.5911 -1.1039  1.6829
 6175SOL    HW229985   3.437   4.014  17.344 -0.4820  0.3803  0.0958
 6176SOL     OW29986   3.425   3.033   5.533 -0.0649  0.1571  0.0641
 6176SOL    HW129987   3.448   2.941   5.545 -0.0050  0.1716  0.0615
 6176SOL    HW229988   3.516   3.062   5.522 -1.0632  2.5421 -1.8542
 6177SOL     OW29989   1.478   3.913   0.305  0.8274  0.1746  0.2794
 6177SOL    HW129990   1.480   3.820   0.330 -3.5707 -0.1478 -0.6690
 6177SOL    HW229991   1.429   3.953   0.377 -0.4098 -1.4455  0.3450
 6178SOL     OW29992   2.483   4.124   5.214 -0.3392  0.0965 -0.0720
 6178SOL    HW129993   2.516   4.041   5.248 -2.2174 -0.8896 -0.6696
 6178SOL    HW229994   2.417   4.089   5.153 -0.5662 -0.5163  0.5310
 6179SOL     OW29995   3.703   1.629  12.888  0.1487  0.0218  0.1768
 6179SOL    HW129996   3.631   1.609  12.828 -0.7470 -1.8524  1.8741
 6179SOL    HW229997   3.706   1.722  12.865  1.5637 -0.4447 -1.4242
 6180SOL     OW29998   1.845   3.954   7.186  0.2147 -0.3693 -0.1922
 6180SOL    HW129999   1.817   3.979   7.274 -0.6409 -2.9910  0.2603
 6180SOL    HW230000   1.774   3.893   7.168  0.6010 -0.7441 -0.4419
 6181SOL     OW30001   3.845   1.908   8.751 -0.0383 -0.6184 -0.1256
 6181SOL    HW130002   3.877   1.990   8.788 -0.1685 -0.9922  0.8130
 6181SOL    HW230003   3.878   1.842   8.812 -1.4383 -1.6194 -0.4257
 6182SOL     OW30004   0.745   3.286   4.841  0.4363  0.3656  0.3801
 6182SOL    HW130005   0.674   3.282   4.905 -0.6868 -0.5361 -0.9317
 6182SOL    HW230006   0.694   3.292   4.760  0.9824 -1.1654 -0.0682
 6183SOL     OW30007   2.071   1.833   7.434  0.2447 -0.0976 -0.0824
 6183SOL    HW130008   2.068   1.745   7.473 -1.2043  0.0906  0.2341
 6183SOL    HW230009   2.161   1.836   7.403  0.3638  0.0799  0.2875
 6184SOL     OW30010   3.770   1.879   7.908  0.2114 -0.2308  0.2677
 6184SOL    HW130011   3.694   1.936   7.924  1.5710  1.7055 -0.0709
 6184SOL    HW230012   3.723   1.796   7.906 -1.2184  0.6145 -1.3547
 6185SOL     OW30013   1.235   1.319   4.195  0.3271  0.0938  0.2796
 6185SOL    HW130014   1.207   1.263   4.123 -1.2513 -0.2071  1.1467
 6185SOL    HW230015   1.225   1.264   4.272  1.0435 -2.7901 -1.6703
 6186SOL     OW30016   0.184   3.370   9.261 -0.2573 -0.0767  0.3772
 6186SOL    HW130017   0.258   3.427   9.281 -1.0726  1.7326 -1.6544
 6186SOL    HW230018   0.123   3.378   9.334  0.9220 -0.1146  1.3443
 6187SOL     OW30019   3.337   4.194   3.106 -0.0317 -0.0009  0.4379
 6187SOL    HW130020   3.262   4.188   3.166  0.5094 -3.7634  0.7625
 6187SOL    HW230021   3.319   4.128   3.039 -0.3334  1.4745 -0.9244
 6188SOL     OW30022   4.472   3.059   7.836 -0.0829  0.0735  0.9439
 6188SOL    HW130023   4.510   3.000   7.901  0.9626 -1.0019 -0.6523
 6188SOL    HW230024   4.397   3.106   7.873 -0.4859 -0.1335  0.3862
 6189SOL     OW30025   3.789   1.028  11.283 -0.1094  0.3675 -0.1615
 6189SOL    HW130026   3.727   0.979  11.336  1.7355 -0.3072  1.3737
 6189SOL    HW230027   3.865   1.029  11.343 -0.1304  2.3920 -0.1540
 6190SOL     OW30028   3.449   0.878   2.575 -0.0659  1.2342  0.1436
 6190SOL    HW130029   3.389   0.930   2.522 -0.2996  0.2002 -0.5977
 6190SOL    HW230030   3.525   0.862   2.520 -1.5383 -0.5336 -1.3842
 6191SOL     OW30031   0.963   2.388  15.725 -0.2623  0.1787 -0.2321
 6191SOL    HW130032   0.934   2.297  15.711  0.0025 -0.0495  0.6851
 6191SOL    HW230033   1.007   2.378  15.809 -0.3836  0.4679 -0.1364
 6192SOL     OW30034   2.517   1.937  11.634  0.4755  0.0071  0.6360
 6192SOL    HW130035   2.524   1.892  11.550 -2.4025 -0.9579  0.9374
 6192SOL    HW230036   2.510   1.861  11.692  0.9935  0.1442  0.8835
 6193SOL     OW30037   2.012   4.130   8.654 -0.0561  0.0111 -0.2468
 6193SOL    HW130038   2.015   4.164   8.744 -1.6851  1.6469 -0.8007
 6193SOL    HW230039   1.960   4.196   8.608 -0.4412 -0.7809 -0.9395
 6194SOL     OW30040   1.089   0.655  12.330  0.3566  0.1359 -0.7534
 6194SOL    HW130041   1.051   0.584  12.382  0.1401  1.1729  0.4989
 6194SOL    HW230042   1.020   0.720  12.339  0.2991 -0.0067 -0.1435
 6195SOL     OW30043   2.831   3.264   3.689  0.1373  0.4630 -0.2610
 6195SOL    HW130044   2.849   3.358   3.696  0.0364  0.3811  1.1066
 6195SOL    HW230045   2.782   3.245   3.770  1.7557 -0.5208  0.4888
 6196SOL     OW30046   3.997   4.084  14.235  0.1896  0.5971 -0.3772
 6196SOL    HW130047   3.905   4.098  14.260 -0.1355 -0.5776 -0.9282
 6196SOL    HW230048   4.017   4.025  14.308 -0.0901  0.4755 -0.3955
 6197SOL     OW30049   1.347   3.270   1.049  0.6529 -0.0428  0.1691
 6197SOL    HW130050   1.287   3.265   1.123  0.7258  2.8862  0.4212
 6197SOL    HW230051   1.353   3.177   1.030  0.3993  0.3356 -1.7042
 6198SOL     OW30052   1.420   2.544   7.919  0.2363 -0.3869  0.2821
 6198SOL    HW130053   1.399   2.634   7.893  1.2885  0.1370  1.2392
 6198SOL    HW230054   1.468   2.518   7.840  0.7826 -0.0529  0.5067
 6199SOL     OW30055   2.654   4.220  10.954 -0.3435  0.3240 -0.2084
 6199SOL    HW130056   2.595   4.170  11.011 -1.0375  0.0834 -1.1378
 6199SOL    HW230057   2.603   4.300  10.940  0.1726  0.3817 -1.7810
 6200SOL     OW30058   0.960   2.163   2.760  0.3427 -0.3853  0.4272
 6200SOL    HW130059   1.038   2.174   2.815 -0.0065  1.0313  0.6455
 6200SOL    HW230060   0.989   2.194   2.674 -0.8410 -0.3602  0.0475
 6201SOL     OW30061   4.347   1.252   8.526  0.2949  0.1584 -0.0235
 6201SOL    HW130062   4.382   1.340   8.513  2.2702 -0.7422 -0.8814
 6201SOL    HW230063   4.279   1.246   8.460  0.2506 -0.0754  0.0450
 6202SOL     OW30064   1.045   0.390   2.645  0.5558  0.3307  0.4075
 6202SOL    HW130065   1.016   0.481   2.653 -0.9560 -0.1310  0.3028
 6202SOL    HW230066   0.955   0.356   2.651  0.9994 -0.9546 -0.1215
 6203SOL     OW30067   2.878   1.805  15.484 -0.4983 -0.3340 -0.2020
 6203SOL    HW130068   2.882   1.713  15.511  1.4416 -0.6286 -1.5163
 6203SOL    HW230069   2.794   1.802  15.440  0.5507 -1.1425 -2.1314
 6204SOL     OW30070   4.713   1.214   1.660  0.1173 -0.1379 -0.3860
 6204SOL    HW130071   0.021   1.145   1.601 -1.1906 -0.6453 -0.4608
 6204SOL    HW230072   0.042   1.284   1.618 -2.3816  3.6795  2.9016
 6205SOL     OW30073   3.703   0.130   9.182 -0.1687  0.0459  0.4838
 6205SOL    HW130074   3.719   0.150   9.274 -3.4815 -0.2167  1.1049
 6205SOL    HW230075   3.681   0.036   9.183 -0.2303  0.0515 -0.2870
 6206SOL     OW30076   1.426   3.184   3.276  0.0522  0.2290 -0.1007
 6206SOL    HW130077   1.515   3.179   3.309 -0.1889 -0.7801  0.3893
 6206SOL    HW230078   1.377   3.146   3.349  1.1503  0.9840  1.0287
 6207SOL     OW30079   3.095   2.863   1.875  0.4036 -0.1034  0.3180
 6207SOL    HW130080   3.014   2.908   1.852  1.0279  2.0514  2.3148
 6207SOL    HW230081   3.113   2.821   1.791 -2.4252 -0.8830  0.0978
 6208SOL     OW30082   4.708   2.952  10.000 -0.5777 -0.0819 -0.0032
 6208SOL    HW130083   4.640   2.963  10.066 -0.1622  1.6738  0.1471
 6208SOL    HW230084   4.653   2.968   9.923 -1.7123  2.3113  1.3120
 6209SOL     OW30085   0.653   1.456   6.750 -0.2186  0.0657 -0.3526
 6209SOL    HW130086   0.708   1.504   6.812 -0.4076 -2.2770  1.6383
 6209SOL    HW230087   0.727   1.428   6.696  0.4805 -1.2158  1.2828
 6210SOL     OW30088   3.044   3.357   4.544 -0.1989 -0.4796 -0.0880
 6210SOL    HW130089   2.976   3.399   4.491 -0.6619  0.8207  1.5669
 6210SOL    HW230090   3.005   3.270   4.549  0.1087 -0.6317 -0.3021
 6211SOL     OW30091   0.460   1.561  16.064  0.4948 -0.0780  0.0182
 6211SOL    HW130092   0.507   1.497  16.011  1.4878 -0.8396  1.8061
 6211SOL    HW230093   0.367   1.545  16.048  0.6420 -2.4877  1.4710
 6212SOL     OW30094   0.093   0.211  13.128 -0.1674 -0.1200  0.2078
 6212SOL    HW130095   0.168   0.268  13.116  0.8345 -1.4977 -0.0665
 6212SOL    HW230096   0.119   0.139  13.070  0.3136  1.7113 -1.8156
 6213SOL     OW30097   1.806   4.161   2.639 -1.0921  0.0394 -0.0448
 6213SOL    HW130098   1.790   4.082   2.692 -1.2934  0.5582  0.6703
 6213SOL    HW230099   1.897   4.176   2.663 -1.0310  0.6634 -0.6795
 6214SOL     OW30100   3.520   3.995   9.850  0.2267  0.2018  0.6126
 6214SOL    HW130101   3.504   3.901   9.842 -0.0890  0.1727  1.5737
 6214SOL    HW230102   3.434   4.037   9.843  0.4222  0.2292 -1.6275
 6215SOL     OW30103   3.284   0.790   2.109  0.0869 -0.3563 -0.3352
 6215SOL    HW130104   3.241   0.875   2.097  0.8851  0.4649  2.7361
 6215SOL    HW230105   3.233   0.757   2.183  2.3889 -0.0807  1.3639
 6216SOL     OW30106   2.474   2.421   4.853 -0.3129 -0.2159  0.0393
 6216SOL    HW130107   2.557   2.424   4.804  0.3605 -0.7476  1.1560
 6216SOL    HW230108   2.492   2.490   4.917 -0.3691 -2.0620  2.0213
 6217SOL     OW30109   1.104   3.899  11.522  0.0230  0.1126 -0.5829
 6217SOL    HW130110   1.043   3.955  11.569  0.9932 -0.9771  2.0155
 6217SOL    HW230111   1.149   3.858  11.596 -2.2671 -0.1976  0.6407
 6218SOL     OW30112   1.784   0.361   4.427  0.2938 -0.4793  0.3499
 6218SOL    HW130113   1.795   0.455   4.445  2.2379 -0.6503  0.0201
 6218SOL    HW230114   1.807   0.359   4.334 -3.0599 -0.5479 -0.4826
 6219SOL     OW30115   2.639   4.639   5.455 -0.0351 -0.0419  0.6407
 6219SOL    HW130116   2.718   4.586   5.442  0.3080 -0.2588  3.5167
 6219SOL    HW230117   2.582   4.584   5.402  2.2701 -0.7403 -1.1086
 6220SOL     OW30118   4.299   4.419  13.243  0.5573  0.5678 -0.3068
 6220SOL    HW130119   4.218   4.403  13.195 -0.0851 -0.6236  1.1683
 6220SOL    HW230120   4.251   4.462  13.314 -0.3564 -3.4709  1.5094
 6221SOL     OW30121   1.696   0.285   5.545 -0.3694  0.1418 -0.4511
 6221SOL    HW130122   1.621   0.329   5.584 -0.8250 -1.5406  0.5839
 6221SOL    HW230123   1.745   0.361   5.512  1.0106 -0.8088 -0.6210
 6222SOL     OW30124   4.324   2.208   4.500 -0.4998  0.1121 -0.6086
 6222SOL    HW130125   4.336   2.290   4.452 -0.2902 -0.1603 -1.0223
 6222SOL    HW230126   4.234   2.180   4.487  0.4203 -2.6597 -0.9959
 6223SOL     OW30127   2.831   1.152   0.464  0.6299  0.5268  0.2916
 6223SOL    HW130128   2.902   1.113   0.413  0.7651 -2.1366  2.5538
 6223SOL    HW230129   2.844   1.103   0.545  0.3547 -0.7810 -0.4571
 6224SOL     OW30130   0.632   4.102   1.637  0.1460 -0.8901 -0.4146
 6224SOL    HW130131   0.629   4.052   1.556  0.9895 -0.8151 -0.4943
 6224SOL    HW230132   0.584   4.180   1.610 -0.7279 -1.7783 -1.4126
 6225SOL     OW30133   3.619   3.930  14.205 -0.2291  0.3575  0.6537
 6225SOL    HW130134   3.597   3.871  14.277 -1.0569  0.4478  0.4800
 6225SOL    HW230135   3.682   3.985  14.252 -0.3546  1.0150  0.0451
 6226SOL     OW30136   0.538   4.296   2.370  0.1830 -0.6035 -0.0852
 6226SOL    HW130137   0.491   4.360   2.316  1.2309 -1.3239 -1.8392
 6226SOL    HW230138   0.479   4.285   2.444 -0.0718  2.4322  0.1830
 6227SOL     OW30139   2.326   0.270   2.922  0.0908  0.7490  0.4485
 6227SOL    HW130140   2.377   0.338   2.878 -0.0540  0.3305 -0.3623
 6227SOL    HW230141   2.244   0.280   2.874 -0.6124 -1.8812  1.0828
 6228SOL     OW30142   0.847   1.383  12.858  0.8106  0.4098  0.1356
 6228SOL    HW130143   0.934   1.348  12.874 -0.2033 -1.7710  0.8445
 6228SOL    HW230144   0.852   1.478  12.863 -1.0211  0.5078  0.2700
 6229SOL     OW30145   0.247   1.018   2.235 -0.1445  0.3641  0.3414
 6229SOL    HW130146   0.218   1.027   2.326  2.9130 -0.2820  1.3683
 6229SOL    HW230147   0.313   1.085   2.248 -0.2504  0.5436 -0.0568
 6230SOL     OW30148   4.304   2.705   9.929  0.0584  0.4418  0.1695
 6230SOL    HW130149   4.358   2.635   9.965  1.3063  1.8149  0.9116
 6230SOL    HW230150   4.215   2.688   9.961  0.1287  1.3474  0.8228
 6231SOL     OW30151   3.427   4.599   8.522 -0.6856  0.1727  0.1903
 6231SOL    HW130152   3.417   4.693   8.506 -1.4986  0.1223  0.3672
 6231SOL    HW230153   3.489   4.575   8.453 -0.9571  0.8663 -0.2885
 6232SOL     OW30154   0.694   1.343   1.706  0.1780 -0.0146  0.2397
 6232SOL    HW130155   0.743   1.322   1.626 -0.0191  0.9914 -0.1505
 6232SOL    HW230156   0.674   1.256   1.740 -2.8174  0.0057 -1.3905
 6233SOL     OW30157   4.065   0.644   3.122 -0.0558  0.5219 -0.2668
 6233SOL    HW130158   4.031   0.558   3.149  2.0719 -0.5325 -0.9137
 6233SOL    HW230159   4.130   0.655   3.190 -1.1924  0.4657  0.8331
 6234SOL     OW30160   1.917   2.489   7.458  0.1566  0.3142  0.4203
 6234SOL    HW130161   1.996   2.446   7.491 -0.8691 -0.5158  1.8356
 6234SOL    HW230162   1.937   2.564   7.402 -0.8005  0.8829  0.8362
 6235SOL     OW30163   1.661   2.026   2.350  0.4294  0.5464 -0.0987
 6235SOL    HW130164   1.650   1.940   2.310  2.1213 -0.1529  0.9226
 6235SOL    HW230165   1.591   2.033   2.415  1.5559 -0.1462  1.1870
 6236SOL     OW30166   0.490   2.483   2.198 -0.1862  0.1591 -0.8658
 6236SOL    HW130167   0.446   2.429   2.132  1.3855  0.0479 -1.8304
 6236SOL    HW230168   0.439   2.441   2.267 -1.4131  0.6034 -1.4916
 6237SOL     OW30169   1.032   2.948  12.811 -0.0803  0.0775 -0.0209
 6237SOL    HW130170   1.049   2.923  12.902  1.5812 -0.0315 -0.3605
 6237SOL    HW230171   1.111   3.003  12.804  0.4826 -0.3341  3.1810
 6238SOL     OW30172   0.796   3.586   8.871 -0.6018 -0.0997 -0.3408
 6238SOL    HW130173   0.782   3.501   8.912  0.6329  0.0529  0.4059
 6238SOL    HW230174   0.708   3.625   8.871 -0.8543 -0.6790  0.6923
 6239SOL     OW30175   1.253   1.454   3.833 -0.1666 -0.1759 -0.1525
 6239SOL    HW130176   1.164   1.446   3.799 -0.7933  1.0058  1.2136
 6239SOL    HW230177   1.244   1.428   3.925 -0.5116  2.4760  0.5557
 6240SOL     OW30178   2.217   3.747   0.951 -0.5726  0.0297  0.0752
 6240SOL    HW130179   2.134   3.701   0.937  0.9205 -2.1586 -1.6050
 6240SOL    HW230180   2.209   3.818   1.014  2.5720  0.2625  0.2530
 6241SOL     OW30181   0.557   0.630   7.644 -0.1664 -0.1936  0.1736
 6241SOL    HW130182   0.616   0.608   7.715  1.1434 -2.2814 -1.5788
 6241SOL    HW230183   0.625   0.664   7.586  2.2684 -0.8204  2.6782
 6242SOL     OW30184   3.057   2.266   6.720  0.3340 -0.0786  0.5083
 6242SOL    HW130185   3.118   2.208   6.765  0.8284 -0.7060 -0.9468
 6242SOL    HW230186   3.021   2.204   6.657 -0.4164 -1.9134  2.7623
 6243SOL     OW30187   4.148   3.896   9.556  0.2448  0.4913  0.1334
 6243SOL    HW130188   4.061   3.863   9.534  0.8382  0.6443 -2.4826
 6243SOL    HW230189   4.131   3.978   9.602  1.9633  0.1873  1.3081
 6244SOL     OW30190   2.851   4.084   2.379  0.0157  0.3763 -0.2691
 6244SOL    HW130191   2.770   4.124   2.412  0.3076  0.8659 -0.1403
 6244SOL    HW230192   2.907   4.105   2.454  0.1376  1.4132 -0.6423
 6245SOL     OW30193   0.950   0.278  16.289  0.0823  0.5207  0.4501
 6245SOL    HW130194   1.019   0.299  16.225  1.3798  0.7121  1.9129
 6245SOL    HW230195   0.930   0.367  16.317 -1.3005  0.3112  0.1219
 6246SOL     OW30196   0.535   1.641  13.718  0.7419  0.2392  0.4452
 6246SOL    HW130197   0.542   1.675  13.807  0.9185  2.7488 -0.5354
 6246SOL    HW230198   0.466   1.695  13.682 -2.2918 -3.5920  0.4734
 6247SOL     OW30199   0.096   3.864  14.037  0.3288  0.1472 -0.1906
 6247SOL    HW130200   0.124   3.799  13.973  1.9333  0.2279  0.4187
 6247SOL    HW230201   0.004   3.876  14.015  0.5224 -1.8452 -2.0404
 6248SOL     OW30202   3.787   2.328   2.872  0.4464 -0.0578 -0.7895
 6248SOL    HW130203   3.880   2.310   2.857  0.8485  2.6555 -1.5484
 6248SOL    HW230204   3.754   2.248   2.913 -1.1082  0.1804 -1.5775
 6249SOL     OW30205   2.072   0.714   5.192 -0.6848  0.0855 -0.3278
 6249SOL    HW130206   2.006   0.707   5.123 -0.4773 -0.3868 -0.4721
 6249SOL    HW230207   2.109   0.627   5.177  1.1048  0.8275 -0.1313
 6250SOL     OW30208   0.415   3.081   5.002 -0.5457 -0.3973  0.5597
 6250SOL    HW130209   0.448   3.002   5.044  0.8175 -0.1849 -0.1216
 6250SOL    HW230210   0.350   3.107   5.068  0.0383 -1.4717  1.5570
 6251SOL     OW30211   3.811   1.530   5.896 -0.4160 -0.5884 -0.0129
 6251SOL    HW130212   3.755   1.521   5.819  0.2190  0.0314 -0.5412
 6251SOL    HW230213   3.880   1.576   5.848 -1.7360  1.2891 -0.1412
 6252SOL     OW30214   0.312   3.414  10.373  0.3704 -0.1656 -0.1629
 6252SOL    HW130215   0.277   3.335  10.331  0.5317  0.7117 -1.9385
 6252SOL    HW230216   0.260   3.481  10.330  0.9442 -1.2213 -2.4971
 6253SOL     OW30217   1.024   0.884  15.494 -0.2677 -0.2231 -0.7604
 6253SOL    HW130218   1.080   0.923  15.426 -0.6271  1.0135 -0.3478
 6253SOL    HW230219   0.975   0.958  15.528  0.7412 -0.0350  0.2966
 6254SOL     OW30220   4.363   2.511   7.680 -0.5853 -0.1804  0.1229
 6254SOL    HW130221   4.267   2.519   7.686 -0.3829  1.5706  0.9058
 6254SOL    HW230222   4.367   2.488   7.587 -1.0606 -0.8129  0.2574
 6255SOL     OW30223   3.073   4.650   2.589  0.9101  0.4315 -0.2819
 6255SOL    HW130224   3.070   4.555   2.599 -1.1411  0.5212 -0.1535
 6255SOL    HW230225   3.064   4.670   2.682  0.9453  1.1492 -0.4371
 6256SOL     OW30226   3.041   3.976   5.906 -0.3509  0.0197  0.4730
 6256SOL    HW130227   2.952   3.966   5.940  0.0768 -0.6332  1.3967
 6256SOL    HW230228   3.029   3.899   5.852  0.5441 -0.7585  1.3725
 6257SOL     OW30229   3.910   2.215   3.673 -0.0959  0.4146 -0.4651
 6257SOL    HW130230   3.830   2.190   3.719  1.6351 -0.8084  1.8804
 6257SOL    HW230231   3.961   2.135   3.689 -0.4654 -0.3160 -2.9567
 6258SOL     OW30232   2.823   0.926  13.626  0.2895 -0.0815  0.4170
 6258SOL    HW130233   2.806   0.992  13.559  0.6422 -0.1322  0.2784
 6258SOL    HW230234   2.829   0.982  13.703  0.9353 -0.6580  0.7878
 6259SOL     OW30235   1.481   4.182   3.643 -0.3457  0.0863 -0.2082
 6259SOL    HW130236   1.481   4.090   3.671 -0.4118 -0.9726 -3.6550
 6259SOL    HW230237   1.389   4.207   3.655  0.2573  0.5556  3.5062
 6260SOL     OW30238   4.482   2.530   3.866  0.3541  0.0335 -0.1982
 6260SOL    HW130239   4.418   2.595   3.896  2.0052  2.5279 -2.1177
 6260SOL    HW230240   4.433   2.447   3.859  0.0529  0.2290 -0.4327
 6261SOL     OW30241   3.445   3.749   4.266  0.0905  0.0133 -0.3830
 6261SOL    HW130242   3.437   3.687   4.339 -0.7150  0.0763 -0.4132
 6261SOL    HW230243   3.362   3.794   4.284 -0.7484 -2.4506  1.9520
 6262SOL     OW30244   3.813   0.990  16.333  0.0660  0.5526  0.7159
 6262SOL    HW130245   3.823   1.012  16.240  3.3432  0.6338  1.0767
 6262SOL    HW230246   3.796   1.078  16.367  0.6356  0.8905  0.1394
 6263SOL     OW30247   0.091   2.556   7.275 -0.2781 -0.0213  0.3680
 6263SOL    HW130248   0.075   2.650   7.281  1.8698  0.3424  0.2364
 6263SOL    HW230249   0.183   2.552   7.301 -0.5371  2.8438  1.7007
 6264SOL     OW30250   3.344   1.326   6.386  0.0460  0.0071 -0.0521
 6264SOL    HW130251   3.290   1.249   6.367 -0.1229 -0.5899  2.8175
 6264SOL    HW230252   3.399   1.298   6.460 -1.1387  0.8392  1.1431
 6265SOL     OW30253   1.581   1.317   2.638 -0.1230 -0.2534 -0.0952
 6265SOL    HW130254   1.562   1.224   2.639 -0.8808 -0.0946  0.0401
 6265SOL    HW230255   1.501   1.363   2.664 -0.8865 -0.9532 -1.2473
 6266SOL     OW30256   3.957   0.500   5.034  0.5644 -0.0349  0.0592
 6266SOL    HW130257   3.951   0.537   4.945 -0.3947 -0.9813 -0.2784
 6266SOL    HW230258   3.865   0.507   5.061  0.3209  0.5959 -0.9210
 6267SOL     OW30259   3.747   0.187   7.611 -0.0007 -0.0303  0.5017
 6267SOL    HW130260   3.744   0.234   7.695 -0.1159 -0.9970  1.0409
 6267SOL    HW230261   3.654   0.173   7.592  0.3098 -0.7361 -0.4495
 6268SOL     OW30262   2.038   1.426   6.992  0.2994  0.4105 -0.0070
 6268SOL    HW130263   2.075   1.511   7.017 -1.9672  1.9545 -1.9452
 6268SOL    HW230264   1.971   1.443   6.927  0.2090  0.7293  0.1683
 6269SOL     OW30265   0.177   2.032   7.901  0.2052  0.1630 -0.1063
 6269SOL    HW130266   0.242   2.090   7.941  0.5028  0.8576 -1.5789
 6269SOL    HW230267   0.126   2.096   7.851  0.4283  0.6214  0.2570
 6270SOL     OW30268   3.332   3.368   9.279  0.3586 -0.2632  0.0296
 6270SOL    HW130269   3.402   3.325   9.230  1.7947  2.3433 -0.2080
 6270SOL    HW230270   3.288   3.422   9.214  2.1909  0.0656 -0.9239
 6271SOL     OW30271   3.223   2.489   5.732 -0.3346 -0.5850 -0.0379
 6271SOL    HW130272   3.304   2.488   5.782  0.8920  2.4039 -1.9285
 6271SOL    HW230273   3.233   2.581   5.705 -0.3265 -0.3910  0.6349
 6272SOL     OW30274   3.732   1.196  10.513 -0.6401  0.5756 -0.0142
 6272SOL    HW130275   3.707   1.260  10.446  1.8808  1.0409 -0.4908
 6272SOL    HW230276   3.700   1.113  10.479  1.5083  0.5424 -1.9115
 6273SOL     OW30277   2.695   2.467  15.830 -0.2830 -0.0473 -0.0180
 6273SOL    HW130278   2.645   2.515  15.764 -1.0794 -0.9398 -0.0544
 6273SOL    HW230279   2.787   2.470  15.803 -0.2451  0.0704  0.1245
 6274SOL     OW30280   1.907   3.507   9.778  0.6727  0.3873  0.1609
 6274SOL    HW130281   1.950   3.580   9.733  0.0347  0.3796 -0.4690
 6274SOL    HW230282   1.963   3.436   9.746 -1.6896 -0.9347 -1.1170
 6275SOL     OW30283   1.421   0.502  16.491  0.0288 -0.6839 -0.0103
 6275SOL    HW130284   1.493   0.566  16.498 -1.4671  1.0950 -0.8478
 6275SOL    HW230285   1.454   0.436  16.552 -0.8767  1.0509  2.3245
 6276SOL     OW30286   1.582   0.700   3.295  0.1144  0.7463  0.4681
 6276SOL    HW130287   1.624   0.766   3.240  0.7179 -0.5879 -0.6819
 6276SOL    HW230288   1.645   0.628   3.296  0.5312  1.1018 -0.3530
 6277SOL     OW30289   0.012   2.478   0.944  0.6577  0.3306  0.2555
 6277SOL    HW130290   4.676   2.493   0.869  0.7911  2.1659  0.5221
 6277SOL    HW230291   0.031   2.561   0.988 -1.0094  0.2186  1.1777
 6278SOL     OW30292   1.023   0.487  16.600  0.0510 -0.7083  0.2213
 6278SOL    HW130293   1.070   0.510  16.520 -0.2872 -0.2679  0.1510
 6278SOL    HW230294   1.091   0.520  16.659 -0.6923  0.2533  0.5296
 6279SOL     OW30295   0.201   2.635   6.004  0.2504 -1.4989 -0.5565
 6279SOL    HW130296   0.112   2.618   5.975  0.3367 -2.8705 -0.0519
 6279SOL    HW230297   0.172   2.689   6.078  1.9621 -2.0784  0.5288
 6280SOL     OW30298   4.719   0.047   5.799  0.3005  0.2164  0.1544
 6280SOL    HW130299   0.084   0.085   5.814  0.3117  0.4634 -0.5477
 6280SOL    HW230300   4.674   0.063   5.882 -0.0255 -1.6695  0.3433
 6281SOL     OW30301   0.995   1.931   8.592 -0.4604  0.7480  0.0302
 6281SOL    HW130302   1.049   1.852   8.581 -0.4749  0.7182  0.1742
 6281SOL    HW230303   1.030   1.987   8.523  0.1609  0.3553  0.0257
 6282SOL     OW30304   4.314   0.459  10.481  0.0136  0.0341 -0.4481
 6282SOL    HW130305   4.253   0.467  10.554  0.3551 -1.0631 -0.0423
 6282SOL    HW230306   4.276   0.518  10.416 -0.8753  0.5100  0.5068
 6283SOL     OW30307   3.062   3.124   5.558 -0.4559  0.5583 -0.6601
 6283SOL    HW130308   3.097   3.127   5.469  0.4098  1.3328 -0.3021
 6283SOL    HW230309   2.968   3.116   5.544 -0.9655  1.7417  2.1490
 6284SOL     OW30310   0.048   3.353   9.507 -0.3206  0.4467  0.1740
 6284SOL    HW130311   4.711   3.417   9.548 -0.0920  1.1603 -0.6044
 6284SOL    HW230312   0.073   3.293   9.577  0.9661  1.4853  0.6083
 6285SOL     OW30313   3.661   1.466   7.452  0.3605  0.5156  0.5746
 6285SOL    HW130314   3.674   1.556   7.420 -1.1394  0.2580 -0.7348
 6285SOL    HW230315   3.708   1.457   7.535  0.4620  1.9215  0.6672
 6286SOL     OW30316   2.709   2.392   1.872  0.3468 -0.0972 -0.0763
 6286SOL    HW130317   2.675   2.340   1.799 -0.2831  0.2069 -0.0001
 6286SOL    HW230318   2.800   2.366   1.865 -0.0193 -1.5355  0.4390
 6287SOL     OW30319   0.397   2.617  15.431  0.0917 -0.0288 -0.3447
 6287SOL    HW130320   0.351   2.587  15.509  1.5053 -1.0364  0.0937
 6287SOL    HW230321   0.324   2.616  15.368 -0.9113 -0.8415  0.8296
 6288SOL     OW30322   1.838   0.735   9.513  0.1999 -0.2614  0.9560
 6288SOL    HW130323   1.816   0.793   9.586  1.9024 -0.4744  1.6390
 6288SOL    HW230324   1.873   0.663   9.565 -2.0578 -2.8998 -1.1636
 6289SOL     OW30325   4.309   1.945   7.985 -0.1747  0.3045 -0.4067
 6289SOL    HW130326   4.325   1.922   7.894 -0.9003 -2.2468  0.0991
 6289SOL    HW230327   4.278   2.035   7.975 -0.3048  0.2029 -0.9423
 6290SOL     OW30328   2.732   0.928  11.669 -0.2330 -0.5003 -0.5786
 6290SOL    HW130329   2.817   0.940  11.626 -0.0047 -0.2078 -0.0446
 6290SOL    HW230330   2.679   1.002  11.639 -0.9866 -0.8619 -0.1450
 6291SOL     OW30331   0.618   1.680   3.666 -0.0886 -0.1059 -0.5010
 6291SOL    HW130332   0.556   1.623   3.619  0.0669  0.5806 -1.5492
 6291SOL    HW230333   0.642   1.738   3.594 -1.3143 -0.1948 -0.9892
 6292SOL     OW30334   4.368   0.694   5.472  0.3250 -0.3335 -0.4844
 6292SOL    HW130335   4.419   0.748   5.412 -0.1826  0.7349  0.0405
 6292SOL    HW230336   4.290   0.749   5.472 -1.7435 -3.2982 -2.4024
 6293SOL     OW30337   4.583   0.907   6.723  0.8901 -0.2721 -0.0503
 6293SOL    HW130338   4.516   0.963   6.762  1.0088 -0.8318  0.9397
 6293SOL    HW230339   4.571   0.821   6.762  0.7075 -0.0126  0.4692
 6294SOL     OW30340   2.566   4.678  10.164 -0.3331 -0.0443 -0.0593
 6294SOL    HW130341   2.636   4.642  10.218 -0.6961  0.4775  0.7638
 6294SOL    HW230342   2.617   0.025  10.119  0.2587  1.2393  2.5893
 6295SOL     OW30343   2.934   2.339   4.958  0.1372  0.0801 -0.3830
 6295SOL    HW130344   2.965   2.392   5.031 -0.2640  1.3422 -1.1357
 6295SOL    HW230345   2.963   2.391   4.883  3.1801  0.2259  0.9186
 6296SOL     OW30346   4.381   1.705   8.262  0.1515 -0.2946 -0.2003
 6296SOL    HW130347   4.391   1.791   8.220  0.5203 -0.7579 -1.0647
 6296SOL    HW230348   4.354   1.660   8.183  1.5073 -1.0905 -0.2078
 6297SOL     OW30349   3.031   4.039   2.622 -0.2311 -0.1275 -0.1900
 6297SOL    HW130350   2.999   3.995   2.701 -0.6194 -1.0145 -0.8509
 6297SOL    HW230351   3.117   3.999   2.616 -1.0453 -2.1876  2.0189
 6298SOL     OW30352   4.568   3.973   8.363  0.7103  0.6191 -0.1739
 6298SOL    HW130353   4.478   3.969   8.331  0.9313 -0.0851 -0.7143
 6298SOL    HW230354   4.578   3.886   8.402 -0.6141 -0.3592 -2.0138
 6299SOL     OW30355   2.040   0.318   3.318  0.1345 -0.3178  0.2955
 6299SOL    HW130356   2.124   0.272   3.319 -0.3145 -1.0793  2.0297
 6299SOL    HW230357   1.987   0.251   3.276  0.9968 -0.4600 -0.5836
 6300SOL     OW30358   2.228   0.745   8.421  0.1497 -0.0024  0.3698
 6300SOL    HW130359   2.270   0.703   8.347  1.2051  1.8836 -0.1105
 6300SOL    HW230360   2.311   0.763   8.465  1.1191 -1.1030 -1.0372
 6301SOL     OW30361   1.908   3.272  15.860  0.2065  0.8628  0.8280
 6301SOL    HW130362   1.929   3.182  15.885  0.1541  0.8767  0.9198
 6301SOL    HW230363   1.998   3.303  15.847  0.6302 -0.9568 -0.7383
 6302SOL     OW30364   2.768   1.979   5.542 -0.1696  0.3545  0.3282
 6302SOL    HW130365   2.861   1.996   5.560  0.3799 -1.6729 -0.6337
 6302SOL    HW230366   2.740   2.067   5.517  0.6703  0.4749 -0.1995
 6303SOL     OW30367   0.935   0.692  13.247 -0.4865  0.0898 -0.3060
 6303SOL    HW130368   0.895   0.724  13.328 -0.3476  1.0132 -0.6020
 6303SOL    HW230369   0.980   0.772  13.218  0.3902 -0.5423 -0.6773
 6304SOL     OW30370   0.654   1.586   8.618 -0.2985  0.0106  0.0528
 6304SOL    HW130371   0.654   1.497   8.581 -1.6125 -0.7299  1.8012
 6304SOL    HW230372   0.570   1.627   8.600  0.4796  1.8497  0.6709
 6305SOL     OW30373   3.003   3.805   7.448 -0.3102  0.0092  0.9286
 6305SOL    HW130374   2.947   3.881   7.430  2.1127  1.7011  0.5918
 6305SOL    HW230375   2.966   3.780   7.533 -1.3979  1.5654  0.9136
 6306SOL     OW30376   1.475   4.564   9.452  0.3704  0.3533 -0.5023
 6306SOL    HW130377   1.470   4.639   9.392 -1.0157  0.1247 -0.6656
 6306SOL    HW230378   1.548   4.585   9.509 -0.9908  0.0097  1.3618
 6307SOL     OW30379   3.949   2.619  15.306  0.0992  0.4854 -0.0890
 6307SOL    HW130380   4.044   2.631  15.304  0.0937  0.8471  1.7114
 6307SOL    HW230381   3.939   2.574  15.222 -0.9868  1.3448 -0.4248
 6308SOL     OW30382   4.046   1.902  14.581  0.3311  0.2932 -0.3116
 6308SOL    HW130383   3.988   1.907  14.506 -0.0165  1.0065  0.0088
 6308SOL    HW230384   4.129   1.937  14.548  0.3621 -0.1441 -0.6951
 6309SOL     OW30385   3.613   0.854  13.324 -0.3596 -0.4086  0.2889
 6309SOL    HW130386   3.684   0.812  13.276  0.9213 -1.8880  3.4374
 6309SOL    HW230387   3.605   0.936  13.276 -2.4341 -1.0846 -0.5154
 6310SOL     OW30388   2.857   1.221   4.857 -0.2188  0.2679 -0.5840
 6310SOL    HW130389   2.953   1.218   4.852 -0.3024 -0.1067 -2.1221
 6310SOL    HW230390   2.838   1.203   4.765  1.5753  0.6946 -1.0351
 6311SOL     OW30391   4.582   4.047   9.655 -0.5246  0.0944  0.3964
 6311SOL    HW130392   4.521   3.976   9.671 -0.1354  0.0442  1.6841
 6311SOL    HW230393   4.653   4.026   9.716  0.0131  1.4955  0.2777
 6312SOL     OW30394   2.135   2.944  16.161 -0.0573  0.1815 -0.0453
 6312SOL    HW130395   2.165   2.984  16.242 -0.9295  0.8076 -0.0319
 6312SOL    HW230396   2.076   2.873  16.184 -1.7611  1.5933 -0.0660
 6313SOL     OW30397   2.311   2.058  17.673  0.4956 -0.2553  0.2089
 6313SOL    HW130398   2.395   2.094  17.642  0.3078 -0.9548 -1.1239
 6313SOL    HW230399   2.276   2.006  17.600  1.6553 -1.4161  0.4763
 6314SOL     OW30400   2.854   1.469   8.088 -0.9076  0.0936 -0.0748
 6314SOL    HW130401   2.838   1.470   8.182  1.0208  1.1918  0.2569
 6314SOL    HW230402   2.938   1.422   8.089 -1.5559 -1.0042  2.4091
 6315SOL     OW30403   0.371   2.354   4.323  0.2612 -0.6794 -0.4531
 6315SOL    HW130404   0.349   2.297   4.249  1.2953 -0.7357 -0.7150
 6315SOL    HW230405   0.313   2.427   4.300  0.0100 -0.5241  0.6726
 6316SOL     OW30406   2.353   1.927  12.173  0.1185  0.5383 -0.0634
 6316SOL    HW130407   2.276   1.910  12.120  0.3461  3.0615 -1.2208
 6316SOL    HW230408   2.319   1.966  12.253  0.1999  0.7459 -0.1296
 6317SOL     OW30409   3.795   0.232   8.343 -0.0517 -0.0211  0.4574
 6317SOL    HW130410   3.767   0.323   8.353 -0.0444  0.0847 -0.4643
 6317SOL    HW230411   3.885   0.252   8.371  0.6778 -3.2358  0.4990
 6318SOL     OW30412   2.826   2.551   2.586 -0.2924 -0.5493  0.2097
 6318SOL    HW130413   2.825   2.639   2.547 -0.9023 -0.1504  1.1280
 6318SOL    HW230414   2.771   2.503   2.523  1.5382 -4.0014  1.2906
 6319SOL     OW30415   4.022   4.146   9.356 -0.0882  0.4642  0.0891
 6319SOL    HW130416   4.044   4.119   9.445  2.2493  1.3614 -0.2103
 6319SOL    HW230417   4.110   4.164   9.323  0.1532 -1.7734 -0.5067
 6320SOL     OW30418   0.123   3.945   8.414 -0.0662 -0.3090 -0.0767
 6320SOL    HW130419   0.041   3.987   8.391  1.0203  0.7746 -1.9268
 6320SOL    HW230420   0.114   3.951   8.509 -1.2699 -1.7290 -0.0997
 6321SOL     OW30421   2.895   2.798   0.489 -0.2201  0.1259  0.6558
 6321SOL    HW130422   2.835   2.729   0.461 -0.8856  1.4932 -1.2407
 6321SOL    HW230423   2.862   2.798   0.579 -1.4491 -1.0465  0.2066
 6322SOL     OW30424   3.408   0.620  13.314  0.0125 -0.6309  0.1081
 6322SOL    HW130425   3.459   0.676  13.255 -2.1023  1.9477  0.7186
 6322SOL    HW230426   3.331   0.674  13.334  1.1614  1.0490  0.0123
 6323SOL     OW30427   3.149   3.730  10.181  0.3999  0.0570  0.2161
 6323SOL    HW130428   3.191   3.646  10.166 -0.7237 -0.2179 -1.4172
 6323SOL    HW230429   3.119   3.727  10.272 -1.2030  1.1072 -0.2780
 6324SOL     OW30430   4.236   2.785   9.219 -0.0379 -0.0978  0.4336
 6324SOL    HW130431   4.262   2.838   9.295 -0.0169 -1.7443  1.5774
 6324SOL    HW230432   4.301   2.788   9.149  0.0676  0.4898  0.5533
 6325SOL     OW30433   3.221   4.618   6.455  0.0148 -0.4022 -0.2649
 6325SOL    HW130434   3.198   4.531   6.423 -0.0262 -0.4850 -0.0053
 6325SOL    HW230435   3.304   4.636   6.411  0.5105 -0.3888  0.6964
 6326SOL     OW30436   2.683   2.496   2.144 -0.0659 -0.0902  0.5269
 6326SOL    HW130437   2.724   2.455   2.068  0.4351 -0.4029  0.9592
 6326SOL    HW230438   2.590   2.492   2.124  0.0720 -0.2470 -0.0708
 6327SOL     OW30439   3.744   2.273   7.463  0.3171 -0.5435 -0.5811
 6327SOL    HW130440   3.746   2.365   7.439 -1.7708 -0.3478  0.0648
 6327SOL    HW230441   3.797   2.277   7.543 -0.6467 -1.7661  0.1152
 6328SOL     OW30442   1.403   3.976   7.475  0.5870  0.8810 -0.2018
 6328SOL    HW130443   1.358   4.017   7.401 -1.8360 -0.3621  0.5602
 6328SOL    HW230444   1.328   3.963   7.533  2.2380 -2.1931  1.1957
 6329SOL     OW30445   4.285   2.300   2.668  0.1080  0.2178  0.3571
 6329SOL    HW130446   4.233   2.220   2.654  3.4960 -2.3108  2.1288
 6329SOL    HW230447   4.304   2.322   2.576  1.5960  0.9992  0.8534
 6330SOL     OW30448   1.869   1.376   5.438 -0.4268  0.2886 -0.3017
 6330SOL    HW130449   1.960   1.376   5.469  0.6466 -2.1093 -3.3743
 6330SOL    HW230450   1.871   1.446   5.373  1.1230  1.6280  1.1936
 6331SOL     OW30451   3.540   3.723   7.425  0.5388  0.3146 -0.9909
 6331SOL    HW130452   3.513   3.810   7.457 -0.1422  0.0459 -0.8233
 6331SOL    HW230453   3.461   3.674   7.450  1.2023 -0.3709 -0.2182
 6332SOL     OW30454   4.049   1.018   6.562  0.2490 -0.3354  0.0638
 6332SOL    HW130455   4.041   0.968   6.481 -1.1718  0.0159 -0.0065
 6332SOL    HW230456   4.002   1.099   6.543  0.2305 -0.4786 -0.5023
 6333SOL     OW30457   2.843   2.986   3.981  0.2208 -0.9418  0.4528
 6333SOL    HW130458   2.895   3.060   4.013 -0.6016 -0.2291  0.1206
 6333SOL    HW230459   2.850   2.933   4.061  0.2605 -0.6230  0.6588
 6334SOL     OW30460   3.977   1.379   2.660  0.6141  0.3355 -0.4351
 6334SOL    HW130461   4.051   1.320   2.668  0.9672  0.9679  0.9422
 6334SOL    HW230462   3.997   1.444   2.727  1.4698  1.9063 -2.2047
 6335SOL     OW30463   3.055   1.478   1.882  0.0130  0.1924 -0.2522
 6335SOL    HW130464   3.057   1.573   1.867  0.5278  0.1646 -0.3668
 6335SOL    HW230465   3.142   1.454   1.851  0.4770  0.2638  0.9997
 6336SOL     OW30466   1.668   1.439  12.647  0.3274 -0.3127  0.3374
 6336SOL    HW130467   1.592   1.492  12.672 -1.1721 -1.9633 -0.7206
 6336SOL    HW230468   1.648   1.359  12.694  1.5741  0.3378  1.9956
 6337SOL     OW30469   0.295   1.603   5.438 -0.0102  0.3431 -0.5680
 6337SOL    HW130470   0.277   1.509   5.443  0.4878  0.1834 -1.7391
 6337SOL    HW230471   0.366   1.611   5.374 -0.3038 -2.3077 -1.2315
 6338SOL     OW30472   3.809   2.613   4.295  0.3846 -0.1933 -0.0119
 6338SOL    HW130473   3.839   2.525   4.318 -0.4496 -0.1525  1.2838
 6338SOL    HW230474   3.879   2.669   4.327  0.2847  1.0417 -1.9488
 6339SOL     OW30475   3.385   2.542   3.840  0.7693  0.1726 -0.4222
 6339SOL    HW130476   3.392   2.453   3.875  0.1843  0.4655  0.4396
 6339SOL    HW230477   3.402   2.529   3.747  0.3502  2.3822 -0.7988
 6340SOL     OW30478   2.852   3.027   0.304  0.0684 -0.8605 -0.0343
 6340SOL    HW130479   2.871   2.982   0.221 -2.7205 -1.7788 -0.1638
 6340SOL    HW230480   2.832   2.952   0.360  0.0417 -0.7944  0.0435
 6341SOL     OW30481   2.462   0.399   5.519  0.2951  0.2746 -0.2118
 6341SOL    HW130482   2.501   0.326   5.469 -0.2825  1.2571 -2.1103
 6341SOL    HW230483   2.484   0.479   5.471 -0.4168 -0.0968 -1.1577
 6342SOL     OW30484   0.629   2.524   5.182  0.5252  0.0918  0.8327
 6342SOL    HW130485   0.681   2.555   5.108 -0.3118 -0.3911  0.0289
 6342SOL    HW230486   0.542   2.557   5.159  0.3510 -1.5074 -0.8036
 6343SOL     OW30487   2.346   4.634   2.139 -0.0035 -0.9349  0.0213
 6343SOL    HW130488   2.348   0.005   2.164  0.1204 -0.7004 -0.8692
 6343SOL    HW230489   2.261   4.614   2.178  0.0724 -2.3291 -0.5510
 6344SOL     OW30490   0.353   1.070   2.840 -0.3814 -0.0308 -0.6997
 6344SOL    HW130491   0.334   0.977   2.832 -3.3346  0.2931  2.7300
 6344SOL    HW230492   0.384   1.081   2.930 -0.1744 -1.1032 -0.6416
 6345SOL     OW30493   0.121   0.165   6.060 -0.5057 -0.1836  0.3488
 6345SOL    HW130494   0.175   0.122   6.126 -0.4024  3.4519  2.6050
 6345SOL    HW230495   0.038   0.131   6.091 -0.0207 -1.4429  0.2881
 6346SOL     OW30496   1.370   3.265  10.797 -0.2825 -0.2883  0.0228
 6346SOL    HW130497   1.458   3.293  10.822 -0.2826 -2.5507  2.6183
 6346SOL    HW230498   1.321   3.347  10.812 -0.3533 -0.5104  1.0254
 6347SOL     OW30499   3.837   0.873  17.619 -0.8725  0.0869  0.5838
 6347SOL    HW130500   3.813   0.829  17.537 -0.4895 -0.8614  0.9784
 6347SOL    HW230501   3.932   0.869  17.610 -0.8726 -0.0356  0.6411
 6348SOL     OW30502   2.145   0.028   7.531 -0.0764  0.0082 -0.3450
 6348SOL    HW130503   2.136   4.659   7.560  1.1764 -0.0503 -0.1248
 6348SOL    HW230504   2.239   0.047   7.526  0.1807 -1.1574  0.2711
 6349SOL     OW30505   1.510   0.613   0.543  0.0906  0.3101  0.5814
 6349SOL    HW130506   1.470   0.615   0.455 -1.9155  1.7692  1.5400
 6349SOL    HW230507   1.538   0.704   0.543 -0.3690  0.4420  1.9489
 6350SOL     OW30508   4.617   2.291   9.993 -0.2197 -0.1175 -0.3564
 6350SOL    HW130509   4.537   2.275  10.045  0.9722 -3.5192  0.4613
 6350SOL    HW230510   4.678   2.307  10.065 -0.4017  2.0212 -0.6850
 6351SOL     OW30511   4.584   4.417   7.231 -0.1393 -0.0463 -0.4434
 6351SOL    HW130512   4.490   4.399   7.234 -0.1315 -0.1880 -1.0943
 6351SOL    HW230513   4.615   4.389   7.317 -1.0913  2.6600  0.7902
 6352SOL     OW30514   1.531   3.893   8.413  1.0644 -0.5731 -0.8007
 6352SOL    HW130515   1.520   3.935   8.328 -0.1609  3.2794  1.3014
 6352SOL    HW230516   1.517   3.802   8.384  0.2723 -0.3798 -1.0254
 6353SOL     OW30517   2.249   0.898  11.869 -0.3107  0.3102 -0.2694
 6353SOL    HW130518   2.289   0.984  11.881  0.0039  0.2407 -0.8349
 6353SOL    HW230519   2.320   0.852  11.824 -1.2590  0.0592 -1.4798
 6354SOL     OW30520   1.584   1.589  13.103 -0.0821  0.4339  0.2644
 6354SOL    HW130521   1.594   1.684  13.097 -0.4899  0.4732  0.2098
 6354SOL    HW230522   1.514   1.585  13.167 -0.1513  0.1694  0.1729
 6355SOL     OW30523   2.682   3.477  10.812  0.3352  0.2775  0.2816
 6355SOL    HW130524   2.735   3.411  10.858 -1.5994 -0.7434  1.0499
 6355SOL    HW230525   2.739   3.553  10.803  0.7039 -0.0235  0.0355
 6356SOL     OW30526   4.351   4.227   9.024  0.2282  0.4047  0.4977
 6356SOL    HW130527   4.305   4.176   9.090 -2.1052  1.4717 -0.2951
 6356SOL    HW230528   4.437   4.249   9.058 -0.0475  0.1243  1.3924
 6357SOL     OW30529   3.611   4.428   9.391 -0.0462  0.4059  0.4913
 6357SOL    HW130530   3.550   4.491   9.429  2.2816  1.6430  2.1396
 6357SOL    HW230531   3.647   4.488   9.325  0.8129 -1.3048 -0.6004
 6358SOL     OW30532   0.084   4.677   8.511  0.2053 -0.1063 -0.0425
 6358SOL    HW130533   0.156   4.685   8.449 -0.7650  1.6456 -0.9359
 6358SOL    HW230534   0.100   0.028   8.572  2.6775 -0.1468 -0.6649
 6359SOL     OW30535   3.264   3.356   1.014  0.3394  0.0249  0.2203
 6359SOL    HW130536   3.264   3.418   0.941  0.9599  1.1994  1.2209
 6359SOL    HW230537   3.184   3.304   1.004  1.5886 -1.6746 -0.7882
 6360SOL     OW30538   1.754   3.041   8.141 -0.2908 -0.7163  0.1053
 6360SOL    HW130539   1.832   2.987   8.130  0.9861  0.7002  2.2273
 6360SOL    HW230540   1.705   3.019   8.062  1.9963 -1.2135 -1.1699
 6361SOL     OW30541   0.164   3.588   2.425 -0.0078  0.3742  0.2405
 6361SOL    HW130542   0.112   3.650   2.374 -1.1147  0.8728  1.9858
 6361SOL    HW230543   0.093   3.541   2.470 -1.5508  0.1815 -2.3382
 6362SOL     OW30544   1.264   1.054   3.590  0.2843 -0.1748 -0.6492
 6362SOL    HW130545   1.307   1.093   3.514  0.3879  0.6478 -0.1712
 6362SOL    HW230546   1.187   1.111   3.594  0.9804  0.8674 -2.1050
 6363SOL     OW30547   1.125   2.586   9.127  0.1693 -0.2825  0.4117
 6363SOL    HW130548   1.193   2.563   9.190 -0.4684  0.6906  1.4440
 6363SOL    HW230549   1.120   2.501   9.084  1.3941 -0.9306  1.5498
 6364SOL     OW30550   4.133   0.552   2.046  0.3454  0.8105 -0.0678
 6364SOL    HW130551   4.142   0.468   2.090 -2.0225 -0.6804 -2.3882
 6364SOL    HW230552   4.218   0.555   2.001  1.5202  4.2141  2.3757
 6365SOL     OW30553   0.428   0.337   2.541  0.2378 -0.3079  0.0099
 6365SOL    HW130554   0.474   0.274   2.596  0.2341  0.2361  0.6392
 6365SOL    HW230555   0.496   0.405   2.539  0.7361 -0.7917  1.0397
 6366SOL     OW30556   1.426   3.553   3.790  0.4483 -0.4667 -0.5914
 6366SOL    HW130557   1.415   3.479   3.851  0.6472  0.2850  0.3558
 6366SOL    HW230558   1.355   3.539   3.727  0.1815  0.8532 -0.5717
 6367SOL     OW30559   0.456   1.900  14.855 -0.5910 -0.6555 -0.2413
 6367SOL    HW130560   0.393   1.838  14.893  0.1959 -0.8565  0.7457
 6367SOL    HW230561   0.399   1.936  14.788  0.2768  2.9129  0.9468
 6368SOL     OW30562   2.122   3.086  10.318 -0.1072  0.0478 -0.2871
 6368SOL    HW130563   2.031   3.090  10.348 -0.5584  1.0288 -1.7705
 6368SOL    HW230564   2.132   2.993  10.339  0.4916  0.3237  0.6479
 6369SOL     OW30565   3.075   4.171   3.238 -0.2453 -0.1333 -0.4032
 6369SOL    HW130566   3.001   4.226   3.262  0.2743 -0.1890  1.3831
 6369SOL    HW230567   3.060   4.099   3.300  2.7063 -1.0450 -0.7226
 6370SOL     OW30568   2.674   3.995  13.355 -0.1521  0.1631 -0.1417
 6370SOL    HW130569   2.752   3.947  13.383  0.1802  0.1235 -1.1191
 6370SOL    HW230570   2.604   3.940  13.390  1.6374 -2.0715 -0.0566
 6371SOL     OW30571   0.698   4.248   5.465  0.5819  0.0356  0.9336
 6371SOL    HW130572   0.694   4.324   5.523 -3.0439  0.5964 -0.0840
 6371SOL    HW230573   0.642   4.188   5.512 -0.8809 -0.6496 -1.6941
 6372SOL     OW30574   0.354   3.233   8.455 -0.3532  0.3913  0.4320
 6372SOL    HW130575   0.355   3.157   8.397  0.7458  0.0584  0.8834
 6372SOL    HW230576   0.272   3.215   8.501 -0.3706 -0.6535 -0.0130
 6373SOL     OW30577   3.712   4.463  16.523  0.3406 -0.0334 -0.0484
 6373SOL    HW130578   3.671   4.544  16.554  0.2117 -0.8971  2.0466
 6373SOL    HW230579   3.669   4.454  16.438  0.8084  1.4181 -0.4507
 6374SOL     OW30580   3.988   3.468  14.971  0.3888 -0.0290 -0.4338
 6374SOL    HW130581   4.048   3.515  14.914 -0.6320  1.4078 -0.3097
 6374SOL    HW230582   3.960   3.387  14.928  0.1219 -0.0665 -0.1893
 6375SOL     OW30583   3.288   3.101   9.062  0.2336  0.1898 -0.2700
 6375SOL    HW130584   3.371   3.148   9.071 -1.0148  2.3955 -0.4270
 6375SOL    HW230585   3.230   3.170   9.032  0.4838  0.4388 -0.1782
 6376SOL     OW30586   0.157   3.174  12.515 -0.0610  0.4949  0.9152
 6376SOL    HW130587   0.233   3.211  12.560 -0.4918  0.2219  1.8698
 6376SOL    HW230588   0.147   3.092  12.563 -0.7403  1.0555  1.7438
 6377SOL     OW30589   3.447   3.676  15.034 -0.1436 -0.3473 -0.1891
 6377SOL    HW130590   3.358   3.703  15.057 -0.2199 -0.9613  0.2286
 6377SOL    HW230591   3.442   3.654  14.941 -2.4065 -0.1475 -0.1214
 6378SOL     OW30592   1.033   2.754  11.009  0.1334  0.5110 -0.3176
 6378SOL    HW130593   1.100   2.720  10.950 -1.5033 -0.2655 -1.7327
 6378SOL    HW230594   1.061   2.726  11.096 -4.3591 -3.2736 -0.1319
 6379SOL     OW30595   4.574   1.301   9.422 -0.8246 -0.1843  0.2964
 6379SOL    HW130596   4.544   1.361   9.491 -0.7340  0.9563 -0.6608
 6379SOL    HW230597   4.665   1.281   9.441  0.1681  3.2347 -0.9023
 6380SOL     OW30598   1.256   2.150   4.714  0.3778  0.0631 -0.0773
 6380SOL    HW130599   1.295   2.183   4.795  1.5486  0.7689 -0.9139
 6380SOL    HW230600   1.167   2.185   4.723  0.0208 -1.1603  1.0157
 6381SOL     OW30601   3.124   3.591   6.918 -0.3640 -0.1662  0.2133
 6381SOL    HW130602   3.176   3.527   6.869 -0.0108  0.6103 -0.4291
 6381SOL    HW230603   3.034   3.561   6.907 -0.1685 -0.6659 -0.0351
 6382SOL     OW30604   2.169   3.282   1.927 -0.2718 -0.2886  0.4859
 6382SOL    HW130605   2.120   3.362   1.949 -0.2933  0.3502 -1.8678
 6382SOL    HW230606   2.144   3.225   1.999 -2.3881  1.9740  1.5630
 6383SOL     OW30607   1.567   4.636   7.592 -0.3494 -0.5464 -0.3887
 6383SOL    HW130608   1.567   4.662   7.684  0.5517  0.2807 -0.6256
 6383SOL    HW230609   1.662   4.623   7.589  0.0870  2.2764  1.4724
 6384SOL     OW30610   2.679   1.241   7.525 -0.1891 -0.1510  0.9421
 6384SOL    HW130611   2.721   1.324   7.501  0.8879 -0.8817  0.2346
 6384SOL    HW230612   2.612   1.257   7.591  0.1405  1.4135  0.8942
 6385SOL     OW30613   3.851   3.145   6.016  0.2477  0.4385 -0.6793
 6385SOL    HW130614   3.870   3.058   6.052  1.3328  1.3111  0.9038
 6385SOL    HW230615   3.825   3.137   5.925  1.3345 -1.4364 -0.8186
 6386SOL     OW30616   4.659   0.352  11.492  0.2983 -0.4607  0.0333
 6386SOL    HW130617   4.689   0.270  11.453  0.7714 -0.5746  0.6471
 6386SOL    HW230618   4.708   0.350  11.574  0.6191 -0.9505 -0.1722
 6387SOL     OW30619   1.918   3.276   1.302 -0.2555  0.3930 -0.0882
 6387SOL    HW130620   1.939   3.316   1.387 -2.2083  0.1239  0.5332
 6387SOL    HW230621   1.890   3.353   1.251  2.9208  2.3987  1.1992
 6388SOL     OW30622   4.277   4.606   2.340  0.4177  0.2478 -0.3038
 6388SOL    HW130623   4.270   4.584   2.433 -1.3135 -1.7859 -0.9088
 6388SOL    HW230624   4.244   4.522   2.309  0.4185  0.9183 -2.1559
 6389SOL     OW30625   2.449   4.453   8.258 -0.3315 -0.5572 -0.6941
 6389SOL    HW130626   2.457   4.462   8.163 -1.3903 -0.0442 -0.7337
 6389SOL    HW230627   2.461   4.359   8.268 -0.1753 -0.1838  2.7198
 6390SOL     OW30628   1.517   1.014   1.762 -0.1533  0.3513  0.3419
 6390SOL    HW130629   1.464   0.941   1.794  0.8406  0.2808  1.7896
 6390SOL    HW230630   1.479   1.090   1.807  0.3580  0.7921  0.0258
 6391SOL     OW30631   1.935   1.581   7.276  0.3884 -0.3189 -1.0004
 6391SOL    HW130632   1.957   1.490   7.294 -1.7530 -0.6322  0.1006
 6391SOL    HW230633   1.841   1.588   7.261  0.3055 -1.3425 -0.9120
 6392SOL     OW30634   3.138   2.162  17.250 -0.2556 -0.1462  0.2467
 6392SOL    HW130635   3.097   2.076  17.261 -2.3129  0.8282  0.1804
 6392SOL    HW230636   3.085   2.209  17.313 -0.1862  0.0012  0.1945
 6393SOL     OW30637   2.021   0.660   4.841  0.5672  0.3344 -0.5418
 6393SOL    HW130638   1.945   0.688   4.893  1.7625  0.0648  1.3425
 6393SOL    HW230639   1.991   0.570   4.828  0.6555  0.3497 -0.8565
 6394SOL     OW30640   3.464   3.908   0.420 -0.2491 -0.0994  0.2713
 6394SOL    HW130641   3.395   3.925   0.356 -1.8995 -0.5161  1.9370
 6394SOL    HW230642   3.444   3.818   0.446 -2.4300 -0.4157 -2.4809
 6395SOL     OW30643   0.853   4.245   3.837 -0.3139 -0.2830 -0.3548
 6395SOL    HW130644   0.921   4.236   3.771  0.0585 -0.4793  0.0618
 6395SOL    HW230645   0.910   4.260   3.912 -1.4118 -0.1112  0.4433
 6396SOL     OW30646   4.526   4.642   4.840 -0.0046  0.2701  0.6013
 6396SOL    HW130647   4.440   4.601   4.849  1.0632 -1.5239  2.7848
 6396SOL    HW230648   4.510   0.012   4.864 -1.5645 -0.2917  1.6923
 6397SOL     OW30649   4.178   0.824   5.866  0.6050  0.4738 -0.3482
 6397SOL    HW130650   4.134   0.754   5.818  0.4642 -0.2579  0.8309
 6397SOL    HW230651   4.216   0.887   5.806 -0.7845  1.4432 -0.2231
 6398SOL     OW30652   0.902   4.056   3.500  0.7523  0.0468  0.0267
 6398SOL    HW130653   0.822   4.046   3.448  1.9378 -0.4199 -1.7152
 6398SOL    HW230654   0.919   3.962   3.503 -0.5870 -0.1647  0.6222
 6399SOL     OW30655   2.660   3.128   1.390  0.0979 -0.1677 -0.0522
 6399SOL    HW130656   2.749   3.161   1.375 -0.4163  0.9190 -0.7281
 6399SOL    HW230657   2.663   3.149   1.484 -0.8731  0.0565 -0.0747
 6400SOL     OW30658   4.111   1.337   5.965  0.0348  0.2889  0.3577
 6400SOL    HW130659   4.102   1.344   5.870  0.3448  0.0725  0.3099
 6400SOL    HW230660   4.198   1.377   5.969 -1.3570  3.2876  0.5496
 6401SOL     OW30661   2.480   2.511   9.154  0.5352  0.1051  0.0013
 6401SOL    HW130662   2.520   2.573   9.215  0.8003  1.9550 -2.0451
 6401SOL    HW230663   2.503   2.433   9.204  0.0636  0.3357  0.5819
 6402SOL     OW30664   3.541   1.891   0.554 -0.0655 -0.3621 -0.3237
 6402SOL    HW130665   3.528   1.874   0.461  0.6932  1.4546 -0.7719
 6402SOL    HW230666   3.544   1.987   0.545  2.2636 -0.4615 -0.7584
 6403SOL     OW30667   3.230   3.636   7.769 -0.2206  0.0816  0.4260
 6403SOL    HW130668   3.238   3.546   7.737  0.3039  0.4417 -0.4641
 6403SOL    HW230669   3.135   3.648   7.764  0.0529  1.2125 -2.0421
 6404SOL     OW30670   2.151   4.359  14.333 -0.3486 -0.1834 -0.0005
 6404SOL    HW130671   2.162   4.288  14.269  0.0522  0.3402 -0.5065
 6404SOL    HW230672   2.067   4.346  14.377  0.0879  0.0490  0.8967
 6405SOL     OW30673   0.101   3.561   1.686  0.0969  0.1357  0.3881
 6405SOL    HW130674   0.135   3.489   1.739  2.1178  1.0562  0.3792
 6405SOL    HW230675   0.182   3.613   1.679 -0.2759  0.6737  0.0630
 6406SOL     OW30676   0.472   0.769   9.221 -1.0348  0.3866 -0.4008
 6406SOL    HW130677   0.565   0.783   9.201 -1.0249 -1.7737 -1.8997
 6406SOL    HW230678   0.468   0.673   9.215 -1.4368  0.3744  0.0933
 6407SOL     OW30679   4.096   1.816   7.336 -0.0032  0.0784 -0.2355
 6407SOL    HW130680   4.142   1.808   7.420 -2.9535 -0.3162  1.3500
 6407SOL    HW230681   4.026   1.750   7.335 -0.3307  0.4128  0.3854
 6408SOL     OW30682   2.786   1.416   5.634 -0.6971 -0.1576  0.1435
 6408SOL    HW130683   2.824   1.491   5.588  1.7716 -0.6087  1.4605
 6408SOL    HW230684   2.812   1.438   5.724 -0.4150 -2.2684  0.5727
 6409SOL     OW30685   3.088   0.100   7.061  0.4317  0.3504  0.1327
 6409SOL    HW130686   3.079   0.183   7.107 -0.1398 -0.5005  1.5449
 6409SOL    HW230687   3.074   0.131   6.972  1.0827 -0.0965 -0.1266
 6410SOL     OW30688   3.650   1.258  16.179  0.2014  0.8591  0.5313
 6410SOL    HW130689   3.684   1.186  16.125  1.5512  1.3167  0.7806
 6410SOL    HW230690   3.710   1.330  16.161  0.2151  0.4456 -1.0413
 6411SOL     OW30691   4.359   1.504  10.830 -0.6162  0.0585  0.1938
 6411SOL    HW130692   4.299   1.567  10.872  0.2032  0.3370  0.9484
 6411SOL    HW230693   4.339   1.420  10.872  0.9654  0.8904  2.6082
 6412SOL     OW30694   3.248   4.346   3.749  0.2172 -0.8009  0.7412
 6412SOL    HW130695   3.331   4.333   3.703  0.4142  1.8674  0.3261
 6412SOL    HW230696   3.261   4.333   3.843 -1.3642 -1.9238  0.8141
 6413SOL     OW30697   4.285   4.358   2.953  0.4474 -0.3408  0.3980
 6413SOL    HW130698   4.255   4.283   2.902  1.1653 -0.5486  0.2945
 6413SOL    HW230699   4.300   4.317   3.039  1.0598  0.8893  0.8809
 6414SOL     OW30700   0.302   0.250   7.008 -0.5070  0.1251 -0.5750
 6414SOL    HW130701   0.387   0.286   6.984  0.0185 -0.6781  0.1090
 6414SOL    HW230702   0.270   0.241   6.918 -0.2833 -2.1651 -0.4137
 6415SOL     OW30703   3.015   0.076   3.615 -0.6315 -0.2565  0.2897
 6415SOL    HW130704   2.997   4.714   3.659  3.5172 -1.6063 -0.5440
 6415SOL    HW230705   3.008   0.126   3.696 -1.5989 -0.6623  0.4578
 6416SOL     OW30706   4.630   4.095   6.407  0.1784  0.2049  0.3703
 6416SOL    HW130707   0.000   4.120   6.415  0.2621 -1.0648  3.4547
 6416SOL    HW230708   4.619   4.057   6.494  0.8703  1.6931  1.1168
 6417SOL     OW30709   0.029   0.596   5.276  0.1927 -0.7450  0.4010
 6417SOL    HW130710   4.701   0.678   5.286  0.7660 -0.1035 -2.1804
 6417SOL    HW230711   4.692   0.529   5.313 -1.9971  0.9461  0.0294
 6418SOL     OW30712   1.977   4.336  11.826 -0.4745 -0.2384  0.0245
 6418SOL    HW130713   1.977   4.240  11.827 -0.2317 -0.2374  0.0944
 6418SOL    HW230714   1.919   4.355  11.752  2.0818  2.7045 -1.2577
 6419SOL     OW30715   3.841   3.359  12.375  0.4366  0.4381 -0.3197
 6419SOL    HW130716   3.801   3.420  12.437 -0.3869  1.4585 -1.8572
 6419SOL    HW230717   3.907   3.404  12.321 -0.9504 -1.5924 -3.6917
 6420SOL     OW30718   1.169   2.318   5.715 -0.4322  0.3410  0.4977
 6420SOL    HW130719   1.236   2.331   5.648 -0.6527  0.2310  0.2559
 6420SOL    HW230720   1.139   2.229   5.697  2.1229 -0.7555  1.6338
 6421SOL     OW30721   0.078   2.307   7.432  0.1154 -0.7601  0.5665
 6421SOL    HW130722   0.057   2.389   7.387  1.8742 -0.3626  0.4848
 6421SOL    HW230723   0.011   2.254   7.388 -0.9991  1.1067 -0.0127
 6422SOL     OW30724   0.090   3.331  13.271 -0.0313  0.0908 -0.0508
 6422SOL    HW130725   0.175   3.288  13.266  0.4720  1.0606  0.1632
 6422SOL    HW230726   0.113   3.423  13.254 -2.4651  1.2870  3.1828
 6423SOL     OW30727   0.349   1.267   7.666  0.0080  0.2175 -0.4139
 6423SOL    HW130728   0.308   1.314   7.739 -0.8695 -0.6272 -0.3680
 6423SOL    HW230729   0.271   1.224   7.631 -0.7770  0.6204  0.8344
 6424SOL     OW30730   4.387   1.919   9.487 -0.1001 -0.7061  0.1291
 6424SOL    HW130731   4.311   1.946   9.537  0.7263  0.0570  0.9751
 6424SOL    HW230732   4.339   1.866   9.424 -0.7645 -1.9903  1.7449
 6425SOL     OW30733   0.063   1.689   8.929  0.2225 -0.1795 -0.3673
 6425SOL    HW130734   0.027   1.726   9.010 -1.7530 -2.3690 -0.2404
 6425SOL    HW230735   0.134   1.637   8.968  3.3429  3.0315 -1.7906
 6426SOL     OW30736   2.760   3.420   5.434 -0.8591  0.0016 -0.4494
 6426SOL    HW130737   2.846   3.463   5.428 -1.3783  0.8713 -1.7357
 6426SOL    HW230738   2.782   3.329   5.416  3.4689  0.7743  0.9363
 6427SOL     OW30739   2.475   3.836   9.720 -0.1021 -0.0295 -0.3784
 6427SOL    HW130740   2.451   3.894   9.791  0.6133 -0.3011  0.0880
 6427SOL    HW230741   2.441   3.752   9.753  0.7319  0.1394  0.9156
 6428SOL     OW30742   3.008   0.350   5.233  0.2991 -0.3468  0.0588
 6428SOL    HW130743   3.074   0.319   5.296  1.4971 -0.2007 -1.1253
 6428SOL    HW230744   2.987   0.270   5.186 -3.9284  0.8588 -0.0778
 6429SOL     OW30745   3.430   3.238  13.299 -0.0881 -0.1547  0.1780
 6429SOL    HW130746   3.339   3.261  13.321 -0.1957  0.5373 -0.9706
 6429SOL    HW230747   3.460   3.247  13.389 -1.5912  1.9157  0.4736
 6430SOL     OW30748   2.011   3.293  13.092 -0.6935 -0.2003  0.2183
 6430SOL    HW130749   2.093   3.289  13.044 -0.3143 -1.2445  0.9542
 6430SOL    HW230750   2.054   3.317  13.174 -1.5675 -0.3609  0.7267
 6431SOL     OW30751   3.748   3.781  11.184  0.2550  0.3905 -0.1268
 6431SOL    HW130752   3.737   3.749  11.274 -2.7931 -0.3791 -0.7572
 6431SOL    HW230753   3.833   3.822  11.198 -0.2211  1.2112  0.3404
 6432SOL     OW30754   3.909   4.711   8.334 -0.5665 -0.2422  0.0029
 6432SOL    HW130755   3.895   0.083   8.319 -1.1844 -0.5633 -1.3796
 6432SOL    HW230756   3.955   4.709   8.418 -1.5643  3.7297  0.6681
 6433SOL     OW30757   3.768   2.741   8.265 -0.1109 -0.1240 -0.3744
 6433SOL    HW130758   3.711   2.676   8.305 -0.2681 -0.3022 -0.8872
 6433SOL    HW230759   3.826   2.766   8.337 -1.6410  1.9721  0.1212
 6434SOL     OW30760   2.657   4.334   4.467 -0.3635 -0.2831 -0.2167
 6434SOL    HW130761   2.723   4.302   4.529 -0.8441 -2.1026 -0.6286
 6434SOL    HW230762   2.704   4.374   4.394 -0.0675 -0.7163 -0.2620
 6435SOL     OW30763   4.548   0.125   6.032 -0.0713  0.3621 -0.7502
 6435SOL    HW130764   4.497   0.206   6.040 -1.5344 -0.4912 -1.5452
 6435SOL    HW230765   4.478   0.072   5.992 -0.5750  0.1342  0.4109
 6436SOL     OW30766   2.486   4.254  13.996  0.0951  0.5799 -0.0467
 6436SOL    HW130767   2.563   4.291  14.040 -1.0041 -1.4242  3.5572
 6436SOL    HW230768   2.492   4.168  14.037 -1.9163 -0.5295 -2.1216
 6437SOL     OW30769   0.336   2.296   5.825  0.4417 -0.6458  0.4351
 6437SOL    HW130770   0.252   2.333   5.799 -0.4561 -3.9323 -1.3548
 6437SOL    HW230771   0.389   2.327   5.752  0.3930 -0.4857  0.4680
 6438SOL     OW30772   3.524   3.559  14.794 -0.4765 -0.3506 -0.2131
 6438SOL    HW130773   3.560   3.474  14.820 -0.4566 -0.1632  0.3673
 6438SOL    HW230774   3.580   3.574  14.718  1.9668  1.5291  1.9866
 6439SOL     OW30775   0.246   0.967   5.780 -0.5818 -0.3321  0.2002
 6439SOL    HW130776   0.274   0.915   5.704  0.3489  0.5180 -0.0287
 6439SOL    HW230777   0.155   0.936   5.776 -1.2637  1.9392 -1.5122
 6440SOL     OW30778   1.580   4.421   3.590 -0.2140 -0.0220 -0.4363
 6440SOL    HW130779   1.549   4.330   3.595 -0.7009  0.0283 -2.7444
 6440SOL    HW230780   1.539   4.452   3.510 -1.4951 -0.2464  0.1260
 6441SOL     OW30781   3.750   0.572   4.862 -0.0345  0.1555  0.8012
 6441SOL    HW130782   3.684   0.641   4.854  0.3084  0.5383  1.2350
 6441SOL    HW230783   3.821   0.598   4.803  0.8851 -1.7265  1.0761
 6442SOL     OW30784   2.004   1.720   5.698  0.0871 -0.1831 -0.0479
 6442SOL    HW130785   1.962   1.637   5.722  0.5213 -0.8211 -1.4819
 6442SOL    HW230786   2.013   1.727   5.603  1.5676  1.9567  0.2699
 6443SOL     OW30787   3.946   1.826  16.351 -0.1441 -0.5709 -0.5300
 6443SOL    HW130788   4.038   1.819  16.376 -0.7395  0.1687  1.8042
 6443SOL    HW230789   3.912   1.754  16.404  1.4006 -0.4319  0.6353
 6444SOL     OW30790   4.617   1.239  16.387 -0.0178  0.2238  0.0574
 6444SOL    HW130791   4.684   1.215  16.451  0.3842  0.8340 -0.1392
 6444SOL    HW230792   4.538   1.208  16.432 -0.0566  1.5090  0.8684
 6445SOL     OW30793   2.515   4.388   7.999  0.1228 -0.0077  0.0590
 6445SOL    HW130794   2.495   4.445   7.924  0.9021 -1.3433 -1.1530
 6445SOL    HW230795   2.606   4.403   8.025  0.4947 -2.0543 -0.0744
 6446SOL     OW30796   0.840   2.041  17.484 -0.3764  0.0950  0.3431
 6446SOL    HW130797   0.798   2.025  17.399  1.7910  2.4660 -1.1719
 6446SOL    HW230798   0.824   1.958  17.529 -0.5471  0.4892  1.0101
 6447SOL     OW30799   1.097   1.286  12.038  0.3298  0.2707 -0.0842
 6447SOL    HW130800   1.171   1.229  12.061 -0.2527 -1.3417 -2.2358
 6447SOL    HW230801   1.080   1.331  12.121  0.4277 -0.4251  0.3170
 6448SOL     OW30802   3.477   1.057   7.479  1.3879 -0.7157 -0.0690
 6448SOL    HW130803   3.433   1.115   7.417  0.6079  1.7400  2.8000
 6448SOL    HW230804   3.570   1.069   7.462  1.6771 -1.1323  1.2212
 6449SOL     OW30805   1.805   0.674  12.392  0.1972 -0.0277 -1.5267
 6449SOL    HW130806   1.814   0.583  12.366 -2.5133  0.0173 -2.5958
 6449SOL    HW230807   1.878   0.686  12.453 -0.2238 -3.5077 -0.3446
 6450SOL     OW30808   4.335   1.305   6.403  0.2685 -0.0536  0.6731
 6450SOL    HW130809   4.304   1.224   6.363  1.3057 -0.1420  0.0419
 6450SOL    HW230810   4.288   1.308   6.486  0.0497 -1.8731  0.6014
 6451SOL     OW30811   2.080   0.664   2.203 -0.2314 -0.3794 -0.0444
 6451SOL    HW130812   2.171   0.677   2.228 -0.8751  2.3807  0.8866
 6451SOL    HW230813   2.063   0.753   2.173 -3.0598 -0.0908  2.3521
 6452SOL     OW30814   1.507   0.110   0.826 -0.1783 -0.5014 -0.9888
 6452SOL    HW130815   1.456   0.046   0.777 -2.7858  0.6093  0.2702
 6452SOL    HW230816   1.497   0.186   0.769 -3.0345 -0.5860 -0.5894
 6453SOL     OW30817   0.936   3.813   9.746  0.0744  0.2813 -0.2167
 6453SOL    HW130818   0.866   3.877   9.730 -1.2903 -1.2052 -0.1860
 6453SOL    HW230819   0.958   3.828   9.838 -1.4948 -0.6693  0.3091
 6454SOL     OW30820   3.370   3.677  17.597  0.0819  0.2175 -0.1482
 6454SOL    HW130821   3.315   3.755  17.585 -0.1658  0.0407 -0.1553
 6454SOL    HW230822   3.360   3.659   0.003  0.2128  1.7475  0.1608
 6455SOL     OW30823   2.148   1.947  16.816 -0.2012  0.3919  0.0285
 6455SOL    HW130824   2.174   1.856  16.800  3.5851  1.7479 -1.5077
 6455SOL    HW230825   2.132   1.949  16.910 -0.7193 -0.8959 -0.0227
 6456SOL     OW30826   3.695   1.476  10.835 -0.4954  0.7891  0.5426
 6456SOL    HW130827   3.601   1.463  10.852 -0.1837 -0.3675  1.4033
 6456SOL    HW230828   3.736   1.463  10.920  1.8113 -0.2079 -0.7339
 6457SOL     OW30829   0.753   3.945  12.246 -0.4596 -0.0257 -0.0733
 6457SOL    HW130830   0.780   3.856  12.272 -1.2914  0.0077  0.9058
 6457SOL    HW230831   0.722   3.972  12.332  2.2824  0.3895  0.7664
 6458SOL     OW30832   1.779   1.155   5.265  0.0462  0.5917  0.3405
 6458SOL    HW130833   1.840   1.171   5.337  1.5213 -2.1040 -0.3118
 6458SOL    HW230834   1.834   1.124   5.193 -2.2431 -0.1976 -1.0589
 6459SOL     OW30835   0.791   1.352   8.214 -0.0661 -0.3338  0.5474
 6459SOL    HW130836   0.763   1.306   8.135  0.1826 -0.1579  0.3587
 6459SOL    HW230837   0.848   1.295   8.264  0.2909 -0.7236 -0.3011
 6460SOL     OW30838   1.678   2.056  16.429  0.1556 -0.4497  0.1758
 6460SOL    HW130839   1.633   1.975  16.402 -1.6929  0.8901 -0.7953
 6460SOL    HW230840   1.633   2.082  16.509 -1.8923  0.8803 -1.3855
 6461SOL     OW30841   1.300   1.556  14.449  0.4915  0.0524  0.2536
 6461SOL    HW130842   1.314   1.462  14.454 -0.0135 -0.0189  0.3504
 6461SOL    HW230843   1.253   1.585  14.527 -0.7719  1.1457 -0.8970
 6462SOL     OW30844   0.965   2.155  13.505  0.1993 -0.1798 -0.2247
 6462SOL    HW130845   0.976   2.216  13.578 -0.2346  0.1104 -0.4001
 6462SOL    HW230846   0.897   2.097  13.538 -1.8983  2.6761  0.4843
 6463SOL     OW30847   1.443   2.800   3.273  0.0467  0.3349  0.1701
 6463SOL    HW130848   1.386   2.867   3.236 -3.0176 -0.7731  2.9017
 6463SOL    HW230849   1.526   2.849   3.277 -0.1086  0.6628 -0.6675
 6464SOL     OW30850   2.817   0.284   6.338 -0.1828 -0.3130 -0.2673
 6464SOL    HW130851   2.757   0.358   6.327  0.8845  0.1500 -2.7415
 6464SOL    HW230852   2.883   0.298   6.271  2.2488 -1.7507  1.8339
 6465SOL     OW30853   1.635   0.760   6.754 -0.1544 -0.1897 -0.0524
 6465SOL    HW130854   1.676   0.716   6.829  1.4929  0.7385 -0.4052
 6465SOL    HW230855   1.543   0.751   6.779 -0.8137 -0.3311 -2.5255
 6466SOL     OW30856   1.301   3.078   6.848  0.0982  0.1510 -0.4468
 6466SOL    HW130857   1.385   3.088   6.804 -0.9793  0.2958 -2.4945
 6466SOL    HW230858   1.264   2.997   6.814  1.6848 -1.1850  1.0423
 6467SOL     OW30859   0.938   2.744  13.401  0.4031 -0.0387  0.4001
 6467SOL    HW130860   1.004   2.731  13.469  1.7448  1.4675 -0.6074
 6467SOL    HW230861   0.948   2.663  13.352  2.2920  1.8694 -2.4019
 6468SOL     OW30862   3.735   2.522   6.640  0.2480  0.1939 -0.0157
 6468SOL    HW130863   3.744   2.584   6.567  1.5536  3.3029  2.7337
 6468SOL    HW230864   3.814   2.543   6.691 -2.3915  1.0449  3.7416
 6469SOL     OW30865   2.693   3.703   8.475  0.1461  0.2690 -0.6878
 6469SOL    HW130866   2.759   3.758   8.517 -1.5438  2.2895 -0.6693
 6469SOL    HW230867   2.617   3.722   8.530  0.7876  1.2769 -0.1530
 6470SOL     OW30868   1.735   4.606   2.391 -0.3087 -0.3430  0.4094
 6470SOL    HW130869   1.753   4.633   2.481  1.0012  1.5849 -0.4319
 6470SOL    HW230870   1.649   4.645   2.376 -0.3553 -0.2343  0.9566
 6471SOL     OW30871   0.159   0.950   5.292  0.1491 -0.6334  0.1036
 6471SOL    HW130872   0.235   0.987   5.247  0.4872 -1.7371 -0.2459
 6471SOL    HW230873   0.188   0.893   5.363 -0.7624  0.6189  1.4536
 6472SOL     OW30874   3.633   3.933   8.170 -0.0513  0.0166  0.4187
 6472SOL    HW130875   3.540   3.913   8.181 -0.1845 -1.3054 -3.1729
 6472SOL    HW230876   3.627   3.917   8.076  2.4474  0.4028  0.1862
 6473SOL     OW30877   3.734   0.841  11.626  0.3647 -0.3748 -0.0155
 6473SOL    HW130878   3.791   0.768  11.602 -0.1485 -0.8352  0.1528
 6473SOL    HW230879   3.678   0.855  11.550 -0.1991  1.7510  0.8018
 6474SOL     OW30880   3.813   0.319   5.830 -0.4891 -0.2190  0.3899
 6474SOL    HW130881   3.818   0.288   5.739 -1.2939  0.5247  0.0853
 6474SOL    HW230882   3.742   0.261   5.858 -0.7611 -1.3195 -2.4884
 6475SOL     OW30883   3.609   1.819   5.146  0.3917  0.5291  0.1670
 6475SOL    HW130884   3.701   1.803   5.123 -0.3238  0.3767 -2.5607
 6475SOL    HW230885   3.578   1.848   5.060 -0.6083  0.2046  0.4212
 6476SOL     OW30886   3.501   3.744   7.124 -0.1116  0.2675 -0.0515
 6476SOL    HW130887   3.426   3.802   7.114 -1.0950 -0.9599  0.2772
 6476SOL    HW230888   3.495   3.735   7.219 -0.8788  2.0769  0.0787
 6477SOL     OW30889   3.678   0.885   2.384  0.1494  0.7678 -0.0793
 6477SOL    HW130890   3.615   0.830   2.338  0.4208 -0.2352  0.7574
 6477SOL    HW230891   3.749   0.864   2.325  0.7094  1.2959  0.4087
 6478SOL     OW30892   2.475   2.791   9.022 -0.3864  0.7133  0.1786
 6478SOL    HW130893   2.539   2.833   9.079 -0.3341  0.1690  0.5189
 6478SOL    HW230894   2.491   2.699   9.044 -0.3444  0.4682 -0.8699
 6479SOL     OW30895   1.964   3.687  12.214 -0.1657 -0.4892  0.0080
 6479SOL    HW130896   1.957   3.597  12.246 -0.0061  0.2622  2.2220
 6479SOL    HW230897   2.041   3.717  12.263 -2.0946  2.2430  1.3773
 6480SOL     OW30898   2.122   1.648   2.791  0.1030 -0.2256  0.1737
 6480SOL    HW130899   2.080   1.660   2.876  1.8138  0.9752  0.8451
 6480SOL    HW230900   2.122   1.553   2.791 -2.8697 -0.2233  0.2188
 6481SOL     OW30901   1.021   3.483   5.545  0.4982  0.7185  0.0029
 6481SOL    HW130902   1.063   3.556   5.590  1.4191  0.7095 -0.8377
 6481SOL    HW230903   1.041   3.511   5.455 -0.2151 -1.4449 -0.8290
 6482SOL     OW30904   0.918   4.644   0.469  0.0739 -0.1570 -0.2004
 6482SOL    HW130905   0.931   4.581   0.541 -0.5824 -0.5504 -0.4237
 6482SOL    HW230906   0.834   4.679   0.499  1.8163  1.1132  3.1333
 6483SOL     OW30907   2.259   0.666  12.617  0.6461  0.3436 -0.0087
 6483SOL    HW130908   2.353   0.653  12.627  0.0808 -2.6348  1.4454
 6483SOL    HW230909   2.256   0.673  12.522  0.6367  0.0725 -0.0267
 6484SOL     OW30910   0.164   4.661   1.155 -0.2741  0.4952 -0.2448
 6484SOL    HW130911   0.252   4.670   1.194 -0.9851 -1.0910  1.7519
 6484SOL    HW230912   0.184   4.693   1.067  1.2513  1.0667  0.3013
 6485SOL     OW30913   0.156   2.145   8.737  0.2205 -0.6974 -0.7622
 6485SOL    HW130914   0.147   2.051   8.719 -1.1163 -0.2982 -2.1846
 6485SOL    HW230915   0.137   2.145   8.830  1.2493 -1.7844 -0.5488
 6486SOL     OW30916   0.614   2.641   2.481 -0.2310 -0.1319 -0.1891
 6486SOL    HW130917   0.566   2.640   2.398  1.5121  3.6952 -1.2044
 6486SOL    HW230918   0.583   2.726   2.511 -0.7046 -0.2496 -0.3426
 6487SOL     OW30919   4.647   3.291   7.984  0.7927 -0.0981 -0.3668
 6487SOL    HW130920   4.670   3.342   8.062  0.2048 -0.4598  0.0442
 6487SOL    HW230921   4.609   3.365   7.935  2.5556 -1.0169 -3.1344
 6488SOL     OW30922   4.635   3.544  12.656  0.0558 -0.2903 -0.5498
 6488SOL    HW130923   4.576   3.599  12.708  0.7120  0.6325 -0.7637
 6488SOL    HW230924   4.683   3.486  12.715 -1.4864 -1.8924 -0.8794
 6489SOL     OW30925   3.392   2.764   2.677 -0.0364 -0.6737  0.8170
 6489SOL    HW130926   3.477   2.751   2.635  0.2016  0.4078  0.9776
 6489SOL    HW230927   3.336   2.766   2.600  0.6031  0.0963  0.3738
 6490SOL     OW30928   4.357   2.783   2.961  0.0931  0.1166 -0.4620
 6490SOL    HW130929   4.351   2.799   2.867  1.8457  3.1894 -0.0519
 6490SOL    HW230930   4.442   2.741   2.964  0.4094  0.6787 -1.5685
 6491SOL     OW30931   3.971   1.044  11.477  0.1680  0.3057  0.4387
 6491SOL    HW130932   4.028   0.993  11.535  0.6579 -0.0589 -0.3575
 6491SOL    HW230933   3.934   1.120  11.520 -0.0098  0.9107 -0.7832
 6492SOL     OW30934   0.149   1.986   7.095 -0.2307  0.0036 -0.1505
 6492SOL    HW130935   0.214   1.974   7.026 -0.8046 -2.6928 -0.2287
 6492SOL    HW230936   0.176   1.947   7.178 -2.0096  0.1668  0.5165
 6493SOL     OW30937   4.694   2.915   7.006 -0.3978 -0.1951  0.2916
 6493SOL    HW130938   0.021   2.840   6.971 -0.1728  0.3389 -0.5557
 6493SOL    HW230939   4.684   2.876   7.093 -1.0005 -1.1606 -0.2146
 6494SOL     OW30940   1.274   2.174   3.889 -0.5966  0.1065 -0.8452
 6494SOL    HW130941   1.321   2.123   3.955  0.2319 -0.6154 -1.9822
 6494SOL    HW230942   1.341   2.241   3.874  0.1778 -0.4187  0.2740
 6495SOL     OW30943   0.327   1.423   1.745 -0.2340 -0.5921  0.3311
 6495SOL    HW130944   0.355   1.502   1.790  0.2414 -0.1723 -0.7015
 6495SOL    HW230945   0.361   1.354   1.803 -0.6210 -0.8208  0.2863
 6496SOL     OW30946   1.136   0.871   7.965  0.4518  0.1534 -0.3099
 6496SOL    HW130947   1.078   0.942   7.993 -0.6383 -1.7885  2.4068
 6496SOL    HW230948   1.190   0.850   8.041  2.1595  2.1642 -0.9849
 6497SOL     OW30949   2.587   0.465   6.587  0.0667 -0.2105 -0.0353
 6497SOL    HW130950   2.536   0.385   6.572  1.2742 -1.0815  0.4934
 6497SOL    HW230951   2.523   0.528   6.555 -1.4947 -1.2722  0.9607
 6498SOL     OW30952   2.654   0.613   1.023  0.1597  0.2030 -0.4690
 6498SOL    HW130953   2.704   0.536   1.049  0.2211 -0.1594 -1.6807
 6498SOL    HW230954   2.608   0.632   1.105 -2.3864  1.2446 -2.1561
 6499SOL     OW30955   3.725   4.202   1.835 -0.5846  0.2210 -0.6349
 6499SOL    HW130956   3.705   4.115   1.799  3.3661  0.4652 -3.4235
 6499SOL    HW230957   3.678   4.243   1.763 -1.0386 -0.2683 -0.6169
 6500SOL     OW30958   3.139   2.031   7.991  0.2130 -0.3220  0.0614
 6500SOL    HW130959   3.160   2.068   8.076 -0.3381 -0.8004  0.4020
 6500SOL    HW230960   3.156   1.939   8.008  0.4038 -0.7159 -2.2178
 6501SOL     OW30961   4.565   3.193   5.912  0.0475  0.3240 -0.0003
 6501SOL    HW130962   4.525   3.144   5.840  1.9758  0.6188 -1.2626
 6501SOL    HW230963   4.631   3.242   5.863  1.3799 -0.0948  1.3491
 6502SOL     OW30964   4.161   0.262  17.520  0.1681  0.6437  0.0711
 6502SOL    HW130965   4.172   0.311  17.601  0.6268 -0.3729  0.6225
 6502SOL    HW230966   4.127   0.332  17.464  1.7379  2.6235  1.5848
 6503SOL     OW30967   3.896   2.596  11.046  0.3255 -0.0116 -0.1459
 6503SOL    HW130968   3.977   2.561  11.009 -0.1938 -0.8025 -0.5203
 6503SOL    HW230969   3.893   2.576  11.139  2.1847  1.3929  0.2285
 6504SOL     OW30970   1.070   0.659  10.628 -0.5510  0.3468 -0.0306
 6504SOL    HW130971   1.058   0.564  10.621  1.0874  0.2353 -1.4858
 6504SOL    HW230972   1.140   0.663  10.693  0.5330 -1.5707 -1.0676
 6505SOL     OW30973   0.994   1.577   0.728  0.2509  0.6942  0.0360
 6505SOL    HW130974   1.023   1.490   0.755 -0.9506 -0.3106 -1.9449
 6505SOL    HW230975   1.045   1.601   0.650 -1.5037 -3.1282 -2.2666
 6506SOL     OW30976   3.247   1.374  11.086 -0.6161  0.3257  0.1731
 6506SOL    HW130977   3.234   1.308  11.154 -2.3789 -1.1330 -1.5516
 6506SOL    HW230978   3.163   1.419  11.091 -0.6849 -0.0453  2.2714
 6507SOL     OW30979   4.262   3.998  17.224 -0.6498  0.4597  0.0436
 6507SOL    HW130980   4.284   3.910  17.195  2.9393  1.5094 -0.3744
 6507SOL    HW230981   4.201   4.022  17.154 -1.6322  0.9200  1.0532
 6508SOL     OW30982   3.851   0.901   9.670 -0.6180  0.0585  0.2201
 6508SOL    HW130983   3.818   0.920   9.582 -0.1201  0.5291  0.1350
 6508SOL    HW230984   3.863   0.984   9.718  1.7681 -0.2995  0.2495
 6509SOL     OW30985   3.970   0.452  12.601  0.4951  0.5654  0.2289
 6509SOL    HW130986   3.988   0.488  12.514 -1.0473  2.0146  0.5167
 6509SOL    HW230987   3.995   0.362  12.578 -0.6582  0.5178 -0.8775
 6510SOL     OW30988   3.628   3.395   7.959 -0.9166  0.1692  0.2633
 6510SOL    HW130989   3.652   3.306   7.983  2.3821  1.3411  1.3674
 6510SOL    HW230990   3.604   3.432   8.044 -1.5496 -0.4660  0.3552
 6511SOL     OW30991   3.161   1.413  10.287 -0.0016 -0.1654 -0.3325
 6511SOL    HW130992   3.072   1.446  10.277 -0.2930 -0.6671  0.5327
 6511SOL    HW230993   3.142   1.321  10.303 -1.7361  0.4459  1.1431
 6512SOL     OW30994   3.012   1.885   4.814  0.4177  0.3512  0.1971
 6512SOL    HW130995   3.053   1.935   4.743 -0.2252 -1.0939 -1.1735
 6512SOL    HW230996   3.030   1.794   4.791 -0.8952  0.5345 -1.4930
 6513SOL     OW30997   0.228   0.594   8.957  0.3488  1.1461  0.1425
 6513SOL    HW130998   0.143   0.586   8.914  0.4420 -0.2980  0.2190
 6513SOL    HW230999   0.260   0.673   8.915  1.4455  1.2124  1.1037
 6514SOL     OW31000   4.152   0.857   2.734 -0.1276 -0.3383  0.0800
 6514SOL    HW131001   4.092   0.900   2.673 -0.1371 -0.3428  0.0861
 6514SOL    HW231002   4.194   0.926   2.785  2.0188 -1.9818  0.5335
 6515SOL     OW31003   2.922   2.008   7.657 -0.5822  0.0371  0.0624
 6515SOL    HW131004   2.925   2.068   7.732 -0.4550  1.5525 -1.1748
 6515SOL    HW231005   2.872   1.934   7.692  1.1085 -0.9064  0.4901
 6516SOL     OW31006   2.383   4.215  13.728 -0.1983  0.5895 -0.0564
 6516SOL    HW131007   2.463   4.210  13.675 -0.3667 -0.7550 -0.1723
 6516SOL    HW231008   2.418   4.244  13.813 -2.4498 -0.7675  1.3222
 6517SOL     OW31009   0.081   2.696   6.918  0.2106  0.6290 -0.1270
 6517SOL    HW131010   0.083   2.600   6.911 -1.0517  0.6116 -0.2767
 6517SOL    HW231011   0.167   2.722   6.887  0.6485 -1.2196 -0.4338
 6518SOL     OW31012   0.363   3.163   3.604  0.8947  0.0684 -0.1807
 6518SOL    HW131013   0.420   3.139   3.678  1.1549  0.2735 -0.3150
 6518SOL    HW231014   0.395   3.090   3.550  0.3727 -0.7167  0.5621
 6519SOL     OW31015   3.710   3.971  13.800 -0.0818  0.0181 -0.2177
 6519SOL    HW131016   3.787   3.978  13.857 -1.3584  0.8165  1.4279
 6519SOL    HW231017   3.686   3.883  13.831  0.7747  1.3303  4.1557
 6520SOL     OW31018   0.098   1.885   9.454  0.0332 -0.0281 -0.1086
 6520SOL    HW131019   0.184   1.853   9.426  0.0929 -0.6228  0.7654
 6520SOL    HW231020   0.128   1.952   9.515  3.0432 -1.2649 -0.2122
 6521SOL     OW31021   2.146   0.183   2.724 -0.1464  0.6030  0.1182
 6521SOL    HW131022   2.065   0.141   2.696  1.3113 -1.4088 -1.0745
 6521SOL    HW231023   2.191   0.180   2.639 -2.2297  0.1744 -0.9792
 6522SOL     OW31024   0.841   4.090   1.306  0.4466 -0.0663  0.0139
 6522SOL    HW131025   0.858   4.166   1.361  0.4168  1.2756 -1.8168
 6522SOL    HW231026   0.746   4.103   1.299  0.7855  2.2109 -0.2714
 6523SOL     OW31027   1.339   2.782   5.454  0.5073  0.4040 -0.1986
 6523SOL    HW131028   1.339   2.823   5.368 -0.7006 -2.9562 -1.7901
 6523SOL    HW231029   1.406   2.721   5.425 -1.2973 -0.9414 -1.4876
 6524SOL     OW31030   2.142   0.365   6.773  1.6008  0.0110 -0.2663
 6524SOL    HW131031   2.172   0.434   6.714  3.0731 -1.2710 -0.9980
 6524SOL    HW231032   2.101   0.415   6.845  0.2708 -2.1435  0.4839
 6525SOL     OW31033   3.683   0.461   3.440 -1.1697  0.0457 -0.7308
 6525SOL    HW131034   3.742   0.451   3.515 -0.7302  0.2260 -1.0528
 6525SOL    HW231035   3.607   0.430   3.488 -1.3107  0.6640 -0.5601
 6526SOL     OW31036   2.726   2.347   6.675 -0.0114  0.0356 -0.1055
 6526SOL    HW131037   2.659   2.295   6.719  2.0733 -1.0515  1.7508
 6526SOL    HW231038   2.784   2.368   6.748 -0.5886 -4.7272  1.7267
 6527SOL     OW31039   3.069   4.349   4.621  0.5418  0.1318  0.6185
 6527SOL    HW131040   3.065   4.254   4.635 -0.6083  0.2932  1.3606
 6527SOL    HW231041   3.097   4.360   4.712 -1.6169  1.1770  1.1545
 6528SOL     OW31042   0.012   3.292   3.561 -0.5243 -0.2664  0.0175
 6528SOL    HW131043   0.058   3.279   3.478  0.8831 -2.6617  1.1723
 6528SOL    HW231044   0.076   3.279   3.630 -2.0393 -1.3171  1.2147
 6529SOL     OW31045   0.172   1.713   5.874 -0.1413  0.2776  0.1204
 6529SOL    HW131046   0.164   1.666   5.956  0.7162  0.4743  0.3172
 6529SOL    HW231047   0.242   1.777   5.887  1.7573 -1.3342 -1.9904
 6530SOL     OW31048   3.113   3.049   7.000  0.5571  0.2527 -0.2158
 6530SOL    HW131049   3.096   3.051   6.906  0.1257  1.4342 -0.1158
 6530SOL    HW231050   3.205   3.074   6.994  0.5141 -0.3245 -3.4791
 6531SOL     OW31051   4.398   4.128   3.814  0.4650  0.1368 -0.1831
 6531SOL    HW131052   4.370   4.118   3.722 -0.3758 -0.8452  0.1709
 6531SOL    HW231053   4.473   4.186   3.811 -0.5297  1.3774 -1.1279
 6532SOL     OW31054   2.087   4.057  10.328 -0.2544  0.0520  0.3343
 6532SOL    HW131055   2.147   4.009  10.271 -3.1003 -2.4509 -0.5608
 6532SOL    HW231056   2.053   3.980  10.374 -0.4578  0.4337  0.8301
 6533SOL     OW31057   0.839   3.435  14.326 -0.5067 -0.3925 -0.4218
 6533SOL    HW131058   0.821   3.503  14.261  1.7182 -0.0157 -0.6268
 6533SOL    HW231059   0.885   3.364  14.282  2.1531  1.9861 -1.4868
 6534SOL     OW31060   2.968   2.433   3.762 -0.1556  0.1342  0.5308
 6534SOL    HW131061   2.974   2.504   3.826  1.8957  0.2637  0.1962
 6534SOL    HW231062   2.986   2.480   3.680  1.2356  0.8693  1.2557
 6535SOL     OW31063   0.509   1.652  13.996 -0.1385 -0.0809  0.1690
 6535SOL    HW131064   0.495   1.725  14.057  0.7006 -0.6697  1.0577
 6535SOL    HW231065   0.423   1.610  13.992 -0.7791  1.1284  1.1440
 6536SOL     OW31066   2.271   0.682   2.552  0.5795  0.0828 -0.3696
 6536SOL    HW131067   2.297   0.774   2.549  0.2985  0.1536 -0.7112
 6536SOL    HW231068   2.345   0.643   2.505 -0.6522 -1.1515 -1.2848
 6537SOL     OW31069   4.351   1.726   4.866 -0.2172  0.0244  0.5809
 6537SOL    HW131070   4.403   1.801   4.892 -0.5696 -0.2151  2.0177
 6537SOL    HW231071   4.284   1.722   4.935  0.1524 -2.3128  0.8112
 6538SOL     OW31072   3.108   3.182   7.479 -0.7056 -0.1531 -0.0948
 6538SOL    HW131073   3.025   3.211   7.517 -0.1278  0.4409  0.7248
 6538SOL    HW231074   3.082   3.102   7.433 -2.8978  0.2643  0.4186
 6539SOL     OW31075   2.276   3.113   4.055  0.6153  0.0682 -0.1156
 6539SOL    HW131076   2.186   3.104   4.087  0.7538 -0.6516  0.0548
 6539SOL    HW231077   2.252   3.105   3.963 -0.9933 -1.7809  0.4637
 6540SOL     OW31078   3.742   4.662  15.420  0.2301 -0.3171 -0.7904
 6540SOL    HW131079   3.659   4.682  15.375 -0.1427 -2.9001 -1.2242
 6540SOL    HW231080   3.707   4.607  15.489  1.5536 -0.4268 -0.2111
 6541SOL     OW31081   0.607   3.301   4.453  0.2554  0.2080 -0.1829
 6541SOL    HW131082   0.586   3.371   4.392  1.1417  1.0352  0.4695
 6541SOL    HW231083   0.605   3.224   4.396  1.7666 -0.5505  0.7885
 6542SOL     OW31084   3.610   0.827   6.249 -0.9575  0.5128  0.3579
 6542SOL    HW131085   3.547   0.890   6.213  0.9158  2.4939  0.5351
 6542SOL    HW231086   3.549   0.754   6.244 -0.7159  0.1869  2.0816
 6543SOL     OW31087   3.055   1.577  16.713  0.0087  0.5551  0.1600
 6543SOL    HW131088   3.024   1.651  16.765 -2.6089 -2.4088  2.8140
 6543SOL    HW231089   2.987   1.572  16.645 -0.5065  0.0941  0.7091
 6544SOL     OW31090   3.251   0.671   0.884  0.5882 -0.1723 -0.2965
 6544SOL    HW131091   3.342   0.700   0.899 -0.0688  0.9169  1.6596
 6544SOL    HW231092   3.232   0.640   0.973 -0.6694  1.3363 -0.0512
 6545SOL     OW31093   1.771   4.675   0.856  0.2104 -0.5095 -0.2998
 6545SOL    HW131094   1.765   4.686   0.761 -2.1978 -1.2576 -0.2325
 6545SOL    HW231095   1.866   4.685   0.856  0.3811 -2.1275 -1.0212
 6546SOL     OW31096   4.310   1.234   2.429 -0.6503 -0.0917  0.0933
 6546SOL    HW131097   4.337   1.315   2.385 -0.9880  0.9404  1.7734
 6546SOL    HW231098   4.373   1.230   2.501  0.9845  3.2828 -1.1336
 6547SOL     OW31099   4.434   3.214   8.747 -0.1336  0.3588 -0.0026
 6547SOL    HW131100   4.518   3.259   8.753  1.4583 -2.2343 -3.0111
 6547SOL    HW231101   4.386   3.284   8.701  0.0904 -0.0273 -0.8076
 6548SOL     OW31102   1.888   1.194  11.129 -0.3132 -0.4405 -0.0841
 6548SOL    HW131103   1.804   1.205  11.084 -0.5120  0.3028  0.4626
 6548SOL    HW231104   1.891   1.099  11.136 -1.4001 -0.5006 -0.4416
 6549SOL     OW31105   3.091   1.884   4.038 -0.1386 -0.2456  0.2400
 6549SOL    HW131106   3.130   1.798   4.028  2.8467  1.1786 -0.4812
 6549SOL    HW231107   3.007   1.858   4.000 -0.2482  0.7516 -0.2169
 6550SOL     OW31108   0.216   2.553  15.676  0.1017 -0.4769  0.4681
 6550SOL    HW131109   0.226   2.645  15.702 -0.5294 -0.3667  0.3257
 6550SOL    HW231110   0.203   2.507  15.760 -0.8017 -0.5944  0.2616
 6551SOL     OW31111   2.283   3.647  14.179  0.2397  0.3492 -0.0442
 6551SOL    HW131112   2.330   3.599  14.247 -0.5621 -0.6741 -0.2095
 6551SOL    HW231113   2.356   3.660  14.119  0.5757  0.9081  0.4922
 6552SOL     OW31114   1.579   1.517   0.803 -0.0529 -0.2016 -0.0411
 6552SOL    HW131115   1.658   1.530   0.855  0.1229 -1.4530 -0.0154
 6552SOL    HW231116   1.530   1.448   0.846  0.1938  0.3382  1.0900
 6553SOL     OW31117   2.879   3.453   6.968 -0.1704 -0.2007 -0.2611
 6553SOL    HW131118   2.824   3.388   6.924 -1.6955  0.9675 -0.0594
 6553SOL    HW231119   2.917   3.398   7.036  3.2831  0.1674 -1.8610
 6554SOL     OW31120   1.179   2.939   2.865 -0.3045  0.3002  0.0956
 6554SOL    HW131121   1.232   2.938   2.786 -0.8230 -0.7289 -0.2474
 6554SOL    HW231122   1.117   2.868   2.847 -0.1732  0.4304 -0.8731
 6555SOL     OW31123   3.187   0.222   6.097 -0.1524 -0.1802  0.1662
 6555SOL    HW131124   3.255   0.194   6.036 -0.3801 -1.0969  0.3316
 6555SOL    HW231125   3.166   0.135   6.132  2.0793 -0.5025  0.6472
 6556SOL     OW31126   0.612   4.140   2.130  0.5324  0.0965 -0.1327
 6556SOL    HW131127   0.577   4.196   2.200  1.1441 -0.5877  0.7237
 6556SOL    HW231128   0.696   4.184   2.119 -0.6568  1.5204 -3.5439
 6557SOL     OW31129   4.378   1.276   5.605  0.1622  0.1910 -0.1057
 6557SOL    HW131130   4.397   1.365   5.575 -0.0015  0.7674  1.4942
 6557SOL    HW231131   4.427   1.278   5.687 -1.9594 -1.7944  1.2028
 6558SOL     OW31132   1.421   3.903  12.325 -0.9999  0.4786 -0.4326
 6558SOL    HW131133   1.458   3.989  12.305  0.9955  0.4849  3.1898
 6558SOL    HW231134   1.466   3.890  12.409  0.9669 -1.4559 -1.7903
 6559SOL     OW31135   2.981   0.646   7.192 -0.1292 -0.1489 -0.1437
 6559SOL    HW131136   3.049   0.604   7.244  1.4411  1.4258 -0.9370
 6559SOL    HW231137   3.032   0.709   7.141  1.3468 -0.3536  1.0682
 6560SOL     OW31138   2.947   4.662   5.263 -0.4786 -0.0535  0.6673
 6560SOL    HW131139   2.963   4.609   5.340  1.2909  0.2912  0.5430
 6560SOL    HW231140   2.866   4.626   5.225  0.1834  0.3366 -1.1224
 6561SOL     OW31141   0.896   4.720   2.573 -0.0071  0.3744 -0.2335
 6561SOL    HW131142   0.971   4.663   2.555  1.5905  2.5458 -0.3795
 6561SOL    HW231143   0.833   4.679   2.513 -0.8999  1.8134 -0.2740
 6562SOL     OW31144   4.188   3.244   2.368  0.0586  0.2116  0.4448
 6562SOL    HW131145   4.125   3.272   2.302  1.0591 -1.1119 -1.0718
 6562SOL    HW231146   4.234   3.327   2.371  0.1780  0.0970  1.8168
 6563SOL     OW31147   0.698   0.017  11.751  0.1687 -0.5748 -0.5509
 6563SOL    HW131148   0.639   0.092  11.752  0.8716 -0.0332  0.2391
 6563SOL    HW231149   0.717   0.007  11.844 -0.8811 -0.6181 -0.3461
 6564SOL     OW31150   0.038   0.237   8.553 -0.0887 -0.0293  0.1105
 6564SOL    HW131151   4.677   0.281   8.536 -0.7709 -1.6312 -0.7527
 6564SOL    HW231152   0.074   0.297   8.618 -0.5486 -0.1476  0.4799
 6565SOL     OW31153   0.754   2.841  13.710 -0.5142 -0.2182 -0.2316
 6565SOL    HW131154   0.782   2.769  13.768 -0.7956  0.8325  1.2055
 6565SOL    HW231155   0.831   2.896  13.692  0.7727 -1.1960  2.1981
 6566SOL     OW31156   2.113   2.777   7.230  0.0672  0.3611  0.2883
 6566SOL    HW131157   2.206   2.757   7.237  0.0906  1.2971  2.9654
 6566SOL    HW231158   2.119   2.811   7.141  1.4200  0.0829  0.2765
 6567SOL     OW31159   0.161   1.763  17.331  0.1184 -0.0929  0.0673
 6567SOL    HW131160   0.140   1.755  17.238  2.4411  2.3880 -0.6660
 6567SOL    HW231161   0.199   1.851  17.330 -1.4391  0.5803  0.1942
 6568SOL     OW31162   0.532   0.782   9.665  0.6476  0.5845 -0.3019
 6568SOL    HW131163   0.589   0.753   9.594  2.5865 -2.4481  2.4489
 6568SOL    HW231164   0.590   0.855   9.689  1.0226 -0.5831  2.4509
 6569SOL     OW31165   3.322   4.714   2.405  0.4435 -0.3052  0.1948
 6569SOL    HW131166   3.299   0.049   2.479  3.2467  1.1680 -0.0477
 6569SOL    HW231167   3.418   4.717   2.405  0.4863 -2.0858 -1.8705
 6570SOL     OW31168   0.071   1.212   0.606 -0.4726 -0.8088 -0.2127
 6570SOL    HW131169   4.710   1.201   0.654 -0.1558 -1.3516  0.1992
 6570SOL    HW231170   0.029   1.244   0.527  0.9680 -0.7762 -0.9610
 6571SOL     OW31171   1.283   3.657  14.044  0.1525 -0.5388  0.5637
 6571SOL    HW131172   1.212   3.658  14.108 -0.8655  1.1120 -0.5828
 6571SOL    HW231173   1.306   3.749  14.032 -0.9755 -0.4935 -1.2319
 6572SOL     OW31174   1.529   2.444   7.694  0.4803  0.2371 -0.1170
 6572SOL    HW131175   1.502   2.460   7.603  1.4530 -1.0868 -0.6527
 6572SOL    HW231176   1.620   2.473   7.690 -0.4900  3.3396  0.8928
 6573SOL     OW31177   0.449   2.264   8.379 -0.1943 -0.2267  0.1455
 6573SOL    HW131178   0.488   2.346   8.348  1.2723 -0.5757  1.0446
 6573SOL    HW231179   0.406   2.293   8.459  0.0186  0.1388  0.1292
 6574SOL     OW31180   0.404   1.290  17.270  0.0372  0.0416 -1.1398
 6574SOL    HW131181   0.444   1.376  17.284 -0.2469 -0.1291  0.7597
 6574SOL    HW231182   0.483   1.236  17.270  0.0943  0.1263 -0.9365
 6575SOL     OW31183   3.871   4.192   5.613 -0.6195  0.1428 -0.5401
 6575SOL    HW131184   3.894   4.106   5.577 -1.4184 -0.2431 -0.1365
 6575SOL    HW231185   3.800   4.160   5.669 -1.3474  0.5584 -1.2228
 6576SOL     OW31186   0.507   4.501   1.354 -0.5124 -0.6156  0.5403
 6576SOL    HW131187   0.488   4.543   1.270 -0.6507 -2.0417 -0.1383
 6576SOL    HW231188   0.478   4.568   1.415  0.2703 -0.1252  0.3831
 6577SOL     OW31189   1.230   0.796  13.179  0.3347  0.1008  0.2221
 6577SOL    HW131190   1.163   0.857  13.209  0.2426 -1.1798  2.6170
 6577SOL    HW231191   1.304   0.814  13.237  0.0675 -0.6575  0.7873
 6578SOL     OW31192   1.006   3.323   1.945  0.1407 -0.3272  0.2743
 6578SOL    HW131193   1.041   3.384   2.009 -2.1401  2.2876 -1.0051
 6578SOL    HW231194   0.913   3.346   1.949  0.5252  0.8757  1.8521
 6579SOL     OW31195   1.231   0.537  13.091  0.0991  0.5958  0.8093
 6579SOL    HW131196   1.248   0.628  13.114 -0.4944  1.4773 -2.3946
 6579SOL    HW231197   1.323   0.513  13.079 -0.1170 -0.6741  1.6299
 6580SOL     OW31198   2.223   2.572   3.892  0.2296 -0.1750  0.0993
 6580SOL    HW131199   2.171   2.590   3.971  1.6349 -0.1398  1.0117
 6580SOL    HW231200   2.282   2.504   3.924 -0.8007 -1.4556 -0.7118
 6581SOL     OW31201   3.309   3.191   4.186  0.4718  0.1362 -0.0228
 6581SOL    HW131202   3.351   3.275   4.169  0.6356 -0.4742 -2.5070
 6581SOL    HW231203   3.379   3.162   4.244 -0.1781  1.2732  1.3312
 6582SOL     OW31204   1.091   1.037   6.298  0.4178 -0.0382 -0.0636
 6582SOL    HW131205   1.014   0.981   6.288 -0.8427  1.3574  2.0219
 6582SOL    HW231206   1.145   1.007   6.225 -1.0038  2.1870 -2.0401
 6583SOL     OW31207   4.101   4.461  17.368  0.0831  0.2559 -0.1332
 6583SOL    HW131208   4.105   4.518  17.291  0.3556 -2.0120 -1.7712
 6583SOL    HW231209   4.135   4.513  17.441 -0.2192 -0.7034  0.7021
 6584SOL     OW31210   2.267   0.466   3.108  0.3608 -0.4122  0.4858
 6584SOL    HW131211   2.311   0.387   3.076 -0.6676 -0.6813 -0.2772
 6584SOL    HW231212   2.176   0.439   3.116 -0.6901  2.1593 -2.5581
 6585SOL     OW31213   2.962   2.753  15.400 -0.5720  0.3653  0.6504
 6585SOL    HW131214   3.030   2.794  15.453 -1.4752 -0.8291  2.7384
 6585SOL    HW231215   2.924   2.682  15.453 -2.4741  0.6630 -0.3067
 6586SOL     OW31216   0.226   0.819  15.350 -0.0424 -0.0259  0.2358
 6586SOL    HW131217   0.307   0.820  15.401  1.4413  1.6671 -2.1468
 6586SOL    HW231218   0.182   0.885  15.404  0.6329 -0.8435  1.7748
 6587SOL     OW31219   4.267   1.164   7.485 -0.3098  0.5143  0.1494
 6587SOL    HW131220   4.311   1.234   7.437 -1.4602  0.6119 -0.7489
 6587SOL    HW231221   4.274   1.091   7.423  1.6944 -0.4983  1.5515
 6588SOL     OW31222   3.991   2.176   8.641 -0.4146 -0.7821  0.6858
 6588SOL    HW131223   3.940   2.202   8.717  0.9352 -1.7704  1.9173
 6588SOL    HW231224   4.067   2.131   8.679  0.1699 -0.4922 -0.1441
 6589SOL     OW31225   2.264   2.017  12.434  0.0835 -0.0843  0.7035
 6589SOL    HW131226   2.246   1.975  12.518  0.3816  3.2548  2.4379
 6589SOL    HW231227   2.339   2.072  12.456 -1.4255  1.3273  2.4359
 6590SOL     OW31228   2.089   1.481   9.044 -0.1923 -0.3648  0.6406
 6590SOL    HW131229   2.061   1.496   9.135 -2.6627  1.6661 -0.4398
 6590SOL    HW231230   2.013   1.429   9.019  0.8436 -1.9505  0.8260
 6591SOL     OW31231   4.250   1.754  15.115  0.3648  0.1783 -0.0860
 6591SOL    HW131232   4.222   1.667  15.087 -2.0755 -0.0532  2.9861
 6591SOL    HW231233   4.322   1.732  15.174  0.2425  2.0470  0.7805
 6592SOL     OW31234   3.930   0.467   6.025  0.1192  0.7290 -0.1235
 6592SOL    HW131235   3.869   0.533   6.058  4.0602  3.8578  0.8898
 6592SOL    HW231236   3.875   0.418   5.964 -1.3275  0.8284  1.1267
 6593SOL     OW31237   0.235   3.366   1.468  0.3210  0.0123 -0.5664
 6593SOL    HW131238   0.324   3.400   1.479 -0.3546  1.2845  0.9114
 6593SOL    HW231239   0.238   3.306   1.542 -0.1474 -2.2925 -2.4099
 6594SOL     OW31240   0.915   2.532   3.544 -0.0568  0.4710 -0.3215
 6594SOL    HW131241   0.840   2.502   3.596  2.0994 -0.8504  2.0095
 6594SOL    HW231242   0.989   2.507   3.598 -0.3936 -2.0216 -0.9888
 6595SOL     OW31243   2.190   1.700   8.937 -0.1852  0.3986  0.1294
 6595SOL    HW131244   2.220   1.684   8.847  0.3219 -2.2035  0.7607
 6595SOL    HW231245   2.176   1.613   8.974 -1.0883  0.6753  0.4173
 6596SOL     OW31246   1.091   2.304   4.108  0.4874 -0.4610  0.0839
 6596SOL    HW131247   1.141   2.263   4.037 -0.6397 -1.1848 -0.3027
 6596SOL    HW231248   1.009   2.253   4.103 -0.3346  0.8454  0.2780
 6597SOL     OW31249   0.047   2.175   4.227 -0.1937 -0.2855  0.1427
 6597SOL    HW131250   0.009   2.263   4.229  0.6841  0.1039 -0.4640
 6597SOL    HW231251   4.721   2.142   4.150 -0.8410 -2.1736  1.3332
 6598SOL     OW31252   2.431   0.015   3.886  0.3319  0.3314  0.5251
 6598SOL    HW131253   2.366   4.666   3.880 -0.8761  1.4764  0.1585
 6598SOL    HW231254   2.390   0.071   3.820  1.3017 -0.4460 -0.7301
 6599SOL     OW31255   1.961   3.810   2.576  0.6307  0.5342  0.3070
 6599SOL    HW131256   1.913   3.850   2.648  0.8002  0.3510  0.5199
 6599SOL    HW231257   2.043   3.860   2.576  0.7942  0.2360  3.7193
 6600SOL     OW31258   4.000   1.753   2.142  0.0780  0.3424 -0.3809
 6600SOL    HW131259   3.961   1.825   2.092 -2.0577  0.0994  0.9252
 6600SOL    HW231260   3.941   1.762   2.217 -2.3950 -1.4446 -2.0967
 6601SOL     OW31261   0.768   0.690   5.846 -0.0361  0.2660 -0.0563
 6601SOL    HW131262   0.703   0.620   5.841 -0.0240  0.3844 -2.0175
 6601SOL    HW231263   0.709   0.751   5.891  0.5531 -1.7045  3.3835
 6602SOL     OW31264   1.419   1.238   1.861 -0.2577  0.5521 -0.2693
 6602SOL    HW131265   1.442   1.305   1.797 -1.6003  0.4624 -0.8531
 6602SOL    HW231266   1.446   1.282   1.941  0.3163  1.0463 -0.7436
 6603SOL     OW31267   2.108   1.886  12.058 -0.4688 -0.1410  0.4492
 6603SOL    HW131268   2.059   1.967  12.076 -0.5330 -0.0277 -0.2143
 6603SOL    HW231269   2.039   1.824  12.080 -0.9331  0.8359  1.7587
 6604SOL     OW31270   4.043   4.490   2.956  0.2419  0.1081 -0.4759
 6604SOL    HW131271   4.000   4.437   3.024 -0.5514 -0.3918 -1.3663
 6604SOL    HW231272   4.123   4.443   2.934 -1.1522 -1.4062 -2.2858
 6605SOL     OW31273   0.065   0.994   3.447 -0.7987 -0.2815 -0.1635
 6605SOL    HW131274   0.008   0.942   3.504 -0.0323  0.4616  1.2911
 6605SOL    HW231275   0.007   1.034   3.382 -1.8645 -2.8858 -0.7989
 6606SOL     OW31276   1.314   4.395   1.021 -0.3318  0.5103  0.1095
 6606SOL    HW131277   1.315   4.490   1.005  1.6154  0.1292 -2.0694
 6606SOL    HW231278   1.348   4.362   0.938 -1.6891 -1.9031  0.5068
 6607SOL     OW31279   3.208   3.848   4.314 -0.4118  0.8106  0.3154
 6607SOL    HW131280   3.173   3.768   4.353 -0.0772  2.1142  3.2811
 6607SOL    HW231281   3.128   3.878   4.269 -0.1443  1.2635  0.1425
 6608SOL     OW31282   4.161   0.834  17.384 -0.1616 -0.3510  0.1317
 6608SOL    HW131283   4.193   0.916  17.347 -0.8752  0.0373  0.3737
 6608SOL    HW231284   4.126   0.856  17.470 -2.0636 -0.0031 -0.7203
 6609SOL     OW31285   0.490   3.537   4.999 -0.6921  0.6498  0.0541
 6609SOL    HW131286   0.500   3.443   5.017  2.0144  0.3812 -2.8591
 6609SOL    HW231287   0.544   3.577   5.067 -0.0937  0.1705 -0.1403
 6610SOL     OW31288   0.022   3.338  15.509  0.5851  0.5732  0.2982
 6610SOL    HW131289   0.111   3.367  15.489  0.2198  1.9585  0.6524
 6610SOL    HW231290   0.040   3.304  15.597 -0.1295 -0.8274 -0.0974
 6611SOL     OW31291   0.539   0.665   3.070  0.3087  0.4334 -0.0210
 6611SOL    HW131292   0.615   0.722   3.071  2.1631 -1.9926 -1.7777
 6611SOL    HW231293   0.566   0.597   3.008 -1.8419 -0.0675 -0.4096
 6612SOL     OW31294   2.030   3.357  17.022 -0.2916 -0.1493 -1.0302
 6612SOL    HW131295   2.058   3.267  17.042  1.0839  0.6899  0.8879
 6612SOL    HW231296   2.073   3.401  17.096 -0.9867  0.8537 -1.2298
 6613SOL     OW31297   1.573   3.177  16.879 -0.6514  0.2451 -0.6088
 6613SOL    HW131298   1.577   3.224  16.795 -1.8991  1.0608 -0.2217
 6613SOL    HW231299   1.625   3.233  16.937  0.6260 -1.3786 -0.2095
 6614SOL     OW31300   4.649   3.396   0.131 -0.8498  0.6925 -0.2314
 6614SOL    HW131301   4.646   3.444   0.214  1.7205 -0.0259  0.2692
 6614SOL    HW231302   4.671   3.472   0.078 -1.8991  1.8854  1.0032
 6615SOL     OW31303   0.312   4.093   3.604 -0.6563  0.1398 -0.1012
 6615SOL    HW131304   0.343   4.029   3.669  0.8818 -0.1841 -1.1508
 6615SOL    HW231305   0.284   4.170   3.653  4.7095  1.3036  1.1357
 6616SOL     OW31306   3.181   3.218  12.017  0.5923 -0.7883 -0.2744
 6616SOL    HW131307   3.156   3.279  12.085  0.3566 -1.1878 -0.0029
 6616SOL    HW231308   3.158   3.131  12.049 -4.0652  1.0987  1.3457
 6617SOL     OW31309   0.850   3.449   5.120 -0.4936 -0.2532 -0.1181
 6617SOL    HW131310   0.780   3.398   5.080 -0.8165  0.3933 -0.3767
 6617SOL    HW231311   0.852   3.534   5.076 -0.7939 -0.4552 -0.5149
 6618SOL     OW31312   3.898   1.184   3.955 -0.1275 -0.2836  0.2710
 6618SOL    HW131313   3.859   1.269   3.938 -1.7737 -0.7326  1.8345
 6618SOL    HW231314   3.936   1.211   4.038  1.1698 -0.0272 -0.4057
 6619SOL     OW31315   3.775   3.297   8.484  0.2167  0.4639 -0.3718
 6619SOL    HW131316   3.690   3.336   8.505  0.4351  0.0728  1.2441
 6619SOL    HW231317   3.829   3.348   8.545  3.6732 -1.3292 -1.9518
 6620SOL     OW31318   4.041   2.771   1.366 -0.0426  0.3268 -0.1732
 6620SOL    HW131319   4.083   2.817   1.293 -0.4707 -0.2533 -0.7884
 6620SOL    HW231320   4.031   2.840   1.430  1.0606 -0.5417  0.9474
 6621SOL     OW31321   2.425   0.077   7.607 -0.0512  0.4173 -0.0207
 6621SOL    HW131322   2.505   0.046   7.565 -0.0788 -0.0810  0.2927
 6621SOL    HW231323   2.443   0.170   7.620 -1.6446  1.2304 -3.5845
 6622SOL     OW31324   1.275   3.302   1.903 -0.3500 -0.0783  0.0366
 6622SOL    HW131325   1.319   3.291   1.987  0.2956  1.8858 -0.0456
 6622SOL    HW231326   1.187   3.326   1.932  0.2511  1.2023  0.8091
 6623SOL     OW31327   1.631   1.501   2.419 -0.0143 -0.2386  0.4752
 6623SOL    HW131328   1.726   1.499   2.405 -0.0231  1.4045  0.1499
 6623SOL    HW231329   1.621   1.425   2.476 -0.4390 -0.9024 -0.4980
 6624SOL     OW31330   3.846   1.130   4.286 -0.6902  0.0706  0.6882
 6624SOL    HW131331   3.754   1.132   4.260 -0.8190  1.4642  1.2500
 6624SOL    HW231332   3.876   1.044   4.257 -2.0180 -1.0879  2.7419
 6625SOL     OW31333   3.073   1.424   5.127  0.5606  0.2671 -0.3827
 6625SOL    HW131334   3.097   1.507   5.085  0.9754 -0.9190 -2.5221
 6625SOL    HW231335   3.154   1.377   5.105 -0.2721 -1.3937  0.0941
 6626SOL     OW31336   2.994   1.916   6.776 -0.0700  0.3223 -0.1729
 6626SOL    HW131337   3.058   1.855   6.813  0.3435  0.9913  0.2093
 6626SOL    HW231338   2.979   1.971   6.853  0.2965 -1.3227  1.0791
 6627SOL     OW31339   1.591   0.323   4.053  0.4083  0.3599  0.2891
 6627SOL    HW131340   1.596   0.348   4.145 -1.7373  0.9391  0.2274
 6627SOL    HW231341   1.557   0.402   4.012  1.4870  0.9696  0.5678
 6628SOL     OW31342   0.361   0.818   2.781 -0.6604 -0.0911  0.3771
 6628SOL    HW131343   0.434   0.758   2.766 -1.5176 -0.7120 -1.3654
 6628SOL    HW231344   0.287   0.757   2.778 -1.3154  0.6052  2.4638
 6629SOL     OW31345   0.741   4.469   4.642  0.5244  0.2471 -0.1404
 6629SOL    HW131346   0.831   4.438   4.653  0.2929 -0.5617 -0.5730
 6629SOL    HW231347   0.740   4.538   4.708 -0.4913 -1.2351  1.4026
 6630SOL     OW31348   3.309   0.278   3.210  0.1005 -0.0477  0.2528
 6630SOL    HW131349   3.368   0.353   3.209 -1.0953  0.8542 -1.7895
 6630SOL    HW231350   3.353   0.220   3.272 -0.2502  0.6329  1.1447
 6631SOL     OW31351   1.264   0.416   7.750 -0.2082  0.3438  0.2455
 6631SOL    HW131352   1.209   0.484   7.789  2.4944  2.2581  0.7192
 6631SOL    HW231353   1.218   0.426   7.667 -3.9180 -0.6288  2.1846
 6632SOL     OW31354   3.955   4.251   0.955  0.5421 -0.0455  0.0369
 6632SOL    HW131355   4.025   4.295   0.906 -1.2847  2.8112  0.0168
 6632SOL    HW231356   3.915   4.214   0.876 -1.4773  1.9614  0.1361
 6633SOL     OW31357   1.715   2.992   6.537  0.1597  0.0397  0.0821
 6633SOL    HW131358   1.803   2.954   6.537  0.9299  1.7816 -1.0578
 6633SOL    HW231359   1.731   3.077   6.496 -1.7570  1.1850  1.7254
 6634SOL     OW31360   4.001   1.486   4.915 -0.6355  0.6623 -0.0625
 6634SOL    HW131361   3.949   1.426   4.969  1.9891 -1.2285  0.3652
 6634SOL    HW231362   4.052   1.420   4.867 -1.6989  1.4752 -2.3231
 6635SOL     OW31363   3.799   2.128  12.711 -0.4685  0.1688  0.5575
 6635SOL    HW131364   3.763   2.097  12.628 -0.4944 -0.5531  0.8424
 6635SOL    HW231365   3.795   2.047  12.761  0.5900  0.5656  1.3010
 6636SOL     OW31366   0.294   3.200   8.126 -0.2385 -0.0268 -0.3736
 6636SOL    HW131367   0.277   3.182   8.033  1.9490  1.6944 -1.1089
 6636SOL    HW231368   0.375   3.153   8.149  0.4519  1.5183  0.3312
 6637SOL     OW31369   2.830   1.752   4.271 -0.3838 -0.0797  0.5910
 6637SOL    HW131370   2.822   1.723   4.362 -3.0496 -0.7806  0.1217
 6637SOL    HW231371   2.762   1.818   4.265 -1.4885 -1.2480  0.3859
 6638SOL     OW31372   1.271   3.961   8.535 -0.0783  0.0078 -0.3920
 6638SOL    HW131373   1.243   4.027   8.472  0.4545  1.4651  0.8925
 6638SOL    HW231374   1.342   3.922   8.483  1.1976 -0.4000  1.6213
 6639SOL     OW31375   2.826   0.670   6.433  0.0100  0.1315  0.4572
 6639SOL    HW131376   2.778   0.604   6.383  1.5550 -1.4309  1.0403
 6639SOL    HW231377   2.831   0.635   6.523 -1.6056 -2.5904 -0.4939
 6640SOL     OW31378   0.028   1.233   4.461 -0.4169 -0.6501 -0.3059
 6640SOL    HW131379   0.044   1.313   4.511 -0.0702 -0.2889 -0.9965
 6640SOL    HW231380   0.103   1.187   4.498  0.2721  0.3981 -0.3991
 6641SOL     OW31381   1.963   0.726   8.695 -0.1814  0.1046 -0.0909
 6641SOL    HW131382   2.022   0.653   8.712  1.6776  1.5714 -0.1638
 6641SOL    HW231383   1.887   0.689   8.651 -1.1752  0.9593  0.8798
 6642SOL     OW31384   4.018   3.316   8.798 -0.6342 -0.5087 -0.3469
 6642SOL    HW131385   4.044   3.321   8.706 -0.1695 -1.2453 -0.2488
 6642SOL    HW231386   3.932   3.350   8.775  0.1146  1.2566 -0.5376
 6643SOL     OW31387   0.502   3.492   9.261  0.1066 -0.0077 -0.1079
 6643SOL    HW131388   0.484   3.584   9.242 -1.6724 -0.6037 -1.3711
 6643SOL    HW231389   0.557   3.501   9.338  0.1017 -2.3655  0.1742
 6644SOL     OW31390   0.720   3.916   6.155 -0.4367 -0.3400 -0.4762
 6644SOL    HW131391   0.649   3.907   6.218 -0.5023 -1.4610 -0.7169
 6644SOL    HW231392   0.669   3.917   6.074 -1.8332  1.6069  0.4182
 6645SOL     OW31393   2.431   0.653   3.808 -0.3239  0.2471 -0.2786
 6645SOL    HW131394   2.478   0.682   3.730 -3.2482  2.1698 -1.2926
 6645SOL    HW231395   2.389   0.734   3.838  2.4226  1.2862  0.8193
 6646SOL     OW31396   3.250   4.426  11.406 -0.0264 -0.3631  0.4438
 6646SOL    HW131397   3.234   4.332  11.416 -1.2950 -0.1587  0.3519
 6646SOL    HW231398   3.181   4.458  11.464  0.6802 -0.8857  1.5562
 6647SOL     OW31399   1.454   1.353  15.148  0.1627 -0.3925  0.0502
 6647SOL    HW131400   1.410   1.323  15.228  1.4687 -1.9276  0.2031
 6647SOL    HW231401   1.546   1.366  15.171  0.4118 -0.9919 -0.5882
 6648SOL     OW31402   1.291   2.030  10.124 -0.1118  0.3007 -0.5834
 6648SOL    HW131403   1.274   1.938  10.105 -0.2436  0.1906  0.0915
 6648SOL    HW231404   1.227   2.056  10.190  1.7808  2.4023  0.4008
 6649SOL     OW31405   3.594   1.789  10.971  0.0107  0.3864  0.1997
 6649SOL    HW131406   3.565   1.700  10.949 -0.8338  1.2430 -2.2350
 6649SOL    HW231407   3.569   1.803  11.062 -0.6474  3.5979 -0.4643
 6650SOL     OW31408   0.227   4.446   2.961  0.0043  0.2987  0.7772
 6650SOL    HW131409   0.275   4.487   3.033  3.1272 -1.2731 -0.3970
 6650SOL    HW231410   0.164   4.514   2.939 -0.2451 -1.0242 -2.6213
 6651SOL     OW31411   3.035   0.608   4.950  0.1635  0.0313 -0.5000
 6651SOL    HW131412   3.027   0.703   4.953 -1.0104 -0.0208 -1.9053
 6651SOL    HW231413   2.949   0.573   4.927 -0.5984 -0.6807  3.4330
 6652SOL     OW31414   0.056   2.890   3.936 -0.6181 -0.2584  0.7738
 6652SOL    HW131415   0.050   2.983   3.915  0.5836 -0.6790 -1.4198
 6652SOL    HW231416   0.131   2.885   3.997  0.4125  0.9365 -0.3993
 6653SOL     OW31417   2.778   3.733   5.315 -0.0625  0.6176 -0.2787
 6653SOL    HW131418   2.753   3.662   5.374  0.4802  0.0877 -0.6906
 6653SOL    HW231419   2.855   3.695   5.273  1.6502  0.6256  2.8590
 6654SOL     OW31420   0.233   2.168   7.596  0.0847 -0.2895  0.7023
 6654SOL    HW131421   0.176   2.100   7.630 -0.8278 -1.0842 -2.4786
 6654SOL    HW231422   0.166   2.216   7.547  0.4247  0.6906  1.1819
 6655SOL     OW31423   1.624   0.780   9.305  0.6321 -0.2579  0.3661
 6655SOL    HW131424   1.623   0.856   9.246  1.7425 -0.5852 -0.0658
 6655SOL    HW231425   1.590   0.825   9.383 -0.2065 -2.3594  1.1984
 6656SOL     OW31426   0.207   1.305  10.503 -0.7233 -0.6154 -0.5528
 6656SOL    HW131427   0.147   1.238  10.536 -0.0226  0.1231  2.2461
 6656SOL    HW231428   0.292   1.285  10.542 -0.3489  1.1484 -0.4592
 6657SOL     OW31429   4.178   2.047   6.911 -0.4047  0.0868  0.0184
 6657SOL    HW131430   4.118   2.037   6.984  0.8928 -1.0994  0.9283
 6657SOL    HW231431   4.135   2.118   6.864 -2.0946 -0.9122  0.0428
 6658SOL     OW31432   0.280   2.641   2.725  0.4538  0.2241 -0.1857
 6658SOL    HW131433   0.302   2.725   2.684 -0.5787 -0.3789 -1.9477
 6658SOL    HW231434   0.258   2.589   2.648  0.0247  0.7335 -0.4084
 6659SOL     OW31435   4.560   3.844  13.786 -0.7824 -0.3422 -0.2009
 6659SOL    HW131436   4.609   3.762  13.797  1.3797  0.9226 -0.3453
 6659SOL    HW231437   4.534   3.858  13.876  2.0397  1.8357  0.2812
 6660SOL     OW31438   0.374   0.415  16.191 -0.8431 -0.3475 -0.0804
 6660SOL    HW131439   0.467   0.393  16.198 -0.1901  2.4101 -0.1066
 6660SOL    HW231440   0.367   0.425  16.096  0.4003  0.6706 -0.0720
 6661SOL     OW31441   2.779   2.056   9.217 -0.9460 -0.0372 -0.4378
 6661SOL    HW131442   2.757   2.075   9.308 -2.8061  0.3422 -0.9739
 6661SOL    HW231443   2.750   2.140   9.182  1.0002 -0.0760 -2.1693
 6662SOL     OW31444   1.022   1.615   4.035 -0.6495  0.3829  0.0059
 6662SOL    HW131445   0.958   1.546   4.052  0.8470 -1.2999 -1.0990
 6662SOL    HW231446   0.983   1.656   3.958 -2.3882 -1.9835 -0.3767
 6663SOL     OW31447   1.226   1.990   1.935  0.4328 -0.3202  0.1310
 6663SOL    HW131448   1.300   2.048   1.917 -0.0718 -0.1299 -1.3311
 6663SOL    HW231449   1.227   1.992   2.030  0.3247  3.3448  0.0393
 6664SOL     OW31450   0.746   4.068  14.404  0.4526 -0.1804 -0.0377
 6664SOL    HW131451   0.682   4.015  14.453  1.9858 -0.6002  1.5359
 6664SOL    HW231452   0.826   4.036  14.446 -0.1290 -1.5886 -0.0104
 6665SOL     OW31453   2.437   0.383   2.659 -0.0045  0.0956 -0.0654
 6665SOL    HW131454   2.499   0.401   2.729 -0.7589 -2.5478  1.3057
 6665SOL    HW231455   2.450   0.467   2.616  3.4666 -0.3079  0.2387
 6666SOL     OW31456   1.978   0.954  10.389 -0.4969  0.0189 -0.0163
 6666SOL    HW131457   2.073   0.951  10.378 -0.3098  0.5320  1.4745
 6666SOL    HW231458   1.963   1.025  10.452 -1.4984 -0.5117  0.3536
 6667SOL     OW31459   4.714   3.794   5.971 -0.3053  0.1170  0.2917
 6667SOL    HW131460   0.017   3.824   6.058  2.0116  0.8668 -0.6192
 6667SOL    HW231461   0.005   3.876   5.923 -0.8717 -0.6144 -1.1099
 6668SOL     OW31462   1.003   3.042   2.054  0.5133  0.1768 -0.2877
 6668SOL    HW131463   1.020   3.136   2.061 -1.5311  0.3617  2.2223
 6668SOL    HW231464   0.986   3.019   1.963 -0.0207  2.7869 -0.8367
 6669SOL     OW31465   2.717   1.884   7.811 -0.3640  0.3126  0.1282
 6669SOL    HW131466   2.720   1.795   7.846  0.0617  0.4367  0.4042
 6669SOL    HW231467   2.635   1.921   7.845  1.1409  1.7348  2.1645
 6670SOL     OW31468   2.724   3.036   4.388  0.3972  0.3204  0.3988
 6670SOL    HW131469   2.636   3.049   4.351  1.0519 -1.3939 -1.7205
 6670SOL    HW231470   2.776   3.007   4.314  1.6667  1.3710  0.8800
 6671SOL     OW31471   3.786   3.374   6.871 -0.4287  0.3034 -0.1077
 6671SOL    HW131472   3.881   3.370   6.881 -0.5533 -2.8779 -0.1597
 6671SOL    HW231473   3.754   3.443   6.928 -0.7339 -0.0139  0.1022
 6672SOL     OW31474   3.635   3.220   5.473 -1.0218  0.0945  0.1313
 6672SOL    HW131475   3.705   3.156   5.462 -0.1815  1.2275 -1.0767
 6672SOL    HW231476   3.647   3.263   5.388  0.2017 -0.8146 -0.1401
 6673SOL     OW31477   0.632   2.803   7.636  0.5737 -0.4025 -0.3353
 6673SOL    HW131478   0.667   2.870   7.577  0.5156 -0.6346 -0.6361
 6673SOL    HW231479   0.656   2.853   7.714 -1.8447 -1.5575  1.1275
 6674SOL     OW31480   1.782   4.585   8.081  0.0205  0.0096  0.0933
 6674SOL    HW131481   1.751   4.674   8.094  3.0366  0.9673  0.5328
 6674SOL    HW231482   1.876   4.599   8.080  0.2351 -1.4029  1.1248
 6675SOL     OW31483   0.787   3.041   0.731  0.6821 -0.6953  0.1192
 6675SOL    HW131484   0.725   3.064   0.800  2.2851  2.0093  0.6433
 6675SOL    HW231485   0.733   3.064   0.656 -0.5514 -0.5271  1.0502
 6676SOL     OW31486   0.643   0.196   2.999  0.5631 -0.0838 -0.1550
 6676SOL    HW131487   0.729   0.171   2.965  0.5902  0.8756 -0.7992
 6676SOL    HW231488   0.614   0.248   2.924 -0.4354 -1.7508 -0.9322
 6677SOL     OW31489   2.154   0.115   0.092  0.7877 -0.4010  0.3302
 6677SOL    HW131490   2.095   0.060   0.143  0.1570  0.6855  0.7840
 6677SOL    HW231491   2.155   0.066   0.010 -1.5316 -2.4858  1.5573
 6678SOL     OW31492   2.475   2.159   8.633  0.7326  0.3938 -0.1861
 6678SOL    HW131493   2.497   2.069   8.658  3.4488  1.3806  1.0102
 6678SOL    HW231494   2.563   2.197   8.629  0.6412  0.6403  0.1434
 6679SOL     OW31495   0.502   3.559   7.949 -0.5476  1.2060  0.7925
 6679SOL    HW131496   0.427   3.547   7.891  1.2891  1.6085 -1.6752
 6679SOL    HW231497   0.477   3.488   8.008 -2.4808  1.9828  0.9129
 6680SOL     OW31498   2.125   2.919   2.846  0.5215 -0.1448  0.0231
 6680SOL    HW131499   2.200   2.876   2.804 -0.1934 -1.5511  0.1835
 6680SOL    HW231500   2.092   2.856   2.910  2.6334  1.6705  2.9013
 6681SOL     OW31501   2.747   3.269   0.332  0.8555  0.4083 -0.1825
 6681SOL    HW131502   2.652   3.264   0.318  0.8517  0.3581 -0.1402
 6681SOL    HW231503   2.777   3.178   0.330  0.5984  0.3113  0.2705
 6682SOL     OW31504   4.657   2.712  12.465 -0.0736  0.8740 -0.0433
 6682SOL    HW131505   0.020   2.689  12.426  1.0876  0.3341  2.7626
 6682SOL    HW231506   4.658   2.808  12.463 -0.1001  0.9182  1.8297
 6683SOL     OW31507   3.433   3.910   8.818 -0.0011  0.2193  0.6276
 6683SOL    HW131508   3.435   3.995   8.773  1.5763  0.2949  0.8400
 6683SOL    HW231509   3.526   3.902   8.840 -0.0384  2.0036  1.4305
 6684SOL     OW31510   0.901   0.653   2.603 -0.6902 -0.0173 -0.1567
 6684SOL    HW131511   0.926   0.686   2.517 -0.7779  1.2645  0.3150
 6684SOL    HW231512   0.909   0.732   2.657  1.9452  0.1302 -0.7619
 6685SOL     OW31513   3.332   0.191  10.597 -0.7017  0.3694  0.6756
 6685SOL    HW131514   3.400   0.222  10.537 -2.5265  2.3916 -0.3560
 6685SOL    HW231515   3.346   0.096  10.602 -0.4404  0.5080  2.7333
 6686SOL     OW31516   2.804   0.606   7.808  0.4990  0.5245 -0.6575
 6686SOL    HW131517   2.787   0.610   7.714 -1.2151 -0.0822 -0.3647
 6686SOL    HW231518   2.839   0.695   7.816  1.8735 -0.0991  0.2993
 6687SOL     OW31519   1.689   4.165   0.164  0.3752  0.0374 -0.3611
 6687SOL    HW131520   1.773   4.121   0.155 -0.8031 -2.2400  0.0122
 6687SOL    HW231521   1.671   4.157   0.258  2.0961  0.6562  0.0238
 6688SOL     OW31522   1.342   4.535   6.497 -0.2186  0.1092  0.0950
 6688SOL    HW131523   1.350   4.589   6.418  1.7891 -2.5829 -1.5478
 6688SOL    HW231524   1.428   4.556   6.535  1.1818 -1.4856 -2.2059
 6689SOL     OW31525   2.738   1.617   4.009  0.0673  0.4532 -0.8052
 6689SOL    HW131526   2.659   1.578   3.972 -0.0895 -0.5282  0.5913
 6689SOL    HW231527   2.699   1.675   4.075  1.4154  1.3670 -0.8090
 6690SOL     OW31528   4.390   0.652   3.763 -0.5317 -0.0881  0.0022
 6690SOL    HW131529   4.384   0.558   3.750  0.3621 -0.4864  2.4776
 6690SOL    HW231530   4.339   0.686   3.690  0.4451 -1.0935 -1.1553
 6691SOL     OW31531   3.594   3.839  16.116 -0.0681 -0.7306 -0.2542
 6691SOL    HW131532   3.634   3.775  16.176  0.7650 -0.4566 -0.5185
 6691SOL    HW231533   3.622   3.922  16.155  1.3189 -1.4375  0.2710
 6692SOL     OW31534   2.858   3.253  12.677 -0.1248  0.2063  0.4430
 6692SOL    HW131535   2.785   3.191  12.666  0.9125 -1.0232  0.4526
 6692SOL    HW231536   2.858   3.258  12.772  0.2044 -0.3271  0.4717
 6693SOL     OW31537   1.757   4.212   5.247 -0.1604 -0.1080 -0.2469
 6693SOL    HW131538   1.770   4.278   5.179  0.3526 -0.2954 -0.3385
 6693SOL    HW231539   1.664   4.210   5.265 -0.2247  0.4075 -0.5161
 6694SOL     OW31540   3.755   0.573   7.028  0.7804  0.0400 -0.0325
 6694SOL    HW131541   3.736   0.523   6.949 -0.0251 -0.6547  0.6059
 6694SOL    HW231542   3.828   0.628   7.000  0.5699  0.3813  0.1010
 6695SOL     OW31543   1.893   0.917  11.184 -0.6607 -0.4220 -0.0292
 6695SOL    HW131544   1.837   0.869  11.246  2.7013 -2.8157  1.2302
 6695SOL    HW231545   1.928   0.844  11.133 -0.9804 -0.4711 -0.1769
 6696SOL     OW31546   2.778   2.396   3.075  0.1686 -0.0538  0.7198
 6696SOL    HW131547   2.713   2.465   3.070  0.9734  0.7845  1.8467
 6696SOL    HW231548   2.719   2.322   3.061 -1.8415  1.6107  0.4695
 6697SOL     OW31549   1.850   3.530   2.124 -0.1369  0.3864 -0.3701
 6697SOL    HW131550   1.944   3.549   2.120 -0.0836 -0.0043 -0.9502
 6697SOL    HW231551   1.829   3.478   2.201 -0.5471  1.4797  0.2467
 6698SOL     OW31552   2.908   2.851   5.670 -0.0629 -0.1594  0.7228
 6698SOL    HW131553   2.930   2.898   5.589  1.0724 -2.5800 -0.4090
 6698SOL    HW231554   2.813   2.857   5.665  0.1713  2.6331 -0.2522
 6699SOL     OW31555   0.966   4.274   1.458  0.2467 -0.0132 -0.0533
 6699SOL    HW131556   0.967   4.334   1.385 -0.8479 -0.2492 -0.2721
 6699SOL    HW231557   0.915   4.329   1.517 -0.0471  0.8319 -1.1057
 6700SOL     OW31558   0.946   0.867  11.032 -0.3462  0.2326 -0.6675
 6700SOL    HW131559   1.006   0.793  11.018  0.0580  0.0630  1.9865
 6700SOL    HW231560   1.001   0.933  11.075  0.7951  0.0645 -1.8615
 6701SOL     OW31561   3.908   1.801   3.106  0.0704 -0.6436  0.2283
 6701SOL    HW131562   3.919   1.714   3.066 -2.0465 -0.4334 -0.8201
 6701SOL    HW231563   3.821   1.822   3.070 -1.0770 -1.2701  2.6398
 6702SOL     OW31564   1.660   0.056   3.116  0.2046  0.0108  0.5515
 6702SOL    HW131565   1.597   0.050   3.044  0.2167  0.2605  0.5197
 6702SOL    HW231566   1.624   4.710   3.173  0.1380  0.7201  1.3593
 6703SOL     OW31567   2.489   4.070  12.627  0.5832 -0.1407 -0.1853
 6703SOL    HW131568   2.547   4.053  12.701  2.2049  1.8042 -1.0154
 6703SOL    HW231569   2.497   4.003  12.560  0.0675  1.3733 -1.7636
 6704SOL     OW31570   1.279   0.906   9.365  0.1670  0.7993  0.9665
 6704SOL    HW131571   1.335   0.972   9.406 -0.4464  0.8075  1.8036
 6704SOL    HW231572   1.193   0.909   9.408 -0.1737 -1.8164  0.4643
 6705SOL     OW31573   3.168   3.274   6.807 -0.3181  0.1183 -0.0865
 6705SOL    HW131574   3.183   3.266   6.901 -0.4967  1.0430  0.0158
 6705SOL    HW231575   3.102   3.206   6.792 -0.9147  0.4663  0.9844
 6706SOL     OW31576   4.194   2.571   4.647 -0.2796 -0.2125  0.2303
 6706SOL    HW131577   4.229   2.615   4.570  0.6338 -2.4831 -0.6496
 6706SOL    HW231578   4.278   2.535   4.676  0.0380  1.5580  1.5184
 6707SOL     OW31579   0.324   3.505  14.866 -0.0665 -0.0926  0.6656
 6707SOL    HW131580   0.412   3.501  14.828  0.2082 -0.6481  1.3681
 6707SOL    HW231581   0.329   3.599  14.885 -0.7815 -0.2129  1.4268
 6708SOL     OW31582   2.335   3.493   1.337 -0.4378 -0.1597  0.1568
 6708SOL    HW131583   2.355   3.408   1.296 -1.1849 -0.9278  1.3987
 6708SOL    HW231584   2.340   3.556   1.265  0.5872  0.6852  0.9632
 6709SOL     OW31585   2.776   2.051   3.348  0.1716  0.0872  0.1991
 6709SOL    HW131586   2.718   2.127   3.347 -0.4133 -0.3918 -2.0590
 6709SOL    HW231587   2.807   2.050   3.438 -0.3743  1.9706  0.4082
 6710SOL     OW31588   4.362   4.139   9.823 -0.1763  0.4795 -0.0461
 6710SOL    HW131589   4.437   4.198   9.827 -0.2573  0.6457 -1.1563
 6710SOL    HW231590   4.379   4.089   9.743 -0.3010 -0.4379  0.4915
 6711SOL     OW31591   3.804   1.083   0.259  0.3610  0.4610 -0.4010
 6711SOL    HW131592   3.835   1.169   0.232 -1.1850  0.4877 -2.0815
 6711SOL    HW231593   3.738   1.059   0.194  0.2044  1.6003 -0.6559
 6712SOL     OW31594   0.683   2.271   5.174 -0.6293  0.2998 -0.1777
 6712SOL    HW131595   0.683   2.365   5.192  0.2685  0.0866  0.9625
 6712SOL    HW231596   0.779   2.264   5.180 -0.8089 -1.0921  1.0395
 6713SOL     OW31597   0.573   2.046   2.180  0.1452  0.0395 -0.0279
 6713SOL    HW131598   0.506   2.051   2.112  1.0789  0.6735 -0.9029
 6713SOL    HW231599   0.643   1.994   2.140 -0.3909 -0.7763  0.1090
 6714SOL     OW31600   4.099   3.596  16.914  0.1087 -0.1241 -0.3124
 6714SOL    HW131601   4.176   3.621  16.966 -1.4015  1.1222  1.3308
 6714SOL    HW231602   4.036   3.665  16.937  1.3427  1.9993 -3.2872
 6715SOL     OW31603   0.670   0.376   9.144  0.2657 -0.5505 -0.5507
 6715SOL    HW131604   0.764   0.364   9.130  0.4556  0.6883 -0.3712
 6715SOL    HW231605   0.641   0.318   9.074 -0.7240 -1.6242  0.7591
 6716SOL     OW31606   0.923   3.272   7.309  0.0084 -0.0351  0.2517
 6716SOL    HW131607   0.960   3.223   7.382  2.7535 -0.1273 -1.1808
 6716SOL    HW231608   0.832   3.243   7.307 -0.2419  0.8105 -0.6564
 6717SOL     OW31609   0.382   3.468   2.359 -0.2943  0.1969 -0.4864
 6717SOL    HW131610   0.316   3.537   2.364  0.2295  0.6144  0.5198
 6717SOL    HW231611   0.450   3.527   2.327  0.1620 -0.0511  0.0285
 6718SOL     OW31612   0.077   1.461  15.739  0.1629 -0.1451 -0.1003
 6718SOL    HW131613   0.003   1.521  15.729  0.5223  0.3307  0.1119
 6718SOL    HW231614   0.147   1.517  15.705 -0.9195  0.2903 -1.6088
 6719SOL     OW31615   1.024   2.808   4.152  0.4471  0.4181 -0.0251
 6719SOL    HW131616   1.070   2.773   4.228  1.1410  0.4892 -0.4114
 6719SOL    HW231617   0.934   2.798   4.183  0.5610 -0.9886 -0.1417
 6720SOL     OW31618   0.185   3.079   4.590 -0.5558  0.2491 -0.3379
 6720SOL    HW131619   0.219   3.165   4.566 -0.0849 -0.5256 -2.4433
 6720SOL    HW231620   0.234   3.029   4.524 -1.8747 -3.0473  1.1737
 6721SOL     OW31621   4.212   4.146  13.960  0.3443 -0.3412  0.4783
 6721SOL    HW131622   4.307   4.159  13.960 -0.1425  3.4389  0.8135
 6721SOL    HW231623   4.195   4.099  13.878  1.6307  1.6296 -0.9244
 6722SOL     OW31624   0.911   2.208   5.480  0.8559 -0.3015  0.5401
 6722SOL    HW131625   0.820   2.226   5.505  0.2403 -1.7929 -0.6648
 6722SOL    HW231626   0.939   2.297   5.457 -2.1466  0.7364  0.9221
 6723SOL     OW31627   0.370   2.887   7.093  0.5222 -0.1985 -0.6455
 6723SOL    HW131628   0.369   2.859   7.002 -1.7448 -0.5626 -0.5066
 6723SOL    HW231629   0.309   2.827   7.136  0.3928  0.4888  0.1474
 6724SOL     OW31630   1.941   4.346   0.771  0.0831  0.5843 -0.7314
 6724SOL    HW131631   1.956   4.325   0.679 -0.2290  1.1843 -0.9224
 6724SOL    HW231632   2.013   4.303   0.818 -1.5673 -1.7408 -0.3180
 6725SOL     OW31633   2.492   2.958   4.218  0.3167  0.0890  0.2784
 6725SOL    HW131634   2.401   2.962   4.190  0.0417  0.3105  1.1967
 6725SOL    HW231635   2.536   2.904   4.152  0.5213  1.1930 -0.4939
 6726SOL     OW31636   1.042   0.691   6.739  0.4949  0.2079 -0.0561
 6726SOL    HW131637   1.002   0.750   6.675  1.7011 -0.2853 -1.2685
 6726SOL    HW231638   0.999   0.715   6.821  2.2281 -0.6129  1.1039
 6727SOL     OW31639   2.265   3.533  11.661 -0.4318 -0.0576 -0.1457
 6727SOL    HW131640   2.336   3.494  11.610 -0.1250 -0.8145  0.8805
 6727SOL    HW231641   2.242   3.452  11.705 -0.7363  1.2146  2.0235
 6728SOL     OW31642   0.890   3.542   7.051 -0.4108 -0.1465 -0.3346
 6728SOL    HW131643   0.948   3.541   6.975  0.7875 -0.2990  0.5849
 6728SOL    HW231644   0.804   3.556   7.012  0.0751  1.2667 -0.8755
 6729SOL     OW31645   1.375   4.469   9.868  0.2557 -0.2435  0.0462
 6729SOL    HW131646   1.363   4.474   9.773  2.0980 -0.9213 -0.2022
 6729SOL    HW231647   1.283   4.479   9.893 -0.2926 -1.8373 -1.2798
 6730SOL     OW31648   0.780   4.130   4.684  0.0033  0.1519  0.2628
 6730SOL    HW131649   0.793   4.056   4.625  0.1641 -0.4146  1.0204
 6730SOL    HW231650   0.714   4.188   4.645 -0.7654 -0.2594  0.9562
 6731SOL     OW31651   3.298   4.616  12.251  0.8800  0.1969 -0.2717
 6731SOL    HW131652   3.346   4.645  12.173 -0.6658 -0.1777 -1.3630
 6731SOL    HW231653   3.337   4.529  12.263  0.8947  0.3906  1.0700
 6732SOL     OW31654   4.302   0.503   7.258  0.0546  0.2076 -0.1721
 6732SOL    HW131655   4.261   0.418   7.242 -0.1342  0.5723 -1.6083
 6732SOL    HW231656   4.230   0.565   7.245  0.4940  1.0209  1.2108
 6733SOL     OW31657   0.131   3.215   0.013 -0.2090 -0.1030  0.2939
 6733SOL    HW131658   0.091   3.263  17.629  1.4189  1.0874  0.1730
 6733SOL    HW231659   0.215   3.261   0.014  0.4324 -1.2793  1.7731
 6734SOL     OW31660   3.629   1.177   7.801 -0.4134  0.1400  0.3255
 6734SOL    HW131661   3.640   1.085   7.778  1.8791  0.0310  1.8733
 6734SOL    HW231662   3.646   1.174   7.895 -1.7312 -0.7545  0.5420
 6735SOL     OW31663   1.032   1.433   1.958  0.1682 -0.7371  0.1635
 6735SOL    HW131664   1.049   1.422   1.864 -3.1746 -1.6846 -0.3263
 6735SOL    HW231665   1.072   1.357   2.000 -0.1447 -0.8764  0.2068
 6736SOL     OW31666   2.739   0.631   3.807  0.2841  0.0493 -0.6441
 6736SOL    HW131667   2.747   0.553   3.861  0.9647 -0.1585 -1.0446
 6736SOL    HW231668   2.812   0.623   3.745  0.4683  1.4566 -0.6092
 6737SOL     OW31669   2.075   0.600   2.726  0.1043 -0.1120  0.5096
 6737SOL    HW131670   2.046   0.549   2.651  1.7095  0.3828 -0.4546
 6737SOL    HW231671   2.146   0.639   2.675 -0.7459  3.3832  1.9908
 6738SOL     OW31672   1.313   1.171  12.159 -0.2806 -0.1991  0.5254
 6738SOL    HW131673   1.275   1.086  12.181 -1.4547 -0.2424 -1.6538
 6738SOL    HW231674   1.405   1.155  12.138  0.4728  2.4578  1.7769
 6739SOL     OW31675   4.528   3.843   4.980 -0.0395  0.3241  0.0007
 6739SOL    HW131676   4.494   3.780   5.043 -0.9615  1.1858  0.3746
 6739SOL    HW231677   4.578   3.897   5.041  0.2554  0.0857 -0.0297
 6740SOL     OW31678   0.066   0.213   2.505  0.0452  0.1826  0.0574
 6740SOL    HW131679   0.112   0.136   2.538  0.7436  1.0492  1.1061
 6740SOL    HW231680   0.058   0.193   2.412  1.7587 -1.8297  0.3274
 6741SOL     OW31681   1.100   1.489   9.026  0.3038  0.0518 -0.1665
 6741SOL    HW131682   1.024   1.548   9.032  1.9696  2.4240 -2.5324
 6741SOL    HW231683   1.160   1.525   9.091  1.4319 -0.9897 -0.6451
 6742SOL     OW31684   2.496   3.040   5.132 -0.3477 -0.4209 -0.4685
 6742SOL    HW131685   2.454   3.103   5.074 -0.5548  0.3210  0.4831
 6742SOL    HW231686   2.442   2.961   5.136 -3.0609  1.4088 -1.3363
 6743SOL     OW31687   4.327   1.545  15.336  0.4676 -0.5439 -0.2335
 6743SOL    HW131688   4.408   1.493  15.332  3.1233  3.4099  2.4455
 6743SOL    HW231689   4.266   1.501  15.277 -2.1725  2.2156  0.4141
 6744SOL     OW31690   3.508   0.694   8.051 -0.1636  0.0522  0.5706
 6744SOL    HW131691   3.552   0.736   8.125  0.2660  1.3854 -0.4516
 6744SOL    HW231692   3.419   0.714   8.081 -0.4968 -0.7331  0.0924
 6745SOL     OW31693   1.429   1.247   5.888 -0.3418  0.1170 -0.6914
 6745SOL    HW131694   1.408   1.312   5.955  0.4046  2.0755 -2.3802
 6745SOL    HW231695   1.399   1.281   5.804 -0.2069 -0.2210 -0.8788
 6746SOL     OW31696   2.864   3.879   4.268 -0.2024  0.1016  0.0214
 6746SOL    HW131697   2.898   3.831   4.192 -0.3737 -1.3181  0.8353
 6746SOL    HW231698   2.807   3.811   4.303  0.6594  0.4924  2.2136
 6747SOL     OW31699   0.435   1.503   6.153  0.0105  0.0596 -0.5939
 6747SOL    HW131700   0.473   1.513   6.065  0.1726  0.9245 -0.4188
 6747SOL    HW231701   0.378   1.579   6.163 -0.9138 -0.9140  1.4093
 6748SOL     OW31702   2.703   0.871  10.664  0.3370  0.1500 -0.2556
 6748SOL    HW131703   2.663   0.786  10.683  0.0015  0.6184  1.1133
 6748SOL    HW231704   2.683   0.912  10.748  0.9135 -0.2248  0.0709
 6749SOL     OW31705   3.723   3.413  14.131  0.2475 -0.0191 -0.2047
 6749SOL    HW131706   3.743   3.326  14.166 -3.5397 -2.3988 -3.9022
 6749SOL    HW231707   3.715   3.461  14.214  0.2565  0.7274 -0.6358
 6750SOL     OW31708   3.285   0.290   9.231  0.3003 -0.2547  0.2513
 6750SOL    HW131709   3.356   0.302   9.294 -0.7862  1.0984  1.2070
 6750SOL    HW231710   3.330   0.275   9.148  1.2842 -1.6206  1.0380
 6751SOL     OW31711   3.983   1.329   4.207 -0.1942  0.5385 -0.2411
 6751SOL    HW131712   3.906   1.376   4.175 -0.3908  0.5983  0.3152
 6751SOL    HW231713   3.934   1.255   4.244 -1.1358  0.3145 -1.9570
 6752SOL     OW31714   4.137   1.848  10.064  0.1402 -0.4418 -0.1923
 6752SOL    HW131715   4.126   1.755  10.046 -2.2754 -0.3581  0.7800
 6752SOL    HW231716   4.177   1.879   9.983 -2.7440  2.8150 -0.3660
 6753SOL     OW31717   2.529   1.841   2.120  0.0209  0.6908  0.2511
 6753SOL    HW131718   2.565   1.783   2.052 -0.0686 -0.5677  1.2612
 6753SOL    HW231719   2.602   1.848   2.181 -0.7315 -0.1169  1.2497
 6754SOL     OW31720   2.006   4.577   4.555  0.2936  0.4658  0.5028
 6754SOL    HW131721   1.950   4.655   4.549  0.2904  0.4653  0.5250
 6754SOL    HW231722   2.083   4.614   4.598  0.3044  1.6389 -0.5401
 6755SOL     OW31723   4.312   1.962  10.523  0.5721 -0.1757  0.0810
 6755SOL    HW131724   4.231   1.955  10.471 -0.5327  0.2260  1.7347
 6755SOL    HW231725   4.323   1.872  10.554 -1.2836  0.0157  1.3327
 6756SOL     OW31726   3.586   4.003   2.165  0.8942  0.7011  0.8492
 6756SOL    HW131727   3.528   4.075   2.141  1.1679  0.7382  0.2984
 6756SOL    HW231728   3.598   3.956   2.082  0.1829 -0.1806  1.2528
 6757SOL     OW31729   3.554   3.304   6.459 -0.7392  0.0177  0.2950
 6757SOL    HW131730   3.506   3.223   6.480 -0.9561  0.6190  2.1209
 6757SOL    HW231731   3.544   3.354   6.540 -1.3435 -0.5928  0.5995
 6758SOL     OW31732   4.231   3.615   2.049  0.0305  0.2653 -0.3985
 6758SOL    HW131733   4.321   3.645   2.041 -0.2215  1.0572 -0.2321
 6758SOL    HW231734   4.184   3.697   2.061  0.9527  1.2997 -3.9098
 6759SOL     OW31735   0.180   0.233  15.918 -0.1125  0.2145  0.1932
 6759SOL    HW131736   0.169   0.224  16.012 -0.4189 -0.1167  0.1225
 6759SOL    HW231737   0.088   0.226  15.895 -0.2744  1.2189  0.5406
 6760SOL     OW31738   1.675   1.473   5.112 -0.0427 -0.0322 -0.0509
 6760SOL    HW131739   1.647   1.562   5.133 -0.4676 -0.2954  0.5016
 6760SOL    HW231740   1.764   1.477   5.146 -0.8556  0.7265  2.0329
 6761SOL     OW31741   1.846   4.238   3.259 -0.3137 -0.0251  0.1266
 6761SOL    HW131742   1.760   4.232   3.217 -0.6934  1.9347  0.6092
 6761SOL    HW231743   1.823   4.213   3.348  1.0350  1.9815  1.0402
 6762SOL     OW31744   4.006   0.617   1.713 -0.3601  0.6828 -0.3547
 6762SOL    HW131745   4.044   0.692   1.759  0.5472 -0.2830  0.4738
 6762SOL    HW231746   3.911   0.626   1.715 -0.5503 -1.5963  0.5527
 6763SOL     OW31747   2.437   4.548   7.778 -0.0382  0.1844 -0.2545
 6763SOL    HW131748   2.360   4.496   7.755  1.5406 -2.6204  0.7239
 6763SOL    HW231749   2.432   4.624   7.719 -2.4991 -0.0660 -0.3892
 6764SOL     OW31750   1.048   3.395   1.087 -0.1473 -0.0601  0.2380
 6764SOL    HW131751   1.105   3.470   1.071 -0.0837 -0.0763  0.3846
 6764SOL    HW231752   1.031   3.380   0.994  0.5533  0.8265 -0.0404
 6765SOL     OW31753   3.200   4.207   0.742 -0.4385  0.3914 -0.1621
 6765SOL    HW131754   3.153   4.132   0.778 -1.5308  0.8803 -0.5715
 6765SOL    HW231755   3.142   4.276   0.776 -0.9300 -1.1536  2.1260
 6766SOL     OW31756   1.301   0.163  16.118  0.2438 -0.0182  0.1400
 6766SOL    HW131757   1.233   0.230  16.113  0.8688  0.7850  2.4051
 6766SOL    HW231758   1.324   0.149  16.026  0.3547 -0.6289  0.2666
 6767SOL     OW31759   0.543   3.281   3.149  0.3031  0.1049 -0.0139
 6767SOL    HW131760   0.516   3.201   3.194 -1.3632  0.2066 -0.8211
 6767SOL    HW231761   0.499   3.275   3.064 -1.3487 -2.0374  1.0073
 6768SOL     OW31762   2.626   2.277   9.036 -0.0071 -0.0308  0.1818
 6768SOL    HW131763   2.715   2.289   9.069 -0.4085  0.1332  1.1852
 6768SOL    HW231764   2.585   2.361   9.059  1.1346  0.9109 -1.2326
 6769SOL     OW31765   4.255   4.676   0.630  0.1048 -0.1699  0.2011
 6769SOL    HW131766   4.231   0.006   0.552 -1.1446 -2.1260 -0.6884
 6769SOL    HW231767   4.318   0.007   0.679  1.9935 -0.7535 -1.6151
 6770SOL     OW31768   1.680   4.142   0.440  0.2116 -0.1082 -0.2607
 6770SOL    HW131769   1.765   4.105   0.464  0.6551  2.6533  2.4381
 6770SOL    HW231770   1.612   4.076   0.456  1.2034 -0.9648  0.4086
 6771SOL     OW31771   0.986   2.373   9.467  0.2825  0.3613 -0.1409
 6771SOL    HW131772   0.909   2.429   9.460  0.6727  1.3997  3.9682
 6771SOL    HW231773   1.049   2.440   9.442  1.2949  0.4089  2.6212
 6772SOL     OW31774   1.386   3.671   8.646 -0.1142  0.2109 -0.4855
 6772SOL    HW131775   1.448   3.611   8.603  0.8217  1.3218 -0.6828
 6772SOL    HW231776   1.427   3.664   8.732  0.7126 -1.0937 -0.9888
 6773SOL     OW31777   3.021   0.180   6.820 -0.3195  0.0436  0.5063
 6773SOL    HW131778   3.017   0.244   6.749 -3.1704 -3.2704 -2.3389
 6773SOL    HW231779   3.036   0.098   6.773 -1.1339  1.3549 -2.0328
 6774SOL     OW31780   0.987   1.124   9.389 -0.0167  0.1005  0.2614
 6774SOL    HW131781   0.892   1.125   9.400 -0.0815 -3.6481  0.1197
 6774SOL    HW231782   1.026   1.129   9.477  0.8117 -1.6946  0.0048
 6775SOL     OW31783   0.192   0.425   1.687 -0.0729  0.3150  0.0114
 6775SOL    HW131784   0.112   0.477   1.694  0.1228  0.8789 -1.7518
 6775SOL    HW231785   0.170   0.335   1.709  0.2280 -0.0565 -1.1846
 6776SOL     OW31786   0.337   1.270   6.285 -0.4378 -0.1752  0.1836
 6776SOL    HW131787   0.274   1.232   6.224  0.1763 -1.9366  0.6632
 6776SOL    HW231788   0.377   1.335   6.227  2.5284 -0.6109  1.6983
 6777SOL     OW31789   2.764   2.206   4.207  0.0148  0.0814 -0.2013
 6777SOL    HW131790   2.697   2.265   4.242  3.2782  2.6822  1.6931
 6777SOL    HW231791   2.780   2.252   4.125  1.6021 -1.0027 -0.5076
 6778SOL     OW31792   3.892   4.040  15.272  0.2100  0.3272 -0.6312
 6778SOL    HW131793   3.826   4.014  15.337  1.0506  0.6195  0.3408
 6778SOL    HW231794   3.913   4.128  15.304  0.1968  0.5677 -1.2751
 6779SOL     OW31795   0.130   2.656   7.581 -0.1829  0.0225  0.1821
 6779SOL    HW131796   0.112   2.567   7.612  1.1504 -0.6481 -0.9691
 6779SOL    HW231797   0.205   2.685   7.632  0.4882 -2.3896  0.5669
 6780SOL     OW31798   4.139   3.177   5.982 -0.2291 -0.5956  0.0841
 6780SOL    HW131799   4.176   3.142   6.063 -0.6924 -0.6951  0.2522
 6780SOL    HW231800   4.052   3.208   6.008 -0.8761 -0.6899 -1.9570
 6781SOL     OW31801   0.439   4.252   7.359  0.1099  0.5098 -0.2237
 6781SOL    HW131802   0.463   4.338   7.393  0.1277  0.6281 -0.5396
 6781SOL    HW231803   0.355   4.283   7.326  0.3324  2.5588  1.1137
 6782SOL     OW31804   1.844   2.537   3.262 -0.5090 -0.0475  0.7081
 6782SOL    HW131805   1.919   2.507   3.211  0.3628  1.7890  0.8967
 6782SOL    HW231806   1.853   2.631   3.248  2.2240  0.1421  3.7100
 6783SOL     OW31807   2.146   3.502   4.255 -0.2225  0.2650 -0.3339
 6783SOL    HW131808   2.192   3.522   4.173 -0.5424 -0.4194 -0.6753
 6783SOL    HW231809   2.216   3.464   4.309 -2.3980 -3.8851 -0.4643
 6784SOL     OW31810   2.880   2.994   5.902  0.1797 -0.2132  0.1107
 6784SOL    HW131811   2.938   2.955   5.836 -0.3268  0.6777 -0.8469
 6784SOL    HW231812   2.831   2.918   5.933  0.9594 -0.6185  0.3644
 6785SOL     OW31813   3.142   2.154   0.402 -0.3079  0.4177 -0.0176
 6785SOL    HW131814   3.223   2.153   0.350  1.0548 -1.1225  2.1370
 6785SOL    HW231815   3.105   2.067   0.383 -0.3138  0.5471 -0.6160
 6786SOL     OW31816   1.289   0.943   7.731  0.2607 -0.4237 -0.2345
 6786SOL    HW131817   1.219   0.936   7.796 -0.8731 -1.3470 -1.5797
 6786SOL    HW231818   1.363   0.959   7.790 -0.5681 -1.8130  1.2009
 6787SOL     OW31819   4.014   2.723   5.735 -0.1270 -0.1919 -0.6640
 6787SOL    HW131820   4.054   2.666   5.669 -0.4517  0.5048 -1.4630
 6787SOL    HW231821   4.065   2.803   5.724  0.0306 -0.3038 -0.7346
 6788SOL     OW31822   0.921   3.764   0.614 -0.3600  0.2861  0.3848
 6788SOL    HW131823   0.912   3.779   0.709 -1.3282 -1.4898  0.5843
 6788SOL    HW231824   0.848   3.701   0.607  0.4659 -0.7945  1.3579
 6789SOL     OW31825   2.578   4.223   5.647  0.1268 -0.3939  0.1138
 6789SOL    HW131826   2.489   4.190   5.658 -0.2958  0.6036 -0.3004
 6789SOL    HW231827   2.583   4.298   5.706  0.7457 -0.1632 -0.2245
 6790SOL     OW31828   2.689   4.255   0.027 -0.0793  0.1876 -0.2832
 6790SOL    HW131829   2.644   4.336   0.001 -2.4137 -1.3900 -1.1318
 6790SOL    HW231830   2.613   4.198   0.041  0.5712 -0.4847  0.4198
 6791SOL     OW31831   1.501   0.169   6.755  0.2528  0.1037 -0.1160
 6791SOL    HW131832   1.443   0.181   6.680  1.6580  1.7599 -0.9430
 6791SOL    HW231833   1.513   0.263   6.771  0.5889 -0.4649  2.9272
 6792SOL     OW31834   2.165   2.801  13.137 -0.0290  0.4561  0.5190
 6792SOL    HW131835   2.091   2.815  13.196 -2.2535 -4.4747 -1.1005
 6792SOL    HW231836   2.232   2.766  13.196  0.7286 -0.3866 -0.8167
 6793SOL     OW31837   0.146   3.829   6.542  0.2813 -0.2811  0.3264
 6793SOL    HW131838   0.065   3.859   6.584 -0.2891 -0.7302 -0.4507
 6793SOL    HW231839   0.139   3.738   6.571 -1.5308 -0.0068  0.7533
 6794SOL     OW31840   2.119   1.393   0.685  0.1337  0.0702 -0.0309
 6794SOL    HW131841   2.132   1.450   0.761  1.0030 -0.6295  0.3527
 6794SOL    HW231842   2.210   1.366   0.671  0.8140  1.1587  2.2476
 6795SOL     OW31843   2.646   3.399   1.910 -0.0542 -0.1336  0.3253
 6795SOL    HW131844   2.555   3.385   1.881 -0.2637  0.7249  0.5924
 6795SOL    HW231845   2.654   3.493   1.898 -3.2707 -0.0892 -1.6251
 6796SOL     OW31846   3.646   3.812   5.324 -0.1095  0.1692  0.2595
 6796SOL    HW131847   3.602   3.863   5.255 -1.4785 -0.7075  0.4729
 6796SOL    HW231848   3.574   3.817   5.387 -1.8068 -1.9140 -1.4887
 6797SOL     OW31849   1.691   1.115  16.072  0.3395 -0.6310 -0.4418
 6797SOL    HW131850   1.649   1.043  16.023  0.9939 -1.0020 -0.4518
 6797SOL    HW231851   1.614   1.171  16.082  1.6339  0.9082  0.7530
 6798SOL     OW31852   1.374   0.634   9.340  0.2578  0.3747  0.1390
 6798SOL    HW131853   1.467   0.656   9.331  0.3404  0.1001  0.3292
 6798SOL    HW231854   1.338   0.722   9.342 -1.0400 -0.1656  0.4688
 6799SOL     OW31855   0.797   1.058  16.148  0.5255  0.6581 -0.1071
 6799SOL    HW131856   0.778   0.974  16.107  4.1274  0.0943 -0.6158
 6799SOL    HW231857   0.878   1.040  16.195 -0.2567 -2.1367  0.1715
 6800SOL     OW31858   3.498   3.167   5.880  0.3186 -0.2987 -0.0620
 6800SOL    HW131859   3.515   3.242   5.822  0.5909  0.2219  0.6865
 6800SOL    HW231860   3.490   3.207   5.966  1.9057  1.0338 -0.5125
 6801SOL     OW31861   0.666   3.974  16.620  0.1755 -0.2458  0.0248
 6801SOL    HW131862   0.710   4.059  16.625  0.8042 -0.6551  1.4147
 6801SOL    HW231863   0.610   3.986  16.697  1.0971  3.6852  0.0822
 6802SOL     OW31864   1.361   4.233   2.833  0.4609  0.0647  0.1040
 6802SOL    HW131865   1.430   4.280   2.786  1.2878 -2.3368 -1.0637
 6802SOL    HW231866   1.298   4.224   2.762 -0.4460 -1.2566  1.0842
 6803SOL     OW31867   2.577   0.191   5.396 -0.0103 -0.3148 -0.0681
 6803SOL    HW131868   2.663   0.223   5.370 -0.7421  0.7956 -1.0742
 6803SOL    HW231869   2.592   0.098   5.417  0.1915 -0.4777 -0.9367
 6804SOL     OW31870   1.384   4.148   0.549 -0.0854 -0.7770 -0.3734
 6804SOL    HW131871   1.346   4.213   0.491 -1.6397 -1.8610 -0.5833
 6804SOL    HW231872   1.415   4.204   0.620  0.3621 -0.5966 -0.7121
 6805SOL     OW31873   0.695   1.007   3.098  0.3538 -0.1137 -0.2250
 6805SOL    HW131874   0.773   0.958   3.075  0.7627 -0.2521  1.4553
 6805SOL    HW231875   0.726   1.097   3.083 -0.6526  0.2440 -0.1623
 6806SOL     OW31876   2.799   2.841  11.670  0.6552 -0.5119 -0.3139
 6806SOL    HW131877   2.715   2.886  11.675 -0.0517 -1.8293 -0.4081
 6806SOL    HW231878   2.837   2.892  11.741  1.7569 -1.4093 -0.2587
 6807SOL     OW31879   1.816   4.084   2.094  0.6000  0.8788 -0.3011
 6807SOL    HW131880   1.800   3.993   2.119  2.4056  0.9705  1.1948
 6807SOL    HW231881   1.872   4.111   2.167  0.6000 -0.6493  0.2544
 6808SOL     OW31882   3.965   3.974  16.134  0.2830  0.2131 -0.5953
 6808SOL    HW131883   3.923   3.933  16.210  0.4319 -0.8220 -1.0707
 6808SOL    HW231884   4.034   3.908  16.125  0.7177  0.5764  0.0842
 6809SOL     OW31885   1.445   3.864   0.584  0.4045  0.2326  0.0811
 6809SOL    HW131886   1.471   3.830   0.669 -2.1202  1.3408  1.3023
 6809SOL    HW231887   1.421   3.955   0.603 -0.2510 -0.0124  0.4301
 6810SOL     OW31888   0.356   4.033   4.966  0.0438  0.0929  0.3100
 6810SOL    HW131889   0.349   4.113   5.019 -0.5518 -0.9508  1.8200
 6810SOL    HW231890   0.262   4.014   4.975  0.1630  0.4604  2.5396
 6811SOL     OW31891   0.828   1.384   1.246  0.3047  0.0308 -0.0343
 6811SOL    HW131892   0.871   1.383   1.161  2.9162 -0.3675  1.2722
 6811SOL    HW231893   0.774   1.462   1.239  1.1726  0.5115 -1.3434
 6812SOL     OW31894   0.427   4.667   8.859 -0.4142  0.5283 -0.7299
 6812SOL    HW131895   0.349   4.611   8.860 -0.4567  0.5922 -0.5079
 6812SOL    HW231896   0.491   4.595   8.858 -0.8763  0.1072  1.4996
 6813SOL     OW31897   1.224   3.746   5.456 -0.0925 -0.1167  0.0178
 6813SOL    HW131898   1.148   3.787   5.415  0.5318  2.5006  1.5395
 6813SOL    HW231899   1.296   3.780   5.404  0.9230 -1.3432  0.6204
 6814SOL     OW31900   3.214   0.957   7.253 -0.1546  0.2276 -0.2902
 6814SOL    HW131901   3.307   0.968   7.271  0.0504 -0.3969 -0.9461
 6814SOL    HW231902   3.212   0.935   7.160 -1.9679  1.4442 -0.5302
 6815SOL     OW31903   2.304   3.750   4.128 -0.4410 -0.9018  0.0356
 6815SOL    HW131904   2.293   3.845   4.122  0.1013 -0.8648 -0.3837
 6815SOL    HW231905   2.215   3.725   4.101 -1.1517  0.9736  0.6950
 6816SOL     OW31906   0.654   3.024   6.260 -0.2081  0.2813  0.1491
 6816SOL    HW131907   0.587   3.050   6.197  1.0326 -1.6244 -1.9147
 6816SOL    HW231908   0.601   2.979   6.326  2.0775 -1.1633  0.9918
 6817SOL     OW31909   2.820   3.273  16.188 -0.2341 -0.1378  0.6445
 6817SOL    HW131910   2.725   3.263  16.181 -0.0878 -1.4086  0.5542
 6817SOL    HW231911   2.848   3.260  16.097 -0.5199  0.9755  0.3951
 6818SOL     OW31912   1.017   3.532  17.327  0.3130  0.3825  0.2361
 6818SOL    HW131913   1.058   3.473  17.265 -1.0557  1.0949 -1.3358
 6818SOL    HW231914   1.020   3.483  17.410 -0.2854 -0.6264 -0.3323
 6819SOL     OW31915   2.922   3.841  17.664 -0.0665  0.5221  0.3170
 6819SOL    HW131916   2.906   3.747  17.661  0.4459  0.3793  2.1897
 6819SOL    HW231917   2.859   3.873  17.598 -0.4620 -0.1046  0.3939
 6820SOL     OW31918   4.019   3.015   8.999 -0.4822 -0.3125 -1.1461
 6820SOL    HW131919   4.047   2.933   9.040  0.6650 -0.8870 -3.0432
 6820SOL    HW231920   3.966   2.974   8.930 -0.1104 -2.8515  0.0729
 6821SOL     OW31921   4.664   2.982   0.100  0.1528 -0.1960 -0.0361
 6821SOL    HW131922   4.667   2.976   0.005  0.3274  0.6649 -0.0773
 6821SOL    HW231923   4.624   2.897   0.120 -0.9529  0.3173 -0.0758
 6822SOL     OW31924   2.090   1.172   6.578 -0.2213 -0.2233  0.4357
 6822SOL    HW131925   2.031   1.246   6.568  0.7495  0.3155 -1.4160
 6822SOL    HW231926   2.040   1.108   6.527  0.4902 -0.5802  0.1759
 6823SOL     OW31927   0.471   1.013   2.489  0.0316  0.0804 -0.2927
 6823SOL    HW131928   0.459   1.037   2.397 -3.9136  0.9567  0.4531
 6823SOL    HW231929   0.416   1.080   2.529 -0.4683 -0.0450 -0.7724
 6824SOL     OW31930   2.920   4.281  14.249  0.0487  0.1881 -1.0729
 6824SOL    HW131931   2.879   4.274  14.164 -0.0066  1.4029 -1.1487
 6824SOL    HW231932   2.993   4.343  14.242 -0.4579  0.9162  0.0300
 6825SOL     OW31933   4.642   2.882   8.018  0.3272 -0.1390 -0.4613
 6825SOL    HW131934   4.631   2.803   7.966  0.3053  0.1682 -0.9215
 6825SOL    HW231935   4.594   2.866   8.099  1.7199 -2.0204 -0.0017
 6826SOL     OW31936   4.592   4.132  17.276  0.0823 -0.2729  0.2871
 6826SOL    HW131937   4.519   4.113  17.335  0.3622  0.8174  0.9925
 6826SOL    HW231938   4.569   4.085  17.196 -1.9094 -0.5285  0.9934
 6827SOL     OW31939   4.006   0.794  16.136  0.4587  0.0232  0.2300
 6827SOL    HW131940   3.958   0.875  16.117 -0.6129  0.1889  3.7636
 6827SOL    HW231941   3.975   0.736  16.067 -1.6806 -0.9636  2.0205
 6828SOL     OW31942   1.148   1.025  16.942 -0.0652  0.4004 -0.0636
 6828SOL    HW131943   1.188   1.055  17.023  1.2778  0.9432 -0.9290
 6828SOL    HW231944   1.065   1.070  16.954  1.1560  1.5535  3.8749
 6829SOL     OW31945   3.715   3.136   8.746 -0.1604  0.1373  0.1432
 6829SOL    HW131946   3.753   3.173   8.826 -1.6588 -2.3606  1.9979
 6829SOL    HW231947   3.643   3.199   8.737 -0.5037 -0.4153 -0.9505
 6830SOL     OW31948   0.794   0.032   0.097  0.1294 -0.0373  0.1278
 6830SOL    HW131949   0.799   0.094   0.024  0.8363 -0.6705 -0.3603
 6830SOL    HW231950   0.888   0.011   0.100 -0.2875 -1.9766 -0.0272
 6831SOL     OW31951   0.094   1.820   4.847  0.6363 -0.7254 -0.0850
 6831SOL    HW131952   0.132   1.816   4.935 -0.1687  0.7660  0.3311
 6831SOL    HW231953   0.138   1.899   4.815  0.8173 -0.4089  0.9202
 6832SOL     OW31954   1.278   1.270   8.150  0.0993  0.6731 -0.4117
 6832SOL    HW131955   1.364   1.269   8.192  0.9495 -1.9034 -2.1712
 6832SOL    HW231956   1.228   1.285   8.230 -1.0661 -0.8321 -0.8472
 6833SOL     OW31957   0.350   0.831   7.763 -0.2895  0.3778  0.0158
 6833SOL    HW131958   0.413   0.758   7.763 -0.4545  0.2318  1.8358
 6833SOL    HW231959   0.407   0.890   7.813  1.1618 -1.5447  0.6474
 6834SOL     OW31960   0.983   2.069  13.251  0.0393 -0.3035 -0.2185
 6834SOL    HW131961   0.953   2.098  13.336 -0.2698  0.5275 -0.6128
 6834SOL    HW231962   0.950   2.138  13.193  2.3493 -1.5082 -3.0018
 6835SOL     OW31963   3.919   0.312   7.090  0.1684  0.2553  0.2401
 6835SOL    HW131964   4.012   0.294   7.099  0.1501 -0.7113 -1.5946
 6835SOL    HW231965   3.896   0.335   7.181 -0.0661  1.6927 -0.1767
 6836SOL     OW31966   2.921   2.196   7.451 -0.2530  0.3676 -0.3091
 6836SOL    HW131967   2.882   2.259   7.512  0.0345  0.7670 -0.5326
 6836SOL    HW231968   2.913   2.115   7.500  0.9664 -0.6803 -1.8451
 6837SOL     OW31969   2.813   1.330   2.377  0.2040  0.0696 -0.4055
 6837SOL    HW131970   2.823   1.403   2.439 -0.5815 -0.6956  0.6178
 6837SOL    HW231971   2.718   1.315   2.372 -0.1342  1.6365  1.1992
 6838SOL     OW31972   3.510   0.641  15.626  0.2640 -0.4170  0.0884
 6838SOL    HW131973   3.423   0.677  15.607  1.2267  1.7036 -0.3563
 6838SOL    HW231974   3.546   0.659  15.539  1.4513  0.0307  0.6743
 6839SOL     OW31975   2.022   3.459   8.084 -0.3956 -0.2934 -0.1765
 6839SOL    HW131976   1.972   3.401   8.027  0.9966  0.3751 -2.0823
 6839SOL    HW231977   2.077   3.388   8.119 -0.8082 -1.0653 -1.0788
 6840SOL     OW31978   0.682   1.626   1.344 -0.8419  0.3138  0.6887
 6840SOL    HW131979   0.596   1.621   1.303  1.4276  2.3896 -4.2775
 6840SOL    HW231980   0.651   1.578   1.421 -2.7677 -3.0773 -2.1604
 6841SOL     OW31981   4.121   4.315   2.274  0.1350  0.7566 -0.2112
 6841SOL    HW131982   4.074   4.298   2.355  0.4062 -1.1897 -0.4686
 6841SOL    HW231983   4.157   4.228   2.259  1.5721  1.3022  0.1398
 6842SOL     OW31984   4.208   1.182   9.229 -0.5140 -0.0582 -1.0426
 6842SOL    HW131985   4.161   1.264   9.212  0.0097  0.5573  0.5050
 6842SOL    HW231986   4.147   1.134   9.284  1.5017 -1.4649 -0.0379
 6843SOL     OW31987   3.008   1.490   3.793  0.3990 -0.2053  0.3828
 6843SOL    HW131988   3.005   1.573   3.841  2.3019 -0.6879  1.3103
 6843SOL    HW231989   3.102   1.472   3.788  0.6528  0.6317  2.4750
 6844SOL     OW31990   0.018   3.769   2.576  0.6139 -0.2141 -0.0395
 6844SOL    HW131991   4.698   3.683   2.573 -1.1349  0.6599 -0.9154
 6844SOL    HW231992   0.025   3.790   2.483  1.0449 -0.2031 -0.0069
 6845SOL     OW31993   0.864   0.264   3.623  0.5866  0.1480  0.1433
 6845SOL    HW131994   0.912   0.261   3.540  2.6426  0.7512  1.3367
 6845SOL    HW231995   0.774   0.276   3.590  1.4039 -3.7393 -3.4789
 6846SOL     OW31996   3.048   2.700  11.585  0.0005  0.0928  0.0839
 6846SOL    HW131997   2.955   2.722  11.596 -0.5971 -2.5939  0.3005
 6846SOL    HW231998   3.038   2.628  11.523  0.4017  0.4947 -0.4453
 6847SOL     OW31999   3.278   2.017  14.002  0.0478  0.3928 -0.6424
 6847SOL    HW132000   3.299   1.941  14.057 -1.6034  0.7118  0.4148
 6847SOL    HW232001   3.187   2.036  14.021 -0.1484 -0.8235 -0.3265
 6848SOL     OW32002   2.881   2.481  11.701 -0.2903  0.3168  0.2065
 6848SOL    HW132003   2.818   2.478  11.772  0.3781 -0.1000  0.7787
 6848SOL    HW232004   2.822   2.485  11.625  1.7429 -3.8522 -1.5643
 6849SOL     OW32005   4.180   3.278   4.434 -0.5240  0.2432  0.5249
 6849SOL    HW132006   4.195   3.370   4.455 -2.1838  0.6731 -0.1938
 6849SOL    HW232007   4.143   3.278   4.345 -0.2254  0.5732  0.4045
 6850SOL     OW32008   3.971   4.056  12.200  0.0140 -0.5455  1.0677
 6850SOL    HW132009   3.978   3.993  12.128 -2.7098  3.0864 -2.3917
 6850SOL    HW232010   4.064   4.076  12.209  0.4251 -1.0304 -1.9024
 6851SOL     OW32011   0.514   3.069   9.263 -0.1141 -0.1442  0.5080
 6851SOL    HW132012   0.456   3.089   9.336  0.0622 -0.9146  0.8614
 6851SOL    HW232013   0.524   3.153   9.218  0.7236 -0.6061 -0.1794
 6852SOL     OW32014   2.334   3.837  17.339  0.2071  0.5433  0.1510
 6852SOL    HW132015   2.390   3.914  17.349  1.9344 -0.5264 -1.2409
 6852SOL    HW232016   2.364   3.813  17.251 -2.5365 -0.3733 -0.5494
 6853SOL     OW32017   3.765   1.585  15.457 -0.2245  0.5074  0.0180
 6853SOL    HW132018   3.850   1.626  15.441  0.6720 -0.6073  1.8472
 6853SOL    HW232019   3.741   1.558  15.369  1.2890  1.2015 -0.6262
 6854SOL     OW32020   4.068   0.917   2.492 -0.3014  0.1379 -0.0849
 6854SOL    HW132021   3.997   0.871   2.446 -1.1660  0.1474  1.2425
 6854SOL    HW232022   4.107   0.967   2.420  1.8248 -0.1830  0.8365
 6855SOL     OW32023   4.508   0.304   8.502  0.7970 -0.0052  0.3049
 6855SOL    HW132024   4.424   0.285   8.542  0.1631  1.1683 -0.4814
 6855SOL    HW232025   4.488   0.297   8.409 -0.4408  4.4070  0.2326
 6856SOL     OW32026   2.357   1.422   3.517  0.2376 -0.7890  0.2287
 6856SOL    HW132027   2.359   1.336   3.474 -1.1295  0.1267 -1.6791
 6856SOL    HW232028   2.405   1.388   3.592 -0.5140 -1.8241  0.2294
 6857SOL     OW32029   3.985   1.631   0.518 -0.1936  1.1744 -0.0987
 6857SOL    HW132030   3.927   1.569   0.474 -2.1875  1.3746  2.2647
 6857SOL    HW232031   3.927   1.707   0.523 -0.0244  1.2586  0.5893
 6858SOL     OW32032   1.892   3.588   2.939 -0.4967  0.1048 -0.1082
 6858SOL    HW132033   1.938   3.535   2.875 -0.0065 -0.8685  1.0462
 6858SOL    HW232034   1.806   3.596   2.898 -0.1638  1.1879 -0.6114
 6859SOL     OW32035   2.645   2.968  17.594  0.6193 -0.0570 -0.0953
 6859SOL    HW132036   2.597   2.995  17.515 -1.4852 -0.9212  0.8846
 6859SOL    HW232037   2.737   2.966  17.570  0.2747 -2.2645 -1.2433
 6860SOL     OW32038   2.465   3.560   6.633 -0.2457  0.1251 -0.1989
 6860SOL    HW132039   2.508   3.645   6.625 -0.1745  0.1328  0.2298
 6860SOL    HW232040   2.549   3.512   6.632 -1.1115 -1.3993  0.1790
 6861SOL     OW32041   2.690   2.367  10.241  0.1340  0.0820  0.2524
 6861SOL    HW132042   2.661   2.311  10.313 -2.4995 -1.4075 -1.9848
 6861SOL    HW232043   2.780   2.387  10.265  0.1272  0.5650 -0.1231
 6862SOL     OW32044   3.132   1.638   3.048  0.1128  0.1412 -0.3161
 6862SOL    HW132045   3.066   1.702   3.021 -0.2698  1.1638  3.0582
 6862SOL    HW232046   3.212   1.681   3.020  0.7992 -1.1592 -0.3501
 6863SOL     OW32047   0.573   1.721   5.346 -0.4456 -0.0793  0.0820
 6863SOL    HW132048   0.592   1.814   5.357  1.2800 -0.3993 -0.1275
 6863SOL    HW232049   0.607   1.697   5.432 -0.2402  2.2257  0.6623
 6864SOL     OW32050   3.410   3.822   7.701 -0.2052 -0.5094 -0.2151
 6864SOL    HW132051   3.424   3.737   7.743  0.9677 -0.4819 -0.5415
 6864SOL    HW232052   3.317   3.820   7.678 -0.1165  1.4746 -0.7672
 6865SOL     OW32053   0.556   0.919  15.311 -0.5709  0.1694  0.3651
 6865SOL    HW132054   0.631   0.977  15.327 -2.2472  2.7130 -1.0958
 6865SOL    HW232055   0.595   0.835  15.335  0.1709 -0.1572 -1.9952
 6866SOL     OW32056   1.150   0.597   4.611 -0.0042  0.1341 -0.3141
 6866SOL    HW132057   1.196   0.620   4.692  1.3248 -2.7290 -0.2621
 6866SOL    HW232058   1.225   0.552   4.574 -0.0596 -1.8667  2.0635
 6867SOL     OW32059   3.877   2.883   4.193 -0.5047 -0.3902 -0.0317
 6867SOL    HW132060   3.791   2.841   4.184 -0.4527 -0.0036 -2.2317
 6867SOL    HW232061   3.851   2.967   4.156 -0.8337 -0.4640  0.0319
 6868SOL     OW32062   0.542   4.137   6.851 -0.4697 -0.0457  0.2578
 6868SOL    HW132063   0.477   4.113   6.785  2.0989 -1.2459 -1.7827
 6868SOL    HW232064   0.599   4.061   6.863 -0.1986  0.3729  1.6541
 6869SOL     OW32065   3.842   4.691   6.578  0.2465  0.4232  0.6479
 6869SOL    HW132066   3.776   4.685   6.647  0.5178 -1.0294  0.7916
 6869SOL    HW232067   3.825   0.058   6.546 -1.8797  0.7695  2.8447
 6870SOL     OW32068   2.527   4.436  15.756  0.2401  0.2116 -0.0553
 6870SOL    HW132069   2.487   4.354  15.785  0.7960 -0.6127 -1.6050
 6870SOL    HW232070   2.589   4.458  15.825  1.9364  0.5083 -1.6835
 6871SOL     OW32071   0.982   3.783  10.032  0.5960  0.1075  0.2285
 6871SOL    HW132072   0.908   3.799  10.091  0.1174  2.5864 -1.0345
 6871SOL    HW232073   1.043   3.850  10.064 -1.6941  1.7575  1.1491
 6872SOL     OW32074   1.417   3.970   8.835  0.1040 -0.2215  0.0555
 6872SOL    HW132075   1.351   3.972   8.905 -0.3137 -0.5553 -0.3239
 6872SOL    HW232076   1.363   3.989   8.759 -0.8598 -0.1655  0.7485
 6873SOL     OW32077   3.299   2.772  13.437  0.0790  0.1256 -0.0743
 6873SOL    HW132078   3.271   2.860  13.413  2.4889  1.2848  1.4495
 6873SOL    HW232079   3.241   2.760  13.512 -2.9978  0.5353 -2.3773
 6874SOL     OW32080   4.607   4.454   3.109  1.0816 -0.6945 -0.0430
 6874SOL    HW132081   4.567   4.395   3.173  0.1896  0.2011  0.2254
 6874SOL    HW232082   4.693   4.451   3.151  1.3554 -1.6996 -0.6715
 6875SOL     OW32083   3.394   0.448   0.035 -0.1249  0.3580  0.4092
 6875SOL    HW132084   3.386   0.511  17.652 -1.1120  0.9082  1.0016
 6875SOL    HW232085   3.380   0.359   0.004  1.2067  0.4542 -0.4123
 6876SOL     OW32086   0.464   1.301   5.772 -0.2259 -0.1926 -0.4949
 6876SOL    HW132087   0.527   1.234   5.797  0.2319  0.8459  1.1511
 6876SOL    HW232088   0.500   1.379   5.814  0.0263 -0.3221 -0.4733
 6877SOL     OW32089   0.045   0.442   6.060  0.3645 -0.0709 -0.3220
 6877SOL    HW132090   4.700   0.486   6.007 -0.9306  0.4939  1.7881
 6877SOL    HW232091   0.053   0.354   6.023  2.2265  0.1601 -0.4601
 6878SOL     OW32092   3.594   1.726  13.201 -0.1501  0.0804  0.6455
 6878SOL    HW132093   3.651   1.724  13.279 -1.1266 -0.0319  1.3586
 6878SOL    HW232094   3.625   1.642  13.168  0.9024  1.3539 -1.5618
 6879SOL     OW32095   4.106   4.706   2.094 -0.2316  0.3121 -0.4879
 6879SOL    HW132096   4.200   4.698   2.080  0.0165 -1.6570  2.1884
 6879SOL    HW232097   4.103   0.035   2.175  1.2715  1.5134 -1.1738
 6880SOL     OW32098   1.149   1.117   4.676  0.1650 -0.5398 -0.0145
 6880SOL    HW132099   1.197   1.035   4.687 -0.0609 -0.5891  0.6059
 6880SOL    HW232100   1.219   1.180   4.658 -1.3632  1.0441 -0.4069
 6881SOL     OW32101   3.624   0.205   3.226 -0.4135  0.1035  0.4492
 6881SOL    HW132102   3.553   0.145   3.204  2.4912 -2.4215 -1.9439
 6881SOL    HW232103   3.692   0.158   3.273  0.6287 -0.3349 -1.5141
 6882SOL     OW32104   4.633   1.404  14.375  0.3820  1.3255  0.2072
 6882SOL    HW132105   4.560   1.351  14.343 -0.1464  2.2930 -0.1797
 6882SOL    HW232106   4.695   1.391  14.303 -1.8152  0.3458 -1.5023
 6883SOL     OW32107   0.403   1.590   6.686 -0.2247  0.4760 -0.1463
 6883SOL    HW132108   0.381   1.525   6.620  0.1396 -0.3121  0.5094
 6883SOL    HW232109   0.478   1.544   6.723 -0.4332  1.3318  1.3666
 6884SOL     OW32110   4.291   4.136   5.503  0.3328 -0.1259  0.5513
 6884SOL    HW132111   4.268   4.203   5.567 -0.8084 -1.8053  1.8956
 6884SOL    HW232112   4.295   4.179   5.418 -0.9693  1.5422  1.3205
 6885SOL     OW32113   2.797   3.685  11.367 -0.2043 -0.5486 -0.3158
 6885SOL    HW132114   2.812   3.770  11.325  1.5440 -0.5060  0.3798
 6885SOL    HW232115   2.846   3.701  11.447 -0.1218  1.0962 -0.6987
 6886SOL     OW32116   0.775   1.706   5.010 -0.9190 -0.0460  0.0052
 6886SOL    HW132117   0.703   1.765   4.987 -0.5322  0.0649 -0.9166
 6886SOL    HW232118   0.750   1.618   4.982  0.9188 -0.0324 -1.6588
 6887SOL     OW32119   1.543   1.667   6.752  0.1667 -0.4795  0.4022
 6887SOL    HW132120   1.498   1.746   6.721  0.6472 -0.4825 -0.3001
 6887SOL    HW232121   1.493   1.662   6.834  0.0440  3.0038  0.5584
 6888SOL     OW32122   0.026   3.858   0.341  0.3008 -0.0751  0.2684
 6888SOL    HW132123   0.029   3.923   0.412 -0.8499  2.2146 -1.7957
 6888SOL    HW232124   0.088   3.897   0.280 -1.8013  0.8591 -1.2313
 6889SOL     OW32125   3.285   2.416   4.916 -0.2191 -0.0831 -0.0241
 6889SOL    HW132126   3.274   2.435   5.009  2.3476  0.0391  0.2319
 6889SOL    HW232127   3.205   2.453   4.878 -0.8101 -0.0524  1.2518
 6890SOL     OW32128   2.819   2.295   3.935  0.8513 -0.6261  0.3604
 6890SOL    HW132129   2.877   2.333   3.870  1.5333 -0.5127  1.0409
 6890SOL    HW232130   2.749   2.265   3.877 -0.8899  1.6400  1.2850
 6891SOL     OW32131   2.026   4.253  10.137 -0.4506 -0.0509 -0.3266
 6891SOL    HW132132   2.062   4.199  10.207  1.7650  0.8229 -0.7995
 6891SOL    HW232133   1.973   4.190  10.088  1.5859  0.4739 -3.2251
 6892SOL     OW32134   4.590   2.497   8.508 -0.8512 -0.3631 -0.5837
 6892SOL    HW132135   4.583   2.415   8.557 -0.6646  1.3879  2.4142
 6892SOL    HW232136   4.571   2.563   8.575  0.6470 -0.3370 -0.1888
 6893SOL     OW32137   4.065   3.820   6.626  0.1927  0.0754  0.4599
 6893SOL    HW132138   4.104   3.752   6.571 -1.4300 -1.4574  1.2071
 6893SOL    HW232139   4.137   3.882   6.617 -0.7012  1.2764  1.5601
 6894SOL     OW32140   0.229   1.204   4.232 -0.2854 -0.1387 -0.2309
 6894SOL    HW132141   0.208   1.111   4.227  1.7589 -0.6807  1.2685
 6894SOL    HW232142   0.237   1.214   4.327 -1.8234  2.2342 -0.3619
 6895SOL     OW32143   3.532   1.272  11.035  0.2621  0.0338 -0.3139
 6895SOL    HW132144   3.451   1.321  11.021 -1.1416 -1.6560  1.8682
 6895SOL    HW232145   3.508   1.227  11.116 -2.5342  1.0593 -0.5864
 6896SOL     OW32146   3.056   3.441   4.049 -0.0594 -0.0554  0.2222
 6896SOL    HW132147   3.052   3.411   3.959 -0.3901  0.8805 -0.0819
 6896SOL    HW232148   3.019   3.369   4.100  1.7372 -1.2364 -0.1466
 6897SOL     OW32149   0.733   3.306   8.896  0.7415 -0.0417 -0.7188
 6897SOL    HW132150   0.792   3.239   8.860  0.7788  0.5474 -1.7601
 6897SOL    HW232151   0.657   3.291   8.840 -0.9857  0.6275  1.4301
 6898SOL     OW32152   1.141   2.273   0.924  0.7580 -0.3814 -0.3891
 6898SOL    HW132153   1.122   2.320   0.843 -0.8098 -3.7104 -1.9070
 6898SOL    HW232154   1.067   2.219   0.949  0.6477  0.8390  1.9645
 6899SOL     OW32155   1.176   2.018  10.759 -0.2511 -0.4679 -0.2033
 6899SOL    HW132156   1.095   2.022  10.708 -0.8286 -1.6310  0.6251
 6899SOL    HW232157   1.154   1.953  10.825  0.4229 -0.7214 -0.2307
 6900SOL     OW32158   2.843   3.218   5.752 -0.4453 -0.1821 -0.2062
 6900SOL    HW132159   2.844   3.133   5.795 -1.2476  0.3156  0.7914
 6900SOL    HW232160   2.905   3.262   5.811  1.2238 -1.8868 -0.6735
 6901SOL     OW32161   2.470   2.717   5.238  0.5306  0.5384 -0.5125
 6901SOL    HW132162   2.501   2.642   5.289  2.3362  2.0432  0.5968
 6901SOL    HW232163   2.473   2.793   5.297 -0.5443  0.1627  0.0270
 6902SOL     OW32164   4.488   0.625   6.624 -0.2285 -0.4227  0.6627
 6902SOL    HW132165   4.412   0.680   6.641  1.1662  1.7412 -0.1431
 6902SOL    HW232166   4.539   0.628   6.705  1.8045 -0.0701 -0.5965
 6903SOL     OW32167   0.743   0.395   8.566  0.2527 -0.5115  0.4173
 6903SOL    HW132168   0.659   0.357   8.591 -0.7716  1.5948  0.2418
 6903SOL    HW232169   0.795   0.316   8.548 -0.7547 -1.4488  1.6669
 6904SOL     OW32170   0.531   2.582   7.426 -0.3653  0.4885  0.0795
 6904SOL    HW132171   0.481   2.527   7.486  1.0406 -1.3281 -0.4306
 6904SOL    HW232172   0.621   2.568   7.453 -0.4222 -1.5742 -0.7898
 6905SOL     OW32173   4.698   2.937  17.521  0.5619 -0.2122 -0.4877
 6905SOL    HW132174   4.693   3.003  17.451  0.2988 -0.3578 -0.6053
 6905SOL    HW232175   4.644   2.867  17.484  0.8562 -0.9544  0.5175
 6906SOL     OW32176   3.906   3.179  12.167 -0.1768  0.3169  0.1394
 6906SOL    HW132177   3.985   3.229  12.189  0.4276  0.1438 -1.6981
 6906SOL    HW232178   3.847   3.218  12.232  0.9763  1.1887  0.6749
 6907SOL     OW32179   0.734   4.474  13.624  0.1894  0.1533  0.3414
 6907SOL    HW132180   0.690   4.402  13.579 -0.8894  0.4801  0.8780
 6907SOL    HW232181   0.675   4.549  13.615 -0.1570 -0.1779 -0.1155
 6908SOL     OW32182   1.319   3.106   1.737  0.0874 -0.2670  0.6231
 6908SOL    HW132183   1.303   3.183   1.791  0.4195  1.4026 -1.6856
 6908SOL    HW232184   1.233   3.092   1.698 -0.1280  0.0576  0.9821
 6909SOL     OW32185   1.746   2.141   5.715 -0.0707 -0.0546 -0.0253
 6909SOL    HW132186   1.819   2.095   5.757 -1.7097 -1.2111  1.5747
 6909SOL    HW232187   1.714   2.198   5.786 -2.8293  0.4981 -1.7157
 6910SOL     OW32188   4.120   2.359   5.704  0.1001 -0.4152 -0.0777
 6910SOL    HW132189   4.199   2.309   5.723 -0.1718 -0.3872  1.1584
 6910SOL    HW232190   4.108   2.412   5.784  2.3650  0.6085 -0.4149
 6911SOL     OW32191   4.404   1.767  14.865  0.5459  0.0119 -0.1441
 6911SOL    HW132192   4.407   1.794  14.773 -2.2757 -1.7485 -0.7404
 6911SOL    HW232193   4.469   1.697  14.868  1.0451  0.3712 -2.1901
 6912SOL     OW32194   1.581   0.655   5.059 -0.0489 -0.1872 -0.2500
 6912SOL    HW132195   1.565   0.749   5.061  1.0246  0.0250 -1.1874
 6912SOL    HW232196   1.488   0.632   5.062  0.1705 -0.8903  1.1068
 6913SOL     OW32197   2.189   2.007   4.979  0.1689  0.2016  0.3621
 6913SOL    HW132198   2.259   2.008   5.044  3.5401 -0.7113 -3.2728
 6913SOL    HW232199   2.193   2.096   4.944 -1.7289  1.2184  2.6945
 6914SOL     OW32200   1.795   3.762  16.431 -0.3118  0.8640 -0.3386
 6914SOL    HW132201   1.859   3.707  16.385  0.7787  0.9686  1.0564
 6914SOL    HW232202   1.730   3.777  16.362 -0.4189 -0.5781 -0.5601
 6915SOL     OW32203   1.549   4.691   5.722  0.2493  0.1107 -0.1714
 6915SOL    HW132204   1.578   4.719   5.635 -2.5741  0.5721 -0.9620
 6915SOL    HW232205   1.608   0.014   5.784 -0.6273  0.5133  0.3718
 6916SOL     OW32206   0.320   4.713   6.233  0.0573  0.1223  0.2518
 6916SOL    HW132207   0.236   4.668   6.242 -1.0235  1.9116 -0.6142
 6916SOL    HW232208   0.369   4.672   6.303  0.2222  0.4650  0.3392
 6917SOL     OW32209   1.076   0.160   5.979 -0.5550  0.1910 -0.4075
 6917SOL    HW132210   1.133   0.152   6.055  0.5576  2.7521 -0.9757
 6917SOL    HW232211   1.006   0.102   6.011 -1.5132  0.4644 -1.9717
 6918SOL     OW32212   0.746   2.360   7.931 -0.4625  0.5361 -0.1312
 6918SOL    HW132213   0.683   2.292   7.911  1.4468 -1.0902 -0.6646
 6918SOL    HW232214   0.718   2.426   7.868 -1.3349 -1.1875 -1.5408
 6919SOL     OW32215   2.959   0.867  13.302 -0.2236  0.2389 -0.9750
 6919SOL    HW132216   3.040   0.827  13.272  0.5409  1.8618 -1.0960
 6919SOL    HW232217   2.980   0.954  13.266 -2.9717  1.5454  0.5977
 6920SOL     OW32218   1.706   2.563   8.314 -0.6125 -0.1765  0.1381
 6920SOL    HW132219   1.641   2.589   8.380 -1.1644 -1.5226  0.1225
 6920SOL    HW232220   1.721   2.474   8.344  3.6710  0.3065 -0.6553
 6921SOL     OW32221   0.756   4.058   4.991  0.4161  0.0010  0.0712
 6921SOL    HW132222   0.750   4.062   4.896  1.6483  0.5066  0.0161
 6921SOL    HW232223   0.761   4.152   5.009 -1.8125  0.3980 -1.3249
 6922SOL     OW32224   0.488   2.552   8.030 -0.2071  0.2742 -0.2723
 6922SOL    HW132225   0.550   2.571   7.960  0.3373  0.0318  0.1514
 6922SOL    HW232226   0.405   2.535   7.984  0.1670  1.1092 -1.2728
 6923SOL     OW32227   3.321   2.981   5.797  0.0699  0.1338 -0.1289
 6923SOL    HW132228   3.327   3.012   5.706 -1.5228 -0.9392 -0.5970
 6923SOL    HW232229   3.363   3.060   5.831  0.6933 -0.0442 -0.5039
 6924SOL     OW32230   1.102   1.917  17.418  0.3171  0.1686 -0.1489
 6924SOL    HW132231   1.035   1.984  17.433 -1.2185 -1.0876 -1.4736
 6924SOL    HW232232   1.169   1.942  17.482  0.3761  0.3016 -0.2611
 6925SOL     OW32233   1.388   0.385  10.984 -0.6279  0.5429  0.0605
 6925SOL    HW132234   1.434   0.337  11.053  0.5033 -1.3165 -1.9645
 6925SOL    HW232235   1.440   0.464  10.968 -1.0909  1.3829  2.7209
 6926SOL     OW32236   1.458   2.130   1.986 -0.2765  0.2044 -0.2554
 6926SOL    HW132237   1.407   2.122   2.066  0.4857 -0.8857  0.1265
 6926SOL    HW232238   1.506   2.211   2.002  0.2324  0.5461 -3.5414
 6927SOL     OW32239   0.035   3.668   4.303 -0.1320  0.4411  0.0550
 6927SOL    HW132240   0.083   3.688   4.383 -0.3012  1.8427 -0.1814
 6927SOL    HW232241   4.717   3.584   4.326 -1.1702  0.7724 -0.5236
 6928SOL     OW32242   3.614   2.595  15.412  0.0220 -0.0500 -0.4308
 6928SOL    HW132243   3.704   2.565  15.415  0.1193  0.2820 -0.0071
 6928SOL    HW232244   3.609   2.644  15.493  1.8040 -1.5020  0.5631
 6929SOL     OW32245   3.065   4.120   3.708 -0.0544  0.4445 -0.4194
 6929SOL    HW132246   3.105   4.205   3.728  0.5785  0.0585 -0.0587
 6929SOL    HW232247   2.997   4.121   3.775  1.2460 -0.2013  0.9026
 6930SOL     OW32248   0.071   3.566   1.427  0.0709 -0.5702 -0.2061
 6930SOL    HW132249   0.129   3.490   1.426 -0.9670 -1.3537 -0.3166
 6930SOL    HW232250   0.076   3.587   1.520  0.0806 -0.1181 -0.3079
 6931SOL     OW32251   3.428   0.586   6.630  0.2790 -0.1283 -0.0402
 6931SOL    HW132252   3.481   0.643   6.575 -0.3087  0.0108 -0.4717
 6931SOL    HW232253   3.478   0.505   6.618 -0.8834 -0.8355 -0.1950
 6932SOL     OW32254   0.475   4.701   4.710  0.8344  0.4779 -0.3546
 6932SOL    HW132255   0.516   0.050   4.760 -0.9880  0.2545  1.4706
 6932SOL    HW232256   0.517   4.708   4.624 -0.5154 -0.3096 -1.0710
 6933SOL     OW32257   3.560   4.169   5.141  0.6624  0.6035  0.1001
 6933SOL    HW132258   3.504   4.160   5.218 -0.9152 -0.5103 -1.1571
 6933SOL    HW232259   3.515   4.242   5.097  2.4091  1.8681  0.4381
 6934SOL     OW32260   0.170   2.823   9.007 -0.1140 -0.1263  0.2884
 6934SOL    HW132261   0.153   2.890   8.940 -1.4405 -1.4252 -0.6724
 6934SOL    HW232262   0.207   2.867   9.083  3.6304  2.5594 -3.0378
 6935SOL     OW32263   2.823   2.880   6.574  0.5745 -0.6402  0.1888
 6935SOL    HW132264   2.836   2.967   6.536 -2.7992 -0.4673 -0.6141
 6935SOL    HW232265   2.839   2.826   6.496 -1.4542 -1.0526  0.0387
 6936SOL     OW32266   2.540   3.369   5.215  0.5337 -0.8685  0.2756
 6936SOL    HW132267   2.616   3.314   5.233  0.7407 -0.3397  1.0610
 6936SOL    HW232268   2.584   3.453   5.202  0.4822 -0.8449  0.2510
 6937SOL     OW32269   1.952   4.519   2.120 -0.1331  0.5486 -0.1047
 6937SOL    HW132270   2.006   4.469   2.059  1.6109  1.2064  0.8691
 6937SOL    HW232271   1.913   4.593   2.073  0.7076  2.1237  1.6472
 6938SOL     OW32272   3.974   2.360   7.014  0.7584 -0.3000 -0.2944
 6938SOL    HW132273   3.890   2.340   6.974 -0.4570  0.5269  1.8739
 6938SOL    HW232274   3.969   2.314   7.097 -0.8174  0.8081  0.2180
 6939SOL     OW32275   4.193   1.123  15.716  0.1488 -0.1195  0.0910
 6939SOL    HW132276   4.277   1.163  15.694 -0.2339  1.5075  1.5900
 6939SOL    HW232277   4.175   1.078  15.633  0.3310  0.1523 -0.0932
 6940SOL     OW32278   3.890   1.786   6.687  0.2227 -0.4249 -0.7523
 6940SOL    HW132279   3.835   1.812   6.760  1.1226 -1.0935  0.1576
 6940SOL    HW232280   3.962   1.746   6.736  2.1384 -1.0698 -4.0676
 6941SOL     OW32281   2.646   2.725   6.907  0.4369 -0.2878  0.7445
 6941SOL    HW132282   2.590   2.734   6.983  0.2090  3.6045  0.1123
 6941SOL    HW232283   2.667   2.634   6.925  2.0020 -0.0978 -0.0734
 6942SOL     OW32284   3.875   4.549   0.594 -0.0426  0.1593  0.0854
 6942SOL    HW132285   3.888   4.599   0.513 -0.6643 -1.6924 -1.1382
 6942SOL    HW232286   3.783   4.566   0.616  0.4682 -0.3574  2.5192
 6943SOL     OW32287   3.648   0.578   5.608 -0.0870 -0.4164 -0.4294
 6943SOL    HW132288   3.626   0.661   5.651 -0.1731 -0.9492  0.5440
 6943SOL    HW232289   3.561   0.542   5.625  0.0964 -1.3698 -1.5188
 6944SOL     OW32290   0.000   1.223  15.254 -0.0243  0.1648 -0.2277
 6944SOL    HW132291   0.091   1.209  15.228 -0.0171  0.1630 -0.2018
 6944SOL    HW232292   4.696   1.287  15.187 -2.3503 -0.4460  0.1005
 6945SOL     OW32293   0.313   0.899   3.329  0.4066 -0.0873  0.2157
 6945SOL    HW132294   0.300   0.817   3.281 -3.8193  0.4757  0.4153
 6945SOL    HW232295   0.227   0.909   3.370  0.5466  2.1765 -0.0538
 6946SOL     OW32296   4.330   1.614   7.989  0.4995  0.0197  0.5520
 6946SOL    HW132297   4.297   1.527   7.968 -1.6317  1.0653 -0.4175
 6946SOL    HW232298   4.321   1.662   7.907 -1.4647 -1.6056 -0.1829
 6947SOL     OW32299   2.857   1.856   1.678 -0.2560  0.4975  0.1356
 6947SOL    HW132300   2.843   1.941   1.719  0.0710 -0.2370  1.7641
 6947SOL    HW232301   2.764   1.841   1.658  0.1181  1.4490 -2.3177
 6948SOL     OW32302   2.829   3.816   9.015  0.0855 -0.0174  0.8336
 6948SOL    HW132303   2.815   3.908   8.997 -1.6946 -0.2537  0.9964
 6948SOL    HW232304   2.771   3.766   8.958  0.3884 -0.0641  0.5668
 6949SOL     OW32305   3.491   3.179  12.998  0.3473  0.3569 -0.1658
 6949SOL    HW132306   3.583   3.204  12.989  0.6348 -0.0996  1.4637
 6949SOL    HW232307   3.480   3.185  13.093  0.0832 -1.1840 -0.0941
 6950SOL     OW32308   2.218   2.103   4.273 -0.1366  0.5757 -0.5537
 6950SOL    HW132309   2.198   2.025   4.222  2.3582 -0.0142 -0.6374
 6950SOL    HW232310   2.299   2.132   4.230  1.8767 -3.3106  0.6044
 6951SOL     OW32311   1.071   4.180   8.683 -0.4743  0.3495  0.0608
 6951SOL    HW132312   1.088   4.274   8.687  0.6435  0.0923  1.3056
 6951SOL    HW232313   1.082   4.163   8.590  1.3452 -1.4701  0.6056
 6952SOL     OW32314   0.550   0.137  11.417 -0.0365  0.7758  0.0996
 6952SOL    HW132315   0.560   0.223  11.459  1.0008  0.6974  0.0065
 6952SOL    HW232316   0.610   0.128  11.344 -0.3017 -1.3482  0.1371
 6953SOL     OW32317   2.477   0.290   7.863  0.0547  0.0231 -0.4379
 6953SOL    HW132318   2.532   0.347   7.917  0.4126  0.1104 -0.8880
 6953SOL    HW232319   2.444   0.229   7.929  1.5776  0.5359  0.8204
 6954SOL     OW32320   1.975   3.999   0.721 -0.5269  0.1855  0.0936
 6954SOL    HW132321   2.019   4.077   0.688  0.4357 -1.7907 -3.3055
 6954SOL    HW232322   2.054   3.962   0.761  0.6305  3.1530  0.5008
 6955SOL     OW32323   1.757   1.030   7.239  0.2907  0.5975 -0.4762
 6955SOL    HW132324   1.830   1.092   7.237 -0.2041  1.1553 -0.8158
 6955SOL    HW232325   1.792   0.946   7.269  1.9300 -0.3181 -4.9386
 6956SOL     OW32326   2.175   1.127   3.595  0.0569 -0.2573  0.8185
 6956SOL    HW132327   2.193   1.120   3.689 -0.5346  1.3234  1.0500
 6956SOL    HW232328   2.106   1.193   3.599  0.5411  0.3125 -0.3156
 6957SOL     OW32329   1.178   4.710  13.615  0.1735 -0.7633 -0.0949
 6957SOL    HW132330   1.264   0.001  13.574 -0.3458  3.1117  0.0179
 6957SOL    HW232331   1.165   0.047  13.689 -0.2559  1.3417 -1.8149
 6958SOL     OW32332   1.284   0.141  14.907 -0.3064  0.5306 -0.0330
 6958SOL    HW132333   1.301   0.108  14.995  1.7176  0.3269 -0.5184
 6958SOL    HW232334   1.189   0.124  14.907 -0.0832 -0.7640  2.3046
 6959SOL     OW32335   3.815   0.061   2.211  0.4070 -0.3747 -0.1416
 6959SOL    HW132336   3.882   0.108   2.261  1.1357 -0.0690 -1.4232
 6959SOL    HW232337   3.870   0.007   2.155  1.0311  0.1735 -0.0600
 6960SOL     OW32338   3.299   3.512  11.469 -0.5681 -0.0418  0.5381
 6960SOL    HW132339   3.325   3.477  11.555  1.0868 -0.4831 -0.1312
 6960SOL    HW232340   3.227   3.454  11.448  0.6570 -1.1136 -0.7025
 6961SOL     OW32341   4.380   0.628   1.612  0.8471 -0.0767 -0.0474
 6961SOL    HW132342   4.333   0.551   1.642 -0.3826  0.5196 -0.4316
 6961SOL    HW232343   4.441   0.647   1.683  1.8267  2.4950 -1.5813
 6962SOL     OW32344   2.354   1.509   7.163 -0.2839  0.2878  0.1828
 6962SOL    HW132345   2.435   1.510   7.214 -1.2407  1.4425  1.6891
 6962SOL    HW232346   2.390   1.527   7.076  1.1805 -1.4103  0.4595
 6963SOL     OW32347   3.609   2.744   8.589 -0.5322  0.0120  0.1650
 6963SOL    HW132348   3.532   2.692   8.610 -0.1626 -0.2264  0.9267
 6963SOL    HW232349   3.566   2.827   8.566  1.7355  0.5828 -2.0648
 6964SOL     OW32350   2.258   4.486   3.827 -0.4470  0.5455  0.2784
 6964SOL    HW132351   2.183   4.461   3.881  1.2444  0.2993  2.5105
 6964SOL    HW232352   2.202   4.506   3.752 -0.5612 -1.0958 -0.0797
 6965SOL     OW32353   4.373   1.104  16.128  0.1304 -0.2918 -0.0972
 6965SOL    HW132354   4.447   1.165  16.125 -1.6983  1.8525 -1.2709
 6965SOL    HW232355   4.408   1.029  16.081 -0.9315 -1.2332  0.6260
 6966SOL     OW32356   3.576   0.590   3.819  0.0222  0.0656  0.2538
 6966SOL    HW132357   3.655   0.557   3.777 -0.6984  1.9390 -2.6009
 6966SOL    HW232358   3.541   0.507   3.851 -0.4297  1.0827  2.4245
 6967SOL     OW32359   2.427   4.136  16.954  0.1346  0.4223 -0.1334
 6967SOL    HW132360   2.508   4.117  16.905 -0.3565  1.1654 -1.2381
 6967SOL    HW232361   2.462   4.212  17.002  0.9047 -0.0877  0.1166
 6968SOL     OW32362   2.487   3.322   4.933  0.1226 -0.9054  0.1293
 6968SOL    HW132363   2.504   3.336   5.026  3.2082 -0.8307 -0.4453
 6968SOL    HW232364   2.402   3.363   4.921  0.7572  0.8447  1.6426
 6969SOL     OW32365   3.938   0.996   7.259 -0.1051  0.1973 -0.5636
 6969SOL    HW132366   3.994   0.918   7.253  0.1740  0.4932 -1.8548
 6969SOL    HW232367   3.994   1.064   7.222 -0.0087 -0.1128 -0.9876
 6970SOL     OW32368   0.802   3.927   8.709 -0.2317 -0.4986  0.1487
 6970SOL    HW132369   0.809   4.014   8.668 -0.9366 -0.3447  0.3538
 6970SOL    HW232370   0.707   3.922   8.718 -0.4218  0.7267 -1.1696
 6971SOL     OW32371   3.122   4.556  15.519 -0.1676 -0.5339 -0.5139
 6971SOL    HW132372   3.070   4.605  15.455 -0.4635 -0.3677 -0.1474
 6971SOL    HW232373   3.199   4.613  15.521 -0.9390  0.5207 -0.8100
 6972SOL     OW32374   0.846   2.557   1.602 -0.2039 -0.2105 -0.5915
 6972SOL    HW132375   0.814   2.593   1.685  1.2230 -0.4766  0.0814
 6972SOL    HW232376   0.783   2.598   1.543 -2.0971  2.0758  2.9673
 6973SOL     OW32377   1.394   3.876  12.799 -0.4913 -0.4305 -0.4521
 6973SOL    HW132378   1.342   3.797  12.785 -0.3942 -0.8221  1.4007
 6973SOL    HW232379   1.437   3.887  12.715 -0.3284  2.1595 -0.0208
 6974SOL     OW32380   2.942   1.907   6.515  0.2090  0.4033  0.2515
 6974SOL    HW132381   2.967   1.912   6.607 -0.1532 -0.3163  0.3891
 6974SOL    HW232382   3.005   1.843   6.483 -0.6196 -0.0063 -0.5890
 6975SOL     OW32383   2.703   2.959   3.753 -0.0395  0.5257 -0.4299
 6975SOL    HW132384   2.782   2.948   3.699  0.3304 -1.6353  0.5536
 6975SOL    HW232385   2.751   2.949   3.835  0.6039 -1.4776 -1.0474
 6976SOL     OW32386   3.777   4.083  16.548  0.7557 -0.3146  0.2112
 6976SOL    HW132387   3.789   4.121  16.461 -0.6136  0.3548  0.3124
 6976SOL    HW232388   3.707   4.142  16.577 -1.2186 -2.4407 -0.2540
 6977SOL     OW32389   2.205   3.526   3.983 -0.3123  0.8301 -0.0555
 6977SOL    HW132390   2.194   3.452   3.924  1.2463  0.0386  0.6586
 6977SOL    HW232391   2.154   3.594   3.939 -2.3098 -2.5517 -2.8560
 6978SOL     OW32392   3.640   0.452   8.059  0.3558  0.0499  0.4048
 6978SOL    HW132393   3.597   0.395   8.123  1.7234  0.8564  2.0372
 6978SOL    HW232394   3.578   0.525   8.062  0.7134  0.3273  0.9605
 6979SOL     OW32395   2.249   0.829  16.987  0.0516  0.4645  0.7075
 6979SOL    HW132396   2.204   0.910  17.010  0.5231  0.2254  2.5127
 6979SOL    HW232397   2.186   0.761  16.963 -0.3041  0.7924  0.7181
 6980SOL     OW32398   0.922   4.629   7.611  0.0998  0.6625  0.2319
 6980SOL    HW132399   0.843   4.586   7.643 -1.0798  1.1846 -1.9954
 6980SOL    HW232400   0.884   4.696   7.554 -1.1407 -2.8045 -3.0156
 6981SOL     OW32401   0.904   0.626  14.733 -0.9051 -0.0502 -0.6178
 6981SOL    HW132402   0.961   0.549  14.735 -1.4396 -0.4052  0.9301
 6981SOL    HW232403   0.966   0.692  14.702  0.1504 -0.0834  1.4037
 6982SOL     OW32404   4.514   3.139   6.664 -0.5675 -0.2820 -0.0713
 6982SOL    HW132405   4.473   3.192   6.595 -0.7883  0.5136  0.6754
 6982SOL    HW232406   4.440   3.103   6.713 -1.0302  2.1510  1.0089
 6983SOL     OW32407   1.652   4.006   6.273  0.1720  0.2380  0.6800
 6983SOL    HW132408   1.577   3.972   6.224 -0.5459 -1.3411  2.8802
 6983SOL    HW232409   1.613   4.057   6.344  0.5931 -0.0406  1.1110
 6984SOL     OW32410   0.359   2.211   6.422  0.3865 -0.3774  0.0143
 6984SOL    HW132411   0.433   2.259   6.385  0.3430 -1.0604 -0.9593
 6984SOL    HW232412   0.363   2.251   6.509 -2.8817 -0.0382 -0.0212
 6985SOL     OW32413   2.957   3.849   0.672 -0.5764 -0.4697  0.2102
 6985SOL    HW132414   3.006   3.891   0.601 -1.8876  0.0620 -0.3979
 6985SOL    HW232415   2.964   3.919   0.736  1.9214 -0.4398 -0.1125
 6986SOL     OW32416   0.691   2.765   8.915 -0.1857  0.1017  0.1191
 6986SOL    HW132417   0.757   2.752   8.983 -1.3654 -0.1230  1.2053
 6986SOL    HW232418   0.614   2.740   8.966  0.0495 -1.2289 -0.1837
 6987SOL     OW32419   2.594   4.143   4.049  0.9270 -0.1810  0.0209
 6987SOL    HW132420   2.548   4.121   4.130 -1.5210 -1.4226 -1.6723
 6987SOL    HW232421   2.525   4.123   3.985  4.0429  0.4660 -3.5113
 6988SOL     OW32422   1.275   3.109   9.965  0.6443 -0.2175  0.2276
 6988SOL    HW132423   1.271   3.204   9.972 -1.8755 -0.4162  1.7261
 6988SOL    HW232424   1.192   3.091   9.922  0.2128  1.9657  0.1598
 6989SOL     OW32425   0.796   4.297  16.054 -0.2965  0.6842 -0.0771
 6989SOL    HW132426   0.865   4.231  16.047 -0.0823  0.9240 -0.2501
 6989SOL    HW232427   0.716   4.245  16.055 -0.4342  0.8767 -0.7561
 6990SOL     OW32428   1.892   0.489   6.143 -0.2407 -0.3113 -0.2192
 6990SOL    HW132429   1.865   0.550   6.212  0.5070  0.8884 -0.9981
 6990SOL    HW232430   1.822   0.424   6.145  0.7791 -1.4353 -0.7014
 6991SOL     OW32431   0.419   3.991   4.042 -0.1154  0.1157  0.7222
 6991SOL    HW132432   0.469   4.071   4.057  0.5924 -0.2786  0.4733
 6991SOL    HW232433   0.463   3.947   3.969 -1.3655  1.3602 -0.7884
 6992SOL     OW32434   1.964   1.248   4.527  0.4253  0.4646  0.4964
 6992SOL    HW132435   1.986   1.339   4.507  1.2663  0.0289 -0.5550
 6992SOL    HW232436   1.869   1.247   4.521  0.4952 -1.0028 -0.5800
 6993SOL     OW32437   0.025   3.776  15.412  0.2377 -0.2281  0.8408
 6993SOL    HW132438   4.675   3.825  15.373 -2.3264 -1.9150  3.4423
 6993SOL    HW232439   0.083   3.847  15.443  0.6800 -1.3871  2.6848
 6994SOL     OW32440   3.079   0.630  14.026 -0.5440 -0.4880 -0.3326
 6994SOL    HW132441   3.048   0.688  13.956 -2.2525  0.2747  1.0647
 6994SOL    HW232442   3.174   0.625  14.012 -0.5881  1.6302 -1.3968
 6995SOL     OW32443   2.759   2.165   9.484  0.8835 -0.4579  0.1270
 6995SOL    HW132444   2.845   2.122   9.487  1.2889  0.3190 -0.1404
 6995SOL    HW232445   2.731   2.166   9.575 -1.7221 -1.8311 -0.6652
 6996SOL     OW32446   1.122   3.388  17.105 -0.4221  0.1308  0.1331
 6996SOL    HW132447   1.176   3.461  17.073 -0.0634  0.4467  1.4604
 6996SOL    HW232448   1.181   3.313  17.107  2.5588  2.3368 -4.1383
 6997SOL     OW32449   0.905   4.317   5.743  0.0873 -0.9197  0.7226
 6997SOL    HW132450   0.958   4.270   5.808  1.7566  0.6643  0.5005
 6997SOL    HW232451   0.824   4.329   5.793 -0.6127  0.6017 -0.8058
 6998SOL     OW32452   1.505   3.825   2.974  0.6680  0.1437 -0.0791
 6998SOL    HW132453   1.488   3.837   2.880  0.2667 -2.1816 -0.3027
 6998SOL    HW232454   1.496   3.732   2.994  0.8530 -0.0418 -0.8317
 6999SOL     OW32455   1.933   3.362  13.810 -0.1049  0.2182  0.3949
 6999SOL    HW132456   1.921   3.433  13.873 -1.1514  0.5823 -0.2046
 6999SOL    HW232457   1.888   3.399  13.734  2.8160 -0.9859 -1.8883
 7000SOL     OW32458   2.454   0.164  10.363 -0.0388 -0.5164  0.2058
 7000SOL    HW132459   2.367   0.124  10.362 -0.5522  0.6176 -0.0326
 7000SOL    HW232460   2.503   0.121  10.293  0.9985  1.6304 -0.3754
 7001SOL     OW32461   0.580   3.988  11.132  0.0313  0.1864  0.5481
 7001SOL    HW132462   0.631   3.907  11.127  2.8268  1.9001  1.1760
 7001SOL    HW232463   0.640   4.047  11.086 -0.3267 -0.8693 -1.2392
 7002SOL     OW32464   3.287   2.429  17.319  0.0703 -0.0774  0.4861
 7002SOL    HW132465   3.359   2.366  17.331 -0.8341 -1.2109 -0.0213
 7002SOL    HW232466   3.236   2.425  17.400  0.7357  3.1695  1.0524
 7003SOL     OW32467   3.596   4.522  15.601 -0.3467  0.1866  0.0813
 7003SOL    HW132468   3.589   4.545  15.694 -1.7533 -0.6738  0.2013
 7003SOL    HW232469   3.588   4.426  15.598  0.1044  0.1626 -0.2710
 7004SOL     OW32470   1.934   3.060  10.523 -0.1251 -0.5027 -0.2408
 7004SOL    HW132471   2.022   3.073  10.558 -0.0924  1.2142 -0.9656
 7004SOL    HW232472   1.907   2.981  10.570 -1.5505 -0.2876 -0.6897
 7005SOL     OW32473   2.359   0.631   6.506  0.1009 -0.2340 -0.2253
 7005SOL    HW132474   2.375   0.688   6.582  0.3031 -1.6779  0.8282
 7005SOL    HW232475   2.273   0.597   6.528 -0.6709  3.0747  1.7922
 7006SOL     OW32476   2.706   2.266   8.536  0.5237 -0.1061  0.3496
 7006SOL    HW132477   2.757   2.345   8.551  0.9051  0.4076 -3.6858
 7006SOL    HW232478   2.661   2.290   8.456  1.0431 -1.4816 -0.3732
 7007SOL     OW32479   1.988   4.080  11.118  0.6891 -0.1416 -0.0845
 7007SOL    HW132480   2.007   4.014  11.052  0.2255 -0.1164 -0.2445
 7007SOL    HW232481   1.929   4.142  11.075 -0.1576  0.0030  1.2845
 7008SOL     OW32482   0.580   2.803   9.334  0.5666  0.3792 -0.4076
 7008SOL    HW132483   0.570   2.876   9.273  2.2237  0.4963 -0.5442
 7008SOL    HW232484   0.674   2.784   9.328  0.3764 -0.2376 -1.3585
 7009SOL     OW32485   1.726   2.316  17.491 -0.2417  0.0434 -0.2137
 7009SOL    HW132486   1.702   2.325  17.583 -1.4819 -2.7208 -0.2635
 7009SOL    HW232487   1.738   2.222  17.499  2.7429  0.6140  1.7409
 7010SOL     OW32488   1.364   4.459  11.736 -0.4639  0.0125 -0.1709
 7010SOL    HW132489   1.422   4.397  11.693 -2.3955 -1.5931 -0.4494
 7010SOL    HW232490   1.277   4.435  11.705 -1.5107  0.7138  2.1858
 7011SOL     OW32491   2.686   0.705  15.120  0.2603  0.3583  0.1900
 7011SOL    HW132492   2.592   0.693  15.131  0.3513 -1.2475 -0.7009
 7011SOL    HW232493   2.710   0.722  15.211  0.0354 -1.2949  0.5617
 7012SOL     OW32494   0.004   0.431   6.316  0.1570 -0.4019  0.2714
 7012SOL    HW132495   0.041   0.426   6.228 -0.4190 -1.3257  0.0811
 7012SOL    HW232496   4.634   0.441   6.292  1.0726  0.6733 -2.7427
 7013SOL     OW32497   3.235   1.015   2.460 -0.0147 -0.3607 -0.0808
 7013SOL    HW132498   3.198   0.929   2.441  1.2555 -1.0550  0.6570
 7013SOL    HW232499   3.158   1.060   2.496  0.8268 -0.6343  2.0989
 7014SOL     OW32500   0.805   3.635  15.039 -0.5181 -0.3772  0.2813
 7014SOL    HW132501   0.747   3.582  15.092  0.0977 -1.1453  0.1823
 7014SOL    HW232502   0.753   3.715  15.028  2.1677  1.8103  3.6325
 7015SOL     OW32503   4.007   3.637   7.429 -0.2260  0.0322  0.7900
 7015SOL    HW132504   3.975   3.641   7.339  1.4032  0.8360  0.2471
 7015SOL    HW232505   3.927   3.648   7.481 -0.2555 -2.1983  1.2271
 7016SOL     OW32506   1.768   1.218   8.520  0.4410 -0.3862  0.3597
 7016SOL    HW132507   1.821   1.206   8.599  0.5587 -0.4923  0.2655
 7016SOL    HW232508   1.777   1.311   8.501 -0.8484 -0.0477  1.4354
 7017SOL     OW32509   2.677   2.686   7.205 -0.1426 -0.0777 -0.2490
 7017SOL    HW132510   2.709   2.622   7.269 -2.5892 -0.7683  0.2538
 7017SOL    HW232511   2.662   2.632   7.128  1.8514 -0.9870  0.0076
 7018SOL     OW32512   1.009   2.048   1.644 -0.3833  0.3227  0.0206
 7018SOL    HW132513   0.979   1.958   1.626  2.5948 -0.7750  0.6372
 7018SOL    HW232514   0.996   2.094   1.561  3.3756  0.4818 -0.4667
 7019SOL     OW32515   2.650   2.252   3.458  0.1688  0.0809 -0.0644
 7019SOL    HW132516   2.644   2.251   3.554  0.1495 -0.7776 -0.0719
 7019SOL    HW232517   2.663   2.346   3.445 -1.3390  0.2090 -0.6240
 7020SOL     OW32518   1.737   4.077  10.462 -0.8252  0.1301  0.2973
 7020SOL    HW132519   1.658   4.131  10.455 -0.1125  1.0870 -0.4151
 7020SOL    HW232520   1.717   4.012  10.395 -1.2038  1.5295 -0.9579
 7021SOL     OW32521   4.219   1.845   0.729  0.6015  0.7413 -0.1377
 7021SOL    HW132522   4.236   1.832   0.822 -1.0646  0.6281  0.1399
 7021SOL    HW232523   4.138   1.896   0.736 -0.5770 -1.1861  0.2440
 7022SOL     OW32524   2.392   2.295   2.513  0.5425  1.0539 -0.2599
 7022SOL    HW132525   2.301   2.268   2.522  0.4491  0.9506 -1.5223
 7022SOL    HW232526   2.378   2.304   2.418 -0.8384 -1.3699 -0.2636
 7023SOL     OW32527   0.796   1.960   6.030 -0.0069  0.1054  0.6186
 7023SOL    HW132528   0.743   2.037   6.051  0.9696  0.5951  1.2397
 7023SOL    HW232529   0.861   1.961   6.100 -0.7936  0.9231  1.3248
 7024SOL     OW32530   4.076   0.733   7.159 -0.4816 -0.0088  0.0755
 7024SOL    HW132531   4.145   0.789   7.123 -1.6262  2.6971  2.0599
 7024SOL    HW232532   4.013   0.717   7.088 -0.1341  1.5533 -0.5919
 7025SOL     OW32533   3.681   0.947  11.862 -0.4310 -0.2617 -0.5058
 7025SOL    HW132534   3.703   0.898  11.782  2.7269 -0.4155  0.4624
 7025SOL    HW232535   3.655   0.881  11.926 -1.0838 -0.9397 -1.4555
 7026SOL     OW32536   1.457   1.299   7.737  0.1563 -0.0949  0.5722
 7026SOL    HW132537   1.385   1.258   7.689 -0.7717  2.1299  0.0417
 7026SOL    HW232538   1.432   1.258   7.820 -0.6260 -0.5971  0.0924
 7027SOL     OW32539   0.508   3.358   5.348 -0.2283  0.1219  0.2685
 7027SOL    HW132540   0.449   3.299   5.302  0.0367 -1.2525  1.6504
 7027SOL    HW232541   0.443   3.417   5.386 -0.8222  0.5688 -1.4450
 7028SOL     OW32542   3.037   0.933   3.354 -0.2784 -0.0720 -0.2365
 7028SOL    HW132543   3.118   0.982   3.369  0.4492 -1.4702  0.3721
 7028SOL    HW232544   2.984   0.995   3.304 -0.1788 -0.1874 -0.4841
 7029SOL     OW32545   4.358   4.243  11.737  0.1657  0.3074 -0.5699
 7029SOL    HW132546   4.451   4.225  11.750  0.7885  1.6893 -3.2000
 7029SOL    HW232547   4.362   4.259  11.642 -0.6061 -0.0063 -0.6579
 7030SOL     OW32548   2.208   3.184   5.614 -1.0625  0.4347 -0.2321
 7030SOL    HW132549   2.191   3.126   5.540 -0.6362  0.0017  0.0114
 7030SOL    HW232550   2.280   3.236   5.578 -0.0059 -0.8219  0.0785
 7031SOL     OW32551   4.494   3.632   5.943  0.7656  0.4511  0.2240
 7031SOL    HW132552   4.567   3.694   5.941  1.3603 -0.2782 -0.5446
 7031SOL    HW232553   4.525   3.565   6.003  0.6211  1.2802  1.2217
 7032SOL     OW32554   3.767   3.683   9.771 -0.2017 -0.0633 -0.0743
 7032SOL    HW132555   3.742   3.671   9.679 -2.6833  0.5614  0.4919
 7032SOL    HW232556   3.681   3.668   9.811  0.1365 -1.0528  0.2772
 7033SOL     OW32557   3.565   1.607   3.352  0.1290 -0.0816  0.0815
 7033SOL    HW132558   3.473   1.617   3.374 -0.6666 -1.4414 -2.5912
 7033SOL    HW232559   3.563   1.582   3.259 -3.4483 -2.4109  0.7734
 7034SOL     OW32560   2.671   3.613  17.612  0.8315 -0.5651 -0.7362
 7034SOL    HW132561   2.709   3.612  17.524 -0.4913 -1.7332 -1.2878
 7034SOL    HW232562   2.651   3.706  17.620  0.5676 -0.5752 -1.2444
 7035SOL     OW32563   4.430   0.050   7.997  0.0665 -0.4061 -0.0269
 7035SOL    HW132564   4.394   0.011   8.076 -1.2650  0.7393 -0.0561
 7035SOL    HW232565   4.421   4.691   7.947  0.2118 -0.5650  0.2037
 7036SOL     OW32566   1.899   2.992   2.257  0.1524 -0.3785  0.0179
 7036SOL    HW132567   1.950   3.019   2.334 -2.6297 -0.7972  2.0301
 7036SOL    HW232568   1.825   2.960   2.310 -1.6834 -0.8914 -2.8817
 7037SOL     OW32569   2.688   0.884   3.576 -0.3525  0.0690 -0.6348
 7037SOL    HW132570   2.657   0.925   3.496 -2.2203  1.0922  0.6080
 7037SOL    HW232571   2.652   0.795   3.570 -0.9489  0.2628  0.1613
 7038SOL     OW32572   4.359   1.496   9.305  0.2399  0.2301 -0.1890
 7038SOL    HW132573   4.376   1.518   9.397 -1.2783  0.2276  0.0815
 7038SOL    HW232574   4.420   1.423   9.292  0.2330  0.3736 -1.0030
 7039SOL     OW32575   2.140   0.002   6.972  0.8157 -0.3804 -0.1251
 7039SOL    HW132576   2.146   0.077   7.032  4.1900 -0.1360 -0.7734
 7039SOL    HW232577   2.185   4.653   7.018  0.5194 -0.1300  0.5566
 7040SOL     OW32578   0.387   3.791   2.001  0.1545  0.5435  0.2714
 7040SOL    HW132579   0.420   3.780   2.090  1.6787 -0.8911 -0.4740
 7040SOL    HW232580   0.374   3.699   1.976  0.7285  0.3778  0.6031
 7041SOL     OW32581   0.593   2.390   9.507 -0.2795 -0.4312 -0.2802
 7041SOL    HW132582   0.525   2.438   9.459 -0.8939  0.5624  1.5893
 7041SOL    HW232583   0.670   2.445   9.492  0.9666 -1.8860  0.8024
 7042SOL     OW32584   2.246   1.408  11.648  0.2123 -0.1421  0.2443
 7042SOL    HW132585   2.239   1.502  11.632 -1.5421 -0.6507 -1.9202
 7042SOL    HW232586   2.178   1.379  11.588  0.1764  1.5221 -0.4912
 7043SOL     OW32587   0.532   0.048   7.696 -0.3282  0.7751 -0.7516
 7043SOL    HW132588   0.472   0.078   7.628  0.4720  0.2175 -1.7139
 7043SOL    HW232589   0.577   0.130   7.716 -1.1764  1.3343 -1.1249
 7044SOL     OW32590   1.034   0.041   5.319  0.0009  0.4559 -0.1978
 7044SOL    HW132591   1.042   4.687   5.261  0.7815 -1.6752  2.6496
 7044SOL    HW232592   1.120   0.043   5.362 -0.4739  1.7866  0.7044
 7045SOL     OW32593   1.043   2.867   2.271 -0.1363 -0.2060  0.2824
 7045SOL    HW132594   1.022   2.920   2.348 -0.5586 -0.3738  0.2830
 7045SOL    HW232595   1.033   2.925   2.196 -0.8360 -0.5427  0.1165
 7046SOL     OW32596   1.228   0.506   6.679  0.5782  0.4960  0.2366
 7046SOL    HW132597   1.160   0.563   6.713 -0.2116  1.0381 -2.2614
 7046SOL    HW232598   1.300   0.552   6.722 -1.1690  1.8962  1.6395
 7047SOL     OW32599   2.913   0.974   8.111 -0.8699 -0.1147  0.5018
 7047SOL    HW132600   2.863   1.024   8.176  0.1963  2.0715 -0.3681
 7047SOL    HW232601   2.956   0.906   8.163 -0.5204  0.3061  0.7583
 7048SOL     OW32602   0.573   1.319   8.733  0.3614 -0.0137  0.6145
 7048SOL    HW132603   0.668   1.313   8.725  0.4028  2.0188 -0.1959
 7048SOL    HW232604   0.570   1.300   8.827  1.3957  0.4992  0.7433
 7049SOL     OW32605   2.877   3.661  10.770  0.0903  0.1104  0.2425
 7049SOL    HW132606   2.955   3.715  10.783  1.5679 -1.7957 -0.8313
 7049SOL    HW232607   2.820   3.738  10.758 -2.7799 -1.5785  3.1870
 7050SOL     OW32608   0.726   2.857   8.500  0.5382 -0.2818  0.2520
 7050SOL    HW132609   0.820   2.850   8.512  0.7530  0.6856 -0.8224
 7050SOL    HW232610   0.714   2.947   8.469 -1.5776 -0.9429 -0.9352
 7051SOL     OW32611   3.549   4.717   3.644  0.5003 -0.4095  0.0183
 7051SOL    HW132612   3.511   0.065   3.698 -1.0395  0.4828 -2.2196
 7051SOL    HW232613   3.540   4.639   3.699  0.0759 -1.4712 -1.5588
 7052SOL     OW32614   4.273   4.008   4.264  0.1944  0.2255 -0.0397
 7052SOL    HW132615   4.304   3.987   4.176  0.2599 -0.9746  0.2745
 7052SOL    HW232616   4.348   4.041   4.313  0.6593 -0.9749  0.0290
 7053SOL     OW32617   2.744   2.378   2.386 -0.4011  0.0495 -0.2578
 7053SOL    HW132618   2.831   2.388   2.347  0.2120  0.2655  1.1923
 7053SOL    HW232619   2.688   2.419   2.320  0.8137 -1.0961 -2.0146
 7054SOL     OW32620   3.969   3.611   5.348 -0.3255  0.5590  0.0799
 7054SOL    HW132621   3.885   3.621   5.392  0.2974  2.4817  0.8640
 7054SOL    HW232622   4.024   3.633   5.423  1.2832 -0.5783 -0.7653
 7055SOL     OW32623   4.358   1.411   5.933  0.0449  0.5872  0.4581
 7055SOL    HW132624   4.414   1.346   5.891 -0.0613  0.2101  0.8986
 7055SOL    HW232625   4.406   1.491   5.914  1.5009 -0.6985 -1.2108
 7056SOL     OW32626   1.996   3.189   3.254  0.4328 -0.2798 -0.3935
 7056SOL    HW132627   2.021   3.108   3.298  2.4438  0.2222 -0.5772
 7056SOL    HW232628   1.985   3.238   3.336 -0.5915  0.4942 -0.9941
 7057SOL     OW32629   1.948   0.266   3.671 -0.8399  0.4224 -0.3082
 7057SOL    HW132630   1.872   0.304   3.714 -0.4194 -0.0823  0.8800
 7057SOL    HW232631   1.911   0.183   3.641 -2.5493  1.0524  0.0390
 7058SOL     OW32632   4.196   4.630   3.494 -0.0549  0.3467 -0.6396
 7058SOL    HW132633   4.154   4.615   3.410 -1.5005 -2.9500  0.6812
 7058SOL    HW232634   4.225   4.542   3.517 -0.0071  0.7629  0.9365
 7059SOL     OW32635   1.019   3.558  10.660  0.0251 -0.3241 -0.0122
 7059SOL    HW132636   1.019   3.475  10.707 -2.7274 -1.1496 -1.4576
 7059SOL    HW232637   0.946   3.551  10.599  1.2315  0.7476 -1.5722
 7060SOL     OW32638   1.939   0.427   2.567  0.0357  0.3052  0.0898
 7060SOL    HW132639   1.857   0.393   2.530  1.6628 -1.6571 -1.7477
 7060SOL    HW232640   1.964   0.356   2.626  0.6782 -1.9454 -2.8596
 7061SOL     OW32641   0.200   1.263   5.826 -0.0960 -0.3150  0.6511
 7061SOL    HW132642   0.294   1.278   5.839 -0.1364 -0.5781  1.2310
 7061SOL    HW232643   0.208   1.192   5.763  2.4443 -0.7602  1.4467
 7062SOL     OW32644   2.232   1.901   2.130 -0.0605  0.0434 -0.1694
 7062SOL    HW132645   2.323   1.895   2.100 -0.4191  0.5597 -1.3417
 7062SOL    HW232646   2.229   1.818   2.179 -0.6436  0.1307 -0.0604
 7063SOL     OW32647   1.816   3.827   4.290 -0.2371 -1.0946 -0.2120
 7063SOL    HW132648   1.901   3.869   4.277 -1.6631  1.7060 -0.5431
 7063SOL    HW232649   1.795   3.805   4.200 -2.1587  0.6833 -0.2232
 7064SOL     OW32650   3.161   3.738  15.048 -0.7932 -0.0750  0.7853
 7064SOL    HW132651   3.122   3.825  15.050 -1.6905 -0.4192 -2.1370
 7064SOL    HW232652   3.105   3.677  15.095 -1.1006 -0.8856 -0.6258
 7065SOL     OW32653   4.423   1.319   0.972 -0.5181 -0.8469 -0.1841
 7065SOL    HW132654   4.437   1.235   0.927  1.3473 -0.6391  0.0056
 7065SOL    HW232655   4.438   1.379   0.899  0.9707 -0.3964  0.4986
 7066SOL     OW32656   2.562   2.958   8.587 -0.3092 -0.5002 -0.0433
 7066SOL    HW132657   2.475   2.919   8.582 -0.3904 -0.3851  0.4303
 7066SOL    HW232658   2.530   3.047   8.603 -0.7702 -0.5275 -0.8547
 7067SOL     OW32659   2.494   4.355   6.129 -0.3381  0.0654 -0.1815
 7067SOL    HW132660   2.516   4.421   6.194 -0.5076  0.1631 -0.2228
 7067SOL    HW232661   2.445   4.291   6.182 -0.6705  1.0884  0.7409
 7068SOL     OW32662   0.163   2.581  10.783 -0.3621  0.2605  0.0118
 7068SOL    HW132663   0.178   2.599  10.690  2.4778  1.9185  0.8164
 7068SOL    HW232664   0.243   2.534  10.807 -0.7151  0.0867  0.8275
 7069SOL     OW32665   2.686   3.502   4.208  0.1988 -0.5629  0.2876
 7069SOL    HW132666   2.668   3.416   4.169 -0.7770  0.1660 -0.8618
 7069SOL    HW232667   2.646   3.557   4.141 -2.3312 -0.4867  1.8953
 7070SOL     OW32668   3.355   3.910  16.957  0.4171 -0.5937 -0.4151
 7070SOL    HW132669   3.287   3.967  16.922  0.0343 -0.1902  0.9847
 7070SOL    HW232670   3.434   3.931  16.907  1.0564  0.0629  0.8620
 7071SOL     OW32671   0.689   3.982   7.277 -0.3916 -0.1019 -0.2413
 7071SOL    HW132672   0.693   3.889   7.302  1.0304 -0.6449 -2.5138
 7071SOL    HW232673   0.598   4.005   7.262  0.1809  1.9118 -0.5921
 7072SOL     OW32674   2.495   3.604   4.004 -0.5231 -0.3346 -0.5789
 7072SOL    HW132675   2.432   3.668   4.038  0.5930  1.4443 -1.8271
 7072SOL    HW232676   2.432   3.533   3.998  1.0694 -1.5136 -3.2870
 7073SOL     OW32677   0.174   1.553  16.832  0.4417 -0.4232  0.3401
 7073SOL    HW132678   0.112   1.618  16.864  0.5555 -1.0372  1.7827
 7073SOL    HW232679   0.147   1.551  16.740  2.1892  0.7143 -0.2024
 7074SOL     OW32680   2.974   0.838   3.900  0.2636  0.2924  0.0494
 7074SOL    HW132681   2.973   0.857   3.807 -2.7425  0.0848  0.0334
 7074SOL    HW232682   3.063   0.803   3.898  0.5357  0.9940 -0.4200
 7075SOL     OW32683   2.886   1.366  11.454  0.4665 -0.3007  0.4131
 7075SOL    HW132684   2.824   1.306  11.413 -0.3336 -0.2015  1.4801
 7075SOL    HW232685   2.892   1.316  11.535 -0.4864 -1.2290 -0.0925
 7076SOL     OW32686   0.322   2.807  10.381 -0.1940 -0.2750 -0.3222
 7076SOL    HW132687   0.271   2.788  10.301  0.5544 -1.4768 -0.5168
 7076SOL    HW232688   0.344   2.899  10.365  0.7060 -0.1592  1.6285
 7077SOL     OW32689   1.560   4.059   4.684  0.6207  0.0768 -0.1313
 7077SOL    HW132690   1.605   4.072   4.768  2.3257  1.9882 -1.3388
 7077SOL    HW232691   1.583   4.137   4.633  1.3732 -1.4328 -2.1011
 7078SOL     OW32692   2.280   2.278   8.155  0.4597 -0.4897  0.0855
 7078SOL    HW132693   2.282   2.303   8.062 -3.2319 -0.2888  0.0723
 7078SOL    HW232694   2.280   2.360   8.205  0.4319 -0.1113 -0.5347
 7079SOL     OW32695   2.516   1.493   5.646  0.5337  1.0031 -0.1419
 7079SOL    HW132696   2.533   1.506   5.739 -0.0147  1.6804 -0.1379
 7079SOL    HW232697   2.604   1.480   5.611  0.2266 -1.0750 -0.1553
 7080SOL     OW32698   3.041   0.432   4.585 -0.1842 -0.2196 -0.2216
 7080SOL    HW132699   3.079   0.344   4.589 -0.1155 -0.2150 -0.8254
 7080SOL    HW232700   2.982   0.422   4.660 -2.6742  1.8261 -1.9378
 7081SOL     OW32701   1.624   1.630   6.291  0.1670 -0.4065  0.0480
 7081SOL    HW132702   1.695   1.567   6.277 -0.0244  0.1090 -3.0761
 7081SOL    HW232703   1.671   1.712   6.302  0.2540 -0.4678  0.1273
 7082SOL     OW32704   3.834   0.993  13.013  0.1028  0.0103 -0.3752
 7082SOL    HW132705   3.817   0.942  12.933 -1.9845  0.1904 -0.0495
 7082SOL    HW232706   3.825   0.916  13.070  0.4977  1.0371  1.0635
 7083SOL     OW32707   3.619   4.346  14.432 -0.0067  0.0692  0.1089
 7083SOL    HW132708   3.634   4.417  14.494  1.3442  1.4652 -1.7920
 7083SOL    HW232709   3.528   4.328  14.456 -0.4289  1.8504 -0.1554
 7084SOL     OW32710   0.476   0.159   4.971 -0.1352 -0.3063 -0.4005
 7084SOL    HW132711   0.404   0.100   4.952  0.1583 -0.1993 -1.8814
 7084SOL    HW232712   0.527   0.096   5.022 -3.0619 -0.3838  2.4199
 7085SOL     OW32713   1.599   1.121   2.951  0.1396  0.3596 -0.1487
 7085SOL    HW132714   1.653   1.192   2.986  0.5766 -0.6040  1.1514
 7085SOL    HW232715   1.655   1.065   2.897 -1.9020 -1.1642 -0.6946
 7086SOL     OW32716   4.276   3.686   5.801 -0.1961 -0.2616 -0.4806
 7086SOL    HW132717   4.234   3.600   5.804 -0.1208 -0.2464  1.1652
 7086SOL    HW232718   4.351   3.665   5.856  0.9772 -0.5459 -2.1923
 7087SOL     OW32719   1.357   4.410  11.412 -0.1119 -0.6677 -0.1748
 7087SOL    HW132720   1.298   4.474  11.453 -1.2066 -1.4354 -0.5661
 7087SOL    HW232721   1.343   4.345  11.481  2.2726  1.4277  2.2987
 7088SOL     OW32722   0.363   4.562   6.447  0.3888  0.3284 -0.2607
 7088SOL    HW132723   0.428   4.604   6.503  1.1298 -1.8775  0.5326
 7088SOL    HW232724   0.383   4.468   6.438  0.9217  0.4288 -0.1187
 7089SOL     OW32725   3.015   3.695   5.170  0.5800 -0.6961 -0.1945
 7089SOL    HW132726   2.965   3.738   5.101  0.6776  0.6662  0.5804
 7089SOL    HW232727   3.102   3.718   5.136 -0.0820  0.6973 -0.9724
 7090SOL     OW32728   1.717   4.653   0.571  0.0110 -0.5544 -0.5322
 7090SOL    HW132729   1.648   4.688   0.516  0.3604 -2.2012 -1.9973
 7090SOL    HW232730   1.723   4.560   0.550  2.1943 -0.5254 -0.1012
 7091SOL     OW32731   3.042   1.737   1.832 -0.9702  0.0841 -0.0668
 7091SOL    HW132732   3.001   1.762   1.750  0.9828  1.3704 -0.6511
 7091SOL    HW232733   3.115   1.798   1.823 -1.1275  0.5459  1.7527
 7092SOL     OW32734   2.950   1.234   1.937 -0.3224  0.3117  0.2609
 7092SOL    HW132735   2.995   1.193   1.863 -0.1523  1.5343 -0.3063
 7092SOL    HW232736   2.972   1.325   1.917 -1.4394  0.3306 -0.9192
 7093SOL     OW32737   1.326   3.867   7.080  0.4376  0.0534 -0.7039
 7093SOL    HW132738   1.332   3.870   6.984  1.2965  0.0912 -0.6457
 7093SOL    HW232739   1.371   3.785   7.099  0.2028 -0.3507 -1.9051
 7094SOL     OW32740   2.085   3.852   9.860 -0.4315  0.2012 -0.8930
 7094SOL    HW132741   1.995   3.847   9.893 -0.6821  2.2110 -1.2885
 7094SOL    HW232742   2.091   3.944   9.833 -0.3335 -0.0474 -1.7191
 7095SOL     OW32743   3.443   4.301   0.715 -0.2875 -0.0687 -0.6101
 7095SOL    HW132744   3.433   4.285   0.809  1.7722  1.4047 -0.1360
 7095SOL    HW232745   3.363   4.253   0.698 -0.1789 -0.5801  0.3216
 7096SOL     OW32746   0.991   4.223   5.496 -0.2008 -0.2517  0.4473
 7096SOL    HW132747   0.909   4.202   5.451  0.4790 -2.5926  0.3053
 7096SOL    HW232748   0.961   4.235   5.586 -0.6055 -0.2027  0.3053
 7097SOL     OW32749   0.541   0.995   5.624 -0.3217 -0.2634 -0.1560
 7097SOL    HW132750   0.452   1.031   5.624 -0.3090 -0.2281 -0.9098
 7097SOL    HW232751   0.567   1.020   5.713 -1.2796 -0.8841  0.3031
 7098SOL     OW32752   1.360   0.384   3.474 -0.1319  0.1925 -0.6494
 7098SOL    HW132753   1.340   0.290   3.474  2.4043 -0.3580  0.6096
 7098SOL    HW232754   1.362   0.403   3.380 -0.9355 -0.9811 -0.8971
 7099SOL     OW32755   3.337   3.259   4.502 -0.4619 -0.0657  0.2618
 7099SOL    HW132756   3.275   3.268   4.430 -2.9101  0.7517  2.4932
 7099SOL    HW232757   3.414   3.235   4.450 -0.2877  2.3221 -0.5719
 7100SOL     OW32758   0.096   4.557   4.582 -0.2741  0.4068  0.2945
 7100SOL    HW132759   0.099   4.560   4.678 -2.7357 -0.1289  0.3781
 7100SOL    HW232760   0.004   4.562   4.559 -0.4740  0.1768  1.0561
 7101SOL     OW32761   0.577   2.366   7.090  0.4425 -0.0238  0.1052
 7101SOL    HW132762   0.607   2.281   7.057 -1.4334  0.4386 -2.8195
 7101SOL    HW232763   0.521   2.338   7.163  0.7838  1.3698  0.8942
 7102SOL     OW32764   3.308   0.909   3.035  0.1194  0.3335  0.2001
 7102SOL    HW132765   3.282   0.928   2.945 -3.2396  1.6363  1.4205
 7102SOL    HW232766   3.256   0.978   3.077  0.1678 -0.4691  1.5626
 7103SOL     OW32767   1.586   3.601   6.893  0.5182  0.1688 -0.4433
 7103SOL    HW132768   1.595   3.508   6.871  1.2175  0.3380 -0.8764
 7103SOL    HW232769   1.578   3.650   6.811 -0.1993  1.0856  0.1778
 7104SOL     OW32770   4.385   2.395   5.565 -0.3615  0.0181  0.8725
 7104SOL    HW132771   4.298   2.386   5.526 -0.0462 -2.3031  0.6899
 7104SOL    HW232772   4.382   2.328   5.634 -1.3422 -0.3102  0.5119
 7105SOL     OW32773   0.430   3.739   7.118 -0.6026 -0.1409  0.1349
 7105SOL    HW132774   0.499   3.736   7.184  1.8024 -2.4224 -2.4593
 7105SOL    HW232775   0.425   3.834   7.108 -0.1865 -0.0013  1.2404
 7106SOL     OW32776   0.284   4.693   5.000 -0.0457 -0.9779 -0.1781
 7106SOL    HW132777   0.207   4.700   5.058 -1.3771  0.3313 -2.1028
 7106SOL    HW232778   0.244   4.678   4.915  0.7314 -1.5144 -0.4460
 7107SOL     OW32779   1.911   0.856  14.419 -0.4833  0.3001 -0.2990
 7107SOL    HW132780   1.888   0.767  14.446  1.4218 -0.2234 -0.4042
 7107SOL    HW232781   1.909   0.920  14.491  1.0209  0.0461 -0.0230
 7108SOL     OW32782   3.977   2.804  14.453  0.2088  0.0662 -0.4894
 7108SOL    HW132783   3.946   2.735  14.512 -0.3364  1.8792  1.3695
 7108SOL    HW232784   4.055   2.760  14.420  0.7511  0.5782  0.0984
 7109SOL     OW32785   1.543   0.744   7.399 -0.2800  0.2221  0.1360
 7109SOL    HW132786   1.624   0.692   7.397  0.2346  1.0560 -1.4430
 7109SOL    HW232787   1.512   0.724   7.487 -0.0530 -2.3054 -0.3586
 7110SOL     OW32788   3.367   1.184  10.046  0.4244  0.0057  0.1075
 7110SOL    HW132789   3.274   1.186  10.066  0.6133 -1.0328  1.0709
 7110SOL    HW232790   3.363   1.113   9.982 -2.2191  1.0524 -0.8756
 7111SOL     OW32791   1.552   0.318   4.935 -0.0585 -0.4912  0.1463
 7111SOL    HW132792   1.508   0.277   5.010 -2.7947 -0.5452 -1.4828
 7111SOL    HW232793   1.610   0.243   4.918  0.3193  0.4289 -2.6300
 7112SOL     OW32794   2.648   3.375   8.904 -0.3666 -0.2004 -0.1669
 7112SOL    HW132795   2.723   3.352   8.958 -0.6622 -0.6768  0.0395
 7112SOL    HW232796   2.687   3.420   8.829 -0.7169 -0.3153 -0.4213
 7113SOL     OW32797   3.531   3.675  15.921  0.4172  0.8390  0.4446
 7113SOL    HW132798   3.448   3.713  15.894 -0.3942 -0.5204  0.9946
 7113SOL    HW232799   3.566   3.737  15.984  2.1564 -1.4868  1.7981
 7114SOL     OW32800   1.268   3.898  11.050 -0.2120  0.0720 -0.2275
 7114SOL    HW132801   1.205   3.883  11.121  0.7441 -3.0341 -0.0396
 7114SOL    HW232802   1.226   3.970  11.002 -1.7508 -0.4400  0.3346
 7115SOL     OW32803   2.252   3.831   3.419  0.3206  0.5176  0.6689
 7115SOL    HW132804   2.163   3.810   3.447 -0.0608  1.0825 -0.1159
 7115SOL    HW232805   2.273   3.751   3.371 -0.4513  0.3234  0.6514
 7116SOL     OW32806   0.755   2.910   7.189  0.3264 -0.2644 -0.0266
 7116SOL    HW132807   0.702   2.834   7.167  0.1629 -0.0127 -0.5205
 7116SOL    HW232808   0.782   2.937   7.101  2.6966 -0.1025  0.7555
 7117SOL     OW32809   2.844   4.132  12.114 -0.1989  0.1084  0.4834
 7117SOL    HW132810   2.835   4.038  12.124  0.2200 -0.2435 -2.4637
 7117SOL    HW232811   2.842   4.154  12.207 -0.2442 -0.8878  0.7101
 7118SOL     OW32812   4.342   0.680   4.059  0.3493  0.1815  0.1186
 7118SOL    HW132813   4.437   0.678   4.067  0.2972 -0.6151  0.5997
 7118SOL    HW232814   4.335   0.726   3.976  0.4706  0.6576  0.3677
 7119SOL     OW32815   4.505   4.629   7.516 -0.4585 -0.1288 -0.2341
 7119SOL    HW132816   4.443   4.665   7.452 -1.7867 -0.3559  0.9146
 7119SOL    HW232817   4.566   4.700   7.537 -1.5533  0.5457  0.7183
 7120SOL     OW32818   1.523   4.114   7.868 -0.3941 -0.2045 -0.0856
 7120SOL    HW132819   1.449   4.086   7.813  0.0150 -2.1752  0.3758
 7120SOL    HW232820   1.571   4.035   7.893  0.8561  0.3657 -0.6907
 7121SOL     OW32821   2.405   0.226   7.147  1.2859  0.4359 -0.1625
 7121SOL    HW132822   2.315   0.232   7.115  1.1587  0.5160  0.2117
 7121SOL    HW232823   2.399   0.282   7.224  3.2096 -0.8436  0.9075
 7122SOL     OW32824   4.289   4.664   5.228  0.1479  0.4008  0.1698
 7122SOL    HW132825   4.263   4.619   5.308 -1.1029  0.7243 -0.0452
 7122SOL    HW232826   4.224   4.628   5.167 -0.2341  0.1096  0.7519
 7123SOL     OW32827   0.613   1.674   9.524  0.1666  0.1640  0.1859
 7123SOL    HW132828   0.648   1.711   9.605  0.1355  2.0395 -0.6623
 7123SOL    HW232829   0.686   1.691   9.465  0.6276 -2.7641 -0.0757
 7124SOL     OW32830   4.653   4.229   9.028 -0.8946  0.3037 -0.5081
 7124SOL    HW132831   4.683   4.217   9.118 -0.4567  0.7011 -0.5965
 7124SOL    HW232832   4.653   4.325   9.028  1.8701  0.3149  1.8294
 7125SOL     OW32833   0.101   0.040   8.815  0.4228  0.0874 -0.5032
 7125SOL    HW132834   0.086   0.130   8.842  2.3515  0.3636 -0.3051
 7125SOL    HW232835   0.172   0.050   8.751  0.7354 -0.3670 -0.2351
 7126SOL     OW32836   2.493   4.448   7.367  0.7238  0.7008 -0.4647
 7126SOL    HW132837   2.582   4.442   7.331  0.5047  3.6135 -1.5061
 7126SOL    HW232838   2.482   4.543   7.364 -0.0620  0.6472  0.6497
 7127SOL     OW32839   4.043   1.575   4.330  0.0659 -0.2440 -0.7789
 7127SOL    HW132840   3.996   1.507   4.281 -1.3773 -0.4815  0.9363
 7127SOL    HW232841   4.085   1.523   4.399  0.3277  0.8152 -0.1429
 7128SOL     OW32842   4.258   3.952  10.320 -0.6109  0.0085  0.1906
 7128SOL    HW132843   4.228   4.030  10.274 -2.4859  0.8413  2.7946
 7128SOL    HW232844   4.327   3.927  10.259 -0.7274 -3.3474  1.4571
 7129SOL     OW32845   1.045   3.101   9.454  0.1600 -0.2497  0.0681
 7129SOL    HW132846   1.075   3.021   9.410 -1.4883  1.0437 -3.3977
 7129SOL    HW232847   0.957   3.109   9.418  0.3465  0.1121 -0.3060
 7130SOL     OW32848   0.389   3.414   8.911 -0.4232 -0.4907  0.2107
 7130SOL    HW132849   0.296   3.406   8.934 -0.5813  0.1983 -0.2022
 7130SOL    HW232850   0.436   3.352   8.966 -0.2957  0.3328  1.0238
 7131SOL     OW32851   3.463   1.566   6.051  0.3974 -0.3750 -0.0852
 7131SOL    HW132852   3.527   1.636   6.056  0.5973 -0.5330 -0.4221
 7131SOL    HW232853   3.450   1.558   5.957  2.6841 -0.9918 -0.3512
 7132SOL     OW32854   4.222   4.572   7.175  0.1756 -0.0887 -0.1664
 7132SOL    HW132855   4.145   4.614   7.137  0.0421 -0.3640 -0.2018
 7132SOL    HW232856   4.259   4.642   7.229  1.2001  0.3914 -1.5101
 7133SOL     OW32857   2.151   3.725  14.564 -0.4882  0.1878 -0.4658
 7133SOL    HW132858   2.122   3.634  14.560  3.1104 -0.9777 -0.1120
 7133SOL    HW232859   2.076   3.769  14.524 -2.2205 -2.1787  0.1610
 7134SOL     OW32860   0.854   4.320  10.710  0.3448 -0.9741 -0.2137
 7134SOL    HW132861   0.878   4.335  10.618  2.0900 -2.6219 -0.0422
 7134SOL    HW232862   0.902   4.238  10.725 -0.3274 -1.1941  0.7047
 7135SOL     OW32863   0.333   0.208   0.944  0.4635  0.1365  0.5473
 7135SOL    HW132864   0.317   0.281   0.884 -1.5055 -0.5512  0.2565
 7135SOL    HW232865   0.300   0.264   1.014 -0.6480 -1.6467  1.4388
 7136SOL     OW32866   2.200   4.272  15.405  0.6339 -0.4224 -0.2709
 7136SOL    HW132867   2.193   4.209  15.477  3.1721 -2.0314 -1.4200
 7136SOL    HW232868   2.242   4.346  15.449  1.4201 -0.6735 -0.5814
 7137SOL     OW32869   3.553   3.578   6.625 -0.1581  0.0052 -0.2194
 7137SOL    HW132870   3.484   3.636   6.659 -0.1384 -0.3449  0.4164
 7137SOL    HW232871   3.616   3.579   6.698  0.0837  2.1966 -0.4400
 7138SOL     OW32872   2.954   2.868   5.045 -0.1759  0.1882  0.0935
 7138SOL    HW132873   3.011   2.932   5.003 -1.8059  1.7923  0.3119
 7138SOL    HW232874   3.022   2.835   5.103 -0.4216 -0.2010  0.1625
 7139SOL     OW32875   2.967   1.543   3.504  0.2206  0.7713 -0.2576
 7139SOL    HW132876   2.880   1.579   3.486  1.0552  2.2586 -1.3707
 7139SOL    HW232877   2.967   1.539   3.599 -1.0094 -0.3138 -0.3033
 7140SOL     OW32878   4.208   0.068  14.992  0.1243 -0.5879  0.1302
 7140SOL    HW132879   4.164   0.010  15.055 -0.9216  0.8774  0.7380
 7140SOL    HW232880   4.136   0.127  14.971 -2.0008 -2.3648  2.3488
 7141SOL     OW32881   0.804   3.681  14.191 -0.2624  0.2260  0.1013
 7141SOL    HW132882   0.761   3.633  14.121 -0.5085  0.2144  0.2592
 7141SOL    HW232883   0.747   3.758  14.188 -2.3163 -1.3411 -1.4639
 7142SOL     OW32884   0.601   4.326  14.537 -0.0813  0.6472  0.0266
 7142SOL    HW132885   0.686   4.351  14.501  0.5120 -0.0654  0.9237
 7142SOL    HW232886   0.575   4.268  14.466 -0.1327  2.1028 -1.1537
 7143SOL     OW32887   3.687   3.093   6.864 -0.0277  0.1100 -0.2363
 7143SOL    HW132888   3.676   3.116   6.956 -0.8549  2.2564 -0.8867
 7143SOL    HW232889   3.717   3.178   6.834 -1.2328  0.7807  0.4485
 7144SOL     OW32890   2.728   4.489   5.206 -0.4017 -0.0752 -0.5021
 7144SOL    HW132891   2.722   4.394   5.206  1.0797 -0.1631  1.8501
 7144SOL    HW232892   2.635   4.512   5.205 -0.3070  0.2996 -0.6671
 7145SOL     OW32893   2.725   3.276   6.844 -0.3659 -0.0453  0.1493
 7145SOL    HW132894   2.672   3.252   6.768 -0.7252  1.3058 -0.0222
 7145SOL    HW232895   2.652   3.292   6.903 -0.1924  0.2508  0.2830
 7146SOL     OW32896   1.614   3.652   1.070  0.1667 -0.2884 -0.2424
 7146SOL    HW132897   1.675   3.724   1.079 -0.7333  0.5561 -0.8462
 7146SOL    HW232898   1.602   3.649   0.975  0.4385  1.6537 -0.3254
 7147SOL     OW32899   0.823   4.215   7.233 -0.3543 -0.0392 -0.1405
 7147SOL    HW132900   0.842   4.268   7.310 -0.3586 -1.4218  0.8161
 7147SOL    HW232901   0.776   4.141   7.273  0.8645 -1.2397 -0.9120
 7148SOL     OW32902   4.103   0.659   0.165  0.0360  0.4108 -0.2642
 7148SOL    HW132903   4.139   0.693   0.247 -1.0245  0.4483  0.1859
 7148SOL    HW232904   4.009   0.670   0.178 -0.2452 -1.9728 -0.2060
 7149SOL     OW32905   3.085   4.716   3.351  0.5516  0.2147  0.4479
 7149SOL    HW132906   3.023   4.650   3.321 -1.0803  1.9597  0.0469
 7149SOL    HW232907   3.057   0.006   3.442 -1.6463 -1.6165 -0.0179
 7150SOL     OW32908   3.849   1.451   6.793 -0.3594 -0.2782  0.7856
 7150SOL    HW132909   3.788   1.469   6.864  2.1987  0.6081  2.7864
 7150SOL    HW232910   3.806   1.506   6.729  1.9389  1.3405  0.6224
 7151SOL     OW32911   4.563   1.729   3.531 -0.4476  0.4166  0.1965
 7151SOL    HW132912   4.603   1.650   3.568 -1.1835 -0.9339 -1.8977
 7151SOL    HW232913   4.477   1.688   3.531 -0.1423 -0.2225 -0.5497
 7152SOL     OW32914   4.459   2.500   5.303  0.4674  0.9928 -0.0261
 7152SOL    HW132915   4.447   2.463   5.391 -0.9383  1.4312 -0.0377
 7152SOL    HW232916   4.413   2.433   5.254 -0.5129  0.9795  0.9132
 7153SOL     OW32917   1.630   0.422  14.183  0.0786 -0.3370  0.0690
 7153SOL    HW132918   1.716   0.396  14.215  0.9797 -1.4136 -3.1936
 7153SOL    HW232919   1.653   0.501  14.133  0.6368  0.0651  0.9553
 7154SOL     OW32920   3.032   2.086   4.237  0.3115 -0.6071 -0.6553
 7154SOL    HW132921   3.032   2.016   4.171  0.3456 -1.5046  0.2970
 7154SOL    HW232922   2.958   2.142   4.214 -1.2365 -1.9077  1.1759
 7155SOL     OW32923   3.206   4.103   9.344  0.0093  0.0106  0.0718
 7155SOL    HW132924   3.298   4.120   9.364 -0.6187  1.9915  1.2805
 7155SOL    HW232925   3.183   4.051   9.422  0.6322  1.3081  1.1148
 7156SOL     OW32926   2.246   4.581  14.460  0.2577  0.0253  0.0830
 7156SOL    HW132927   2.323   4.596  14.405 -0.1743 -0.6712 -0.7212
 7156SOL    HW232928   2.208   4.503  14.419  0.3635 -0.9896  1.9043
 7157SOL     OW32929   1.914   3.013   7.843  0.8465 -0.3471 -0.7842
 7157SOL    HW132930   1.997   3.050   7.874 -0.0824  0.6212  0.5535
 7157SOL    HW232931   1.927   2.927   7.882 -1.9829 -0.8996 -1.0818
 7158SOL     OW32932   2.852   3.679   7.127  0.1537 -0.0213 -0.6418
 7158SOL    HW132933   2.856   3.600   7.073 -1.6117  1.3847 -2.8660
 7158SOL    HW232934   2.782   3.655   7.187  0.2962  1.3994  0.0961
 7159SOL     OW32935   3.763   4.428   8.071  0.6410 -0.5032  0.5688
 7159SOL    HW132936   3.773   4.397   8.160 -1.9367  1.9158  1.7190
 7159SOL    HW232937   3.775   4.349   8.018  3.2421 -0.0140  0.4156
 7160SOL     OW32938   4.244   0.486   3.303  0.4132 -0.0104  0.8283
 7160SOL    HW132939   4.228   0.401   3.263  1.2825  0.3860 -0.3521
 7160SOL    HW232940   4.338   0.474   3.322  0.3595 -0.8478  0.5616
 7161SOL     OW32941   0.402   1.422   4.123 -0.3617  0.7455 -0.2404
 7161SOL    HW132942   0.371   1.445   4.036 -1.4849 -1.4753 -0.4480
 7161SOL    HW232943   0.337   1.359   4.157 -2.0684  2.7169  0.1454
 7162SOL     OW32944   1.570   1.025   7.437  0.4079  0.0936 -0.2672
 7162SOL    HW132945   1.621   1.065   7.367  3.1323 -3.1932 -0.1327
 7162SOL    HW232946   1.568   0.932   7.417 -2.5505 -0.0292  0.6160
 7163SOL     OW32947   0.325   3.530   2.017 -0.4828 -0.1220 -0.5593
 7163SOL    HW132948   0.263   3.489   2.078  0.6621  0.6035  1.0856
 7163SOL    HW232949   0.402   3.474   2.028 -0.1402  0.3574 -0.5245
 7164SOL     OW32950   3.290   1.451   3.499  0.9711 -0.5450 -0.5143
 7164SOL    HW132951   3.280   1.517   3.430 -0.0345  1.8487  1.9042
 7164SOL    HW232952   3.200   1.421   3.508  0.5955  1.5414  2.5926
 7165SOL     OW32953   2.481   4.452   3.463 -0.4421  0.5825  0.2827
 7165SOL    HW132954   2.545   4.521   3.447 -1.9531  1.6241 -1.2228
 7165SOL    HW232955   2.522   4.386   3.408 -0.7901  1.0713 -0.5612
 7166SOL     OW32956   2.166   0.151   4.369 -0.1851 -0.1391  0.6687
 7166SOL    HW132957   2.247   0.135   4.320  0.3883 -0.3016  1.6750
 7166SOL    HW232958   2.107   0.085   4.334  2.5161 -2.0141 -0.2997
 7167SOL     OW32959   3.059   1.690  17.546 -0.1316 -0.1404  0.2882
 7167SOL    HW132960   2.994   1.678  17.616 -1.8380  1.2516 -1.0441
 7167SOL    HW232961   3.135   1.669  17.599 -0.1636 -0.7829  0.0724
 7168SOL     OW32962   2.655   2.761   3.340  0.5293  0.7977  0.4775
 7168SOL    HW132963   2.746   2.787   3.356  0.6387 -0.7729  2.3634
 7168SOL    HW232964   2.617   2.846   3.318 -1.3864 -0.0242  0.5870
 7169SOL     OW32965   0.881   2.454   5.711  0.0043  0.7695 -0.4891
 7169SOL    HW132966   0.959   2.403   5.690 -0.3792 -0.8122  1.9464
 7169SOL    HW232967   0.874   2.528   5.651  0.9669  2.3598  1.3576
 7170SOL     OW32968   3.855   3.166   3.543  0.0258 -0.1008 -0.2949
 7170SOL    HW132969   3.866   3.093   3.604  3.3111  1.0392  0.4753
 7170SOL    HW232970   3.827   3.120   3.464 -0.0459  1.3815 -1.1163
 7171SOL     OW32971   3.464   4.001   7.399  0.4203  0.4663 -0.2491
 7171SOL    HW132972   3.402   3.966   7.336  0.7785 -1.4839  0.4792
 7171SOL    HW232973   3.528   4.043   7.341 -1.9683  0.3848 -2.9000
 7172SOL     OW32974   3.332   3.749   5.110 -0.3473  0.1263  0.1276
 7172SOL    HW132975   3.340   3.814   5.040 -0.8500 -0.2896 -0.3201
 7172SOL    HW232976   3.336   3.795   5.194 -0.1843  1.2082 -0.4755
 7173SOL     OW32977   1.211   0.831  15.878  0.5415  0.3246  0.6870
 7173SOL    HW132978   1.162   0.883  15.941  1.0655  1.7623 -0.0849
 7173SOL    HW232979   1.277   0.793  15.936  0.0268  0.1220  1.1410
 7174SOL     OW32980   1.066   3.526   2.147 -0.1744 -0.7499 -0.0366
 7174SOL    HW132981   1.067   3.505   2.240  1.3434 -0.9389 -0.1000
 7174SOL    HW232982   1.124   3.602   2.140  1.2348 -1.7909  0.2552
 7175SOL     OW32983   1.169   0.866   3.751  0.1629 -0.5213 -0.2867
 7175SOL    HW132984   1.219   0.935   3.705  0.8533 -1.9593 -1.6887
 7175SOL    HW232985   1.185   0.792   3.693  0.7203 -1.7654  1.4574
 7176SOL     OW32986   4.128   3.852   2.537 -0.3853  0.0253 -0.2031
 7176SOL    HW132987   4.210   3.839   2.586 -0.3378  1.4550  0.0924
 7176SOL    HW232988   4.073   3.868   2.614 -1.1737  0.9469 -0.9676
 7177SOL     OW32989   0.979   3.689  10.985 -0.1364 -0.3077  0.1945
 7177SOL    HW132990   1.010   3.749  10.918 -1.4431  1.0444  0.8133
 7177SOL    HW232991   1.032   3.610  10.976  1.9524  0.9367  1.4162
 7178SOL     OW32992   0.167   2.611  10.514 -0.6389 -0.1852  0.7399
 7178SOL    HW132993   0.096   2.598  10.452  0.3413 -1.9314 -0.0142
 7178SOL    HW232994   0.217   2.687  10.485 -0.9792 -0.0125  0.6055
 7179SOL     OW32995   0.824   2.379  13.076 -0.5182  0.2699  0.2021
 7179SOL    HW132996   0.865   2.395  12.991 -2.0548  0.9775 -0.4120
 7179SOL    HW232997   0.738   2.354  13.043  0.9141 -0.8792 -2.6481
 7180SOL     OW32998   2.708   3.345   0.025  0.3162  0.2654  0.1824
 7180SOL    HW132999   2.693   3.433  17.679  2.7150  1.6541  2.7663
 7180SOL    HW233000   2.760   3.369   0.101  0.8491 -2.8855  0.7942
 7181SOL     OW33001   1.017   2.736  12.425  0.3177 -0.3103 -0.0872
 7181SOL    HW133002   1.007   2.829  12.402 -2.2456 -0.3103  1.0397
 7181SOL    HW233003   1.002   2.703  12.336 -3.5660 -0.0208  0.4817
 7182SOL     OW33004   0.460   4.470   0.968  0.0692  0.1317 -0.4986
 7182SOL    HW133005   0.543   4.457   0.922  1.5809 -1.7347  2.6783
 7182SOL    HW233006   0.427   4.548   0.925 -0.8360 -0.5295 -0.9903
 7183SOL     OW33007   0.494   3.439   1.478 -0.1413  0.3083  0.3667
 7183SOL    HW133008   0.552   3.435   1.402 -2.1236 -0.7050 -1.0468
 7183SOL    HW233009   0.478   3.533   1.488  0.5948  0.4647  0.0951
 7184SOL     OW33010   2.367   0.941  11.574 -0.5282  0.5981  0.0356
 7184SOL    HW133011   2.416   0.867  11.609 -0.6984  0.4200 -0.1069
 7184SOL    HW233012   2.437   0.997  11.540 -0.6655  1.2225  0.7662
 7185SOL     OW33013   1.367   0.520   2.819 -0.1355  0.4327  0.1696
 7185SOL    HW133014   1.327   0.575   2.886 -0.6593  0.9682 -0.5836
 7185SOL    HW233015   1.438   0.584   2.806 -0.1716  0.5723  0.6761
 7186SOL     OW33016   3.852   0.403  14.712 -0.2459  0.0849  0.3342
 7186SOL    HW133017   3.811   0.344  14.776 -1.7514 -0.0140 -0.7224
 7186SOL    HW233018   3.826   0.373  14.625  1.6442  3.3301 -1.3615
 7187SOL     OW33019   4.583   4.634  13.970 -0.1957 -0.2591  0.5985
 7187SOL    HW133020   4.556   0.001  13.996  2.4339  0.2359  1.6389
 7187SOL    HW233021   4.504   4.580  13.977  2.0742 -3.3316  2.2998
 7188SOL     OW33022   4.146   1.031   4.491  0.9553 -0.1929  0.0477
 7188SOL    HW133023   4.215   1.091   4.521 -0.5737  0.8843  1.4490
 7188SOL    HW233024   4.197   0.981   4.427  2.1086  0.2696  0.5915
 7189SOL     OW33025   3.815   1.232   5.885  0.0977 -0.4963 -0.8957
 7189SOL    HW133026   3.826   1.324   5.912  1.6026 -0.4312 -1.7361
 7189SOL    HW233027   3.895   1.229   5.832  0.5362 -2.8104 -0.0959
 7190SOL     OW33028   2.756   4.278  14.026 -0.0769 -0.5236 -0.8890
 7190SOL    HW133029   2.734   4.223  13.951 -2.4775  0.7221 -1.0921
 7190SOL    HW233030   2.749   4.368  13.995 -4.0343 -0.4087  0.3826
 7191SOL     OW33031   0.803   3.817  16.447 -0.0907 -0.5397 -0.3407
 7191SOL    HW133032   0.780   3.878  16.376  1.6576  1.2246  0.6096
 7191SOL    HW233033   0.757   3.862  16.518  0.9622  0.7965 -0.5086
 7192SOL     OW33034   4.385   3.689   8.672 -0.0666 -0.0509 -0.3113
 7192SOL    HW133035   4.383   3.698   8.577  1.7224 -2.3684 -0.5597
 7192SOL    HW233036   4.462   3.743   8.690 -0.6666  1.0530 -1.0592
 7193SOL     OW33037   3.381   2.922   4.956 -0.1290 -0.4732  0.1220
 7193SOL    HW133038   3.379   2.869   4.877  1.2860  0.4318 -0.5280
 7193SOL    HW233039   3.297   2.907   4.999  0.1582 -2.4058 -0.0309
 7194SOL     OW33040   1.854   3.087   9.086  0.0176 -0.3900  0.4815
 7194SOL    HW133041   1.848   3.012   9.145 -1.0614  0.3589  1.3324
 7194SOL    HW233042   1.837   3.162   9.143 -2.5002  1.0969 -2.2457
 7195SOL     OW33043   1.092   3.051   4.502  0.0027 -0.3426 -0.1615
 7195SOL    HW133044   1.162   3.103   4.463 -0.9302 -0.4201 -1.9284
 7195SOL    HW233045   1.021   3.116   4.500  0.8524  0.5495 -1.2471
 7196SOL     OW33046   3.473   3.770  17.220 -0.1205  0.2541  0.1480
 7196SOL    HW133047   3.453   3.770  17.127  0.5927 -0.8028  0.0007
 7196SOL    HW233048   3.422   3.693  17.246  1.8086 -1.5953 -1.6372
 7197SOL     OW33049   3.495   4.615   0.816 -0.4165  0.0321  0.6386
 7197SOL    HW133050   3.579   4.609   0.860 -0.9358 -0.4471  1.5659
 7197SOL    HW233051   3.435   4.600   0.889 -2.4522 -1.7207 -1.3677
 7198SOL     OW33052   0.465   0.871  17.032 -0.1914  0.6194  0.0916
 7198SOL    HW133053   0.438   0.841  17.119 -2.0585  0.7365 -0.4358
 7198SOL    HW233054   0.407   0.945  17.012 -1.1425  0.0036  0.5928
 7199SOL     OW33055   1.204   4.153   7.712 -0.4904 -0.1788  0.0335
 7199SOL    HW133056   1.154   4.185   7.787 -0.5237  1.3363 -0.6316
 7199SOL    HW233057   1.242   4.073   7.748 -2.0165 -0.4407  1.0330
 7200SOL     OW33058   3.765   3.774  10.426 -0.2519  0.5985  0.5394
 7200SOL    HW133059   3.822   3.705  10.393 -2.2452  0.3511 -2.4600
 7200SOL    HW233060   3.775   3.758  10.520  1.7592  0.3007  0.2574
 7201SOL     OW33061   2.825   0.535  15.950 -0.1948 -0.2050 -0.4947
 7201SOL    HW133062   2.909   0.565  15.984 -1.1848  0.4106  1.4275
 7201SOL    HW233063   2.827   0.452  15.999  1.4260  1.8733  2.9588
 7202SOL     OW33064   0.194   3.100   9.931  0.4028  0.0855 -0.0782
 7202SOL    HW133065   0.127   3.032   9.936  0.2670  0.1437 -1.1026
 7202SOL    HW233066   0.150   3.153   9.864  1.5796  0.5600 -0.4856
 7203SOL     OW33067   3.268   0.426   2.607  0.2641 -0.3713  0.2671
 7203SOL    HW133068   3.289   0.334   2.621  2.5534  0.4038  1.8366
 7203SOL    HW233069   3.179   0.415   2.574  0.0196  2.5815 -0.0634
 7204SOL     OW33070   0.917   0.784   2.370 -0.0637  0.3102  0.1898
 7204SOL    HW133071   0.917   0.880   2.363  0.6350  0.1447 -1.8572
 7204SOL    HW233072   0.839   0.764   2.319 -0.0449  1.7988 -0.4157
 7205SOL     OW33073   4.523   3.519  10.939  0.1050  0.4620  0.1073
 7205SOL    HW133074   4.506   3.586  10.874 -1.9840  0.2091  0.3864
 7205SOL    HW233075   4.573   3.562  11.009  0.8226 -0.8378  0.3969
 7206SOL     OW33076   1.958   1.242   4.226  0.1800  0.1953 -0.2825
 7206SOL    HW133077   1.930   1.294   4.301 -0.7431 -1.9986  0.9010
 7206SOL    HW233078   1.904   1.163   4.230  0.6532 -0.0945  0.3258
 7207SOL     OW33079   4.547   1.764   8.649 -0.3373  0.2020  0.0597
 7207SOL    HW133080   4.529   1.722   8.733 -1.7255 -0.2573 -0.4541
 7207SOL    HW233081   4.461   1.770   8.606 -0.4455 -0.2967  0.2121
 7208SOL     OW33082   4.440   4.289  16.467  0.0911 -0.7762 -0.4593
 7208SOL    HW133083   4.513   4.302  16.528  0.3807 -2.4000 -0.4570
 7208SOL    HW233084   4.487   4.238  16.400  0.4139  2.4973 -2.7346
 7209SOL     OW33085   4.256   4.576  14.193 -0.1487  0.1773  0.4402
 7209SOL    HW133086   4.202   4.507  14.228 -0.9647  0.3327 -0.5024
 7209SOL    HW233087   4.313   4.528  14.132 -1.8582  0.0328 -1.0559
 7210SOL     OW33088   1.711   2.024   9.426 -0.2457  0.1382  0.3247
 7210SOL    HW133089   1.626   1.981   9.421  1.0835 -2.3257 -0.7685
 7210SOL    HW233090   1.751   1.990   9.507 -1.0111  1.4347  1.2556
 7211SOL     OW33091   4.280   3.042   6.818 -0.1405  0.0986 -0.5980
 7211SOL    HW133092   4.212   3.109   6.817  1.5125  1.8161  0.7504
 7211SOL    HW233093   4.299   3.032   6.912  1.8527  2.6259 -0.7096
 7212SOL     OW33094   3.457   0.391   8.861 -0.8641 -0.5004  0.2127
 7212SOL    HW133095   3.475   0.442   8.940 -1.7932 -1.2331  0.8983
 7212SOL    HW233096   3.455   0.304   8.901  0.4381 -0.9975 -0.8083
 7213SOL     OW33097   2.513   0.874   2.372 -0.2739 -0.0409  0.0140
 7213SOL    HW133098   2.441   0.936   2.368  0.1974  0.4737 -0.6106
 7213SOL    HW233099   2.550   0.893   2.459 -1.7423 -1.5910  0.9697
 7214SOL     OW33100   0.757   3.376   5.961 -0.6256  0.7678 -0.0842
 7214SOL    HW133101   0.799   3.293   5.980 -0.1306  0.6450 -1.6613
 7214SOL    HW233102   0.779   3.393   5.869 -2.0082 -0.5026 -0.6428
 7215SOL     OW33103   3.542   3.797  14.429  0.2839  0.0795 -0.2383
 7215SOL    HW133104   3.571   3.879  14.470 -1.0533  1.1987 -1.5620
 7215SOL    HW233105   3.473   3.770  14.490  1.3827  1.0062  1.4228
 7216SOL     OW33106   2.643   2.639  11.316 -0.4554  0.2140 -0.1794
 7216SOL    HW133107   2.628   2.729  11.289  0.6848  0.4487 -0.0009
 7216SOL    HW233108   2.712   2.612  11.256 -1.5755 -2.3548 -0.3452
 7217SOL     OW33109   2.856   2.963   2.312 -0.3850 -0.3199 -0.0631
 7217SOL    HW133110   2.942   2.937   2.345 -0.0731  0.0784 -0.5608
 7217SOL    HW233111   2.836   2.874   2.281  2.7639 -0.7758 -0.7716
 7218SOL     OW33112   4.517   2.768  17.438 -0.5480  0.5756 -0.1512
 7218SOL    HW133113   4.484   2.686  17.476  0.8545 -1.1000 -2.5014
 7218SOL    HW233114   4.567   2.732  17.364 -2.4039  0.1952 -1.2372
 7219SOL     OW33115   3.271   4.388   4.457  0.0246  0.4306  0.0438
 7219SOL    HW133116   3.221   4.356   4.382  2.5814  1.2365 -2.0063
 7219SOL    HW233117   3.206   4.375   4.526  2.6713 -1.9145  2.1041
 7220SOL     OW33118   3.401   0.327   6.284  0.3856 -0.1834  0.1566
 7220SOL    HW133119   3.447   0.286   6.211  0.4084  0.0289  0.0507
 7220SOL    HW233120   3.315   0.349   6.248  0.2224  0.2426  0.8117
 7221SOL     OW33121   1.207   2.332   7.847 -0.3610 -0.2700  0.3068
 7221SOL    HW133122   1.128   2.339   7.901 -0.1031  0.8502  0.5258
 7221SOL    HW233123   1.246   2.419   7.854 -0.2649 -0.3142  0.3209
 7222SOL     OW33124   0.090   4.559   7.382  0.7670  0.8030 -0.1425
 7222SOL    HW133125   0.068   4.627   7.446 -1.0822 -0.3643  0.4441
 7222SOL    HW233126   0.074   4.614   7.305 -1.5360  1.4779  0.8387
 7223SOL     OW33127   3.684   4.076  10.112  0.6526 -0.0867 -0.1467
 7223SOL    HW133128   3.657   3.985  10.101  0.5119 -0.0563 -0.0533
 7223SOL    HW233129   3.748   4.057  10.180 -0.0342  0.2994  0.6108
 7224SOL     OW33130   4.218   4.384  10.731  0.3451 -0.0847  0.1393
 7224SOL    HW133131   4.169   4.344  10.659 -0.4628  1.4072 -0.1313
 7224SOL    HW233132   4.159   4.346  10.797 -0.2088  0.1313 -0.2307
 7225SOL     OW33133   2.218   3.284   7.704  0.1986  0.3468  0.1965
 7225SOL    HW133134   2.128   3.263   7.680  0.7267 -0.3823 -1.1607
 7225SOL    HW233135   2.252   3.196   7.687  2.2005  1.4746 -1.6551
 7226SOL     OW33136   1.764   0.969   3.208  0.2025  0.2304 -0.1981
 7226SOL    HW133137   1.833   0.905   3.189 -0.6477 -0.1893 -1.9371
 7226SOL    HW233138   1.806   1.054   3.197  0.0088  0.4126  0.4712
 7227SOL     OW33139   1.220   3.812   1.578  0.0947 -0.4267 -0.0231
 7227SOL    HW133140   1.299   3.860   1.555 -0.0208  0.0514  0.5731
 7227SOL    HW233141   1.149   3.876   1.572  0.3520 -0.1472 -0.1059
 7228SOL     OW33142   2.327   4.289  14.524  0.0031  0.1280  0.4020
 7228SOL    HW133143   2.378   4.328  14.452  1.6329  2.3812  2.7787
 7228SOL    HW233144   2.249   4.285  14.469 -0.3849  4.0156  0.6734
 7229SOL     OW33145   0.925   1.428   2.588  0.3320 -0.2014  0.1683
 7229SOL    HW133146   0.986   1.393   2.523 -0.2716  0.1089 -0.5631
 7229SOL    HW233147   0.870   1.351   2.602 -0.4820  0.3188 -0.1857
 7230SOL     OW33148   0.405   0.039  11.152 -0.2076  0.0722 -0.1992
 7230SOL    HW133149   0.436   0.129  11.144  1.5510 -0.7944 -2.9239
 7230SOL    HW233150   0.465   4.710  11.098 -1.1664  1.1241 -2.2299
 7231SOL     OW33151   3.748   2.917   5.466 -0.9316  0.1524  0.2997
 7231SOL    HW133152   3.716   2.852   5.529  2.1341 -1.5588  0.0933
 7231SOL    HW233153   3.836   2.887   5.443 -1.3607 -2.4009  2.0278
 7232SOL     OW33154   1.137   2.970   5.522 -0.1471 -0.0738  0.3491
 7232SOL    HW133155   1.107   2.897   5.467  1.4493 -0.9862  0.6943
 7232SOL    HW233156   1.231   2.956   5.522  0.0666  1.3947 -0.4975
 7233SOL     OW33157   4.625   3.965   3.071  0.1482  0.3654  0.0004
 7233SOL    HW133158   4.662   3.974   3.159  1.2293  0.5508 -0.4794
 7233SOL    HW233159   4.533   3.969   3.099  0.0541  0.9937 -0.4003
 7234SOL     OW33160   4.124   3.789  16.717 -0.0632 -0.5065 -0.1311
 7234SOL    HW133161   4.124   3.705  16.762  2.6812 -1.2305 -1.4866
 7234SOL    HW233162   4.033   3.816  16.727  0.3248  1.0079 -0.6397
 7235SOL     OW33163   1.654   3.896  10.260  0.0579 -1.0528  0.1073
 7235SOL    HW133164   1.732   3.853  10.296  0.8087  1.8664  1.9528
 7235SOL    HW233165   1.645   3.831  10.190  1.0944 -0.4443 -0.5922
 7236SOL     OW33166   0.476   4.495   8.231  0.1745 -0.4506  0.0176
 7236SOL    HW133167   0.391   4.538   8.233  0.3974  0.1033 -2.2983
 7236SOL    HW233168   0.461   4.402   8.217  0.7175 -0.7103  1.1638
 7237SOL     OW33169   0.004   2.108  17.159 -0.3806 -0.1685  1.1919
 7237SOL    HW133170   0.057   2.059  17.096 -0.2357  0.0037  1.1780
 7237SOL    HW233171   4.654   2.131  17.099 -1.0105 -0.2475  1.9219
 7238SOL     OW33172   4.472   2.897   9.075 -0.5210  0.0416 -0.0019
 7238SOL    HW133173   4.535   2.838   9.116 -0.2313 -0.2148 -0.8101
 7238SOL    HW233174   4.510   2.898   8.987  1.3517 -2.8024  0.7861
 7239SOL     OW33175   3.966   2.662   1.050  0.3039 -0.1227  0.0342
 7239SOL    HW133176   4.032   2.727   1.075  1.3059 -0.2900 -2.1183
 7239SOL    HW233177   3.887   2.712   1.032  1.6141  1.3904 -1.5147
 7240SOL     OW33178   2.194   0.806  11.403 -0.0988  0.1816  0.1003
 7240SOL    HW133179   2.177   0.866  11.330  3.1282  1.1073  0.1148
 7240SOL    HW233180   2.234   0.862  11.471 -0.1488 -1.0594  1.1516
 7241SOL     OW33181   4.406   4.360   4.248  0.2179 -0.8297  0.6679
 7241SOL    HW133182   4.416   4.348   4.343 -0.0361  2.5123  1.1389
 7241SOL    HW233183   4.313   4.337   4.248 -0.4889  1.9959 -0.2209
 7242SOL     OW33184   2.235   2.080   5.498  0.5601 -0.3473 -0.2648
 7242SOL    HW133185   2.296   2.034   5.440 -0.3996  0.7120 -2.1302
 7242SOL    HW233186   2.243   2.043   5.586  1.9568  0.1525 -0.1772
 7243SOL     OW33187   1.063   4.465   0.273 -0.1068 -0.2313 -0.6877
 7243SOL    HW133188   1.056   4.478   0.178  1.9811 -1.7679 -1.0529
 7243SOL    HW233189   1.006   4.538   0.297  0.7138  0.3247 -0.4081
 7244SOL     OW33190   1.590   4.647   1.072 -0.0196  0.2998  0.6181
 7244SOL    HW133191   1.652   4.612   1.008  0.0456  0.9122  0.3471
 7244SOL    HW233192   1.584   4.576   1.135  1.1393 -0.1040  0.2740
 7245SOL     OW33193   3.144   4.703   8.278 -0.0626 -0.2951  0.4263
 7245SOL    HW133194   3.209   4.651   8.231  1.0627  0.7290  0.8378
 7245SOL    HW233195   3.203   0.022   8.342  2.0458 -1.2644 -0.9296
 7246SOL     OW33196   3.901   4.084   7.391 -0.1913 -0.1401 -0.2064
 7246SOL    HW133197   3.946   4.164   7.362 -0.7248  0.2786  0.1273
 7246SOL    HW233198   3.934   4.015   7.333 -0.2954  0.2016 -0.6660
 7247SOL     OW33199   0.015   0.420   4.458  0.1767 -0.2112 -0.1799
 7247SOL    HW133200   0.031   0.401   4.365  0.5814  2.0936 -0.5586
 7247SOL    HW233201   4.697   0.336   4.482  2.3475 -1.4350 -0.9251
 7248SOL     OW33202   1.794   1.486  17.520  0.0887  0.0873  0.1875
 7248SOL    HW133203   1.871   1.455  17.473 -2.1893 -4.6479 -0.4117
 7248SOL    HW233204   1.804   1.424  17.593 -2.1546 -1.5443 -0.8855
 7249SOL     OW33205   2.757   4.180   0.838 -0.2887 -0.2676  0.6442
 7249SOL    HW133206   2.714   4.230   0.768  1.8391 -1.1418 -1.3173
 7249SOL    HW233207   2.709   4.097   0.839 -0.1086 -0.3437  2.7574
 7250SOL     OW33208   1.656   1.859   5.147  0.1627  0.0080 -0.3687
 7250SOL    HW133209   1.739   1.873   5.100 -0.8417 -0.7941 -2.3874
 7250SOL    HW233210   1.701   1.848   5.231 -0.1252  1.3600 -0.0315
 7251SOL     OW33211   3.169   1.190  11.306  0.0779 -0.1190 -0.0924
 7251SOL    HW133212   3.100   1.123  11.312  0.6170 -0.5308  1.4089
 7251SOL    HW233213   3.229   1.161  11.375  2.7094 -1.3396 -2.8954
 7252SOL     OW33214   1.229   1.817  14.524  0.2521 -0.0738  0.0400
 7252SOL    HW133215   1.276   1.859  14.597  0.8404  1.4614 -1.2318
 7252SOL    HW233216   1.163   1.773  14.578 -0.0079 -1.2537 -1.2435
 7253SOL     OW33217   1.790   1.586   6.837 -0.2268 -0.4275  0.0387
 7253SOL    HW133218   1.717   1.635   6.798 -0.9814 -1.0495  0.6701
 7253SOL    HW233219   1.749   1.547   6.914 -2.0399  0.8874 -0.2696
 7254SOL     OW33220   1.667   4.490   4.457  0.1526 -0.2671 -0.4113
 7254SOL    HW133221   1.598   4.435   4.492  1.3059 -1.4957 -0.0510
 7254SOL    HW233222   1.698   4.429   4.390  2.1285 -1.6520  1.7619
 7255SOL     OW33223   4.285   0.834  16.093 -0.4762  0.6002  0.6181
 7255SOL    HW133224   4.317   0.789  16.015 -2.8565 -0.2326  0.1011
 7255SOL    HW233225   4.199   0.793  16.101  0.0056 -0.8417 -1.6167
 7256SOL     OW33226   3.811   3.162   7.649  0.3063  0.1507 -0.3043
 7256SOL    HW133227   3.820   3.257   7.652 -0.5976  0.2498 -0.8391
 7256SOL    HW233228   3.720   3.150   7.623  0.2015 -1.6466  0.8764
 7257SOL     OW33229   1.657   0.275  13.551  0.3316 -0.0337 -0.5487
 7257SOL    HW133230   1.663   0.250  13.643  0.0005 -0.3416 -0.6062
 7257SOL    HW233231   1.638   0.367  13.564  0.9248  0.2008 -1.3523
 7258SOL     OW33232   4.205   4.284   7.210  0.0683 -0.3875 -0.0375
 7258SOL    HW133233   4.119   4.246   7.194  0.2936  0.1829 -2.5809
 7258SOL    HW233234   4.193   4.377   7.191 -1.8579 -0.4837  0.7414
 7259SOL     OW33235   2.900   4.349   7.397 -0.5197 -1.1512 -0.4478
 7259SOL    HW133236   2.862   4.355   7.485 -0.5331 -2.6289 -0.3489
 7259SOL    HW233237   2.848   4.414   7.349 -1.4574 -1.1067  0.6038
 7260SOL     OW33238   3.102   3.824   4.599 -0.1590 -0.3189 -0.0474
 7260SOL    HW133239   3.105   3.749   4.540  2.5413 -1.9727  2.1569
 7260SOL    HW233240   3.196   3.827   4.617 -0.0165  1.4695 -1.0687
 7261SOL     OW33241   3.252   1.046   8.196  0.1224 -0.2230  0.3243
 7261SOL    HW133242   3.224   0.957   8.176  3.5051 -0.4998 -2.9729
 7261SOL    HW233243   3.319   1.053   8.128 -0.0968  2.5152  0.3806
 7262SOL     OW33244   3.304   3.818   6.274 -0.1827  0.1220 -0.1321
 7262SOL    HW133245   3.369   3.762   6.315 -0.2660  0.3235  0.2693
 7262SOL    HW233246   3.280   3.868   6.352  1.9557  1.7815 -0.5144
 7263SOL     OW33247   0.068   0.694   9.222  0.0153 -0.2646  0.3041
 7263SOL    HW133248   4.717   0.752   9.244 -0.1704 -0.2632 -0.3260
 7263SOL    HW233249   0.107   0.750   9.155 -1.3707  1.5069  0.9544
 7264SOL     OW33250   4.721   3.382  14.656 -0.0269 -0.3603 -0.2444
 7264SOL    HW133251   4.635   3.367  14.695  0.1657  2.7456  1.4032
 7264SOL    HW233252   0.044   3.393  14.739 -0.4665 -2.1159  0.2226
 7265SOL     OW33253   2.827   1.411   7.312  0.2213 -0.2006  0.0233
 7265SOL    HW133254   2.900   1.356   7.283 -0.9781 -1.4348 -0.6718
 7265SOL    HW233255   2.879   1.487   7.336  1.3935 -0.8936 -0.3280
 7266SOL     OW33256   0.707   2.057   6.368 -0.4518  0.0633 -0.0609
 7266SOL    HW133257   0.785   2.027   6.322 -0.4810  0.8645 -0.6313
 7266SOL    HW233258   0.658   1.976   6.382 -2.3217  0.8366 -2.0190
 7267SOL     OW33259   4.345   3.345  14.178 -0.0749 -0.5306 -0.1668
 7267SOL    HW133260   4.262   3.328  14.223  0.5599 -1.2830  0.7336
 7267SOL    HW233261   4.416   3.319  14.236  0.8180  0.6045 -0.7564
 7268SOL     OW33262   0.924   2.113   9.228 -0.6242  0.2611  0.4098
 7268SOL    HW133263   0.897   2.106   9.137 -2.7906  1.1542  0.9758
 7268SOL    HW233264   0.848   2.160   9.265  0.1792  1.5460  0.4248
 7269SOL     OW33265   3.593   0.817   6.562 -0.2663  0.4097 -0.1864
 7269SOL    HW133266   3.513   0.860   6.531 -1.1418 -0.4499  0.8955
 7269SOL    HW233267   3.648   0.814   6.484 -0.4056  0.6908 -0.2992
 7270SOL     OW33268   1.228   1.544   2.978 -0.5197  0.0962 -0.2134
 7270SOL    HW133269   1.292   1.478   2.951 -3.5786 -2.1249 -2.0047
 7270SOL    HW233270   1.246   1.625   2.930  0.3675 -1.4061 -2.3975
 7271SOL     OW33271   3.965   4.442   4.598 -0.1906 -0.1274 -0.1675
 7271SOL    HW133272   4.021   4.384   4.547  1.4099  0.3722  1.0115
 7271SOL    HW233273   3.879   4.410   4.573 -0.6154 -0.2191  1.3727
 7272SOL     OW33274   2.170   3.079   1.404  0.2720 -0.0297  0.4331
 7272SOL    HW133275   2.148   3.152   1.346 -1.5025 -1.3410 -0.5198
 7272SOL    HW233276   2.265   3.083   1.390  0.1395 -0.1945 -0.4610
 7273SOL     OW33277   4.288   0.563   7.954 -0.0487  0.3704  0.7150
 7273SOL    HW133278   4.249   0.544   7.868  1.6026  0.1183  0.0250
 7273SOL    HW233279   4.314   0.655   7.950  0.0322  0.2806 -1.0991
 7274SOL     OW33280   2.673   3.663   1.909  0.7672 -0.1505 -0.7019
 7274SOL    HW133281   2.682   3.747   1.864  1.6110  1.1181  1.8633
 7274SOL    HW233282   2.691   3.681   2.001 -1.5510 -1.5522  0.0437
 7275SOL     OW33283   4.062   2.872   3.999  0.0908  0.6476  0.6530
 7275SOL    HW133284   4.071   2.967   4.002 -0.3129  0.6580  1.4573
 7275SOL    HW233285   4.008   2.868   4.078  0.3649  2.2692  0.9293
 7276SOL     OW33286   2.888   4.646   0.147 -0.6002  0.0401 -0.0153
 7276SOL    HW133287   2.875   4.694   0.066 -1.2527 -0.5784 -0.2750
 7276SOL    HW233288   2.797   4.618   0.160 -0.9119  0.0827 -2.2033
 7277SOL     OW33289   4.269   1.805   7.745 -0.0645 -1.1326 -0.6444
 7277SOL    HW133290   4.241   1.730   7.692  0.2254 -2.0806  0.5371
 7277SOL    HW233291   4.190   1.814   7.799  0.3894  0.7049 -0.3171
 7278SOL     OW33292   0.348   4.492   3.476 -0.1863 -0.4003  0.4265
 7278SOL    HW133293   0.405   4.563   3.503 -1.4958  2.1855 -3.5035
 7278SOL    HW233294   0.382   4.430   3.540 -0.3088 -2.6753 -1.7235
 7279SOL     OW33295   2.983   2.663   6.839 -0.1414 -0.1596  0.1670
 7279SOL    HW133296   2.938   2.741   6.871  0.7918  0.0581  0.9648
 7279SOL    HW233297   3.055   2.672   6.902 -0.7807 -2.5287  1.2382
 7280SOL     OW33298   1.874   4.463  17.278  0.3364 -0.7807 -0.5495
 7280SOL    HW133299   1.871   4.453  17.183 -0.4033 -1.0430 -0.4949
 7280SOL    HW233300   1.837   4.550  17.292 -2.4673 -2.5692  3.1159
 7281SOL     OW33301   2.525   3.615   2.929 -0.3923 -0.0454  0.0774
 7281SOL    HW133302   2.619   3.633   2.930 -0.0087 -1.9277 -1.9671
 7281SOL    HW233303   2.506   3.613   3.023  1.2407 -1.6053  0.3695
 7282SOL     OW33304   4.492   2.139   4.695 -0.2783 -0.3585 -0.0830
 7282SOL    HW133305   4.457   2.190   4.622  0.3642 -0.9034 -0.7744
 7282SOL    HW233306   4.518   2.052   4.664  1.1595 -1.2321  3.5731
 7283SOL     OW33307   0.560   1.449   4.659 -0.5261 -0.0306 -0.6474
 7283SOL    HW133308   0.525   1.361   4.666  1.2150 -0.5379  1.8741
 7283SOL    HW233309   0.567   1.458   4.564 -1.0336 -3.2864 -0.9713
 7284SOL     OW33310   1.570   1.256   9.362 -1.0362 -0.6500 -0.0101
 7284SOL    HW133311   1.493   1.275   9.309 -1.1166 -1.9254 -0.3406
 7284SOL    HW233312   1.600   1.345   9.383 -0.2535 -1.5190  2.5801
 7285SOL     OW33313   4.266   1.460  10.475 -0.0226 -0.3838  0.1728
 7285SOL    HW133314   4.223   1.416  10.548 -1.2005  2.8853  1.4438
 7285SOL    HW233315   4.190   1.494  10.428 -0.1046 -1.3475 -0.3780
 7286SOL     OW33316   3.965   2.263   0.009 -0.4496  0.3214 -0.0057
 7286SOL    HW133317   4.017   2.342   0.020 -0.3943  0.6859 -2.8380
 7286SOL    HW233318   4.033   2.213  17.653 -0.6645 -2.2066  2.4799
 7287SOL     OW33319   4.596   0.854   4.485 -0.0078  0.0829 -0.5324
 7287SOL    HW133320   4.637   0.774   4.517 -2.0175 -1.0014 -0.6711
 7287SOL    HW233321   4.666   0.918   4.496 -0.6578  0.9465 -1.4400
 7288SOL     OW33322   4.158   0.376  16.476 -0.2587  0.0081  0.3044
 7288SOL    HW133323   4.228   0.314  16.498  1.3752  1.4807 -0.7459
 7288SOL    HW233324   4.087   0.314  16.458 -0.5327 -0.2317  2.1876
 7289SOL     OW33325   0.098   2.177   4.489  0.1656  0.1070 -0.1221
 7289SOL    HW133326   0.050   2.191   4.408 -0.3977 -0.5374  0.1013
 7289SOL    HW233327   0.142   2.092   4.480 -0.9849 -0.4545 -0.4100
 7290SOL     OW33328   3.767   3.161   8.029  0.3038 -0.4089 -0.1354
 7290SOL    HW133329   3.820   3.111   7.966  2.7485  1.1152  0.7121
 7290SOL    HW233330   3.720   3.094   8.079 -0.1191  1.3598  1.8071
 7291SOL     OW33331   1.143   0.311   4.858 -0.1622 -0.6196 -0.2844
 7291SOL    HW133332   1.133   0.320   4.952  2.8936  0.5614 -0.0932
 7291SOL    HW233333   1.144   0.405   4.842 -0.7270 -0.7501 -1.1174
 7292SOL     OW33334   0.896   0.040   4.387  0.5346 -0.2207 -0.2649
 7292SOL    HW133335   0.930   4.679   4.351  0.1078 -0.5159  0.0092
 7292SOL    HW233336   0.868   0.082   4.306  0.4813 -0.2764 -0.2751
 7293SOL     OW33337   0.231   1.151  14.291 -0.1357 -0.2696  0.0747
 7293SOL    HW133338   0.292   1.133  14.363 -1.5914  0.7935  1.5745
 7293SOL    HW233339   0.282   1.104  14.225 -0.0248 -0.7529  0.5068
 7294SOL     OW33340   4.559   2.104   9.369 -0.5671  0.2948  0.2580
 7294SOL    HW133341   4.589   2.055   9.293  0.2939  2.0487 -0.5313
 7294SOL    HW233342   4.495   2.049   9.415  0.2461  0.1515  1.2021
 7295SOL     OW33343   4.305   3.217   2.863  0.0272 -0.4363  0.2846
 7295SOL    HW133344   4.276   3.306   2.885 -0.1074 -0.3107 -0.4092
 7295SOL    HW233345   4.286   3.223   2.769  0.4518 -0.7743  0.1772
 7296SOL     OW33346   2.341   3.141   1.062  0.0710  0.3957  0.2437
 7296SOL    HW133347   2.255   3.161   1.097 -0.3056 -3.2867  1.4563
 7296SOL    HW233348   2.341   3.045   1.063  3.5458  0.4360  2.2944
 7297SOL     OW33349   0.191   3.737   2.815  0.0497 -0.7589  0.5863
 7297SOL    HW133350   0.149   3.742   2.729 -0.3689 -1.3015  0.7686
 7297SOL    HW233351   0.253   3.810   2.807  0.0669 -0.4862  3.2261
 7298SOL     OW33352   2.512   0.618   8.476 -0.9467  0.6283 -0.1279
 7298SOL    HW133353   2.606   0.630   8.462 -0.7546 -0.3502  0.3201
 7298SOL    HW233354   2.509   0.543   8.416 -0.0373  0.1291  0.4447
 7299SOL     OW33355   0.160   3.051  12.898  0.4594  0.4234 -0.2891
 7299SOL    HW133356   0.201   2.976  12.854 -0.9169 -1.4992  1.6916
 7299SOL    HW233357   0.106   3.008  12.964  0.9781  1.2232  0.6549
 7300SOL     OW33358   0.824   3.777  14.472  0.0525  0.4957 -0.1461
 7300SOL    HW133359   0.796   3.711  14.408 -2.1500 -0.2939  1.6301
 7300SOL    HW233360   0.916   3.756  14.486 -0.4570 -1.0578  0.9256
 7301SOL     OW33361   4.117   3.755  16.168 -0.2801  0.0938  0.4142
 7301SOL    HW133362   4.180   3.700  16.123 -1.2827 -0.3957 -0.3923
 7301SOL    HW233363   4.159   3.787  16.248  1.4501 -0.7644 -0.1524
 7302SOL     OW33364   3.125   3.319   6.146 -0.6888 -0.1612  0.2894
 7302SOL    HW133365   3.070   3.248   6.178  1.0030 -1.5201  0.1817
 7302SOL    HW233366   3.086   3.396   6.186  1.4503  1.5505 -0.9726
 7303SOL     OW33367   2.419   0.202   5.114 -0.4460  0.4701 -0.0354
 7303SOL    HW133368   2.363   0.226   5.189  0.7006  2.2204  0.2671
 7303SOL    HW233369   2.503   0.208   5.159  0.2466  1.3370 -1.4643
 7304SOL     OW33370   1.189   4.201   8.319  0.0777  0.2012 -0.2435
 7304SOL    HW133371   1.146   4.138   8.261  3.2843 -2.0920 -0.2067
 7304SOL    HW233372   1.118   4.249   8.360  0.5207  1.0966 -0.5170
 7305SOL     OW33373   3.440   1.246   3.028 -0.1863 -0.1821 -0.3322
 7305SOL    HW133374   3.522   1.225   2.982 -1.1058 -0.4384 -1.8532
 7305SOL    HW233375   3.383   1.240   2.951  0.2991  1.1484 -0.8014
 7306SOL     OW33376   0.835   3.726  11.636 -0.4308  0.1544  0.5423
 7306SOL    HW133377   0.822   3.646  11.584  0.2742 -0.2436  0.9687
 7306SOL    HW233378   0.785   3.797  11.597 -0.8837 -1.3793 -1.6728
 7307SOL     OW33379   2.328   0.714   2.246  0.3398 -0.0075  0.0251
 7307SOL    HW133380   2.359   0.760   2.168 -0.0146  0.2435  0.0357
 7307SOL    HW233381   2.389   0.752   2.310 -0.3943  0.9142  0.1726
 7308SOL     OW33382   2.874   3.356   9.099  0.1115 -0.0683  0.3200
 7308SOL    HW133383   2.900   3.447   9.111  2.3958 -0.4776 -1.6405
 7308SOL    HW233384   2.822   3.334   9.177 -0.9977 -0.1109 -0.4294
 7309SOL     OW33385   2.263   0.263  14.162 -0.0678  0.2791 -0.4278
 7309SOL    HW133386   2.355   0.238  14.155 -0.8015 -2.0569 -1.4570
 7309SOL    HW233387   2.222   0.203  14.224  0.1956 -0.0466 -0.5677
 7310SOL     OW33388   4.226   1.686   5.102 -0.5846  0.2620 -0.7379
 7310SOL    HW133389   4.308   1.673   5.149 -0.4605  2.8230 -0.2474
 7310SOL    HW233390   4.173   1.606   5.111 -0.3121  0.0788 -0.7472
 7311SOL     OW33391   2.698   0.825  13.353  0.8329  0.0522  0.3828
 7311SOL    HW133392   2.649   0.793  13.277 -0.4892  1.2729  0.7053
 7311SOL    HW233393   2.785   0.788  13.341  2.1010  2.1288  3.2479
 7312SOL     OW33394   3.170   1.750   8.054 -1.0199  0.1155 -0.2966
 7312SOL    HW133395   3.207   1.779   8.137 -0.9459 -0.9330  0.0281
 7312SOL    HW233396   3.215   1.667   8.044  2.0519  1.3728  3.2090
 7313SOL     OW33397   2.620   3.313   2.524  0.2030 -0.0992  0.5465
 7313SOL    HW133398   2.633   3.218   2.524  0.3763 -0.0934 -1.4634
 7313SOL    HW233399   2.663   3.337   2.441 -0.9627 -2.6563 -0.8055
 7314SOL     OW33400   3.655   1.423   6.993  0.2681  0.1141  0.5966
 7314SOL    HW133401   3.588   1.415   7.061  0.7663  1.1491  1.2014
 7314SOL    HW233402   3.683   1.332   6.984  3.5272  1.0398  1.2558
 7315SOL     OW33403   0.798   0.271  17.230 -0.2562 -0.5371  0.1611
 7315SOL    HW133404   0.825   0.324  17.305 -1.5337  1.8074 -1.0450
 7315SOL    HW233405   0.784   0.187  17.274  1.2634  0.1622  2.0019
 7316SOL     OW33406   1.817   0.724   5.377  0.2997  0.4468 -0.3488
 7316SOL    HW133407   1.801   0.765   5.461  1.8339 -0.9504  0.6353
 7316SOL    HW233408   1.786   0.794   5.320  1.7464  1.6065  0.3122
 7317SOL     OW33409   4.504   2.868   3.618  0.0595 -0.0718  0.1900
 7317SOL    HW133410   4.591   2.839   3.588  0.3998  2.8821 -1.7367
 7317SOL    HW233411   4.473   2.918   3.542 -2.1701  0.7673  1.6827
 7318SOL     OW33412   0.019   3.889  11.199 -0.0464 -0.4854 -0.0397
 7318SOL    HW133413   0.097   3.892  11.256 -1.3495 -0.5827  1.7555
 7318SOL    HW233414   0.064   3.878  11.115 -0.3981 -2.5917  0.0506
 7319SOL     OW33415   1.042   1.687   0.449  0.0993  0.8395  0.2717
 7319SOL    HW133416   1.060   1.704   0.357 -3.6557  2.3405 -0.1666
 7319SOL    HW233417   1.013   1.773   0.480 -0.6607  1.4967 -2.2792
 7320SOL     OW33418   0.548   2.759   2.239  0.3091  0.1180  0.1457
 7320SOL    HW133419   0.499   2.806   2.171  1.8633 -0.2280 -1.2391
 7320SOL    HW233420   0.517   2.672   2.216  0.1413 -0.0781  1.1104
 7321SOL     OW33421   1.042   2.384   1.677  0.0330 -0.1756  0.2488
 7321SOL    HW133422   1.042   2.359   1.770  1.9536 -1.3393 -0.0467
 7321SOL    HW233423   0.973   2.450   1.683 -1.3739 -1.7868  1.6131
 7322SOL     OW33424   4.323   4.234   3.165  0.6772 -0.4657 -0.1699
 7322SOL    HW133425   4.251   4.201   3.219 -0.3042  0.8707 -0.7021
 7322SOL    HW233426   4.388   4.247   3.235  1.7287  0.7882 -1.3930
 7323SOL     OW33427   4.180   2.226  15.459  0.7805 -0.1973  0.4269
 7323SOL    HW133428   4.149   2.144  15.423  1.0293  0.8449 -2.1677
 7323SOL    HW233429   4.169   2.224  15.554 -1.6618  1.1882  0.1940
 7324SOL     OW33430   0.289   0.732  10.400 -1.0448 -0.4997  0.4240
 7324SOL    HW133431   0.233   0.768  10.332 -0.6129  2.6081  1.6942
 7324SOL    HW233432   0.257   0.787  10.472 -0.0177  0.6846 -0.0253
 7325SOL     OW33433   2.486   4.208   7.462 -0.8279  0.3175 -0.5553
 7325SOL    HW133434   2.459   4.278   7.402  1.3369  0.8994 -0.8565
 7325SOL    HW233435   2.405   4.200   7.512 -1.3042 -0.8122 -1.5205
 7326SOL     OW33436   4.645   3.153  13.115  0.6567 -0.7191  0.7287
 7326SOL    HW133437   4.663   3.217  13.184 -1.5277  0.7279 -0.0646
 7326SOL    HW233438   4.704   3.086  13.150  1.0652 -0.5464  0.3595
 7327SOL     OW33439   0.061   3.673   3.592  0.1283  0.4467 -0.0498
 7327SOL    HW133440   0.068   3.583   3.559  0.2731 -0.0329  1.3023
 7327SOL    HW233441   0.007   3.709   3.521 -0.8485 -1.7971 -0.4538
 7328SOL     OW33442   4.632   0.333   1.075  0.3792  0.1643  0.2859
 7328SOL    HW133443   0.000   0.358   1.095  0.8806 -1.7728  0.4733
 7328SOL    HW233444   4.625   0.266   1.142  0.0020  0.4076  0.4906
 7329SOL     OW33445   2.241   0.811   9.202 -0.2963 -0.1087  0.0448
 7329SOL    HW133446   2.295   0.838   9.277 -0.8703  0.9841  0.0624
 7329SOL    HW233447   2.302   0.813   9.129 -0.8178 -1.2781 -0.4403
 7330SOL     OW33448   4.656   0.818  13.757 -0.6041  0.4402  0.2989
 7330SOL    HW133449   4.581   0.766  13.787 -1.4154  0.2518 -2.0784
 7330SOL    HW233450   4.716   0.751  13.726 -0.7003  0.3606  0.2857
 7331SOL     OW33451   1.651   0.836   6.422  0.4010 -0.2086 -0.0488
 7331SOL    HW133452   1.581   0.798   6.476 -0.4443  1.1540 -0.1912
 7331SOL    HW233453   1.624   0.928   6.425 -1.9160 -0.8605 -0.6176
 7332SOL     OW33454   3.498   0.239  11.334 -0.6535  0.1682  0.1444
 7332SOL    HW133455   3.458   0.276  11.255 -1.0780  0.0293  0.2933
 7332SOL    HW233456   3.485   0.304  11.403 -1.1156 -0.6329  0.8095
 7333SOL     OW33457   2.001   1.932   7.967 -0.2613  0.3517 -0.0142
 7333SOL    HW133458   1.949   1.933   7.886 -0.9213  0.9472  0.4056
 7333SOL    HW233459   1.992   1.840   7.990 -1.1498  0.0948 -1.4206
 7334SOL     OW33460   2.136   4.527   3.221 -0.3315 -0.3117 -0.5757
 7334SOL    HW133461   2.214   4.493   3.177 -0.5630 -1.6225  0.0150
 7334SOL    HW233462   2.174   4.574   3.295  2.1563 -0.8786 -1.4993
 7335SOL     OW33463   0.054   3.677   4.572  0.8032 -0.0850  0.1238
 7335SOL    HW133464   4.700   3.714   4.617  0.9097  3.3414 -2.5867
 7335SOL    HW233465   0.103   3.757   4.558  1.8048 -0.7692 -0.2911
 7336SOL     OW33466   4.618   4.289  16.043 -0.5842  0.2524 -0.0968
 7336SOL    HW133467   4.634   4.371  16.091 -0.5762  1.9126 -2.9378
 7336SOL    HW233468   4.629   4.336  15.960 -2.1179  1.2938  0.2870
 7337SOL     OW33469   4.552   4.631   8.443 -0.2084  0.2706 -0.7367
 7337SOL    HW133470   4.549   4.573   8.367  0.1970 -0.9722  0.1933
 7337SOL    HW233471   4.639   4.669   8.438  0.9698 -1.8749  3.4808
 7338SOL     OW33472   3.018   2.744   1.023 -0.0924 -0.6563  0.1132
 7338SOL    HW133473   3.067   2.801   1.082 -2.6154  0.9044  0.6747
 7338SOL    HW233474   2.949   2.713   1.081 -1.2046 -0.2296 -0.9722
 7339SOL     OW33475   3.201   3.755   2.769  0.2934 -0.4292  0.4102
 7339SOL    HW133476   3.209   3.674   2.819  0.7177 -0.3045  0.5388
 7339SOL    HW233477   3.164   3.721   2.687 -0.6314  1.0457  0.2238
 7340SOL     OW33478   2.279   0.482   4.575  0.0104 -0.4852  0.1430
 7340SOL    HW133479   2.225   0.480   4.496  0.7573  0.3367 -0.3989
 7340SOL    HW233480   2.242   0.412   4.628 -0.9458 -0.7535 -0.8847
 7341SOL     OW33481   3.904   3.834   1.865  0.5069  0.4734  0.2606
 7341SOL    HW133482   3.958   3.772   1.815 -0.3835 -1.1432  1.3287
 7341SOL    HW233483   3.948   3.832   1.950 -2.0356  3.6869  1.6460
 7342SOL     OW33484   0.593   2.570   4.067  0.1895  0.2913  0.4191
 7342SOL    HW133485   0.539   2.492   4.050 -1.0071  1.3430 -0.6447
 7342SOL    HW233486   0.649   2.527   4.132 -0.1381  0.5120  0.8514
 7343SOL     OW33487   4.269   1.367  10.009 -0.0625 -0.8361 -1.2742
 7343SOL    HW133488   4.349   1.413   9.983 -0.1638 -0.5407 -1.0613
 7343SOL    HW233489   4.253   1.318   9.928  0.8426 -2.8942 -0.2039
 7344SOL     OW33490   0.778   3.321   6.524  0.5538  0.0948 -0.1163
 7344SOL    HW133491   0.683   3.328   6.533  0.4483 -2.0413  0.4550
 7344SOL    HW233492   0.807   3.299   6.612 -1.4719  0.2988  0.5912
 7345SOL     OW33493   2.833   3.750  13.699 -0.4427  0.0537  0.1306
 7345SOL    HW133494   2.806   3.659  13.709 -1.2109  0.1433 -1.1802
 7345SOL    HW233495   2.859   3.783  13.785  0.6551  1.3060 -0.6690
 7346SOL     OW33496   3.254   4.717   7.271  0.2359 -0.3877  0.5921
 7346SOL    HW133497   3.221   0.017   7.358  1.9241 -2.6756  1.7817
 7346SOL    HW233498   3.172   4.705   7.222  0.5392  0.8502 -0.2295
 7347SOL     OW33499   4.344   0.649   0.565  0.6867 -0.1921  0.2881
 7347SOL    HW133500   4.435   0.622   0.560  0.5063 -1.2107  2.3107
 7347SOL    HW233501   4.332   0.661   0.659 -0.2064  0.4359  0.1011
 7348SOL     OW33502   1.072   2.452  15.190  0.0552  0.2919  0.5657
 7348SOL    HW133503   1.022   2.407  15.258 -1.2501  1.3868  0.3091
 7348SOL    HW233504   1.153   2.400  15.185 -0.1360  0.1085 -0.5949
 7349SOL     OW33505   3.477   4.259   3.641 -0.5616  0.1889  0.0325
 7349SOL    HW133506   3.565   4.288   3.665  0.0166 -1.4648 -0.1455
 7349SOL    HW233507   3.471   4.300   3.555 -0.4658 -0.5592 -0.3258
 7350SOL     OW33508   2.407   3.036  11.299  0.5994  0.1434 -0.1709
 7350SOL    HW133509   2.459   3.086  11.361  1.4854 -1.4129  0.3632
 7350SOL    HW233510   2.471   2.974  11.264  0.4691  0.2697 -0.6275
 7351SOL     OW33511   0.809   3.403   5.696 -0.4610  0.3101 -0.1365
 7351SOL    HW133512   0.767   3.444   5.621 -0.1656  2.5385  0.8912
 7351SOL    HW233513   0.900   3.395   5.666 -0.0540  0.6770  0.9782
 7352SOL     OW33514   2.924   3.765  11.094  0.4191 -0.8998  0.1066
 7352SOL    HW133515   2.890   3.688  11.049 -4.4262 -0.3870  2.9091
 7352SOL    HW233516   2.852   3.828  11.091  1.8701  0.8023  1.0264
 7353SOL     OW33517   0.003   1.711  16.092 -0.2839  0.2884 -0.0799
 7353SOL    HW133518   0.026   1.651  16.021 -0.4723 -0.0787  0.1718
 7353SOL    HW233519   4.629   1.713  16.083 -0.3380 -1.5478  0.0487
 7354SOL     OW33520   0.574   2.271   2.825  0.0795 -0.3305  0.2174
 7354SOL    HW133521   0.519   2.249   2.750  1.1837  1.1783 -1.0255
 7354SOL    HW233522   0.553   2.364   2.832 -3.6350 -1.2938  2.0333
 7355SOL     OW33523   4.553   4.517   4.561 -0.3095 -0.6404  0.0863
 7355SOL    HW133524   4.520   4.558   4.641  1.1646 -0.3193  0.5326
 7355SOL    HW233525   4.473   4.480   4.526  0.5445 -1.4301 -1.0407
 7356SOL     OW33526   0.814   4.250   2.417 -0.8446 -0.7528 -0.0371
 7356SOL    HW133527   0.726   4.281   2.395 -1.4176 -2.9970 -0.9144
 7356SOL    HW233528   0.845   4.259   2.327 -0.3334 -0.5371  0.1624
 7357SOL     OW33529   1.029   1.113   8.047 -0.2936 -0.2392 -0.2899
 7357SOL    HW133530   1.121   1.140   8.054 -0.3581 -0.3856  1.0913
 7357SOL    HW233531   0.988   1.153   8.124 -0.6995 -1.2295  0.0043
 7358SOL     OW33532   3.183   0.069  10.960  0.1942 -0.1128 -0.2439
 7358SOL    HW133533   3.205   0.090  11.050  1.9841 -1.7502 -0.2853
 7358SOL    HW233534   3.172   0.159  10.930  0.3425 -0.5490 -1.6388
 7359SOL     OW33535   3.168   3.901   5.312 -0.3112  0.0940  0.3269
 7359SOL    HW133536   3.101   3.907   5.243 -1.3316 -0.1752  1.2941
 7359SOL    HW233537   3.129   3.911   5.399 -0.2767  1.5380  0.1780
 7360SOL     OW33538   2.699   4.437   2.031  0.2901  0.9746  0.1544
 7360SOL    HW133539   2.759   4.397   1.968  1.3587 -0.0284  1.8124
 7360SOL    HW233540   2.642   4.491   1.976 -0.3873  0.1819  0.0767
 7361SOL     OW33541   3.674   3.741  13.994 -0.2955 -0.0264 -0.4591
 7361SOL    HW133542   3.717   3.802  14.054  0.4456  0.7005 -1.7161
 7361SOL    HW233543   3.594   3.716  14.040  0.7194 -0.7155  0.9376
 7362SOL     OW33544   1.290   2.952   6.439 -0.3703 -0.1176  0.5246
 7362SOL    HW133545   1.198   2.965   6.463 -1.4789 -3.6473 -1.7249
 7362SOL    HW233546   1.317   3.033   6.394  1.0436 -0.1979  1.2487
 7363SOL     OW33547   4.209   0.320  13.914  0.4951  0.2472  0.6982
 7363SOL    HW133548   4.283   0.378  13.895  1.2179 -0.6394  0.8378
 7363SOL    HW233549   4.195   0.285  13.826  0.7550  1.5443  0.1349
 7364SOL     OW33550   4.498   3.582   8.157  0.7401  0.0611  0.7022
 7364SOL    HW133551   4.463   3.633   8.084  0.1841  0.6345  1.3723
 7364SOL    HW233552   4.590   3.575   8.130  0.5123 -0.1169 -0.0228
 7365SOL     OW33553   4.077   3.410   7.598 -0.2678 -0.3628 -0.6182
 7365SOL    HW133554   4.061   3.489   7.546  0.0168 -0.1658 -0.4071
 7365SOL    HW233555   4.042   3.433   7.684  0.0546 -1.1228 -0.2875
 7366SOL     OW33556   1.110   1.701   4.879  0.0754  0.3714  0.3403
 7366SOL    HW133557   1.138   1.655   4.800 -1.0443  2.1435 -1.0893
 7366SOL    HW233558   1.055   1.775   4.854  1.9006  2.0277  1.1844
 7367SOL     OW33559   1.075   2.837   9.369  0.0832 -0.7633  0.1248
 7367SOL    HW133560   0.982   2.812   9.373 -0.4683  1.4083  1.0204
 7367SOL    HW233561   1.090   2.833   9.275  1.0381  2.4301  0.1332
 7368SOL     OW33562   2.189   2.583   2.334 -0.9760 -0.0202  0.0836
 7368SOL    HW133563   2.270   2.561   2.379 -1.5303 -3.3580 -0.5457
 7368SOL    HW233564   2.154   2.498   2.308  0.7577 -0.2743 -1.4445
 7369SOL     OW33565   0.632   1.111   6.694  0.5176 -0.4227 -0.2415
 7369SOL    HW133566   0.554   1.058   6.684 -0.9776  1.2702  2.2440
 7369SOL    HW233567   0.588   1.190   6.725 -2.4431 -2.7103  1.3140
 7370SOL     OW33568   4.551   2.609  13.890  0.1018 -0.1151 -0.3674
 7370SOL    HW133569   4.517   2.697  13.901 -0.1003 -0.7947  4.4777
 7370SOL    HW233570   4.483   2.575  13.830 -0.9653  0.3385  0.5872
 7371SOL     OW33571   0.123   1.567   7.073  0.3946  0.3363 -0.2892
 7371SOL    HW133572   0.165   1.592   7.155 -0.2760 -0.8604  0.4217
 7371SOL    HW233573   0.065   1.642   7.065 -1.1776 -0.8559 -0.1509
 7372SOL     OW33574   2.171   1.996   8.885  0.3348  0.0400  0.1122
 7372SOL    HW133575   2.117   1.917   8.873 -0.0661  0.5428 -1.3962
 7372SOL    HW233576   2.186   2.006   8.979 -0.9417  3.3674 -0.0610
 7373SOL     OW33577   0.666   2.437   8.226 -0.1291  0.5496 -0.1677
 7373SOL    HW133578   0.678   2.353   8.181 -1.9415 -0.5980  1.5162
 7373SOL    HW233579   0.609   2.475   8.159 -2.5043 -0.9049  0.9824
 7374SOL     OW33580   1.448   2.416   4.253 -0.5601  0.2605  0.0255
 7374SOL    HW133581   1.417   2.443   4.167 -0.1363  3.4596  0.9030
 7374SOL    HW233582   1.536   2.452   4.251  0.0510 -1.1399  0.8854
 7375SOL     OW33583   2.086   4.138   3.589  0.2812 -0.5380 -0.3194
 7375SOL    HW133584   2.051   4.225   3.608 -0.9102 -1.1143  0.1265
 7375SOL    HW233585   2.144   4.150   3.514  2.0955  1.8278  1.4536
 7376SOL     OW33586   3.869   2.438  15.507 -0.1552  0.1290  0.3146
 7376SOL    HW133587   3.900   2.484  15.429  1.3813  0.5747  1.1860
 7376SOL    HW233588   3.922   2.478  15.576 -0.3104  0.7789  0.0545
 7377SOL     OW33589   0.688   3.877   7.563  0.2784  0.0094  0.1196
 7377SOL    HW133590   0.627   3.841   7.499  0.2709  1.0356 -0.4518
 7377SOL    HW233591   0.679   3.970   7.543 -0.9485 -0.5759 -2.0676
 7378SOL     OW33592   1.018   3.092   5.210 -0.3464  0.6031  0.2926
 7378SOL    HW133593   1.074   3.159   5.169  0.3645  0.0001  0.2743
 7378SOL    HW233594   0.962   3.161   5.245 -1.5943 -1.1026  1.6311
 7379SOL     OW33595   0.685   3.649   3.503 -0.2384  0.0523  0.0310
 7379SOL    HW133596   0.697   3.589   3.429 -2.2913 -1.8459  1.2486
 7379SOL    HW233597   0.596   3.684   3.496 -0.0018  1.0904  1.9837
 7380SOL     OW33598   0.505   1.059   6.314  0.5631 -0.0733  0.1325
 7380SOL    HW133599   0.577   1.122   6.310  2.1954 -1.9715 -0.5396
 7380SOL    HW233600   0.429   1.117   6.305 -0.0550 -1.0921 -1.2803
 7381SOL     OW33601   0.570   2.875   6.462  0.5358 -0.8775 -0.1683
 7381SOL    HW133602   0.549   2.827   6.542 -3.0190  2.2583  0.7804
 7381SOL    HW233603   0.623   2.944   6.502 -1.3534  0.5944 -0.2576
 7382SOL     OW33604   3.605   4.280  16.679 -0.7053 -0.4862 -0.5139
 7382SOL    HW133605   3.592   4.337  16.755 -2.4156  1.6701 -2.4271
 7382SOL    HW233606   3.653   4.343  16.626  0.4046 -1.1967 -0.3357
 7383SOL     OW33607   2.058   3.728  16.259 -0.2152  0.3690  0.5729
 7383SOL    HW133608   2.100   3.810  16.231 -1.2363  0.5281 -0.5033
 7383SOL    HW233609   2.124   3.691  16.318  0.5945  0.6847 -0.1335
 7384SOL     OW33610   3.720   3.625  16.279  0.1429  0.4176  0.1716
 7384SOL    HW133611   3.771   3.685  16.334  2.0184 -1.8230  0.8584
 7384SOL    HW233612   3.711   3.553  16.340 -1.7550 -0.3317 -0.9905
 7385SOL     OW33613   1.501   3.004   6.216 -0.3923 -0.5574 -0.0990
 7385SOL    HW133614   1.570   3.051   6.170  0.9194 -3.0044 -0.6526
 7385SOL    HW233615   1.424   3.055   6.190 -0.2716  0.3353  1.3316
 7386SOL     OW33616   2.026   3.949   8.307  0.4341 -1.3031  0.4061
 7386SOL    HW133617   2.071   3.936   8.391  0.8622 -0.1577  0.3462
 7386SOL    HW233618   1.947   3.992   8.339  1.0093 -0.4768  0.7318
 7387SOL     OW33619   1.505   2.340   9.106 -0.1989 -0.0356 -0.2952
 7387SOL    HW133620   1.448   2.263   9.101  1.2105 -1.0087 -1.4697
 7387SOL    HW233621   1.509   2.365   9.013 -2.0685  0.7491 -0.1493
 7388SOL     OW33622   2.615   0.956  10.895 -0.7066  0.3704 -0.8576
 7388SOL    HW133623   2.590   0.868  10.922  0.1579  0.0572 -1.0807
 7388SOL    HW233624   2.659   0.994  10.971 -0.0643  0.0072 -1.0476
 7389SOL     OW33625   1.373   4.013   3.144 -0.6129  0.1042  0.6096
 7389SOL    HW133626   1.430   3.965   3.084 -0.7463  1.2679 -0.4589
 7389SOL    HW233627   1.301   4.039   3.086  1.2590  1.3588 -1.1544
 7390SOL     OW33628   3.362   0.625   3.457 -0.0594 -0.7305  0.4755
 7390SOL    HW133629   3.381   0.539   3.493 -1.6807 -0.8932  0.9240
 7390SOL    HW233630   3.313   0.673   3.523  1.3507  0.5868  0.5723
 7391SOL     OW33631   2.097   3.199  15.117  0.2776  0.0540  0.6391
 7391SOL    HW133632   2.178   3.204  15.066  0.7144 -0.5051  1.2745
 7391SOL    HW233633   2.106   3.120  15.169 -0.8597 -0.9956 -0.7584
 7392SOL     OW33634   2.344   0.039   1.536 -0.0394  0.2554  0.0537
 7392SOL    HW133635   2.375   0.074   1.452  0.0369  2.9045  1.1970
 7392SOL    HW233636   2.296   0.116   1.568  0.2502  0.0385  1.0138
 7393SOL     OW33637   4.462   1.510   0.134 -0.2118 -0.0656  0.2444
 7393SOL    HW133638   4.499   1.599   0.136  1.2495 -0.6921  1.1257
 7393SOL    HW233639   4.535   1.454   0.106  0.8064  1.2014  0.3165
 7394SOL     OW33640   1.026   1.696   5.149  0.1342  0.0673 -0.3112
 7394SOL    HW133641   0.941   1.710   5.110  1.0610  0.8739 -2.0116
 7394SOL    HW233642   1.075   1.673   5.070 -1.9434 -0.4766 -1.4109
 7395SOL     OW33643   3.089   0.315  10.863  0.6384 -0.6453 -0.5838
 7395SOL    HW133644   3.118   0.375  10.794 -2.8548 -0.7519 -2.1267
 7395SOL    HW233645   2.996   0.334  10.869  0.9569  0.8856 -0.5173
 7396SOL     OW33646   0.248   2.847   2.506 -0.1418  0.4940 -0.2361
 7396SOL    HW133647   0.253   2.889   2.420  0.0259  1.7349  0.3821
 7396SOL    HW233648   0.197   2.773   2.473  2.1952 -0.1930 -2.3273
 7397SOL     OW33649   4.391   1.671  12.243  0.0811 -0.0721  0.7665
 7397SOL    HW133650   4.467   1.661  12.185  0.3308 -0.5044  1.1777
 7397SOL    HW233651   4.331   1.615  12.194  0.0523  2.4492 -2.1243
 7398SOL     OW33652   1.991   4.622   5.028 -0.2747  0.2674  0.0864
 7398SOL    HW133653   1.998   4.693   5.092  0.5799 -0.7035  1.0413
 7398SOL    HW233654   2.055   4.656   4.966 -0.8417  1.1929 -0.0021
 7399SOL     OW33655   2.888   1.184   5.533 -0.4972 -0.5302 -0.0315
 7399SOL    HW133656   2.860   1.157   5.446  0.2379 -0.9183 -0.1518
 7399SOL    HW233657   2.825   1.249   5.564  2.1289  0.7075  2.7889
 7400SOL     OW33658   0.800   2.852   6.115 -0.2467  0.1969  0.0572
 7400SOL    HW133659   0.739   2.789   6.155 -1.8084  1.7114  0.0793
 7400SOL    HW233660   0.785   2.923   6.179  0.7233  0.0775  0.4096
 7401SOL     OW33661   0.935   0.704   8.833 -0.4628 -0.2187 -0.2078
 7401SOL    HW133662   0.967   0.785   8.793 -0.1610 -1.3260 -2.1838
 7401SOL    HW233663   0.840   0.709   8.823 -0.0098  2.4110 -3.1075
 7402SOL     OW33664   2.489   3.306  10.683  0.5585  0.1341 -0.5766
 7402SOL    HW133665   2.560   3.369  10.696  1.3548 -1.0329  0.8117
 7402SOL    HW233666   2.450   3.307  10.771 -0.2400  0.9649 -0.9437
 7403SOL     OW33667   1.788   2.646   3.754 -0.0626 -0.2222 -0.4456
 7403SOL    HW133668   1.727   2.578   3.725  0.2712 -0.2560 -1.0716
 7403SOL    HW233669   1.795   2.613   3.844 -2.4395 -0.1216 -0.2301
 7404SOL     OW33670   4.331   0.478   1.346  0.2642 -0.1079 -0.1965
 7404SOL    HW133671   4.363   0.567   1.334 -3.2169  1.4609  1.9195
 7404SOL    HW233672   4.245   0.512   1.370 -0.7657 -2.5012 -0.4266
 7405SOL     OW33673   3.436   4.150  11.417  0.0768  0.0960  0.1079
 7405SOL    HW133674   3.497   4.223  11.414  1.4436 -1.1613 -2.0805
 7405SOL    HW233675   3.408   4.164  11.508 -1.4615  0.2751 -0.3882
 7406SOL     OW33676   2.786   1.121   8.280 -0.5965 -0.2216 -0.3001
 7406SOL    HW133677   2.752   1.048   8.332 -0.7562  0.4621  0.5619
 7406SOL    HW233678   2.708   1.176   8.267 -0.3075  0.3115  0.2216
 7407SOL     OW33679   3.856   1.029   0.735 -0.5105 -0.3290  0.1326
 7407SOL    HW133680   3.899   1.018   0.650  0.7679  0.0818  0.7135
 7407SOL    HW233681   3.854   1.124   0.748 -0.3325 -0.2234 -0.6326
 7408SOL     OW33682   2.800   4.344   6.529 -0.5990 -0.1114  0.7441
 7408SOL    HW133683   2.872   4.403   6.508 -2.9618  2.1168 -1.0187
 7408SOL    HW233684   2.729   4.398   6.563  0.6241  1.1969  1.2084
 7409SOL     OW33685   0.594   2.639   6.120 -0.1671  0.4436 -0.2897
 7409SOL    HW133686   0.593   2.579   6.045 -1.2053 -0.8263  0.7272
 7409SOL    HW233687   0.500   2.647   6.137 -0.3497  1.8596 -1.9382
 7410SOL     OW33688   2.026   2.929   3.991 -0.1325  0.2109  0.1536
 7410SOL    HW133689   1.933   2.911   4.006  0.5693 -0.8168  3.4877
 7410SOL    HW233690   2.026   3.017   4.029 -0.4331  1.1760 -2.1352
 7411SOL     OW33691   2.954   0.445   8.362 -0.5681 -0.0285 -0.2153
 7411SOL    HW133692   2.950   0.400   8.278 -1.2044  0.0828 -0.2394
 7411SOL    HW233693   2.949   0.367   8.417 -1.7658 -0.6982 -1.2869
 7412SOL     OW33694   4.650   0.193  15.829  0.2470  0.0759 -0.1617
 7412SOL    HW133695   4.650   0.124  15.762  0.2224 -1.2333  1.1978
 7412SOL    HW233696   4.584   0.245  15.784 -0.2148  0.4129  0.9074
 7413SOL     OW33697   4.341   2.518   4.936  0.2735  0.3362  0.0211
 7413SOL    HW133698   4.431   2.492   4.956 -0.3313 -0.4375  1.7679
 7413SOL    HW233699   4.290   2.449   4.979  3.2749  0.0653  3.1939
 7414SOL     OW33700   4.223   3.007   8.517  0.2174 -0.3660  0.2125
 7414SOL    HW133701   4.161   3.075   8.490  2.7644  1.5796 -0.6948
 7414SOL    HW233702   4.235   3.014   8.612 -2.9462  2.3397  0.4370
 7415SOL     OW33703   2.403   1.478   2.609  0.2526 -0.0096  0.3129
 7415SOL    HW133704   2.449   1.560   2.624  4.1587 -2.4006  1.2529
 7415SOL    HW233705   2.480   1.433   2.575 -0.8695 -1.7915  0.1287
 7416SOL     OW33706   3.656   2.610   4.057 -0.0313 -0.1185 -0.3383
 7416SOL    HW133707   3.711   2.616   4.135 -0.2960  0.3077 -0.1880
 7416SOL    HW233708   3.676   2.520   4.029  1.7192 -0.0645  0.7144
 7417SOL     OW33709   3.093   0.424   7.007  0.2741 -0.2580  0.0325
 7417SOL    HW133710   3.079   0.493   6.942 -1.0812 -0.8991 -0.3677
 7417SOL    HW233711   3.175   0.384   6.980  0.6497  0.8547 -0.4522
 7418SOL     OW33712   1.478   4.302   8.244 -0.1040  0.2791 -0.5410
 7418SOL    HW133713   1.399   4.260   8.278 -0.3300  1.6924  0.7071
 7418SOL    HW233714   1.514   4.341   8.324 -1.8774 -2.5763  1.6492
 7419SOL     OW33715   4.089   3.689   4.145 -0.1209 -0.2691 -0.2284
 7419SOL    HW133716   4.070   3.695   4.051  1.4339  0.9228 -0.4564
 7419SOL    HW233717   4.184   3.690   4.150 -0.1205 -3.0886  0.3072
 7420SOL     OW33718   0.243   0.332   5.074 -0.5257  0.2214  0.0384
 7420SOL    HW133719   0.321   0.281   5.053 -0.8374  0.5692 -1.9837
 7420SOL    HW233720   0.266   0.344   5.166 -0.2037  0.1366 -0.0319
 7421SOL     OW33721   3.467   3.150  14.399 -0.5242 -0.2819 -0.1580
 7421SOL    HW133722   3.529   3.222  14.386  1.1715 -1.6867  0.1161
 7421SOL    HW233723   3.384   3.175  14.358 -1.1784  1.0452  1.9195
 7422SOL     OW33724   2.239   1.391  17.346  0.2944 -0.5025  0.6348
 7422SOL    HW133725   2.251   1.373  17.252  1.1380  3.3077  0.0407
 7422SOL    HW233726   2.144   1.377  17.342  0.2406  0.1121 -0.1220
 7423SOL     OW33727   2.008   2.005   3.961 -0.1426 -0.0909  0.3032
 7423SOL    HW133728   1.967   2.091   3.964 -0.0134 -0.0483  0.8595
 7423SOL    HW233729   2.081   2.029   3.904 -0.8937 -0.7549 -0.9501
 7424SOL     OW33730   2.688   0.597  13.880 -0.3166  0.3695  0.7549
 7424SOL    HW133731   2.718   0.664  13.942 -0.1536  0.2649  0.7910
 7424SOL    HW233732   2.764   0.595  13.822 -0.7396 -0.7583  0.2501
 7425SOL     OW33733   0.848   2.185   7.670  0.0906  0.2074 -0.2073
 7425SOL    HW133734   0.881   2.193   7.760 -0.2884 -1.4250  0.0792
 7425SOL    HW233735   0.883   2.098   7.651 -0.7977 -0.3349  0.6175
 7426SOL     OW33736   4.548   0.026   7.022  0.5028 -0.4582 -0.6405
 7426SOL    HW133737   4.498   0.095   6.978  0.3472 -1.0923 -1.4612
 7426SOL    HW233738   4.531   4.670   6.969  4.5731 -1.2183 -0.8364
 7427SOL     OW33739   4.287   0.170   3.514  0.1453  0.3851  0.2424
 7427SOL    HW133740   4.281   0.078   3.539  0.2093  0.3160 -0.0004
 7427SOL    HW233741   4.348   0.172   3.440 -1.0639 -0.7740 -0.7956
 7428SOL     OW33742   2.746   3.167   5.227 -0.3056 -0.1735  0.1178
 7428SOL    HW133743   2.811   3.107   5.262 -0.0425 -0.6968 -1.2844
 7428SOL    HW233744   2.681   3.114   5.182 -0.7122 -0.0856  0.5982
 7429SOL     OW33745   1.615   1.276   9.932  0.8804  0.2447 -0.3946
 7429SOL    HW133746   1.555   1.305   9.863  1.1850  1.2312 -0.2362
 7429SOL    HW233747   1.684   1.342   9.931  2.2834 -1.2055  0.7064
 7430SOL     OW33748   3.720   3.335   4.447  0.2493  0.8274  0.3389
 7430SOL    HW133749   3.674   3.397   4.504  1.1951 -0.7811  2.8885
 7430SOL    HW233750   3.790   3.391   4.413 -0.1642  0.9726 -0.2662
 7431SOL     OW33751   2.083   2.389   2.166  0.4641  0.1410 -1.0719
 7431SOL    HW133752   2.126   2.364   2.084  1.2192 -0.8644 -0.3641
 7431SOL    HW233753   2.094   2.308   2.216  2.3542  1.6536  0.9728
 7432SOL     OW33754   1.269   1.160   0.975  0.1609  0.2935 -0.0427
 7432SOL    HW133755   1.259   1.076   1.019  0.4554  1.2094  1.7820
 7432SOL    HW233756   1.225   1.153   0.891  0.7581  2.0858 -0.5047
 7433SOL     OW33757   0.077   0.976   1.555 -0.2000  0.2229 -0.0445
 7433SOL    HW133758   0.153   0.920   1.540 -0.3755  0.0053 -0.1186
 7433SOL    HW233759   0.060   0.958   1.647 -0.0611 -0.9797 -0.2574
 7434SOL     OW33760   0.370   0.074   2.861  0.2181  0.2983 -0.2627
 7434SOL    HW133761   0.444   0.113   2.816  0.9135  2.1313  2.4285
 7434SOL    HW233762   0.323   0.039   2.786 -1.8305 -0.7179  1.4852
 7435SOL     OW33763   4.430   0.575   1.986 -0.1574 -0.0203  0.0616
 7435SOL    HW133764   4.463   0.621   1.909  0.6389 -1.5026 -0.4830
 7435SOL    HW233765   4.442   0.484   1.958 -2.4284  0.3889 -2.2942
 7436SOL     OW33766   0.344   4.686   0.864 -0.0500  0.3044  0.2717
 7436SOL    HW133767   0.261   4.698   0.817 -0.4943  1.2580  1.3124
 7436SOL    HW233768   0.355   0.052   0.901  0.6277  0.4985 -0.3760
 7437SOL     OW33769   2.833   2.485   6.258 -0.1285 -0.5323  0.0180
 7437SOL    HW133770   2.878   2.436   6.327  0.6597  0.0171 -0.1067
 7437SOL    HW233771   2.878   2.458   6.178  0.6670 -1.1593  0.6723
 7438SOL     OW33772   4.369   3.065  12.335  0.0382  0.6482 -0.2930
 7438SOL    HW133773   4.321   3.120  12.397  0.5020 -2.0505  2.4451
 7438SOL    HW233774   4.439   3.016  12.378 -0.0579  0.0451 -0.8259
 7439SOL     OW33775   1.390   3.605   9.412 -0.0219  0.0382 -0.1233
 7439SOL    HW133776   1.351   3.671   9.355  1.2957 -0.5640 -1.7234
 7439SOL    HW233777   1.321   3.585   9.476 -0.8153 -0.2607 -1.0858
 7440SOL     OW33778   3.984   4.177   7.078 -0.0953 -0.6227 -0.1196
 7440SOL    HW133779   3.966   4.083   7.076 -1.2317 -0.4031 -0.4271
 7440SOL    HW233780   3.955   4.197   6.989 -1.0812 -0.5657  0.2164
 7441SOL     OW33781   2.773   2.861  11.962 -0.0089 -0.2415 -0.3680
 7441SOL    HW133782   2.689   2.826  11.992  0.7056 -0.2846  1.6262
 7441SOL    HW233783   2.828   2.784  11.948 -0.2069 -0.4189 -0.1583
 7442SOL     OW33784   4.380   1.201  15.141  0.7321  0.4841 -0.2635
 7442SOL    HW133785   4.414   1.117  15.111  2.9474  1.4404 -0.4529
 7442SOL    HW233786   4.415   1.259  15.073 -1.2958  1.0633 -0.8165
 7443SOL     OW33787   4.348   2.864   2.356 -0.0014 -0.1715  0.0643
 7443SOL    HW133788   4.405   2.938   2.380  1.2486 -1.2859  0.5450
 7443SOL    HW233789   4.271   2.916   2.334 -0.1753  1.0820  3.6508
 7444SOL     OW33790   1.273   4.062   1.793  0.0083  0.3133  0.3865
 7444SOL    HW133791   1.299   3.995   1.856 -2.2736 -0.8326  0.1208
 7444SOL    HW233792   1.284   4.142   1.845  0.7698 -0.7203  1.8089
 7445SOL     OW33793   2.087   0.294   6.014 -0.2239 -0.0889  0.3101
 7445SOL    HW133794   2.178   0.277   6.034 -0.3485 -1.5763 -0.3505
 7445SOL    HW233795   2.049   0.349   6.082 -0.8133 -0.2912  0.1514
 7446SOL     OW33796   0.672   1.428   3.795  0.2143  0.1924  0.3313
 7446SOL    HW133797   0.701   1.396   3.710  2.4108  1.1997  0.7052
 7446SOL    HW233798   0.657   1.522   3.780  2.1050  0.3360 -0.6229
 7447SOL     OW33799   0.229   4.328  10.355 -0.6100 -0.5075  0.0514
 7447SOL    HW133800   0.281   4.374  10.289  1.1115 -1.4473  0.7715
 7447SOL    HW233801   0.143   4.355  10.323 -1.1432 -1.8787  0.3026
 7448SOL     OW33802   1.209   3.164   7.963  0.6160  0.1228  0.0517
 7448SOL    HW133803   1.152   3.241   7.975  2.1885  1.3499 -0.3618
 7448SOL    HW233804   1.283   3.202   8.010  1.6282  0.2853 -1.6524
 7449SOL     OW33805   4.342   1.693   4.086  0.1018 -0.6665  0.6433
 7449SOL    HW133806   4.269   1.649   4.130  0.4437 -1.0872  0.7879
 7449SOL    HW233807   4.303   1.763   4.033  1.6973 -1.7769 -1.9823
 7450SOL     OW33808   4.239   1.736   1.318  0.2790  0.5178  0.0342
 7450SOL    HW133809   4.209   1.769   1.403 -1.3883 -0.4250 -0.2030
 7450SOL    HW233810   4.270   1.651   1.350  0.3319  0.3482 -0.4703
 7451SOL     OW33811   4.526   0.478   3.313  0.0195  0.0761  0.4765
 7451SOL    HW133812   4.593   0.416   3.341  0.8900  1.1671  0.7527
 7451SOL    HW233813   4.578   0.554   3.290 -2.1363  1.1958 -0.6877
 7452SOL     OW33814   2.391   3.386   8.995  0.4775 -0.2396 -0.6572
 7452SOL    HW133815   2.383   3.291   9.006  0.3565 -0.2326 -0.6900
 7452SOL    HW233816   2.486   3.383   8.981  0.5008 -1.8408 -0.1448
 7453SOL     OW33817   3.542   2.170  13.597  0.1078  0.3066  0.3022
 7453SOL    HW133818   3.551   2.081  13.564 -0.1766  0.7944 -1.0899
 7453SOL    HW233819   3.457   2.165  13.641 -0.2760  1.9170 -0.2603
 7454SOL     OW33820   0.929   3.785   3.430  0.1875 -0.2768  0.1942
 7454SOL    HW133821   0.850   3.737   3.452  0.0703 -0.1452  0.0621
 7454SOL    HW233822   0.943   3.767   3.337 -0.4905  0.3374 -0.0235
 7455SOL     OW33823   1.946   1.425  16.120 -1.2243 -0.4320  0.1640
 7455SOL    HW133824   1.939   1.330  16.115 -0.8213 -0.4056 -0.8909
 7455SOL    HW233825   1.949   1.435  16.215 -2.5890 -2.4905  0.4290
 7456SOL     OW33826   4.096   1.996   5.843  0.1523  0.6566 -0.2969
 7456SOL    HW133827   4.164   2.023   5.905  0.9698 -0.0282 -0.8899
 7456SOL    HW233828   4.144   1.976   5.763  1.6360  1.8403  0.3037
 7457SOL     OW33829   3.088   3.706  11.296 -0.2792  0.1684 -0.2507
 7457SOL    HW133830   3.057   3.617  11.313  1.1606 -0.3541 -0.3307
 7457SOL    HW233831   3.024   3.730  11.229  0.5258  0.3931 -0.9377
 7458SOL     OW33832   3.474   4.377  12.249 -0.4121  0.2371 -0.1599
 7458SOL    HW133833   3.428   4.295  12.236 -0.6028  0.2416  0.5066
 7458SOL    HW233834   3.489   4.410  12.160  0.0158  0.7452  0.0988
 7459SOL     OW33835   2.038   3.262   5.305  0.0465  0.1747  0.1047
 7459SOL    HW133836   2.020   3.328   5.238  0.9599 -0.7911 -1.0896
 7459SOL    HW233837   2.052   3.322   5.378 -1.6843  0.5535  0.1139
 7460SOL     OW33838   1.425   2.505   2.883 -0.1696 -0.0127 -0.6798
 7460SOL    HW133839   1.494   2.522   2.947  0.4065 -1.3268 -0.9572
 7460SOL    HW233840   1.359   2.450   2.926 -0.6815 -2.3655 -4.4457
 7461SOL     OW33841   1.037   0.353   7.069  0.0487  0.2394  0.0652
 7461SOL    HW133842   1.011   0.270   7.110 -2.5276  0.5446 -0.9665
 7461SOL    HW233843   1.092   0.316   7.000  0.0795 -0.7561  0.6228
 7462SOL     OW33844   3.143   4.504   5.136  0.6391  0.5532 -0.0656
 7462SOL    HW133845   3.222   4.536   5.179  1.2921  0.4223 -1.1591
 7462SOL    HW233846   3.070   4.551   5.177  1.2613  1.0517  0.4792
 7463SOL     OW33847   4.604   1.978   9.127 -0.4449  1.1802 -0.5037
 7463SOL    HW133848   4.622   1.890   9.159 -0.2311  2.0642  1.8161
 7463SOL    HW233849   4.533   1.971   9.063 -0.9820  0.5984  0.1559
 7464SOL     OW33850   3.630   2.377  15.207 -0.2427 -0.4898  0.2535
 7464SOL    HW133851   3.564   2.358  15.141  0.6396 -2.2394 -0.1237
 7464SOL    HW233852   3.589   2.431  15.274  2.9178 -0.1852  1.9634
 7465SOL     OW33853   3.884   1.078   3.525  0.5503 -0.9873 -0.1923
 7465SOL    HW133854   3.923   1.074   3.437  0.8472 -1.5558 -0.0338
 7465SOL    HW233855   3.883   1.173   3.540  1.4223 -1.2033  1.2053
 7466SOL     OW33856   1.960   2.220   6.929  0.1299  0.4014  0.0229
 7466SOL    HW133857   1.976   2.273   7.008  0.2654  1.0871 -0.4654
 7466SOL    HW233858   2.049   2.241   6.901  0.1448 -0.1097 -0.3068
 7467SOL     OW33859   0.936   0.012  11.546 -0.2773  0.5639 -0.0909
 7467SOL    HW133860   0.956   0.033  11.638  1.5537  1.9958 -0.8106
 7467SOL    HW233861   0.847   0.048  11.547 -0.1240  0.9619 -0.8014
 7468SOL     OW33862   4.400   2.438   6.238  0.0438 -0.1736 -0.1948
 7468SOL    HW133863   4.418   2.419   6.330  1.0309 -1.6316 -0.6938
 7468SOL    HW233864   4.486   2.452   6.198 -0.5778 -1.2540 -1.8952
 7469SOL     OW33865   4.330   2.890   5.497 -0.6972  0.2730  0.6115
 7469SOL    HW133866   4.358   2.836   5.423  0.1237 -0.4455  1.4451
 7469SOL    HW233867   4.416   2.906   5.535 -1.0339  1.0619  1.0248
 7470SOL     OW33868   3.622   2.207  13.299  0.6662 -1.1441  0.0966
 7470SOL    HW133869   3.579   2.210  13.385 -0.8610 -1.6762 -0.6514
 7470SOL    HW233870   3.559   2.233  13.232 -0.0209 -1.5393  0.5894
 7471SOL     OW33871   3.013   2.044   5.039  0.1278  0.8063 -0.2714
 7471SOL    HW133872   3.100   2.067   5.006  0.3662  0.3662  0.0492
 7471SOL    HW233873   2.989   1.973   4.980  0.8212  0.0537  0.3547
 7472SOL     OW33874   4.617   0.399  10.513  0.4038 -0.9699 -0.7532
 7472SOL    HW133875   4.661   0.383  10.596  1.8435  0.9493 -1.1472
 7472SOL    HW233876   4.690   0.432  10.460  0.2650 -2.2193 -1.7208
 7473SOL     OW33877   2.812   0.408   5.981  0.1464  0.4779 -0.1875
 7473SOL    HW133878   2.849   0.323   5.959  0.9773  1.2935 -1.9322
 7473SOL    HW233879   2.727   0.394   5.939  0.1191 -1.2341  0.4430
 7474SOL     OW33880   1.837   1.471   4.343 -0.2371  0.5055  1.0204
 7474SOL    HW133881   1.900   1.517   4.399  1.0054 -0.5154  0.4615
 7474SOL    HW233882   1.781   1.544   4.316 -1.1437 -0.9557 -1.0420
 7475SOL     OW33883   3.910   2.555   1.612  0.3167 -0.5150 -0.0236
 7475SOL    HW133884   3.931   2.464   1.592 -0.6330 -0.6053 -0.6517
 7475SOL    HW233885   3.875   2.592   1.530 -2.2974  1.0286  1.7932
 7476SOL     OW33886   2.800   4.022   1.874 -0.4471 -0.4953  0.0168
 7476SOL    HW133887   2.811   4.116   1.858  1.6818 -0.6698  0.4458
 7476SOL    HW233888   2.859   4.014   1.949 -0.4692 -0.0542  0.0815
 7477SOL     OW33889   4.462   1.889   1.256 -0.2919  0.2456  0.0013
 7477SOL    HW133890   4.526   1.818   1.257  0.8744  1.2590 -1.9914
 7477SOL    HW233891   4.380   1.839   1.264 -0.5741  0.2097 -2.9552
 7478SOL     OW33892   4.423   0.384  16.626 -0.2326  0.5951 -0.6339
 7478SOL    HW133893   4.366   0.421  16.693  0.3822  1.0408 -0.3531
 7478SOL    HW233894   4.404   0.431  16.545  1.0444  0.5758 -0.9569
 7479SOL     OW33895   4.641   0.704   7.761  0.4016 -0.2577  0.1855
 7479SOL    HW133896   4.598   0.784   7.791 -0.0447 -0.6187  0.5186
 7479SOL    HW233897   4.612   0.701   7.670 -0.7404 -1.0429  0.5673
 7480SOL     OW33898   2.768   3.884   7.870  0.5454  0.5677 -0.4860
 7480SOL    HW133899   2.684   3.912   7.833  0.3653  0.0844 -0.4405
 7480SOL    HW233900   2.742   3.803   7.914 -0.6839  0.5655 -1.2230
 7481SOL     OW33901   1.140   3.777   2.094 -0.1176  0.1769 -0.1073
 7481SOL    HW133902   1.178   3.766   2.006 -1.2388 -0.9959 -0.4314
 7481SOL    HW233903   1.056   3.813   2.064  0.2081 -0.3544 -1.6684
 7482SOL     OW33904   3.098   4.116   1.468 -0.0173 -0.7995  0.4995
 7482SOL    HW133905   3.117   4.026   1.497 -1.6156 -0.9900  0.9529
 7482SOL    HW233906   3.037   4.090   1.399  0.7883 -0.2525 -0.4164
 7483SOL     OW33907   4.667   1.704  16.871 -0.0348 -0.1967 -0.2158
 7483SOL    HW133908   4.623   1.776  16.826  0.3559 -1.5397 -2.7848
 7483SOL    HW233909   4.596   1.642  16.851 -0.5791  0.5531 -0.6057
 7484SOL     OW33910   1.850   0.291   5.241  0.0061  0.1172 -0.2552
 7484SOL    HW133911   1.758   0.279   5.266 -0.8539  3.9031 -1.6595
 7484SOL    HW233912   1.880   0.346   5.314  2.6554 -0.0196 -1.2267
 7485SOL     OW33913   4.266   1.199   8.782 -0.2088 -1.1730  0.6274
 7485SOL    HW133914   4.284   1.198   8.688  0.5764  0.0883  0.7721
 7485SOL    HW233915   4.345   1.160   8.820  0.6350 -0.4814 -0.4067
 7486SOL     OW33916   4.149   3.697   8.303  0.4587  0.3026 -0.2209
 7486SOL    HW133917   4.083   3.628   8.305  0.9587 -0.2398 -2.6223
 7486SOL    HW233918   4.094   3.775   8.302 -1.5384 -1.1133 -0.6056
 7487SOL     OW33919   0.563   3.910  14.505  0.0414  0.5996 -0.4186
 7487SOL    HW133920   0.478   3.872  14.528  0.1019  0.1350 -0.9592
 7487SOL    HW233921   0.606   3.840  14.456  0.4233  2.2013 -2.3412
 7488SOL     OW33922   1.402   3.147   8.552  0.8897 -0.3262 -0.0660
 7488SOL    HW133923   1.373   3.117   8.465 -1.2908 -4.4379  2.0985
 7488SOL    HW233924   1.434   3.232   8.521 -1.2540  0.2124 -0.8129
 7489SOL     OW33925   3.636   2.317  15.539  0.3054  0.0745  0.0050
 7489SOL    HW133926   3.716   2.368  15.536 -1.1651  2.3388 -0.7245
 7489SOL    HW233927   3.641   2.288  15.449  1.3250  1.9323 -0.5333
 7490SOL     OW33928   3.557   4.033   7.637  0.1641  0.6411 -0.0737
 7490SOL    HW133929   3.503   3.959   7.666  0.0824  0.6525 -0.1969
 7490SOL    HW233930   3.527   4.042   7.546 -1.6810  2.2560  0.6806
 7491SOL     OW33931   1.263   4.633   1.314 -0.2446 -0.1088 -0.5612
 7491SOL    HW133932   1.304   4.709   1.355  1.6910 -2.7162  2.4485
 7491SOL    HW233933   1.270   4.656   1.222  2.0209  0.1732 -0.3239
 7492SOL     OW33934   3.865   4.213   6.412  0.1822 -0.2997 -0.1907
 7492SOL    HW133935   3.836   4.269   6.340  0.6870 -1.8125 -1.5742
 7492SOL    HW233936   3.958   4.230   6.421  0.2886 -0.3222 -1.2583
 7493SOL     OW33937   3.462   3.349   1.337  0.0208  0.2744  0.3689
 7493SOL    HW133938   3.450   3.426   1.281  2.0711 -0.6538 -1.3487
 7493SOL    HW233939   3.384   3.300   1.312  1.0643 -1.3744  0.3642
 7494SOL     OW33940   1.332   1.415  17.264 -0.2525 -0.2628  0.4064
 7494SOL    HW133941   1.281   1.496  17.267  0.5269  0.1916  1.2141
 7494SOL    HW233942   1.410   1.431  17.317 -0.8747  0.1046  1.2076
 7495SOL     OW33943   2.851   1.479   2.070 -0.0426 -0.1390 -0.0752
 7495SOL    HW133944   2.917   1.495   2.002 -0.7654  2.8922 -0.0666
 7495SOL    HW233945   2.766   1.509   2.037 -0.4519  1.0175  2.0790
 7496SOL     OW33946   1.649   3.931   4.960 -0.0917  0.8181  0.0614
 7496SOL    HW133947   1.606   3.858   5.005 -1.4743  1.2780 -0.4898
 7496SOL    HW233948   1.692   3.892   4.885  1.3713 -0.4940  1.5955
 7497SOL     OW33949   0.659   0.833   6.314  0.2953  0.5704 -0.2241
 7497SOL    HW133950   0.592   0.899   6.328  0.4927  1.0853 -1.7119
 7497SOL    HW233951   0.597   0.764   6.288 -1.2551  1.4359  1.1522
 7498SOL     OW33952   3.974   1.963  12.947  0.2458  0.2357  0.0460
 7498SOL    HW133953   4.009   2.048  12.972 -0.9686  1.5277 -2.6341
 7498SOL    HW233954   3.924   1.942  13.026 -0.0265 -0.0463 -0.2022
 7499SOL     OW33955   1.878   3.290   0.702  0.1769 -0.4064 -0.6110
 7499SOL    HW133956   1.866   3.385   0.701  1.9447 -0.1568  0.4295
 7499SOL    HW233957   1.941   3.264   0.634 -0.3598  2.4850 -2.2173
 7500SOL     OW33958   2.355   0.893  14.003 -0.2052 -0.2084  0.6172
 7500SOL    HW133959   2.330   0.837  13.929 -0.5928 -1.0612  1.3965
 7500SOL    HW233960   2.269   0.915  14.040 -1.0434 -0.4327 -1.1680
 7501SOL     OW33961   3.136   3.109  15.315 -0.4200 -0.4962 -0.3693
 7501SOL    HW133962   3.217   3.082  15.272 -0.8215  0.2486 -1.5727
 7501SOL    HW233963   3.110   3.033  15.367  0.2699 -1.3450 -1.2648
 7502SOL     OW33964   1.929   2.032   2.440 -0.4606 -0.5272  0.0737
 7502SOL    HW133965   1.961   1.961   2.385 -1.3343 -0.9379  0.1030
 7502SOL    HW233966   1.855   2.071   2.393 -1.7197 -0.4797  2.1063
 7503SOL     OW33967   0.549   2.263   9.893 -0.1327 -0.1690 -0.1938
 7503SOL    HW133968   0.626   2.317   9.912 -0.6035 -0.3454  2.1711
 7503SOL    HW233969   0.493   2.306   9.957 -4.2679 -0.0129 -3.9036
 7504SOL     OW33970   1.772   1.435   6.182  0.4078 -0.5092 -0.5894
 7504SOL    HW133971   1.751   1.387   6.102  2.0459 -2.0142 -0.1171
 7504SOL    HW233972   1.858   1.458   6.145  1.8465 -3.1282  1.1554
 7505SOL     OW33973   1.394   1.140   7.933  0.1966 -0.5477  0.0179
 7505SOL    HW133974   1.453   1.086   7.986  0.3951  0.1921  0.5485
 7505SOL    HW233975   1.338   1.193   7.991  0.1522  1.7967 -2.1667
 7506SOL     OW33976   3.428   1.805   1.460 -0.2743  0.0023 -0.9330
 7506SOL    HW133977   3.377   1.783   1.382 -0.9596  2.3593 -1.1567
 7506SOL    HW233978   3.445   1.718   1.495 -1.6459  0.2967  0.4830
 7507SOL     OW33979   3.870   4.661   3.235 -0.0714  0.1618  0.1433
 7507SOL    HW133980   3.821   4.675   3.316 -0.5589 -1.0506  0.0589
 7507SOL    HW233981   3.931   4.590   3.253 -0.9066 -0.9676 -1.4674
 7508SOL     OW33982   2.166   3.473  17.210  0.3819  0.0372 -0.2691
 7508SOL    HW133983   2.189   3.443  17.297  0.3761 -0.8498 -0.5712
 7508SOL    HW233984   2.105   3.540  17.242 -0.8182 -1.9399  1.5615
 7509SOL     OW33985   1.580   4.431   4.100  0.1074 -0.1381 -0.3326
 7509SOL    HW133986   1.611   4.381   4.175  0.9177  1.0229  0.1063
 7509SOL    HW233987   1.629   4.388   4.029  0.9088  0.6483 -0.2549
 7510SOL     OW33988   0.334   3.597  11.104 -0.8631 -0.0064 -0.0869
 7510SOL    HW133989   0.378   3.601  11.019  0.9135 -0.4207  0.8104
 7510SOL    HW233990   0.275   3.672  11.103 -0.5238  0.2696  1.2581
 7511SOL     OW33991   3.825   4.063   7.647  0.0224  0.3123  0.5737
 7511SOL    HW133992   3.862   4.090   7.563 -0.7855 -2.0968 -0.5635
 7511SOL    HW233993   3.733   4.045   7.628  0.1076  0.4878 -0.0323
 7512SOL     OW33994   1.682   0.078   8.198  0.4547  0.4353  0.2624
 7512SOL    HW133995   1.691   0.086   8.293 -0.8038 -1.9463  0.5765
 7512SOL    HW233996   1.605   0.021   8.203 -0.0620  1.2288  1.4616
 7513SOL     OW33997   3.720   2.287   6.929  0.0989  0.0467 -0.4258
 7513SOL    HW133998   3.690   2.243   6.849  2.3035 -1.6136 -0.3270
 7513SOL    HW233999   3.699   2.217   6.991 -0.0998 -0.4094 -1.0035
 7514SOL     OW34000   3.077   2.941   4.716  0.4002 -0.4958 -0.5486
 7514SOL    HW134001   3.102   2.996   4.791  4.5035 -3.1156  0.0459
 7514SOL    HW234002   3.148   2.877   4.709 -0.6107 -1.7501  0.8179
 7515SOL     OW34003   4.448   2.573  15.654 -0.0285  0.3213  0.4575
 7515SOL    HW134004   4.510   2.522  15.705  0.1790 -0.7933 -0.8908
 7515SOL    HW234005   4.482   2.662  15.663 -0.3279  0.3626  1.1115
 7516SOL     OW34006   0.180   0.647   7.846  0.2269  0.0145 -0.0226
 7516SOL    HW134007   0.217   0.730   7.817  1.7657 -0.1945  1.3150
 7516SOL    HW234008   0.087   0.650   7.823  0.1601  2.1381  0.5832
 7517SOL     OW34009   1.001   2.442   2.416 -0.3390 -0.2589  0.7779
 7517SOL    HW134010   1.027   2.367   2.469 -0.8159 -0.8635  0.1471
 7517SOL    HW234011   0.940   2.468   2.486 -0.6011  0.9018  0.1147
 7518SOL     OW34012   4.134   0.376   3.539  0.1244 -0.5944 -0.2350
 7518SOL    HW134013   4.190   0.298   3.535 -1.2063 -1.5998  0.8690
 7518SOL    HW234014   4.154   0.423   3.458 -3.3855 -0.3681 -0.9730
 7519SOL     OW34015   0.010   1.720   9.239 -0.2493 -0.0561  0.0653
 7519SOL    HW134016   0.005   1.789   9.305 -0.6835  0.1586 -0.1986
 7519SOL    HW234017   0.091   1.672   9.257 -1.3563 -1.1210  2.2548
 7520SOL     OW34018   1.063   3.547   5.276  0.0327 -0.0422  0.4284
 7520SOL    HW134019   1.113   3.534   5.196 -1.0494 -1.0552 -0.0794
 7520SOL    HW234020   0.976   3.567   5.242  1.7808  0.9192 -3.4105
 7521SOL     OW34021   2.605   2.761   2.425 -0.2813 -0.1538  0.5489
 7521SOL    HW134022   2.680   2.761   2.365 -1.3744  1.3362 -0.8480
 7521SOL    HW234023   2.536   2.800   2.371  0.2245 -0.4705 -0.3308
 7522SOL     OW34024   3.347   2.842   8.237  0.7816 -0.4084  0.3041
 7522SOL    HW134025   3.268   2.789   8.226  1.0489 -0.7259 -0.0654
 7522SOL    HW234026   3.413   2.786   8.196  1.2699 -0.4009  1.0679
 7523SOL     OW34027   1.066   1.166   8.568  0.0771 -0.8501 -0.6691
 7523SOL    HW134028   1.061   1.074   8.591  2.2670 -1.1161 -1.2864
 7523SOL    HW234029   1.061   1.201   8.657  2.8707  1.7545 -1.5377
 7524SOL     OW34030   2.849   1.470  15.272 -0.0641 -0.3722 -0.3478
 7524SOL    HW134031   2.831   1.425  15.189 -0.8199 -0.6076 -0.0562
 7524SOL    HW234032   2.870   1.554  15.231  0.3461 -0.6991 -0.8093
 7525SOL     OW34033   1.806   4.199   6.149 -0.0174  0.2735  0.5995
 7525SOL    HW134034   1.775   4.135   6.214  0.7510 -0.5842  0.1240
 7525SOL    HW234035   1.747   4.178   6.077 -0.2974 -0.1668  0.9599
 7526SOL     OW34036   3.706   0.174  13.235  0.7156  0.0583 -0.2823
 7526SOL    HW134037   3.633   0.140  13.184  0.5762  1.0539 -0.7442
 7526SOL    HW234038   3.670   0.244  13.289  0.3529 -1.0320  0.8815
 7527SOL     OW34039   0.394   3.139   2.001  0.3059  0.3348 -0.1391
 7527SOL    HW134040   0.464   3.092   1.954 -0.6380  0.2933 -1.5077
 7527SOL    HW234041   0.432   3.217   2.041  0.8696 -0.6383  1.2521
 7528SOL     OW34042   2.228   4.379   2.164 -0.2754  1.1851 -0.3232
 7528SOL    HW134043   2.310   4.424   2.184 -0.2337  0.2564  1.6474
 7528SOL    HW234044   2.236   4.373   2.069 -2.5210  3.0219 -0.6332
 7529SOL     OW34045   3.240   0.590   4.412  0.1090  0.3228 -0.1461
 7529SOL    HW134046   3.154   0.630   4.402 -0.7642 -1.9601 -1.8392
 7529SOL    HW234047   3.252   0.598   4.507 -0.1160 -1.0918  0.0113
 7530SOL     OW34048   2.983   2.715  15.124 -0.1246 -0.3487  0.0877
 7530SOL    HW134049   2.964   2.622  15.110  1.6969 -0.6195 -0.5934
 7530SOL    HW234050   2.981   2.724  15.220 -3.8431 -1.1447  0.0857
 7531SOL     OW34051   3.384   3.989   3.586 -0.0388  0.2177  0.5211
 7531SOL    HW134052   3.463   3.937   3.567  0.2217  0.2803  1.4405
 7531SOL    HW234053   3.417   4.077   3.604 -0.1143  0.5152 -0.8059
 7532SOL     OW34054   4.665   4.046   7.086  0.3271  0.2173  0.1889
 7532SOL    HW134055   4.669   3.950   7.088 -0.0755  0.1620 -1.3384
 7532SOL    HW234056   4.571   4.060   7.100 -0.4133 -0.9804 -3.5090
 7533SOL     OW34057   0.781   2.058   4.354  0.0219 -1.1170 -0.1864
 7533SOL    HW134058   0.762   2.072   4.261  0.8547 -2.1302 -0.5098
 7533SOL    HW234059   0.718   2.119   4.392  2.9101  2.3306 -0.9001
 7534SOL     OW34060   3.841   1.584   8.388 -0.4757 -0.5004 -0.4768
 7534SOL    HW134061   3.834   1.489   8.389 -0.7877 -0.4856 -0.9242
 7534SOL    HW234062   3.890   1.599   8.468 -0.8682 -0.4245 -0.2476
 7535SOL     OW34063   3.227   4.182   7.199  0.3108  0.5735 -0.1197
 7535SOL    HW134064   3.302   4.238   7.221  1.2512  0.3689 -2.8208
 7535SOL    HW234065   3.204   4.221   7.114 -0.6685  1.2728  0.4502
 7536SOL     OW34066   4.698   3.967  16.705  0.0264 -0.6792 -0.1288
 7536SOL    HW134067   4.648   3.919  16.640  0.1579  0.8954 -1.3805
 7536SOL    HW234068   0.026   4.020  16.642 -0.4788 -0.7437 -0.5764
 7537SOL     OW34069   3.152   2.664   8.148  0.0881 -0.2970 -0.4661
 7537SOL    HW134070   3.100   2.648   8.227  1.7979 -0.2763  0.6709
 7537SOL    HW234071   3.096   2.611   8.091  0.4409 -0.8930 -0.2663
 7538SOL     OW34072   1.956   2.402   2.501 -0.4355  0.2124 -0.4327
 7538SOL    HW134073   1.892   2.366   2.440 -0.9897  1.4074 -0.5400
 7538SOL    HW234074   1.892   2.413   2.572 -1.1317 -0.4568 -0.9627
 7539SOL     OW34075   0.488   3.015  15.329  0.0657 -0.2833 -0.3224
 7539SOL    HW134076   0.475   3.085  15.393 -1.6247 -0.5925 -0.3369
 7539SOL    HW234077   0.398   3.017  15.296  0.5123 -0.7450 -1.5570
 7540SOL     OW34078   2.959   3.586   7.988  0.0087 -0.9363  0.5912
 7540SOL    HW134079   2.977   3.507   7.938  1.3653 -0.1341 -0.2018
 7540SOL    HW234080   2.866   3.598   7.970  0.3519 -1.1744 -1.2807
 7541SOL     OW34081   3.976   2.912   7.119 -0.0644 -0.0623  0.5953
 7541SOL    HW134082   3.894   2.949   7.150 -0.2668 -1.1547  1.3525
 7541SOL    HW234083   3.945   2.821   7.115  0.9345 -0.3473 -1.0710
 7542SOL     OW34084   3.976   3.634   6.119 -0.6220 -0.1973 -0.2545
 7542SOL    HW134085   4.069   3.618   6.102  0.2394  3.0700  1.4000
 7542SOL    HW234086   3.926   3.564   6.079  1.1550 -1.0661 -0.9685
 7543SOL     OW34087   0.943   2.848   8.829 -0.8347 -0.3274  0.0729
 7543SOL    HW134088   0.854   2.819   8.849 -1.0619 -1.2255 -2.2316
 7543SOL    HW234089   0.975   2.782   8.767 -0.3657  0.0070 -0.0418
 7544SOL     OW34090   2.470   0.417   1.376 -0.4336  0.0094  0.1398
 7544SOL    HW134091   2.477   0.336   1.325  1.0918 -0.7301  1.5216
 7544SOL    HW234092   2.488   0.486   1.312 -1.8990 -0.7290 -1.0497
 7545SOL     OW34093   2.795   3.509   5.950 -0.3790  0.2617 -0.5882
 7545SOL    HW134094   2.749   3.471   6.026  0.5998 -1.4893 -0.8562
 7545SOL    HW234095   2.801   3.602   5.967  2.3929 -0.1063  0.3941
 7546SOL     OW34096   3.658   0.350  10.920 -0.8277 -0.1776 -0.1902
 7546SOL    HW134097   3.679   0.355  10.827 -0.0330  1.7710  0.1100
 7546SOL    HW234098   3.563   0.348  10.904 -0.7431  2.6567 -0.9374
 7547SOL     OW34099   1.556   3.673   4.412  0.0521 -0.6279 -0.4222
 7547SOL    HW134100   1.511   3.636   4.336  3.0405 -1.2732 -1.8335
 7547SOL    HW234101   1.609   3.743   4.375  0.1488 -0.3077  0.3234
 7548SOL     OW34102   3.297   4.544   1.019 -0.4153 -0.0050  0.9459
 7548SOL    HW134103   3.295   4.458   0.976 -0.7901 -0.4120  1.7788
 7548SOL    HW234104   3.206   4.574   1.028  0.1583  1.8211  0.7408
 7549SOL     OW34105   1.851   2.460   6.285  0.2740  0.6570  0.7278
 7549SOL    HW134106   1.848   2.365   6.296  2.4445  0.4611 -0.2700
 7549SOL    HW234107   1.799   2.497   6.356 -1.7072 -3.1979  1.2552
 7550SOL     OW34108   1.797   3.997  17.592  0.0923 -0.1802 -0.0797
 7550SOL    HW134109   1.806   4.080  17.545 -1.5544 -0.9346 -1.7307
 7550SOL    HW234110   1.740   4.021  17.665  0.7949  2.6948 -0.4628
 7551SOL     OW34111   0.075   0.050  16.410 -0.3324  0.1252  0.3774
 7551SOL    HW134112   0.118   0.094  16.483 -1.7150  0.1117  1.2045
 7551SOL    HW234113   0.142   0.007  16.357 -2.4491  0.8829 -2.9269
 7552SOL     OW34114   1.404   2.310   1.208 -0.0036  0.3398  0.9215
 7552SOL    HW134115   1.339   2.380   1.209  0.8663  1.1891 -1.5108
 7552SOL    HW234116   1.357   2.241   1.254 -1.0062 -0.3753 -1.2240
 7553SOL     OW34117   3.187   4.276   2.686  0.3023 -0.2192 -0.2803
 7553SOL    HW134118   3.136   4.208   2.642  0.7864 -0.7928  0.0493
 7553SOL    HW234119   3.218   4.315   2.605 -1.4774 -0.5539 -1.1340
 7554SOL     OW34120   0.874   1.251   1.509 -0.3535  0.7491  0.9011
 7554SOL    HW134121   0.870   1.160   1.481  3.0494  1.0629 -0.5993
 7554SOL    HW234122   0.877   1.302   1.428 -1.1646 -2.5736 -1.1945
 7555SOL     OW34123   2.942   2.986   3.086 -0.0414  0.7558 -0.3223
 7555SOL    HW134124   2.998   3.062   3.072  2.5928 -0.9255  1.1442
 7555SOL    HW234125   2.893   2.979   3.004 -0.6454 -2.8138  0.3484
 7556SOL     OW34126   3.456   2.624  17.209  0.0401  0.0044 -0.3635
 7556SOL    HW134127   3.386   2.560  17.201 -0.0741  0.3013 -1.7127
 7556SOL    HW234128   3.524   2.557  17.203 -0.8680 -0.9528  0.0680
 7557SOL     OW34129   1.660   3.818   9.691 -0.1849 -0.5055 -0.1400
 7557SOL    HW134130   1.607   3.745   9.661  0.1163 -0.3964 -0.9324
 7557SOL    HW234131   1.598   3.886   9.716 -1.2992 -0.3875 -3.2192
 7558SOL     OW34132   3.768   0.228  14.504  0.4391  0.0983 -0.3289
 7558SOL    HW134133   3.773   0.227  14.409  0.2414 -0.5268 -0.3298
 7558SOL    HW234134   3.816   0.148  14.527  0.3979  0.5822  1.4538
 7559SOL     OW34135   2.248   2.127  14.864 -0.1924 -0.0262  0.3161
 7559SOL    HW134136   2.264   2.218  14.838 -0.8928 -0.4249 -1.5436
 7559SOL    HW234137   2.160   2.132  14.900 -1.5655  0.1358 -3.0864
 7560SOL     OW34138   2.233   2.266   3.478 -0.2644 -0.3425  0.6101
 7560SOL    HW134139   2.199   2.310   3.555  1.5565  1.0761  0.5971
 7560SOL    HW234140   2.168   2.196   3.467 -0.2383 -0.3958  0.7995
 7561SOL     OW34141   3.406   0.610   8.344  0.3560 -0.0746  0.1414
 7561SOL    HW134142   3.341   0.575   8.405  0.0424 -2.3752 -1.5117
 7561SOL    HW234143   3.348   0.663   8.289  1.6441  1.6337  0.4576
 7562SOL     OW34144   0.126   3.417   2.158  0.1043 -0.0993  0.6986
 7562SOL    HW134145   0.055   3.357   2.181  0.8553 -0.8452  1.0342
 7562SOL    HW234146   0.167   3.433   2.243  1.6696  0.0519 -0.1014
 7563SOL     OW34147   0.809   1.181  14.131 -0.2604 -0.5890  0.1102
 7563SOL    HW134148   0.845   1.170  14.219 -0.6766 -0.1275  0.3380
 7563SOL    HW234149   0.735   1.239  14.146  1.8120  1.8925  0.6307
 7564SOL     OW34150   1.193   1.496   6.362 -0.5054 -0.5288 -0.4322
 7564SOL    HW134151   1.277   1.517   6.403 -0.7627 -2.3209  0.9967
 7564SOL    HW234152   1.140   1.574   6.374 -1.1984 -1.1596  0.5451
 7565SOL     OW34153   4.111   1.246  16.733 -0.1088  0.3767 -0.2940
 7565SOL    HW134154   4.110   1.340  16.715  3.6334  0.2809 -1.0142
 7565SOL    HW234155   4.127   1.224  16.641  0.0246  0.8271 -0.3758
 7566SOL     OW34156   0.659   2.161   8.175 -0.0871 -0.1200 -0.1511
 7566SOL    HW134157   0.739   2.117   8.145 -1.3000 -0.5655 -2.7088
 7566SOL    HW234158   0.671   2.169   8.270 -1.3504 -2.8655  0.2353
 7567SOL     OW34159   0.453   1.592   3.259 -0.3118 -0.2788 -0.1738
 7567SOL    HW134160   0.486   1.671   3.215  0.8234  0.5276  2.1325
 7567SOL    HW234161   0.443   1.525   3.192  2.8859  2.2716 -3.2262
 7568SOL     OW34162   2.694   4.622   8.587  0.1842  0.2496 -0.4224
 7568SOL    HW134163   2.775   4.631   8.535  0.6426  1.3205  0.4837
 7568SOL    HW234164   2.732   4.618   8.674 -1.1820  1.8067  0.2327
 7569SOL     OW34165   1.766   3.239   7.489 -0.3513 -0.1601 -0.4374
 7569SOL    HW134166   1.849   3.199   7.517 -0.7534 -1.1729 -0.6684
 7569SOL    HW234167   1.799   3.310   7.434  1.5590 -1.0867 -0.4907
 7570SOL     OW34168   0.258   0.592   2.164  0.1477  0.2965  0.1906
 7570SOL    HW134169   0.184   0.596   2.104  0.6795  1.0423 -0.4152
 7570SOL    HW234170   0.315   0.661   2.129  0.9737 -0.1242  0.7003
 7571SOL     OW34171   3.093   3.117   9.722 -0.4669  0.7418 -0.4651
 7571SOL    HW134172   3.179   3.157   9.738  0.3727 -0.9017 -0.8092
 7571SOL    HW234173   3.043   3.149   9.796  0.6738  1.8409 -0.1593
 7572SOL     OW34174   0.253   1.510   8.741 -0.0813 -0.4146 -0.1452
 7572SOL    HW134175   0.307   1.582   8.710 -1.1701 -0.5094 -2.2675
 7572SOL    HW234176   0.252   1.516   8.836  2.0860 -2.0964 -0.0314
 7573SOL     OW34177   4.587   1.866   4.607 -0.9447 -0.2995 -0.0882
 7573SOL    HW134178   4.654   1.844   4.543  1.0209  1.7396  1.2391
 7573SOL    HW234179   4.637   1.855   4.689 -1.4158 -1.1199  0.0843
 7574SOL     OW34180   3.029   4.680   7.850 -0.1504 -0.4495  0.3890
 7574SOL    HW134181   2.961   4.693   7.784  0.4642  3.0326  0.4480
 7574SOL    HW234182   3.009   4.595   7.889 -0.6825 -0.9700 -1.0211
 7575SOL     OW34183   0.529   0.165  17.536 -0.3866 -0.1654  0.8221
 7575SOL    HW134184   0.549   0.073  17.518  0.1308  0.2043 -0.4703
 7575SOL    HW234185   0.616   0.187  17.569 -0.5013  0.6381  0.5898
 7576SOL     OW34186   2.851   0.319   4.747 -0.0341  0.2913  0.1266
 7576SOL    HW134187   2.869   0.265   4.824 -1.5723  0.8690  0.8858
 7576SOL    HW234188   2.792   0.385   4.783  1.3280  2.4703 -1.6701
 7577SOL     OW34189   1.553   3.073   5.847  0.1894 -0.0109  0.0103
 7577SOL    HW134190   1.602   3.078   5.929  1.2398  2.5606 -0.7668
 7577SOL    HW234191   1.612   3.011   5.803 -2.3848 -1.1701 -1.7835
 7578SOL     OW34192   3.232   3.596   9.417 -0.1087  0.1801 -0.3341
 7578SOL    HW134193   3.285   3.519   9.394  0.3112 -0.0190  1.3686
 7578SOL    HW234194   3.296   3.658   9.452 -1.4334  0.2328  1.9905
 7579SOL     OW34195   1.593   0.975   3.433 -0.2252  0.5243  0.7358
 7579SOL    HW134196   1.561   1.062   3.456  0.9622  0.9050  0.9155
 7579SOL    HW234197   1.637   0.970   3.348 -0.8325 -0.5109  0.4766
 7580SOL     OW34198   4.360   4.558   6.944 -0.2967 -0.9748  0.4699
 7580SOL    HW134199   4.368   4.463   6.938 -0.8868 -1.0440  0.7983
 7580SOL    HW234200   4.310   4.562   7.026 -0.1838  1.0472  0.4325
 7581SOL     OW34201   3.934   2.149   9.369 -0.1233  0.2008 -0.3139
 7581SOL    HW134202   3.886   2.161   9.288 -1.6456  0.6909  0.6634
 7581SOL    HW234203   3.934   2.239   9.400  0.8824 -0.0880  0.5438
 7582SOL     OW34204   1.110   2.831   7.583  0.1102  0.1549  0.0059
 7582SOL    HW134205   1.070   2.796   7.504 -0.0815 -0.8293  0.5365
 7582SOL    HW234206   1.066   2.915   7.575 -1.3544 -0.5449  0.6946
 7583SOL     OW34207   3.976   1.424   8.945  0.0667 -0.1577  0.0255
 7583SOL    HW134208   4.064   1.432   8.983  0.3604  1.1193 -0.9037
 7583SOL    HW234209   3.994   1.378   8.864 -1.9812 -2.2088  0.7556
 7584SOL     OW34210   3.147   0.620   8.477 -0.0127  0.0147  0.6845
 7584SOL    HW134211   3.115   0.545   8.428  1.6215 -0.7618  0.8179
 7584SOL    HW234212   3.187   0.585   8.557  1.0902  1.5588  0.8223
 7585SOL     OW34213   3.107   2.828   4.294 -0.5003  0.3110 -0.3863
 7585SOL    HW134214   3.202   2.820   4.293 -0.4842  0.2197  1.5841
 7585SOL    HW234215   3.085   2.835   4.201 -0.3390 -0.8314 -0.5069
 7586SOL     OW34216   0.405   0.458   1.870 -0.3617  0.9130 -0.2067
 7586SOL    HW134217   0.405   0.363   1.882  2.8179  0.8351 -0.7792
 7586SOL    HW234218   0.335   0.471   1.805 -0.6911  0.6289  0.0906
 7587SOL     OW34219   0.582   0.652   1.838  0.0898  0.0882  0.3581
 7587SOL    HW134220   0.654   0.630   1.896  0.0189 -1.1280 -0.0271
 7587SOL    HW234221   0.509   0.593   1.854  1.7863 -1.4248  2.5551
 7588SOL     OW34222   1.501   0.033   6.442  0.2599  0.6713  0.1600
 7588SOL    HW134223   1.571   0.082   6.486  0.5781 -0.2638  0.6792
 7588SOL    HW234224   1.432   0.099   6.454  0.1931  0.0999  2.8376
 7589SOL     OW34225   0.386   4.057  12.177 -0.3062 -0.2755  0.3805
 7589SOL    HW134226   0.348   4.118  12.114 -0.6553 -0.0538  0.7973
 7589SOL    HW234227   0.419   4.117  12.245  0.7977 -1.6922  1.0746
 7590SOL     OW34228   1.061   4.029   1.631 -0.6871 -0.2244  0.0467
 7590SOL    HW134229   1.129   4.057   1.693  0.9079 -0.6990 -1.4605
 7590SOL    HW234230   1.041   4.103   1.574  0.5874 -1.1196 -1.5586
 7591SOL     OW34231   2.637   4.228   8.238  0.0198  0.1504  0.1570
 7591SOL    HW134232   2.685   4.302   8.202 -2.3127  1.4398 -0.3479
 7591SOL    HW234233   2.656   4.229   8.332  0.9380 -1.9221  0.0123
 7592SOL     OW34234   0.682   0.752   2.252 -0.3447  0.6707 -0.0814
 7592SOL    HW134235   0.619   0.813   2.290 -2.3138 -2.3045  1.4679
 7592SOL    HW234236   0.630   0.676   2.278  1.1671  0.0979  1.2592
 7593SOL     OW34237   4.200   2.492  15.025 -0.1314  0.4699  0.5601
 7593SOL    HW134238   4.237   2.554  15.087 -0.3517  1.5710 -0.4214
 7593SOL    HW234239   4.108   2.501  15.048 -0.0690  2.7694 -0.0739
 7594SOL     OW34240   0.371   4.539   5.220  0.0810 -0.9843 -0.3744
 7594SOL    HW134241   0.336   4.591   5.148 -0.2447  0.4438  0.8116
 7594SOL    HW234242   0.441   4.602   5.233  1.1527 -2.0600 -0.9502
 7595SOL     OW34243   1.826   4.012   6.881  0.1875 -0.2221  0.5865
 7595SOL    HW134244   1.814   4.041   6.971 -0.2013  1.5732 -0.0352
 7595SOL    HW234245   1.897   4.070   6.853 -1.0619  0.6574 -0.7675
 7596SOL     OW34246   4.356   0.972   0.322  0.0990  0.4675  0.1171
 7596SOL    HW134247   4.350   1.060   0.359 -1.2522  0.0979  0.7519
 7596SOL    HW234248   4.418   0.933   0.384 -0.9438  1.6829  1.9055
 7597SOL     OW34249   4.079   0.345   4.414 -0.4526 -0.2783 -0.1193
 7597SOL    HW134250   4.063   0.439   4.414 -1.7501 -0.5022 -0.0219
 7597SOL    HW234251   4.154   0.336   4.356  0.0447  0.8764  0.3323
 7598SOL     OW34252   1.066   0.805  10.406  0.7020  0.8201  0.2075
 7598SOL    HW134253   0.984   0.775  10.367  1.6549  0.0881 -1.2306
 7598SOL    HW234254   1.058   0.763  10.491  0.6125  0.7575  0.1687
 7599SOL     OW34255   1.392   3.597   7.091 -0.8830  0.2686  0.2929
 7599SOL    HW134256   1.444   3.585   7.012 -3.4771 -3.1943 -0.8847
 7599SOL    HW234257   1.327   3.537   7.054 -0.2133  0.4095 -1.0779
 7600SOL     OW34258   2.364   0.998   5.983 -0.2245 -0.0866 -0.1448
 7600SOL    HW134259   2.424   1.039   6.046 -0.9722  2.0572 -0.8154
 7600SOL    HW234260   2.278   1.002   6.026  0.1781 -1.1054  0.7368
 7601SOL     OW34261   1.736   2.750  11.314 -0.1782  0.1126 -0.1321
 7601SOL    HW134262   1.758   2.843  11.312  2.1442 -0.4153  1.4303
 7601SOL    HW234263   1.706   2.728  11.402  1.2887 -0.0225  0.3367
 7602SOL     OW34264   3.827   2.677   3.158 -0.7719  0.0025  0.1694
 7602SOL    HW134265   3.886   2.749   3.136 -0.3188 -0.3537  0.2231
 7602SOL    HW234266   3.882   2.606   3.124  1.3579  1.2262  1.0386
 7603SOL     OW34267   0.651   2.200   6.031 -0.0109 -0.0197 -0.3561
 7603SOL    HW134268   0.559   2.213   6.009  0.5117  2.1575 -1.2613
 7603SOL    HW234269   0.703   2.269   5.990  0.2152  0.2793  0.4196
 7604SOL     OW34270   0.862   0.097   2.823  0.1936  0.2153  0.3911
 7604SOL    HW134271   0.957   0.112   2.831  0.6866 -2.4270 -0.4725
 7604SOL    HW234272   0.867   0.054   2.738 -1.7083 -0.5413  0.6736
 7605SOL     OW34273   4.017   4.223   5.875 -0.1319 -0.5567  0.1566
 7605SOL    HW134274   4.015   4.128   5.890 -1.0331 -0.8711 -2.0649
 7605SOL    HW234275   4.021   4.234   5.780  0.5167  4.1593  0.7551
 7606SOL     OW34276   0.366   3.694   7.571  0.3659 -0.3302  0.3310
 7606SOL    HW134277   0.362   3.727   7.661 -0.3150 -2.0428  0.9226
 7606SOL    HW234278   0.273   3.673   7.563  0.3139  0.0238  0.0253
 7607SOL     OW34279   1.302   1.175   2.520  0.6402  0.4018  0.1202
 7607SOL    HW134280   1.362   1.123   2.467 -1.2837 -2.3252  0.6458
 7607SOL    HW234281   1.280   1.108   2.584 -3.5894  2.0084  0.3288
 7608SOL     OW34282   3.301   3.995   6.826 -0.9210 -0.0829 -0.4164
 7608SOL    HW134283   3.365   4.066   6.832 -0.6256 -0.4062  0.1943
 7608SOL    HW234284   3.219   4.031   6.861 -1.4147  0.1134 -1.7864
 7609SOL     OW34285   1.082   0.231   3.813 -0.7448  0.4135  0.2248
 7609SOL    HW134286   1.070   0.308   3.869  2.2602  0.9226  0.2065
 7609SOL    HW234287   1.022   0.253   3.743 -2.0617  0.0208  1.2296
 7610SOL     OW34288   0.384   0.820   2.095 -0.2855 -0.3426 -0.2273
 7610SOL    HW134289   0.417   0.858   2.014 -1.3231  0.0803 -0.4483
 7610SOL    HW234290   0.322   0.884   2.130 -1.0017  0.1212 -2.4162
 7611SOL     OW34291   4.594   2.294   0.402 -0.6053  0.0303  0.2451
 7611SOL    HW134292   4.558   2.225   0.458  2.6281 -0.9935  1.0372
 7611SOL    HW234293   4.664   2.340   0.448  0.6458  0.9427 -2.5700
 7612SOL     OW34294   0.953   3.534   7.303 -0.3785  0.3141 -0.0441
 7612SOL    HW134295   0.949   3.439   7.309  0.0185  0.2620 -0.5581
 7612SOL    HW234296   0.941   3.542   7.209  0.7102 -1.9378 -0.3661
 7613SOL     OW34297   1.117   2.041   7.328 -0.0190  0.3698  0.7011
 7613SOL    HW134298   1.079   2.043   7.416  0.5117  0.5524  0.9286
 7613SOL    HW234299   1.200   2.086   7.341  1.8371 -3.4922  2.3484
 7614SOL     OW34300   4.112   3.108  10.552 -0.3287 -0.3361  0.1491
 7614SOL    HW134301   4.068   3.025  10.567 -1.1694 -0.0216 -0.5568
 7614SOL    HW234302   4.180   3.104  10.619  2.3457  1.4047 -2.4535
 7615SOL     OW34303   1.042   3.330   4.692 -0.3306 -0.6279  0.0922
 7615SOL    HW134304   1.014   3.421   4.702  0.8231 -0.3137  0.4822
 7615SOL    HW234305   0.992   3.300   4.615  0.9704  0.3903 -1.1552
 7616SOL     OW34306   0.784   4.365   2.186  0.0450 -0.0451 -0.0985
 7616SOL    HW134307   0.715   4.428   2.164  0.4253 -0.8541 -3.6151
 7616SOL    HW234308   0.857   4.413   2.146  1.7672 -2.7767 -0.1955
 7617SOL     OW34309   1.990   3.946   3.437  0.1191 -0.2785  0.1949
 7617SOL    HW134310   1.907   3.990   3.456 -0.4702 -1.1340 -0.3857
 7617SOL    HW234311   2.053   3.987   3.496 -0.7588  0.6289  0.5063
 7618SOL     OW34312   4.132   3.570  15.197  0.6731 -0.6400  0.1783
 7618SOL    HW134313   4.117   3.511  15.271 -2.0560 -0.6497 -0.3521
 7618SOL    HW234314   4.067   3.531  15.139 -0.4941 -1.2475  1.8672
 7619SOL     OW34315   3.273   4.546   5.774  0.1463  0.8978 -0.1836
 7619SOL    HW134316   3.305   4.460   5.749  0.5169  1.6665 -2.3261
 7619SOL    HW234317   3.334   4.577   5.842 -0.2846  0.3207  0.4704
 7620SOL     OW34318   3.020   1.068   7.030  0.2270 -0.3906  0.5491
 7620SOL    HW134319   2.924   1.076   7.030  0.3256  0.8264 -1.2077
 7620SOL    HW234320   3.040   0.978   7.055 -1.5631 -1.1188 -0.5815
 7621SOL     OW34321   4.093   0.622   5.654 -0.1791 -0.0937  0.0064
 7621SOL    HW134322   4.112   0.650   5.564  3.4807  1.5604  1.3245
 7621SOL    HW234323   4.017   0.567   5.638  0.5348 -1.6615  2.0845
 7622SOL     OW34324   2.472   3.075   3.044 -0.2188 -0.2438  0.0748
 7622SOL    HW134325   2.388   3.033   3.063 -1.0740  1.0716 -0.8096
 7622SOL    HW234326   2.513   3.011   2.985 -3.9755 -1.3625 -1.3451
 7623SOL     OW34327   1.919   1.475   4.863  0.6950 -0.2186 -0.2190
 7623SOL    HW134328   1.907   1.380   4.864  0.7712 -0.2244  0.1025
 7623SOL    HW234329   2.006   1.476   4.903 -0.9859 -0.7811  3.4084
 7624SOL     OW34330   2.568   0.862   7.300  0.0117  0.4931 -0.0466
 7624SOL    HW134331   2.534   0.777   7.327 -0.1124  0.3827 -0.5507
 7624SOL    HW234332   2.488   0.903   7.268  1.7307  1.1905 -3.4464
 7625SOL     OW34333   3.286   2.954  15.103 -0.0974  0.1143 -0.2287
 7625SOL    HW134334   3.366   2.947  15.156 -1.1318  3.3390  1.7951
 7625SOL    HW234335   3.295   2.868  15.064 -0.4967 -0.2186  0.4221
 7626SOL     OW34336   3.807   2.036  11.064 -0.0984 -0.0519 -0.7561
 7626SOL    HW134337   3.729   2.051  11.118  0.6768 -1.5542  0.7853
 7626SOL    HW234338   3.765   1.967  11.013 -1.8080  0.8296 -0.5424
 7627SOL     OW34339   4.275   3.026   8.853 -0.0787  0.0889 -0.1055
 7627SOL    HW134340   4.190   3.064   8.874 -0.2398 -0.9075  1.0469
 7627SOL    HW234341   4.336   3.097   8.832 -0.2714  0.3562  0.2401
 7628SOL     OW34342   0.401   2.686  16.650  0.0283  0.2242 -0.0039
 7628SOL    HW134343   0.446   2.618  16.601 -0.2252  0.9728 -1.2656
 7628SOL    HW234344   0.388   2.641  16.733 -0.4965  0.0680 -0.1737
 7629SOL     OW34345   1.012   4.649   2.119 -0.3097  0.2748  0.7941
 7629SOL    HW134346   1.050   4.630   2.204  0.7380 -1.0609  0.0441
 7629SOL    HW234347   0.921   4.677   2.125  0.4916  2.3322  2.9450
 7630SOL     OW34348   2.282   3.787   4.420  0.1957 -0.4465 -0.2426
 7630SOL    HW134349   2.294   3.712   4.478  0.2890 -0.2015  0.0566
 7630SOL    HW234350   2.292   3.751   4.332 -0.8114 -1.1568 -0.0608
 7631SOL     OW34351   2.443   3.249   6.453 -0.1595 -0.1148  0.0400
 7631SOL    HW134352   2.460   3.218   6.542  0.9899 -0.3849 -0.2828
 7631SOL    HW234353   2.347   3.243   6.460 -0.1552  0.4857  0.6167
 7632SOL     OW34354   1.612   2.174   2.818  0.4254  0.0617 -0.2143
 7632SOL    HW134355   1.648   2.092   2.786 -0.0387 -0.3867  0.4095
 7632SOL    HW234356   1.648   2.241   2.760 -0.6044 -0.1129 -1.0421
 7633SOL     OW34357   3.760   2.418   4.946  0.2526 -0.3272 -0.6352
 7633SOL    HW134358   3.832   2.458   4.994 -1.9584  3.0740 -0.1284
 7633SOL    HW234359   3.802   2.340   4.911 -1.9150 -0.7665 -2.2752
 7634SOL     OW34360   2.819   1.606   6.753 -0.3268  0.2179 -0.3091
 7634SOL    HW134361   2.801   1.638   6.665  1.3349 -0.6395 -0.9639
 7634SOL    HW234362   2.729   1.587   6.777 -0.9931  1.9912 -1.4250
 7635SOL     OW34363   1.688   0.444  15.236 -0.0239  0.4904  0.7200
 7635SOL    HW134364   1.724   0.513  15.293 -0.1158  1.0413  0.1125
 7635SOL    HW234365   1.627   0.406  15.299 -1.0822  1.0777  0.0639
 7636SOL     OW34366   1.543   3.779   0.829  0.3255  0.6579  0.4059
 7636SOL    HW134367   1.489   3.812   0.900  0.0709 -1.6468  1.2720
 7636SOL    HW234368   1.618   3.838   0.841  2.3051 -2.0775  1.4909
 7637SOL     OW34369   3.785   2.216  17.473  0.5359 -0.1193  0.4379
 7637SOL    HW134370   3.786   2.133  17.521  0.2332 -1.0855 -1.1931
 7637SOL    HW234371   3.856   2.267  17.511 -3.1743  3.7920  2.0730
 7638SOL     OW34372   3.334   0.636   1.161 -0.1138  0.4799 -0.0857
 7638SOL    HW134373   3.405   0.668   1.106  2.0997 -0.3550  2.2594
 7638SOL    HW234374   3.375   0.558   1.199  0.3293  0.0929 -1.3414
 7639SOL     OW34375   1.448   2.187   7.822  0.3763 -0.5219  0.0547
 7639SOL    HW134376   1.398   2.262   7.791 -0.0333 -0.0225  1.9131
 7639SOL    HW234377   1.526   2.220   7.868 -1.7339  0.8776  2.6119
 7640SOL     OW34378   3.484   0.874  10.742  0.5182 -0.2043  0.0232
 7640SOL    HW134379   3.507   0.926  10.819  2.0503 -1.6155  0.5000
 7640SOL    HW234380   3.458   0.948  10.687  1.0907  1.2219  1.6739
 7641SOL     OW34381   2.006   4.603   9.032  0.6912  0.1495  0.3669
 7641SOL    HW134382   2.037   4.519   9.067 -1.2164 -0.6582  0.1162
 7641SOL    HW234383   2.036   4.591   8.942 -1.1994  1.5226 -0.4419
 7642SOL     OW34384   4.347   0.414   8.242 -0.1759 -0.1334 -0.1440
 7642SOL    HW134385   4.298   0.443   8.165 -0.2709 -2.5344 -0.9841
 7642SOL    HW234386   4.349   0.489   8.301  0.5295  0.3910 -0.8289
 7643SOL     OW34387   0.351   1.355   6.528  0.3706 -0.1867  0.4525
 7643SOL    HW134388   0.269   1.319   6.562 -0.8127  0.9308 -1.1735
 7643SOL    HW234389   0.351   1.314   6.441 -1.1703 -0.7837  0.7228
 7644SOL     OW34390   0.358   4.303   5.087 -0.5292  0.4675 -0.2893
 7644SOL    HW134391   0.428   4.315   5.024 -0.3468 -0.5337 -0.2780
 7644SOL    HW234392   0.368   4.385   5.135 -1.5929 -0.4808  1.5942
 7645SOL     OW34393   3.669   3.685   9.494 -0.1461 -0.0760 -0.1348
 7645SOL    HW134394   3.649   3.636   9.415 -2.1770  1.1005 -0.3539
 7645SOL    HW234395   3.591   3.735   9.519  0.8335  2.4185 -2.0235
 7646SOL     OW34396   0.840   2.793   6.450  0.7539 -0.4473 -0.0191
 7646SOL    HW134397   0.837   2.711   6.401  1.5121 -1.2040  1.1874
 7646SOL    HW234398   0.745   2.806   6.462  0.6175 -0.8108 -0.7274
 7647SOL     OW34399   2.794   2.655  15.602  0.2774  0.4374  0.9222
 7647SOL    HW134400   2.704   2.630  15.580  0.1240  0.6603  1.2896
 7647SOL    HW234401   2.784   2.750  15.591  1.8853  0.3915 -0.7381
 7648SOL     OW34402   2.197   0.255   0.546  0.0966  0.6628 -0.1279
 7648SOL    HW134403   2.144   0.195   0.495  0.5669  1.3724 -1.4653
 7648SOL    HW234404   2.132   0.316   0.583 -2.4538 -1.6521 -0.8389
 7649SOL     OW34405   0.462   3.231   9.896  0.3420  0.2421 -0.0307
 7649SOL    HW134406   0.467   3.266   9.807  1.5765 -2.6560 -1.0820
 7649SOL    HW234407   0.383   3.178   9.886  2.2400 -2.2592 -1.6454
 7650SOL     OW34408   1.509   1.986   5.648  0.2246  0.1889  0.3747
 7650SOL    HW134409   1.531   2.079   5.646  0.7323  0.0568 -0.0946
 7650SOL    HW234410   1.439   1.984   5.583  0.7590  1.7118 -0.2429
 7651SOL     OW34411   0.693   0.883   4.223  0.3491 -0.3056 -0.0950
 7651SOL    HW134412   0.648   0.926   4.150 -1.3345  0.8278  1.6286
 7651SOL    HW234413   0.778   0.927   4.231  0.4884 -0.6526  0.3408
 7652SOL     OW34414   0.229   4.186   2.176  0.0293 -0.1790  0.8456
 7652SOL    HW134415   0.262   4.276   2.186  1.9718 -1.0923  2.4494
 7652SOL    HW234416   0.285   4.158   2.104 -0.4062  1.4775 -0.1420
 7653SOL     OW34417   0.221   0.483   9.198 -0.3067  0.4539 -0.3346
 7653SOL    HW134418   0.230   0.515   9.109 -0.5283 -1.4423 -1.0268
 7653SOL    HW234419   0.146   0.543   9.203  0.0159  0.7400  1.0392
 7654SOL     OW34420   1.328   0.905   2.055  0.4947 -0.5885 -0.0454
 7654SOL    HW134421   1.323   0.824   2.106 -2.0634 -0.9045 -0.8021
 7654SOL    HW234422   1.363   0.865   1.975  3.1710  0.6599  0.5109
 7655SOL     OW34423   2.785   3.992  15.883 -0.3257 -0.1942  0.2434
 7655SOL    HW134424   2.852   3.947  15.935 -0.7761  0.0991  1.0762
 7655SOL    HW234425   2.794   3.953  15.796 -1.0221 -0.5567  0.3291
 7656SOL     OW34426   1.783   0.606   0.252  0.2381  0.3826 -0.1497
 7656SOL    HW134427   1.707   0.631   0.199  1.1235  0.7192 -1.2463
 7656SOL    HW234428   1.855   0.609   0.189 -0.7077  0.5355 -1.2403
 7657SOL     OW34429   1.019   1.553   9.435 -0.0258 -0.5907 -0.1849
 7657SOL    HW134430   1.000   1.535   9.527  0.1918  0.1044 -0.0028
 7657SOL    HW234431   1.101   1.509   9.414  1.1129  2.1420 -1.5692
 7658SOL     OW34432   2.054   2.774   4.731  0.1336 -0.5654  0.4101
 7658SOL    HW134433   2.017   2.806   4.813  0.2458 -0.1230  0.2895
 7658SOL    HW234434   2.074   2.682   4.747 -1.8666 -0.9234  0.8035
 7659SOL     OW34435   4.075   2.432   0.696  0.1912 -0.5400 -0.3867
 7659SOL    HW134436   4.165   2.415   0.724  0.1259 -0.1465  0.0568
 7659SOL    HW234437   4.045   2.341   0.687  0.6353 -0.7283  0.0508
 7660SOL     OW34438   3.280   2.058   4.396  0.0493  0.3182 -0.1025
 7660SOL    HW134439   3.215   2.089   4.333 -1.4619 -0.2191  1.1872
 7660SOL    HW234440   3.271   2.124   4.465  1.5336 -2.2478  2.5391
 7661SOL     OW34441   2.727   2.907  15.626  0.1961  0.3052 -0.3703
 7661SOL    HW134442   2.679   2.912  15.709 -1.8579 -0.8690 -1.4842
 7661SOL    HW234443   2.721   2.995  15.588 -0.8896  0.3582 -0.0809
 7662SOL     OW34444   1.739   2.872   7.020  0.4150 -0.1907 -0.3613
 7662SOL    HW134445   1.649   2.899   7.003  0.8068  0.8605 -0.8039
 7662SOL    HW234446   1.714   2.794   7.068  0.8796 -1.0044 -1.4451
 7663SOL     OW34447   1.753   1.321   6.723  0.3075  0.6015  0.3768
 7663SOL    HW134448   1.757   1.411   6.754 -0.1661  1.0341 -0.8342
 7663SOL    HW234449   1.734   1.332   6.630  0.4235 -0.5634  0.2084
 7664SOL     OW34450   1.945   0.401   2.983 -0.5821 -0.1256  0.1421
 7664SOL    HW134451   1.970   0.318   3.022 -1.3590 -0.0374  0.8169
 7664SOL    HW234452   1.972   0.393   2.891  1.3951 -2.9844  0.9964
 7665SOL     OW34453   1.091   1.135   3.900  0.0556 -0.5468  0.9347
 7665SOL    HW134454   1.065   1.132   3.808  2.6143  0.2812  0.1821
 7665SOL    HW234455   1.133   1.049   3.910 -0.5522 -0.9373  0.1579
 7666SOL     OW34456   3.389   1.864   5.904 -0.2371  0.0498  0.0864
 7666SOL    HW134457   3.415   1.905   5.821 -0.6086 -3.1839 -1.6526
 7666SOL    HW234458   3.410   1.773   5.881  0.8889  0.2727  0.2191
 7667SOL     OW34459   3.849   1.723   5.028  0.2421  0.1882  0.1277
 7667SOL    HW134460   3.888   1.739   4.942 -1.4422  0.7148 -0.5374
 7667SOL    HW234461   3.858   1.628   5.034 -0.8090  0.0434 -0.7124
 7668SOL     OW34462   1.488   2.158  10.281  0.1041  0.5793  0.0332
 7668SOL    HW134463   1.486   2.247  10.317  2.0357  0.4542  0.4311
 7668SOL    HW234464   1.414   2.176  10.223 -0.1472  0.9914  0.4787
 7669SOL     OW34465   0.088   0.481   6.909 -0.1534  0.4024 -0.4570
 7669SOL    HW134466   0.131   0.515   6.987 -0.1421 -0.8951  0.0906
 7669SOL    HW234467   0.171   0.488   6.862  0.2204 -1.0401 -0.0022
 7670SOL     OW34468   2.210   3.977   1.456 -0.1229  0.5115 -0.8612
 7670SOL    HW134469   2.279   3.913   1.442 -3.1234 -2.0863 -3.6943
 7670SOL    HW234470   2.264   4.056   1.452  0.7387 -0.1644 -2.7395
 7671SOL     OW34471   3.129   4.266   5.841  0.6657 -0.4790  0.9535
 7671SOL    HW134472   3.169   4.263   5.754  0.3207  1.3948  0.7327
 7671SOL    HW234473   3.083   4.183   5.854  0.0971  0.1761  3.1606
 7672SOL     OW34474   0.565   3.884   8.537 -0.6086  0.1406 -0.3890
 7672SOL    HW134475   0.501   3.847   8.475  0.4582  0.8390 -1.9114
 7672SOL    HW234476   0.532   3.972   8.551  1.6299  0.8585  0.4036
 7673SOL     OW34477   3.177   1.716   6.524  0.5649  0.2490 -0.3544
 7673SOL    HW134478   3.194   1.805   6.555  1.3132 -0.3134  0.8331
 7673SOL    HW234479   3.249   1.712   6.461  0.7664 -0.6593 -0.0549
 7674SOL     OW34480   0.677   4.463   3.801  0.4771  0.0831  0.6757
 7674SOL    HW134481   0.759   4.418   3.781  0.1134 -0.9288  1.4359
 7674SOL    HW234482   0.689   4.491   3.892 -0.6678 -0.9393  1.1479
 7675SOL     OW34483   1.131   2.914   7.227 -0.0318 -0.6892 -0.3953
 7675SOL    HW134484   1.121   2.870   7.142 -0.4137  0.0370 -0.7305
 7675SOL    HW234485   1.225   2.909   7.238  0.0090 -1.0616 -0.9201
 7676SOL     OW34486   1.195   3.294   9.313 -0.2385 -0.2342 -0.0771
 7676SOL    HW134487   1.177   3.307   9.406 -3.1408 -1.1479 -0.5179
 7676SOL    HW234488   1.109   3.289   9.272 -0.8660 -0.0882  1.2471
 7677SOL     OW34489   1.295   0.362   8.329 -0.4822 -0.3270  0.0413
 7677SOL    HW134490   1.295   0.435   8.392  0.6834 -0.6488  0.4027
 7677SOL    HW234491   1.301   0.285   8.385  0.8062  0.2786  0.7250
 7678SOL     OW34492   0.951   1.399   6.041  0.1540 -0.2696 -0.2928
 7678SOL    HW134493   1.029   1.421   5.990 -0.6155 -0.1172 -1.4072
 7678SOL    HW234494   0.952   1.471   6.104  1.1204  1.4373 -2.2524
 7679SOL     OW34495   3.734   0.028   3.458  0.3389 -0.5615 -0.8824
 7679SOL    HW134496   3.801   0.066   3.514  1.0355  0.2850 -2.3052
 7679SOL    HW234497   3.665   0.011   3.523 -0.2252  3.0201 -0.5662
 7680SOL     OW34498   1.297   0.001   0.672 -0.5298  0.2220 -0.1400
 7680SOL    HW134499   1.244   0.055   0.613 -0.3713  1.7831  1.1481
 7680SOL    HW234500   1.309   4.640   0.625  1.1311  0.1570  0.3838
 7681SOL     OW34501   2.300   1.360  15.927  0.5980  0.1730  0.4283
 7681SOL    HW134502   2.256   1.445  15.930 -0.4632 -0.3508 -0.0659
 7681SOL    HW234503   2.332   1.347  16.016 -0.3303 -2.8283  0.3374
 7682SOL     OW34504   3.313   0.214  17.651 -0.2930 -0.1066 -0.3735
 7682SOL    HW134505   3.254   0.181   0.030  0.7808  1.1140  1.1733
 7682SOL    HW234506   3.258   0.177  17.582  0.7265  1.2804 -1.9530
 7683SOL     OW34507   2.774   3.728   2.894 -0.6500 -0.1417 -0.2861
 7683SOL    HW134508   2.796   3.678   2.815 -1.2280 -1.1374  0.1741
 7683SOL    HW234509   2.828   3.806   2.892 -0.8064 -0.0251 -0.0449
 7684SOL     OW34510   2.829   4.474   4.238 -0.1459  0.1253 -0.1369
 7684SOL    HW134511   2.780   4.442   4.162  0.3130  0.1959 -0.4613
 7684SOL    HW234512   2.790   4.560   4.251 -0.2835  0.0239  0.1435
 7685SOL     OW34513   3.966   1.349   1.087  0.0990 -0.6831 -0.2511
 7685SOL    HW134514   3.948   1.267   1.133  1.3414 -0.6870  0.2213
 7685SOL    HW234515   4.058   1.369   1.106  0.4289 -2.5085  0.0868
 7686SOL     OW34516   3.191   1.623   4.022  0.1973 -0.5563  0.2868
 7686SOL    HW134517   3.223   1.613   3.932  0.3025 -0.1425  0.2758
 7686SOL    HW234518   3.255   1.572   4.071 -1.3840 -1.6350  1.2438
 7687SOL     OW34519   1.117   0.770   1.843 -0.0453  0.1812 -0.1779
 7687SOL    HW134520   1.212   0.779   1.852 -0.0447 -0.9859  1.0081
 7687SOL    HW234521   1.085   0.775   1.933  0.9633 -0.7090  0.2380
 7688SOL     OW34522   1.477   0.125   2.529  0.2985  0.6154  1.0767
 7688SOL    HW134523   1.431   0.070   2.466  1.5255  0.0481  0.6774
 7688SOL    HW234524   1.405   0.167   2.577 -0.0627  2.1122 -0.7862
 7689SOL     OW34525   0.388   0.792   4.920 -0.4679 -0.1564  0.7769
 7689SOL    HW134526   0.478   0.761   4.907 -0.1497  1.0227  0.2249
 7689SOL    HW234527   0.346   0.712   4.951 -1.9261  1.0605  1.9124
 7690SOL     OW34528   1.556   1.598   4.827  0.0173  0.1791 -0.1414
 7690SOL    HW134529   1.586   1.525   4.882  0.7596 -1.6532 -2.9660
 7690SOL    HW234530   1.505   1.645   4.893 -2.1477 -1.5065 -0.6015
 7691SOL     OW34531   2.806   3.850   6.669 -0.1714 -0.5944  0.8246
 7691SOL    HW134532   2.794   3.942   6.695 -3.5063 -0.5579 -0.9456
 7691SOL    HW234533   2.804   3.804   6.753 -0.2529 -0.5656  0.8384
 7692SOL     OW34534   1.993   3.723   1.463  0.0242 -0.1582 -0.2980
 7692SOL    HW134535   1.986   3.817   1.482 -2.9353 -0.2337 -1.0423
 7692SOL    HW234536   2.087   3.716   1.478 -0.4832 -3.5000  1.4285
 7693SOL     OW34537   1.414   1.312  12.430  0.4250  0.5396  0.3435
 7693SOL    HW134538   1.353   1.262  12.376  0.9557 -0.6488  0.8372
 7693SOL    HW234539   1.404   1.279  12.519  2.7582  0.2379  0.4953
 7694SOL     OW34540   3.644   1.368   3.506  0.3449  0.5422  0.2890
 7694SOL    HW134541   3.595   1.287   3.494 -1.2933  1.3337  1.5921
 7694SOL    HW234542   3.618   1.418   3.428 -0.9897  1.3085  1.2382
 7695SOL     OW34543   2.419   4.517   9.190 -0.3473  0.0176  0.5089
 7695SOL    HW134544   2.362   4.528   9.266  1.6199  0.3828  1.9069
 7695SOL    HW234545   2.506   4.531   9.226  0.7838 -1.5996 -1.5664
 7696SOL     OW34546   2.340   0.635  16.406 -0.1998 -0.9622  0.0830
 7696SOL    HW134547   2.399   0.689  16.354 -1.0253 -0.3900 -0.2541
 7696SOL    HW234548   2.271   0.645  16.340  0.2183  2.1066  0.1075
 7697SOL     OW34549   1.777   0.616   2.145  0.1261  0.4328 -0.1566
 7697SOL    HW134550   1.736   0.542   2.101  0.9724 -1.0969  1.6254
 7697SOL    HW234551   1.870   0.596   2.141 -0.6665 -2.9073 -2.1334
 7698SOL     OW34552   3.359   4.334  16.910  0.0323  0.1874 -0.1992
 7698SOL    HW134553   3.321   4.421  16.912 -1.0954 -0.3477  1.4931
 7698SOL    HW234554   3.360   4.312  17.003  0.2018 -1.9298 -0.7059
 7699SOL     OW34555   4.148   0.465  10.745  0.0581 -0.1930 -0.5005
 7699SOL    HW134556   4.071   0.481  10.691  0.3147 -0.4436 -0.9414
 7699SOL    HW234557   4.104   0.431  10.823  0.0232  0.7842 -0.1004
 7700SOL     OW34558   1.674   2.788  10.138 -0.5130  0.3142 -0.1241
 7700SOL    HW134559   1.633   2.849  10.198 -1.6570  0.7277 -1.3373
 7700SOL    HW234560   1.744   2.760  10.197  0.6579  0.1356 -1.5812
 7701SOL     OW34561   1.005   0.662   1.617  0.1211 -0.8125 -1.0101
 7701SOL    HW134562   1.037   0.738   1.666  1.8427 -2.0901 -0.2074
 7701SOL    HW234563   1.016   0.703   1.531  1.0202 -0.4369 -0.7100
 7702SOL     OW34564   0.090   2.979   3.441  0.9333 -0.6370 -0.6100
 7702SOL    HW134565   0.139   3.057   3.467  1.9980 -1.4435 -0.1769
 7702SOL    HW234566   0.084   2.926   3.520 -1.2507 -0.5829 -0.7531
 7703SOL     OW34567   3.984   0.133   9.491 -0.3134 -0.3211 -0.5299
 7703SOL    HW134568   3.893   0.116   9.469 -0.9952  0.4843  1.6311
 7703SOL    HW234569   3.993   0.082   9.572  0.3357  2.0462  0.8950
 7704SOL     OW34570   1.843   3.999   5.344 -0.7655  0.6572 -0.0131
 7704SOL    HW134571   1.767   3.978   5.399 -0.6471 -0.4237 -0.2577
 7704SOL    HW234572   1.820   4.087   5.316 -1.8082  0.3206 -0.2228
 7705SOL     OW34573   1.499   0.082  10.877 -0.3843 -0.2037 -0.1121
 7705SOL    HW134574   1.455   4.719  10.879 -0.0753 -0.3770 -0.7753
 7705SOL    HW234575   1.437   0.138  10.830  1.4731  0.4804 -1.7360
 7706SOL     OW34576   0.540   2.536  16.476 -0.0676  0.1222  0.5953
 7706SOL    HW134577   0.606   2.536  16.545 -0.0394  0.8607  0.5755
 7706SOL    HW234578   0.576   2.472  16.415 -0.9719 -0.2652  0.4786
 7707SOL     OW34579   4.019   2.596   7.168  0.2198  0.2141 -0.7512
 7707SOL    HW134580   4.106   2.582   7.205 -0.5613  0.0737  1.0209
 7707SOL    HW234581   4.020   2.524   7.105  1.0577 -0.1678 -0.2965
 7708SOL     OW34582   1.090   0.955   3.131  0.4323  0.6846 -0.0055
 7708SOL    HW134583   1.084   1.017   3.203 -0.9106  0.9071 -0.3087
 7708SOL    HW234584   1.185   0.942   3.135  0.3154 -0.2585 -0.1730
 7709SOL     OW34585   1.316   4.304   2.352  0.2539 -0.1021 -0.2341
 7709SOL    HW134586   1.327   4.360   2.275  0.8604  0.7946  0.5042
 7709SOL    HW234587   1.344   4.219   2.317 -1.2711 -1.2245  1.2825
 7710SOL     OW34588   1.272   3.782   5.112 -0.3173 -0.0237  0.4596
 7710SOL    HW134589   1.191   3.831   5.093  0.5500  1.4527  0.6036
 7710SOL    HW234590   1.312   3.783   5.025 -0.6241 -0.6426  0.3082
 7711SOL     OW34591   1.988   3.835   1.850 -0.1511 -0.4188 -0.3356
 7711SOL    HW134592   2.005   3.925   1.878  3.5742 -1.6739  1.4677
 7711SOL    HW234593   2.041   3.845   1.771  0.5503  0.1630  0.2144
 7712SOL     OW34594   1.548   3.783   6.686  0.1311  0.0011  0.2015
 7712SOL    HW134595   1.619   3.839   6.655  0.2800 -0.7550 -0.8002
 7712SOL    HW234596   1.539   3.733   6.606  2.2959  1.4569 -0.9267
 7713SOL     OW34597   4.327   1.334  17.521 -0.2303  0.0105 -0.5048
 7713SOL    HW134598   4.385   1.268  17.559 -2.1208 -0.7797  0.9593
 7713SOL    HW234599   4.245   1.286  17.518  0.0309 -0.4920  0.3915
 7714SOL     OW34600   0.242   0.110   3.707 -0.1400  0.1612  0.7536
 7714SOL    HW134601   0.299   0.042   3.742  1.1276  0.2735 -1.1318
 7714SOL    HW234602   0.237   0.105   3.612 -0.6244 -0.1452  0.7979
 7715SOL     OW34603   4.471   0.598  15.585  0.1490  0.5545 -0.5413
 7715SOL    HW134604   4.457   0.686  15.620  0.9313  0.7199 -0.6430
 7715SOL    HW234605   4.551   0.613  15.536  1.0012  1.5877  1.1774
 7716SOL     OW34606   0.197   3.325   3.742  0.0484  0.6713 -0.6880
 7716SOL    HW134607   0.266   3.278   3.695  0.2208  0.7271 -0.4904
 7716SOL    HW234608   0.254   3.369   3.804  1.5755  0.8657 -2.2178
 7717SOL     OW34609   1.633   3.337   2.057 -0.1163  0.8785  0.1844
 7717SOL    HW134610   1.716   3.385   2.059 -1.2458  2.8570 -0.0150
 7717SOL    HW234611   1.661   3.270   1.995 -0.2727 -1.0612  2.2101
 7718SOL     OW34612   2.184   0.411   4.219 -0.0354 -0.4460  0.3840
 7718SOL    HW134613   2.233   0.344   4.171  0.0382  0.0560 -0.2500
 7718SOL    HW234614   2.132   0.358   4.279 -0.8390  0.7193  0.7246
 7719SOL     OW34615   3.958   4.444   8.328 -0.2497  0.1457  0.1961
 7719SOL    HW134616   3.978   4.431   8.421 -0.8851  0.1777  0.3407
 7719SOL    HW234617   3.929   4.535   8.329  1.2851  0.6354  0.0918
 7720SOL     OW34618   3.911   3.370   2.453 -0.4225  0.1975 -0.1897
 7720SOL    HW134619   3.959   3.447   2.424  1.4628  0.0646  2.6046
 7720SOL    HW234620   3.842   3.363   2.387  0.7011 -0.2108 -1.2997
 7721SOL     OW34621   0.826   1.320   7.430 -0.4951 -0.4170 -0.1270
 7721SOL    HW134622   0.899   1.278   7.385 -0.0294 -0.3522  0.5631
 7721SOL    HW234623   0.879   1.341   7.507  0.2544  1.4146 -1.1423
 7722SOL     OW34624   0.758   4.459   0.068 -0.2439  0.1589 -0.1963
 7722SOL    HW134625   0.851   4.467   0.047  0.1478  1.3688  1.9807
 7722SOL    HW234626   0.752   4.549   0.098  2.1254  0.8152 -1.7040
 7723SOL     OW34627   3.515   4.046   4.533  0.4804 -0.0548  0.5593
 7723SOL    HW134628   3.594   4.077   4.490 -0.9463  2.5991 -0.1576
 7723SOL    HW234629   3.500   4.110   4.603 -0.4357  1.8930 -1.4454
 7724SOL     OW34630   0.174   1.109   1.845 -0.3330 -0.0017  0.7982
 7724SOL    HW134631   0.156   1.154   1.763 -0.2751 -0.2593  0.6425
 7724SOL    HW234632   0.121   1.030   1.832 -0.4087 -0.4524  3.7566
 7725SOL     OW34633   3.745   3.130  12.510 -0.1182  0.2927 -0.4699
 7725SOL    HW134634   3.782   3.046  12.482 -2.6505 -0.6514 -0.9041
 7725SOL    HW234635   3.783   3.198  12.454  3.4327 -1.3433 -0.0303
 7726SOL     OW34636   0.302   0.794   3.664 -0.0229  0.3368  0.1389
 7726SOL    HW134637   0.311   0.833   3.751  1.5225  0.2953 -0.0023
 7726SOL    HW234638   0.356   0.854   3.613  2.1613 -1.8594 -0.1644
 7727SOL     OW34639   0.933   4.388  13.784  0.2071 -0.8791 -0.2839
 7727SOL    HW134640   0.875   4.389  13.860  0.9010 -0.2455  0.2242
 7727SOL    HW234641   0.877   4.439  13.725 -0.1454 -0.6969  0.2094
 7728SOL     OW34642   0.883   1.149   2.627 -0.1717  0.0550 -0.3101
 7728SOL    HW134643   0.928   1.175   2.708 -1.3992  0.2550  0.3085
 7728SOL    HW234644   0.813   1.098   2.668 -0.1582 -1.3208 -1.9830
 7729SOL     OW34645   3.301   3.279  14.763 -0.0544 -0.4388 -0.8929
 7729SOL    HW134646   3.291   3.371  14.737 -0.1167  0.1282  1.0789
 7729SOL    HW234647   3.346   3.241  14.688  0.4727 -0.8095 -0.3968
 7730SOL     OW34648   3.806   3.407  10.714 -0.1412  0.1962  0.2001
 7730SOL    HW134649   3.848   3.479  10.667  1.2087 -0.1990  0.7937
 7730SOL    HW234650   3.826   3.441  10.801 -0.7186  0.1452  0.3534
 7731SOL     OW34651   1.716   1.811   8.751 -0.1511  0.8378  0.1387
 7731SOL    HW134652   1.634   1.786   8.710  0.3334 -3.2927  1.6541
 7731SOL    HW234653   1.699   1.889   8.804 -0.2910 -0.3537  1.8735
 7732SOL     OW34654   1.892   4.465   8.793 -0.4606 -0.6191 -0.2991
 7732SOL    HW134655   1.938   4.533   8.744  1.5348  0.4714  3.0832
 7732SOL    HW234656   1.848   4.413   8.726 -2.4223 -0.4533  0.8739
 7733SOL     OW34657   0.224   2.723   3.064  0.4563  0.3428 -0.0694
 7733SOL    HW134658   0.163   2.737   3.137  0.1473  1.8055 -0.6057
 7733SOL    HW234659   0.260   2.811   3.051  1.7662 -0.3862 -1.3589
 7734SOL     OW34660   1.285   3.764   6.384  0.1807  0.1966 -0.5272
 7734SOL    HW134661   1.233   3.687   6.360 -0.6072  1.1161 -1.7536
 7734SOL    HW234662   1.218   3.826   6.355  0.8567  0.9511 -0.4768
 7735SOL     OW34663   2.688   0.819   6.120 -0.3011  0.2420 -0.0219
 7735SOL    HW134664   2.603   0.791   6.086 -0.2445  0.7641 -0.5981
 7735SOL    HW234665   2.659   0.834   6.210  0.1237  2.3301 -0.2265
 7736SOL     OW34666   0.879   3.140   3.056  0.0108 -0.1900 -0.4616
 7736SOL    HW134667   0.867   3.235   3.065  1.9536  0.1633 -1.5825
 7736SOL    HW234668   0.969   3.139   3.024  0.3676 -1.3905  0.6270
 7737SOL     OW34669   4.634   3.999  13.030  0.4778  0.5637 -0.0696
 7737SOL    HW134670   4.552   4.045  13.048  0.1509  0.6790 -1.7918
 7737SOL    HW234671   4.657   4.039  12.946  1.6930  0.4132  0.1896
 7738SOL     OW34672   4.411   3.735   5.194 -0.0110 -0.2479  0.0798
 7738SOL    HW134673   4.380   3.680   5.266 -0.0961 -1.0486 -0.5658
 7738SOL    HW234674   4.339   3.796   5.177  0.5780 -0.3466 -2.7847
 7739SOL     OW34675   1.188   0.265   8.921  0.1745  0.4533  0.3284
 7739SOL    HW134676   1.170   0.190   8.865  0.0628 -0.5415  1.7085
 7739SOL    HW234677   1.160   0.334   8.860  0.4921 -0.2794 -0.6399
 7740SOL     OW34678   3.027   2.643   2.042  0.0369 -0.1506  0.3880
 7740SOL    HW134679   3.031   2.732   2.008 -0.7919  0.6760  2.4373
 7740SOL    HW234680   3.118   2.633   2.068  0.0182 -1.0864  0.0927
 7741SOL     OW34681   0.839   0.289  11.739  0.9316  0.5921 -0.3707
 7741SOL    HW134682   0.934   0.279  11.749  0.8248 -0.0338  0.0484
 7741SOL    HW234683   0.824   0.306  11.832  0.8493 -1.7785  0.0272
 7742SOL     OW34684   1.885   0.446   5.451 -0.0235 -0.1976 -0.5334
 7742SOL    HW134685   1.959   0.478   5.501 -0.4952  1.0936 -0.6511
 7742SOL    HW234686   1.862   0.526   5.403 -0.4965 -0.6088 -0.9943
 7743SOL     OW34687   3.492   3.948  14.989 -0.6195 -0.1190 -0.1293
 7743SOL    HW134688   3.447   3.924  15.069 -0.7220 -2.9091 -1.0286
 7743SOL    HW234689   3.477   4.042  14.989  2.5032  0.4054  1.1254
 7744SOL     OW34690   0.063   2.925  13.124  0.2772  0.3260 -0.5335
 7744SOL    HW134691   0.134   2.876  13.164  0.6351 -1.0628 -2.8678
 7744SOL    HW234692   4.713   2.867  13.150 -1.4122  2.3664 -0.6124
 7745SOL     OW34693   1.771   3.177  17.282 -0.7089 -0.3848 -0.3305
 7745SOL    HW134694   1.753   3.132  17.364 -2.0027  1.5165  0.4300
 7745SOL    HW234695   1.848   3.125  17.259 -0.3220 -0.2757  0.7184
 7746SOL     OW34696   0.034   0.630  17.387 -0.0517 -0.1843 -0.4601
 7746SOL    HW134697   4.718   0.543  17.399  0.8863 -0.4345  0.6459
 7746SOL    HW234698   4.702   0.663  17.315 -1.8487 -3.0353 -0.4197
 7747SOL     OW34699   0.108   0.159   2.231  0.1016  0.4050 -0.0867
 7747SOL    HW134700   0.086   0.218   2.159  0.5842 -0.4438 -0.9403
 7747SOL    HW234701   0.176   0.208   2.276  0.1723 -0.4092  0.6919
 7748SOL     OW34702   1.614   3.801   3.429  0.3092  0.0760  0.0960
 7748SOL    HW134703   1.604   3.706   3.433 -1.3415  0.2254 -0.3580
 7748SOL    HW234704   1.552   3.819   3.358  2.6475  1.9095 -1.4741
 7749SOL     OW34705   4.182   3.008   4.535 -0.4157  0.2954  0.3836
 7749SOL    HW134706   4.188   3.096   4.498 -0.2245  0.0243 -0.2316
 7749SOL    HW234707   4.098   3.012   4.579  0.4277  1.1834  1.8952
 7750SOL     OW34708   1.839   0.223   8.029 -0.0314  0.5061  0.0843
 7750SOL    HW134709   1.783   0.193   8.101  0.9712  1.3082  1.1820
 7750SOL    HW234710   1.871   0.304   8.069  0.6477 -0.0291  0.6211
 7751SOL     OW34711   1.170   1.482   1.163  0.2458  0.3331  0.4551
 7751SOL    HW134712   1.134   1.540   1.230 -0.9328  0.6872 -0.4956
 7751SOL    HW234713   1.227   1.437   1.225  0.1705  1.0454  1.0379
 7752SOL     OW34714   0.131   1.621  10.223  0.1429 -0.3942 -0.1769
 7752SOL    HW134715   0.083   1.583  10.297  0.2136 -0.0952  0.0209
 7752SOL    HW234716   0.214   1.576  10.236  0.2047 -0.0149  0.7070
 7753SOL     OW34717   0.792   3.291   7.739  0.7401  0.1915 -0.0692
 7753SOL    HW134718   0.814   3.379   7.772  2.2675 -0.7653  1.4780
 7753SOL    HW234719   0.747   3.307   7.656  1.1810 -0.2860 -0.4007
 7754SOL     OW34720   1.982   0.422   2.087 -0.0522  1.0818 -0.4462
 7754SOL    HW134721   2.044   0.490   2.062 -1.2104  1.4892 -2.2008
 7754SOL    HW234722   2.031   0.394   2.164 -1.0551 -0.5566 -0.3954
 7755SOL     OW34723   0.624   0.174   5.615 -0.1134 -0.0808  0.4728
 7755SOL    HW134724   0.713   0.141   5.604 -0.9649 -1.0606 -3.2333
 7755SOL    HW234725   0.622   0.168   5.711 -0.6019  1.9322  0.5791
 7756SOL     OW34726   1.330   1.028   2.784  0.0625 -0.4895  0.2846
 7756SOL    HW134727   1.425   1.022   2.774  0.0397  1.2101 -0.9954
 7756SOL    HW234728   1.326   1.038   2.879  1.5664  2.1334  0.0516
 7757SOL     OW34729   4.350   3.622   2.584  0.1581 -0.2014 -0.3511
 7757SOL    HW134730   4.434   3.602   2.626 -0.2440 -0.4955  0.3108
 7757SOL    HW234731   4.283   3.582   2.639  0.9075  0.0303  0.7486
 7758SOL     OW34732   3.817   1.438   3.909 -0.2392  0.4416 -0.2442
 7758SOL    HW134733   3.721   1.439   3.908 -0.2796  0.5194  2.2062
 7758SOL    HW234734   3.852   1.512   3.860 -0.0505  2.7741  3.4564
 7759SOL     OW34735   0.174   2.771  10.171  0.1734 -0.0272  0.3040
 7759SOL    HW134736   0.091   2.814  10.149  0.8829  1.0500 -0.2837
 7759SOL    HW234737   0.207   2.754  10.083 -0.4624  1.5471 -0.2389
 7760SOL     OW34738   2.105   1.516  16.916 -0.5001  0.0822  0.3687
 7760SOL    HW134739   2.128   1.582  16.850 -1.1191 -1.4540 -1.3844
 7760SOL    HW234740   2.042   1.458  16.873 -0.4900  0.4287 -0.1186
 7761SOL     OW34741   3.653   2.881   6.124  0.7068  0.1452  0.0340
 7761SOL    HW134742   3.569   2.917   6.153  1.4356  0.2466  2.0182
 7761SOL    HW234743   3.625   2.852   6.037 -0.0478  1.3970 -0.1416
 7762SOL     OW34744   0.882   1.588   9.203  0.0773  0.1396  0.2142
 7762SOL    HW134745   0.872   1.678   9.236  0.9209 -0.4906  2.1963
 7762SOL    HW234746   0.929   1.557   9.280  1.6859  1.9605 -0.0201
 7763SOL     OW34747   1.825   3.235   1.862 -0.3439  0.3643  0.2935
 7763SOL    HW134748   1.870   3.204   1.783  0.0929  1.4573  0.1100
 7763SOL    HW234749   1.739   3.248   1.823  0.9226 -1.1729 -3.0668
 7764SOL     OW34750   3.615   0.389  15.710 -0.3288 -0.0080  0.2219
 7764SOL    HW134751   3.597   0.478  15.682  1.1001 -0.6066 -2.5405
 7764SOL    HW234752   3.682   0.368  15.645 -1.0460  3.9064 -1.7640
 7765SOL     OW34753   3.261   3.886  12.533  0.0496  0.3393 -0.1059
 7765SOL    HW134754   3.305   3.828  12.470 -0.4123 -0.1039 -0.0214
 7765SOL    HW234755   3.191   3.924  12.480 -0.3289  1.1007  0.9384
 7766SOL     OW34756   0.556   3.879   7.850  0.1476  0.4651 -0.4110
 7766SOL    HW134757   0.606   3.875   7.769  1.6814  0.1395  0.5609
 7766SOL    HW234758   0.590   3.804   7.897 -0.8127  0.1823 -0.1619
 7767SOL     OW34759   4.164   2.176   6.509 -0.7692  0.0558  0.3927
 7767SOL    HW134760   4.143   2.223   6.589 -0.5400  0.4249  0.2365
 7767SOL    HW234761   4.120   2.231   6.444 -1.6639 -0.4271  0.5938
 7768SOL     OW34762   1.127   1.541   8.483  0.0274 -0.0779  0.1656
 7768SOL    HW134763   1.055   1.530   8.420 -0.2137  1.0594  0.2542
 7768SOL    HW234764   1.175   1.459   8.474 -0.0183  0.2062 -2.7213
 7769SOL     OW34765   3.696   0.581  11.026  0.0430 -0.7065 -0.2794
 7769SOL    HW134766   3.720   0.616  10.940 -0.3013  2.6085  1.0097
 7769SOL    HW234767   3.685   0.487  11.008  0.9878 -1.0808  1.0827
 7770SOL     OW34768   2.482   1.254  16.110  0.2492  0.1019 -0.0664
 7770SOL    HW134769   2.470   1.228  16.201  2.4064  0.6219  0.3796
 7770SOL    HW234770   2.541   1.182  16.086  0.9166  0.7301 -0.3143
 7771SOL     OW34771   3.468   0.907   7.161  0.1358 -0.2496 -0.1577
 7771SOL    HW134772   3.432   0.861   7.085  0.9089  0.1482 -0.7705
 7771SOL    HW234773   3.560   0.884   7.148  1.0080  1.2790  3.2106
 7772SOL     OW34774   3.600   1.179  11.969 -0.0111  0.2571  0.3564
 7772SOL    HW134775   3.594   1.102  11.913  0.6695 -0.5058  1.3287
 7772SOL    HW234776   3.588   1.139  12.055 -1.1289  1.2036  0.6566
 7773SOL     OW34777   2.476   3.170   6.731 -0.3529  0.1544 -0.1719
 7773SOL    HW134778   2.463   3.076   6.728  1.7770 -0.1737  0.8975
 7773SOL    HW234779   2.461   3.188   6.824 -1.3583 -1.4680 -0.0373
 7774SOL     OW34780   0.710   4.458   5.915 -0.8728 -0.1697 -0.3520
 7774SOL    HW134781   0.631   4.506   5.940  1.1882  2.5527  0.8294
 7774SOL    HW234782   0.750   4.443   6.000 -1.4886  0.6162  0.0748
 7775SOL     OW34783   1.228   0.722  13.860  0.4920  0.1439 -0.4686
 7775SOL    HW134784   1.144   0.687  13.891  0.0745  1.8564  0.3556
 7775SOL    HW234785   1.205   0.735  13.768 -1.7191 -0.7883 -0.0539
 7776SOL     OW34786   4.487   4.052  13.282 -0.3719  0.1654 -0.8718
 7776SOL    HW134787   4.577   4.032  13.256  0.3893 -0.8268  2.4945
 7776SOL    HW234788   4.471   3.989  13.352 -2.4924  0.5616 -1.0174
 7777SOL     OW34789   0.969   1.460   3.752 -0.0572  0.1269 -0.3414
 7777SOL    HW134790   0.949   1.532   3.811  0.9236  0.2528 -0.1654
 7777SOL    HW234791   0.927   1.485   3.669 -1.7125 -0.8278  0.2103
 7778SOL     OW34792   3.621   2.150   7.958 -0.3694 -0.3335 -0.2055
 7778SOL    HW134793   3.654   2.238   7.943 -1.9088  0.1270 -0.8673
 7778SOL    HW234794   3.592   2.146   8.049  1.6741 -0.3933  0.4469
 7779SOL     OW34795   1.038   3.821   5.907 -0.1576  0.1242 -0.2876
 7779SOL    HW134796   0.995   3.861   5.831  1.1210  1.2966 -0.4061
 7779SOL    HW234797   1.095   3.753   5.872  0.6333 -0.1178  1.4692
 7780SOL     OW34798   1.356   2.108   9.051 -0.0903 -0.0179  0.4920
 7780SOL    HW134799   1.329   2.094   8.960 -0.0024  1.5767  0.2340
 7780SOL    HW234800   1.307   2.033   9.085  4.6303 -2.3066  2.2178
 7781SOL     OW34801   3.088   3.959   8.885  0.2674  0.0411 -0.2830
 7781SOL    HW134802   3.063   4.028   8.823 -1.6714 -0.8410 -0.4891
 7781SOL    HW234803   3.003   3.947   8.928  0.3990 -1.8122 -0.5447
 7782SOL     OW34804   4.330   4.314   4.519  0.0160  0.2350 -0.0738
 7782SOL    HW134805   4.333   4.240   4.579  0.4428  0.6709  0.4394
 7782SOL    HW234806   4.257   4.287   4.463 -0.6951 -1.1909  1.5474
 7783SOL     OW34807   0.972   2.330   5.098  0.5745  0.0146  0.2129
 7783SOL    HW134808   1.036   2.384   5.145  1.6878 -0.3039 -0.9404
 7783SOL    HW234809   0.936   2.389   5.032  0.0653 -1.7974 -1.1291
 7784SOL     OW34810   4.592   0.445   5.852  0.5011 -0.0543  0.4021
 7784SOL    HW134811   4.516   0.394   5.823  1.0242 -0.3397 -0.4791
 7784SOL    HW234812   4.612   0.491   5.771 -0.7656  1.3507  0.9005
 7785SOL     OW34813   2.546   1.303   2.343 -1.0366  0.4943 -0.3856
 7785SOL    HW134814   2.495   1.367   2.293 -1.2893  0.3639 -0.2916
 7785SOL    HW234815   2.484   1.231   2.351 -1.2779  0.8642  1.0220
 7786SOL     OW34816   3.856   4.389  16.105  0.2504  0.2114 -0.0002
 7786SOL    HW134817   3.892   4.317  16.052 -0.7195 -0.5950  0.4460
 7786SOL    HW234818   3.899   4.464  16.065  1.8950 -0.2161  0.9439
 7787SOL     OW34819   4.211   0.055   4.861 -0.0615  0.5147 -0.6701
 7787SOL    HW134820   4.179   0.143   4.840  0.0286  0.5802 -0.5277
 7787SOL    HW234821   4.300   0.075   4.888  1.0802 -0.1804 -3.9433
 7788SOL     OW34822   3.439   3.801   2.269  0.2514  0.1309  0.0559
 7788SOL    HW134823   3.495   3.865   2.226  0.1133 -0.0288 -0.3633
 7788SOL    HW234824   3.352   3.840   2.264  1.4197  2.6017 -0.7928
 7789SOL     OW34825   0.259   1.645   2.417  0.1954  0.0213  0.6686
 7789SOL    HW134826   0.199   1.618   2.346 -0.0594 -1.8898  1.6007
 7789SOL    HW234827   0.319   1.706   2.375 -0.7172  2.4720  2.9672
 7790SOL     OW34828   4.721   2.512   6.666 -0.2317  0.1458  0.4814
 7790SOL    HW134829   0.017   2.516   6.760  1.7384 -2.0881  0.2176
 7790SOL    HW234830   4.699   2.419   6.653 -0.4158  0.2673 -0.0768
 7791SOL     OW34831   1.522   0.086   6.118 -0.2177  0.0519  0.8523
 7791SOL    HW134832   1.541   0.020   6.184 -0.7947  1.4712  2.4274
 7791SOL    HW234833   1.557   0.054   6.034 -0.1754  1.0407  0.4844
 7792SOL     OW34834   2.084   1.196   5.881  0.3578  0.6174  0.4450
 7792SOL    HW134835   2.168   1.233   5.909 -0.0078  2.2417 -0.5870
 7792SOL    HW234836   2.082   1.125   5.944  1.2806  1.7434  1.7544
 7793SOL     OW34837   1.790   2.520   7.692 -0.5134 -0.0481 -0.7694
 7793SOL    HW134838   1.836   2.506   7.609 -0.2696  4.2781 -1.3239
 7793SOL    HW234839   1.851   2.475   7.751  0.2074  1.4309 -0.3933
 7794SOL     OW34840   3.764   2.454   5.765  0.2395 -0.4289  0.4610
 7794SOL    HW134841   3.758   2.368   5.723  0.7886 -0.5864  0.7126
 7794SOL    HW234842   3.834   2.436   5.827 -1.4668 -0.9476  2.2158
 7795SOL     OW34843   1.303   1.567  12.419 -0.5401  0.3691  0.4018
 7795SOL    HW134844   1.346   1.481  12.409  1.4648  1.3598  0.4678
 7795SOL    HW234845   1.333   1.584  12.509 -2.2665  1.0785  0.8420
 7796SOL     OW34846   1.355   0.924  15.655 -0.2738  0.4734 -0.2194
 7796SOL    HW134847   1.285   0.978  15.616  0.5428  1.8769  0.2620
 7796SOL    HW234848   1.308   0.873  15.721  0.8489 -0.6668 -0.3150
 7797SOL     OW34849   0.517   3.677   2.275 -0.1085  0.8707  0.2451
 7797SOL    HW134850   0.601   3.692   2.320  1.3558  0.6322 -2.4068
 7797SOL    HW234851   0.475   3.756   2.310  1.3412  2.1183 -0.7916
 7798SOL     OW34852   2.853   4.099   3.517 -0.2870  0.2862  0.0481
 7798SOL    HW134853   2.842   4.063   3.429 -0.0496  2.0464 -0.6840
 7798SOL    HW234854   2.910   4.032   3.556 -1.6748 -0.8370  0.1636
 7799SOL     OW34855   3.678   1.569   6.622 -0.0693 -0.1872 -0.3497
 7799SOL    HW134856   3.664   1.529   6.536 -1.4872 -0.3002 -0.0635
 7799SOL    HW234857   3.692   1.661   6.598 -3.2891  0.6246  0.7759
 7800SOL     OW34858   0.808   1.811   9.695 -0.2236  0.3015  0.0526
 7800SOL    HW134859   0.824   1.861   9.615  0.4816  0.3691  0.2425
 7800SOL    HW234860   0.737   1.854   9.743 -0.2274  0.0443  0.2738
 7801SOL     OW34861   4.303   2.705   4.036 -0.3691  0.5701  0.4536
 7801SOL    HW134862   4.369   2.761   3.996  0.6480 -1.2704 -0.4607
 7801SOL    HW234863   4.241   2.778   4.039  0.8198  1.6351 -0.5026
 7802SOL     OW34864   0.093   1.698   5.130  0.1034 -0.5796  0.1059
 7802SOL    HW134865   0.137   1.615   5.109  2.1863  0.4830  0.3774
 7802SOL    HW234866   0.166   1.754   5.155 -0.3360  0.3477 -0.6902
 7803SOL     OW34867   3.155   3.045   2.092 -0.4078  0.5854 -0.2185
 7803SOL    HW134868   3.124   3.018   2.178  0.2189  2.4142  0.5764
 7803SOL    HW234869   3.107   2.993   2.027 -0.1791  0.9745 -0.6982
 7804SOL     OW34870   1.894   3.684   6.677 -0.6013 -0.1975 -0.2100
 7804SOL    HW134871   1.955   3.758   6.668  0.3103 -0.8884  0.2674
 7804SOL    HW234872   1.819   3.741   6.690 -0.7059 -0.0281 -1.6059
 7805SOL     OW34873   3.742   3.234  13.347 -1.1661 -0.1919  0.0983
 7805SOL    HW134874   3.661   3.190  13.372 -0.5081 -0.1985  2.1370
 7805SOL    HW234875   3.748   3.211  13.254  0.1755 -0.8531  0.3550
 7806SOL     OW34876   3.569   3.354   4.913 -0.0487 -0.3499  0.3931
 7806SOL    HW134877   3.503   3.284   4.907 -0.7454  0.2715  0.8746
 7806SOL    HW234878   3.512   3.424   4.945  0.3864  1.1161 -2.0565
 7807SOL     OW34879   1.299   2.020  14.336 -0.1491 -0.2227 -0.6649
 7807SOL    HW134880   1.254   2.100  14.364  2.8230  1.4915 -0.7438
 7807SOL    HW234881   1.276   1.960  14.407  1.0842  2.0035  1.6113
 7808SOL     OW34882   2.531   3.012  10.800  0.1078 -0.4897  0.1972
 7808SOL    HW134883   2.555   3.033  10.710 -1.8656 -1.6609 -0.6223
 7808SOL    HW234884   2.544   3.099  10.837 -1.4945 -0.7344  1.3664
 7809SOL     OW34885   4.568   3.818   7.313  0.2009 -0.6286 -0.0328
 7809SOL    HW134886   4.486   3.823   7.265 -0.1885 -1.5644  0.5342
 7809SOL    HW234887   4.557   3.879   7.386 -1.7747 -0.1189 -0.7587
 7810SOL     OW34888   4.200   2.988  12.118 -0.6446  0.5302 -0.6742
 7810SOL    HW134889   4.233   3.022  12.201  0.4841 -0.0482 -0.8869
 7810SOL    HW234890   4.136   2.925  12.149  0.2252 -0.6567 -1.2754
 7811SOL     OW34891   4.226   3.602   0.694 -0.2773  0.1959  0.6118
 7811SOL    HW134892   4.179   3.665   0.640  0.0862 -0.3880 -0.3854
 7811SOL    HW234893   4.203   3.628   0.783  0.0269  0.3171  0.6566
 7812SOL     OW34894   2.430   1.386   0.602 -0.0873 -0.2862 -0.8611
 7812SOL    HW134895   2.507   1.331   0.613 -0.7928 -0.8461  1.4075
 7812SOL    HW234896   2.401   1.344   0.522 -2.5992  0.8374 -0.5426
 7813SOL     OW34897   0.864   3.810   2.699  0.0946 -0.5540 -0.2005
 7813SOL    HW134898   0.771   3.808   2.725 -0.2369  2.2896 -1.2314
 7813SOL    HW234899   0.866   3.734   2.640 -0.6084 -0.9864  0.3208
 7814SOL     OW34900   1.372   4.198  11.582  0.1791 -0.1983  0.0164
 7814SOL    HW134901   1.343   4.137  11.650  1.7263 -1.9060 -0.8775
 7814SOL    HW234902   1.428   4.151  11.520 -0.1172 -1.1965  0.5141
 7815SOL     OW34903   0.797   1.531   0.516  0.9195 -0.4180  0.2028
 7815SOL    HW134904   0.867   1.571   0.464  2.0581 -1.7349  0.7145
 7815SOL    HW234905   0.840   1.518   0.600  0.0779 -0.4889  0.6258
 7816SOL     OW34906   3.182   0.147   5.337  0.5292 -0.3959  0.2618
 7816SOL    HW134907   3.114   0.086   5.364  0.9306 -1.4796 -1.1968
 7816SOL    HW234908   3.239   0.084   5.294  0.1829 -1.0199  0.7164
 7817SOL     OW34909   3.647   3.841   1.936  0.6275 -0.4170 -0.3269
 7817SOL    HW134910   3.740   3.838   1.915  1.0929  0.9873  1.5129
 7817SOL    HW234911   3.627   3.890   1.856 -1.2656  0.4552  0.6871
 7818SOL     OW34912   1.432   2.202   4.980  0.6239 -0.2751  0.1870
 7818SOL    HW134913   1.441   2.110   4.953  0.4752 -1.0208  2.6529
 7818SOL    HW234914   1.411   2.185   5.072  2.6899  1.1593  0.9323
 7819SOL     OW34915   1.198   3.234  16.370  0.8428 -0.1183  0.4677
 7819SOL    HW134916   1.137   3.168  16.340  1.1020  0.0253 -0.3644
 7819SOL    HW234917   1.147   3.313  16.353 -0.9412 -1.9137 -2.3442
 7820SOL     OW34918   0.668   3.803   5.055 -0.2112 -0.5545  0.0028
 7820SOL    HW134919   0.734   3.752   5.007  0.1916 -0.3183  0.3122
 7820SOL    HW234920   0.675   3.890   5.016 -1.0247 -0.3308  0.3566
 7821SOL     OW34921   3.768   0.693  13.099  0.0283  0.4929  0.3329
 7821SOL    HW134922   3.711   0.644  13.039  0.3753  1.9435 -1.1978
 7821SOL    HW234923   3.806   0.617  13.144  0.5411  0.2308 -0.5399
 7822SOL     OW34924   3.426   3.834  11.575 -0.5962  0.0247 -0.0028
 7822SOL    HW134925   3.446   3.813  11.666  0.7429 -2.5103 -0.8666
 7822SOL    HW234926   3.511   3.873  11.553 -0.3198 -0.2828  0.5333
 7823SOL     OW34927   2.600   1.313   5.368 -0.2537 -0.0475 -0.2693
 7823SOL    HW134928   2.693   1.331   5.353 -0.5280  0.9037 -0.8329
 7823SOL    HW234929   2.600   1.221   5.393  1.3487  0.5163  1.8659
 7824SOL     OW34930   2.624   3.357   7.480  0.4924 -0.4517 -0.4638
 7824SOL    HW134931   2.531   3.345   7.460 -0.2849  0.2636  2.8311
 7824SOL    HW234932   2.622   3.319   7.567  0.2968 -0.4305 -0.4587
 7825SOL     OW34933   1.294   4.252   5.182  0.0324 -0.0134 -0.3654
 7825SOL    HW134934   1.384   4.246   5.214 -0.2886  1.3887  0.7671
 7825SOL    HW234935   1.255   4.304   5.252 -0.7736  0.5177 -1.2038
 7826SOL     OW34936   4.061   1.890  10.464  0.3060 -0.6687  0.4049
 7826SOL    HW134937   4.062   1.801  10.430  1.4789 -0.9052  1.0377
 7826SOL    HW234938   3.974   1.927  10.447  0.3036  0.9385  3.8741
 7827SOL     OW34939   0.894   4.245   1.038 -0.3786  0.2169 -0.0444
 7827SOL    HW134940   0.937   4.164   1.066  3.0510  1.0495 -2.9673
 7827SOL    HW234941   0.818   4.211   0.991 -0.4624 -2.5562  2.1169
 7828SOL     OW34942   2.568   2.320   5.966  0.6085 -0.2698 -0.2027
 7828SOL    HW134943   2.584   2.227   5.946  0.4175 -0.3195 -0.1221
 7828SOL    HW234944   2.534   2.312   6.055  2.7992 -2.2081  0.4662
 7829SOL     OW34945   4.046   2.022  15.317  0.4962 -0.0019 -0.2863
 7829SOL    HW134946   4.083   1.934  15.317 -1.7575 -0.9604  0.7640
 7829SOL    HW234947   4.095   2.066  15.247 -0.8058 -2.4139 -2.7441
 7830SOL     OW34948   3.237   2.860   6.006  0.0565 -0.5308  0.3297
 7830SOL    HW134949   3.266   2.908   5.928 -0.5919  0.4176  0.6763
 7830SOL    HW234950   3.186   2.785   5.975 -1.9990  0.7373  0.6791
 7831SOL     OW34951   0.147   3.152  16.022  0.2033 -0.1660  0.6541
 7831SOL    HW134952   0.226   3.099  16.029 -0.0662 -0.6779 -0.1840
 7831SOL    HW234953   0.079   3.087  16.041 -0.5484  0.7956  1.2655
 7832SOL     OW34954   1.250   0.172   6.176 -0.1842 -0.0935  0.1478
 7832SOL    HW134955   1.253   0.266   6.157 -0.6632 -0.3371 -1.1689
 7832SOL    HW234956   1.339   0.138   6.163  0.5777  1.0890  2.2991
 7833SOL     OW34957   0.981   1.659   2.083 -0.0695 -0.1082  0.3217
 7833SOL    HW134958   1.001   1.577   2.038 -0.4846  0.4449 -0.8604
 7833SOL    HW234959   0.984   1.731   2.021  0.4551  0.5748  1.1457
 7834SOL     OW34960   1.786   3.407   2.367 -0.3965  0.6700 -0.5608
 7834SOL    HW134961   1.827   3.458   2.437 -1.8195 -0.7155  1.2475
 7834SOL    HW234962   1.724   3.355   2.417  0.7541  1.0876  1.3275
 7835SOL     OW34963   4.307   4.495   6.415 -0.4534 -0.4413 -0.3095
 7835SOL    HW134964   4.382   4.504   6.474 -1.1594 -0.1727  0.5501
 7835SOL    HW234965   4.278   4.585   6.427  0.2033 -0.2417 -0.1763
 7836SOL     OW34966   3.460   0.750  13.749  0.3066 -0.2373 -0.1830
 7836SOL    HW134967   3.526   0.773  13.814  0.2809 -1.1566  0.1585
 7836SOL    HW234968   3.417   0.678  13.794 -1.1472  0.8356  0.1517
 7837SOL     OW34969   3.987   0.386  17.274 -0.8562  0.0857  0.6859
 7837SOL    HW134970   3.894   0.364  17.278 -0.7584 -0.4080  0.2103
 7837SOL    HW234971   3.984   0.452  17.204  2.4451  1.1204  1.5261
 7838SOL     OW34972   4.707   3.323   5.013  0.1079 -0.1250 -0.4449
 7838SOL    HW134973   0.068   3.284   4.984  0.9783  1.4398 -0.0554
 7838SOL    HW234974   4.698   3.394   4.949 -0.0250  0.2009 -0.0614
 7839SOL     OW34975   2.035   0.347  14.024  0.3066  0.0052  0.2603
 7839SOL    HW134976   1.986   0.385  14.098 -2.4705 -1.5151 -0.7862
 7839SOL    HW234977   2.113   0.330  14.076 -0.7783 -0.8843  1.5820
 7840SOL     OW34978   1.749   3.704   4.788  0.4868  0.2612 -0.3890
 7840SOL    HW134979   1.827   3.756   4.772  1.0682  0.2567  2.3370
 7840SOL    HW234980   1.759   3.695   4.883 -1.5264 -0.9478 -0.2996
 7841SOL     OW34981   1.711   2.999  10.383 -0.2198  0.0921  0.2198
 7841SOL    HW134982   1.756   3.074  10.423 -1.2425  1.6686 -1.5322
 7841SOL    HW234983   1.781   2.935  10.379 -1.1194 -0.8338 -0.7036
 7842SOL     OW34984   1.541   4.148   6.482  0.2717  0.2309  0.0201
 7842SOL    HW134985   1.573   4.099   6.557 -2.5951  0.0624  1.1308
 7842SOL    HW234986   1.446   4.142   6.488  0.6779 -1.9595  3.8077
 7843SOL     OW34987   2.316   2.030   4.499  0.2293  0.0650 -0.1091
 7843SOL    HW134988   2.257   2.069   4.564 -0.6817  0.0056 -0.8953
 7843SOL    HW234989   2.278   2.059   4.416 -0.8664 -1.5130 -0.1607
 7844SOL     OW34990   4.197   3.325  10.415 -0.3297  0.6746  0.1312
 7844SOL    HW134991   4.256   3.345  10.488 -1.1885 -2.2625  1.6337
 7844SOL    HW234992   4.151   3.248  10.448  1.7114  0.2588  1.9637
 7845SOL     OW34993   0.026   0.072   7.565  0.3509  0.2346  0.3631
 7845SOL    HW134994   0.015   0.154   7.516  0.9252  0.4362  0.5796
 7845SOL    HW234995   0.029   0.099   7.657  0.9238 -0.9777  0.7048
 7846SOL     OW34996   1.664   3.556   2.778 -0.2971 -0.6801  0.7723
 7846SOL    HW134997   1.601   3.575   2.709 -0.4454  0.4850  1.2298
 7846SOL    HW234998   1.712   3.483   2.738 -0.3728 -0.3641  0.1252
 7847SOL     OW34999   3.677   3.681  10.721 -0.7133 -0.5676  0.0942
 7847SOL    HW135000   3.707   3.661  10.810  0.4893 -0.4463 -0.2875
 7847SOL    HW235001   3.597   3.628  10.718 -1.0719 -0.1072  1.3160
 7848SOL     OW35002   1.393   1.887   7.154 -0.4175 -0.0689  0.1213
 7848SOL    HW135003   1.350   1.936   7.083  1.5421  0.9598 -0.3553
 7848SOL    HW235004   1.483   1.893   7.123  0.7681  0.6445  3.7305
 7849SOL     OW35005   2.442   4.563   0.818 -0.2108  0.2081 -0.4664
 7849SOL    HW135006   2.500   4.637   0.804 -0.5707  0.4477 -0.6938
 7849SOL    HW235007   2.478   4.529   0.900  1.1388  1.7893 -0.4153
 7850SOL     OW35008   2.754   0.266  11.759  0.2562 -0.5493  0.1766
 7850SOL    HW135009   2.811   0.194  11.732 -0.8332 -1.4498  0.2735
 7850SOL    HW235010   2.764   0.268  11.854  0.1179  0.2069  0.1784
 7851SOL     OW35011   4.548   2.744  16.971  0.2879 -0.3596 -1.1138
 7851SOL    HW135012   4.526   2.756  16.879 -0.9870  1.7685 -0.5127
 7851SOL    HW235013   4.465   2.706  17.000 -0.6032  1.5759 -1.1340
 7852SOL     OW35014   1.052   0.693  12.050 -0.0655  0.0806 -0.6945
 7852SOL    HW135015   1.067   0.669  12.141  1.2919 -2.2149 -1.5453
 7852SOL    HW235016   0.957   0.682  12.051  0.2579 -2.4183  1.3684
 7853SOL     OW35017   0.880   0.063   5.563 -0.5897 -0.0015  0.0735
 7853SOL    HW135018   0.939   0.028   5.497 -2.0470 -1.2280 -0.5722
 7853SOL    HW235019   0.892   4.717   5.631 -0.5453 -0.7165 -0.6460
 7854SOL     OW35020   4.358   0.145   2.732 -0.0376 -0.0982 -0.2208
 7854SOL    HW135021   4.304   0.207   2.781 -1.3398 -0.7105 -0.8795
 7854SOL    HW235022   4.445   0.184   2.733  0.3396 -0.9702  1.8551
 7855SOL     OW35023   3.120   2.387   1.918  0.0941  0.3052 -0.1569
 7855SOL    HW135024   3.101   2.481   1.925  0.5376  0.4435 -0.8694
 7855SOL    HW235025   3.054   2.352   1.859  0.3239  1.8396 -1.3350
 7856SOL     OW35026   1.881   3.397   4.117 -0.4062  0.5068  0.2016
 7856SOL    HW135027   1.938   3.474   4.118  0.1790  0.0731  0.5162
 7856SOL    HW235028   1.830   3.409   4.037  1.1618  2.5324 -0.4988
 7857SOL     OW35029   4.216   1.395   1.130  0.7894  0.3779  0.1984
 7857SOL    HW135030   4.240   1.487   1.116 -1.1821  0.9429  0.6364
 7857SOL    HW235031   4.277   1.347   1.074 -1.2503  0.2258 -1.9060
 7858SOL     OW35032   3.271   3.681   8.033  0.2503  0.7739  0.3761
 7858SOL    HW135033   3.177   3.675   8.051  0.0707  0.2269 -0.7664
 7858SOL    HW235034   3.266   3.675   7.938  0.5169  1.5254  0.3156
 7859SOL     OW35035   0.692   1.286   2.395 -0.2626 -0.0667 -0.1037
 7859SOL    HW135036   0.647   1.276   2.478  1.0408 -1.0348  0.4862
 7859SOL    HW235037   0.618   1.286   2.334 -1.9258 -2.7856  1.9151
 7860SOL     OW35038   0.226   0.933   9.173  0.1805  0.1151  0.0792
 7860SOL    HW135039   0.316   0.918   9.204  0.9512  0.2153 -2.1566
 7860SOL    HW235040   0.217   1.028   9.166 -2.6326 -0.2631 -1.3865
 7861SOL     OW35041   2.746   2.251   1.404 -0.2056  0.7417 -0.5895
 7861SOL    HW135042   2.730   2.270   1.311 -0.5018 -0.2325 -0.7421
 7861SOL    HW235043   2.834   2.213   1.402 -0.1844  0.7727 -0.2284
 7862SOL     OW35044   3.426   3.141  11.394  0.5204  0.4006 -0.3748
 7862SOL    HW135045   3.463   3.082  11.328 -0.8679  0.0557 -0.8358
 7862SOL    HW235046   3.502   3.154  11.452  1.4346  2.3254 -2.0242
 7863SOL     OW35047   0.060   0.013   7.174 -0.1056  0.5940  0.3331
 7863SOL    HW135048   0.100   4.690   7.099  0.4227  0.8942  0.4343
 7863SOL    HW235049   4.693   0.025   7.140  0.9007  1.3857 -2.0121
 7864SOL     OW35050   1.286   2.035   6.930 -0.0381  0.2384  0.2808
 7864SOL    HW135051   1.372   2.033   6.888  0.8827 -0.7751  2.2281
 7864SOL    HW235052   1.242   2.114   6.898  0.3255  0.8984  1.3793
 7865SOL     OW35053   3.447   2.799   0.291  0.1575  0.3753 -0.2045
 7865SOL    HW135054   3.422   2.886   0.262 -0.8531  0.4007  0.7586
 7865SOL    HW235055   3.358   2.766   0.301 -0.3059  1.4539 -0.7955
 7866SOL     OW35056   1.932   3.261   6.045 -0.4511  0.3522 -0.5911
 7866SOL    HW135057   1.958   3.297   6.130  1.5391  0.8060 -1.4143
 7866SOL    HW235058   2.010   3.213   6.019  0.8081  1.0309  1.9116
 7867SOL     OW35059   2.040   2.647   9.946 -0.3280  0.2081 -0.0584
 7867SOL    HW135060   2.068   2.717  10.005  0.0787 -1.0523  1.2536
 7867SOL    HW235061   2.118   2.631   9.893 -0.7663  0.1484 -0.6910
 7868SOL     OW35062   1.166   0.794  17.110  0.2483 -0.1934  0.6755
 7868SOL    HW135063   1.138   0.771  17.021 -0.4452  1.1818  0.5335
 7868SOL    HW235064   1.230   0.864  17.092  0.0791 -0.0416  0.6718
 7869SOL     OW35065   0.900   3.456  11.369  0.5533  0.0130  0.4164
 7869SOL    HW135066   0.951   3.535  11.352 -0.5643  0.9852  1.6452
 7869SOL    HW235067   0.933   3.402  11.297  0.2003 -0.7043  0.7937
 7870SOL     OW35068   3.676   3.269  15.331 -0.1343  0.1921 -0.0690
 7870SOL    HW135069   3.720   3.215  15.264 -1.1992 -1.1759  0.3284
 7870SOL    HW235070   3.606   3.315  15.286  0.6211  0.3733 -1.0689
 7871SOL     OW35071   3.212   3.890   6.530 -0.5697  0.0974 -0.2293
 7871SOL    HW135072   3.205   3.907   6.624 -1.1319  0.0224 -0.2592
 7871SOL    HW235073   3.243   3.974   6.494  1.1547 -1.0647 -1.4656
 7872SOL     OW35074   2.455   1.047  17.520  0.0430  0.6414  0.1642
 7872SOL    HW135075   2.489   1.109  17.585 -0.3135 -1.3170  2.2381
 7872SOL    HW235076   2.431   0.974  17.577 -1.4756  0.2305 -1.0160
 7873SOL     OW35077   1.220   0.168   4.586 -0.3949 -0.0070 -0.1639
 7873SOL    HW135078   1.257   0.229   4.650 -1.9408  2.7712 -1.9441
 7873SOL    HW235079   1.128   0.193   4.580 -0.1477  1.2474  1.2836
 7874SOL     OW35080   2.441   4.091  11.116  0.3547  0.1236  0.8150
 7874SOL    HW135081   2.370   4.093  11.181 -1.0997 -1.4449 -0.7178
 7874SOL    HW235082   2.404   4.149  11.049  2.0808 -0.3673 -0.5273
 7875SOL     OW35083   3.738   0.334  13.644  0.5737  0.5182 -0.1311
 7875SOL    HW135084   3.775   0.402  13.587 -1.3233  0.3362 -1.5840
 7875SOL    HW235085   3.815   0.327  13.701 -1.6969 -1.7753  2.6759
 7876SOL     OW35086   2.705   2.076  14.856 -0.4006  0.1412  0.4894
 7876SOL    HW135087   2.786   2.029  14.878  0.5493  1.2420 -0.6232
 7876SOL    HW235088   2.692   2.125  14.937 -1.5327  1.0332 -0.2405
 7877SOL     OW35089   2.026   3.803   6.247  0.3454  0.2504  0.6280
 7877SOL    HW135090   2.020   3.878   6.188 -0.0164  2.6807  3.7600
 7877SOL    HW235091   2.115   3.814   6.280  0.3758  1.7425  0.0844
 7878SOL     OW35092   0.792   4.221  16.590  0.0880  1.1375  0.7524
 7878SOL    HW135093   0.736   4.291  16.558 -1.5651  0.5575  2.4037
 7878SOL    HW235094   0.822   4.253  16.675  1.6925  0.3668  0.4759
 7879SOL     OW35095   4.062   0.199  14.119 -0.6736 -0.0543 -0.5685
 7879SOL    HW135096   4.057   0.105  14.100 -0.5357 -0.1934  0.0899
 7879SOL    HW235097   4.109   0.236  14.043  0.5310 -0.9575 -0.2674
 7880SOL     OW35098   2.563   0.570   7.975 -0.8210 -0.0079 -0.2037
 7880SOL    HW135099   2.623   0.562   7.902 -0.1549 -2.7707  0.6623
 7880SOL    HW235100   2.571   0.664   7.991  1.9555 -0.3442  0.2680
 7881SOL     OW35101   2.582   3.660   5.121 -0.3980  0.2581 -0.0884
 7881SOL    HW135102   2.637   3.614   5.057 -0.2798  2.1650 -1.3724
 7881SOL    HW235103   2.650   3.695   5.178 -0.8035 -0.2839  0.7270
 7882SOL     OW35104   1.459   0.380  12.795  1.0996 -0.3984  0.7566
 7882SOL    HW135105   1.489   0.290  12.811  1.7787  0.1984  2.8212
 7882SOL    HW235106   1.467   0.384  12.700  0.5592  1.2924  0.7946
 7883SOL     OW35107   0.146   0.948   6.654  0.1173  0.7268  0.2813
 7883SOL    HW135108   0.146   0.893   6.575  1.3375 -0.9773  1.4721
 7883SOL    HW235109   0.055   0.948   6.686 -0.2069 -2.7002 -0.6389
 7884SOL     OW35110   2.794   3.978  11.081 -0.2095  0.2912 -0.4547
 7884SOL    HW135111   2.832   4.060  11.112 -0.6233  0.4937 -0.4702
 7884SOL    HW235112   2.700   3.997  11.074 -0.0271  1.4531  0.2569
 7885SOL     OW35113   1.945   2.235   9.213 -0.3374  0.2241  0.5681
 7885SOL    HW135114   1.950   2.153   9.163  0.5036  1.1880 -0.9352
 7885SOL    HW235115   1.962   2.198   9.300  1.1119 -0.2947  0.0702
 7886SOL     OW35116   1.764   2.562   4.574  0.1317  0.6307 -1.0176
 7886SOL    HW135117   1.708   2.492   4.608  0.3306 -0.0061 -1.9766
 7886SOL    HW235118   1.747   2.635   4.633  0.6596  1.4341 -1.8470
 7887SOL     OW35119   1.895   0.176   5.689 -0.3192 -1.0461 -0.0163
 7887SOL    HW135120   1.830   0.208   5.626 -0.5132  2.0605  1.7728
 7887SOL    HW235121   1.905   0.247   5.752 -0.1713 -0.8037 -0.3119
 7888SOL     OW35122   0.778   2.862   4.267 -0.6213 -0.1965 -0.4350
 7888SOL    HW135123   0.732   2.946   4.272 -0.3996  0.0734 -3.4050
 7888SOL    HW235124   0.719   2.804   4.316 -0.8767 -0.8593 -1.5200
 7889SOL     OW35125   1.146   0.913  10.798  0.0687 -0.1233  0.2457
 7889SOL    HW135126   1.053   0.897  10.785 -0.4332  0.5828  2.9237
 7889SOL    HW235127   1.182   0.824  10.806 -1.6354 -0.6804  1.7246
 7890SOL     OW35128   3.833   2.085  13.446 -0.4612 -0.0769  0.4201
 7890SOL    HW135129   3.796   2.135  13.519 -0.0166 -1.2141  1.4404
 7890SOL    HW235130   3.789   2.125  13.371 -0.9600  0.5581  1.0472
 7891SOL     OW35131   0.869   1.561   3.503  0.0532  0.2892  0.0409
 7891SOL    HW135132   0.872   1.526   3.415  2.3607 -0.1914  0.3049
 7891SOL    HW235133   0.815   1.639   3.492  1.5644  1.2014 -0.8267
 7892SOL     OW35134   2.503   3.266   7.001 -0.2155  0.6131  0.3300
 7892SOL    HW135135   2.427   3.314   6.969 -1.2964 -0.4241  1.3414
 7892SOL    HW235136   2.463   3.247   7.086 -2.4915  0.2013 -0.8395
 7893SOL     OW35137   3.987   2.936   0.866  0.2219 -0.2349  0.1048
 7893SOL    HW135138   3.961   2.983   0.945  4.3881  1.5780  0.4019
 7893SOL    HW235139   4.059   2.880   0.897 -0.2328 -0.7711  0.1839
 7894SOL     OW35140   4.065   0.324   5.503 -0.3634  0.0021 -0.1048
 7894SOL    HW135141   4.000   0.285   5.444 -1.2720 -0.2094  1.0388
 7894SOL    HW235142   4.031   0.412   5.521  3.3827  1.4318  0.0485
 7895SOL     OW35143   4.399   1.914   2.324 -0.0744 -0.0221  0.0888
 7895SOL    HW135144   4.489   1.900   2.294  0.1583 -0.1311  0.8239
 7895SOL    HW235145   4.345   1.903   2.246 -1.3388 -0.8607  1.0954
 7896SOL     OW35146   0.925   3.890   8.066  0.5073 -0.4947  0.3648
 7896SOL    HW135147   0.872   3.906   8.144  1.2641  0.7612  0.6274
 7896SOL    HW235148   0.881   3.808   8.042 -1.1632 -0.0265  1.8963
 7897SOL     OW35149   4.623   1.640   0.574  0.1864 -0.0943  0.0061
 7897SOL    HW135150   4.551   1.686   0.532  0.0107 -0.0124  0.4004
 7897SOL    HW235151   4.574   1.573   0.622 -1.5823 -0.9595 -3.0270
 7898SOL     OW35152   4.128   4.344  15.063  0.1631 -0.1914  0.2527
 7898SOL    HW135153   4.147   4.254  15.089 -1.5806 -0.5132  0.3887
 7898SOL    HW235154   4.213   4.387  15.068 -0.7182  1.8118 -2.1186
 7899SOL     OW35155   3.249   0.745  16.182  0.2181  0.4309 -0.1083
 7899SOL    HW135156   3.280   0.657  16.161  1.3899  1.0162 -0.8400
 7899SOL    HW235157   3.244   0.783  16.094 -0.7637  0.9528  0.1644
 7900SOL     OW35158   1.790   0.343  10.506  0.6040 -0.3595 -0.0840
 7900SOL    HW135159   1.741   0.272  10.546  0.3003 -1.0788 -1.7170
 7900SOL    HW235160   1.722   0.407  10.528 -0.7180 -1.6521 -0.4492
 7901SOL     OW35161   3.107   3.110   8.132  0.0766  0.1480  0.0117
 7901SOL    HW135162   3.038   3.135   8.195  1.0661 -0.2445  1.2499
 7901SOL    HW235163   3.111   3.187   8.076  0.9895  0.0050 -0.1091
 7902SOL     OW35164   0.319   1.245  11.896  0.2513  0.2612  0.4831
 7902SOL    HW135165   0.350   1.282  11.814  0.3228  0.2754  0.5169
 7902SOL    HW235166   0.224   1.260  11.900  0.3028  1.0644 -1.2828
 7903SOL     OW35167   1.145   4.705  10.186 -0.1338 -0.0893 -0.0025
 7903SOL    HW135168   1.237   4.718  10.208 -0.6457  2.1227  0.8235
 7903SOL    HW235169   1.159   4.625  10.135 -2.8967 -0.2834 -0.4689
 7904SOL     OW35170   1.835   4.340   7.558  0.3227  0.1495 -0.2461
 7904SOL    HW135171   1.740   4.326   7.552  0.1609  0.8025  0.7520
 7904SOL    HW235172   1.853   4.428   7.526  2.6894 -0.4318 -0.5421
 7905SOL     OW35173   4.451   1.831  16.270 -0.2197  0.2495 -0.2324
 7905SOL    HW135174   4.457   1.824  16.175 -2.6604  0.3555 -0.3762
 7905SOL    HW235175   4.524   1.770  16.287  1.3415  1.5080 -2.4638
 7906SOL     OW35176   3.053   2.511   5.153  0.3960  0.2167  0.0257
 7906SOL    HW135177   3.138   2.489   5.189  0.6917 -0.5864 -1.1897
 7906SOL    HW235178   3.036   2.602   5.178 -0.8970  0.1104 -0.4196
 7907SOL     OW35179   1.711   0.111   4.862 -0.0873  0.4955  0.2348
 7907SOL    HW135180   1.739   0.038   4.918  0.1148  1.6945  1.7120
 7907SOL    HW235181   1.654   0.069   4.798 -0.6817  2.5524 -0.5876
 7908SOL     OW35182   0.332   3.792   6.808 -0.1038  0.0377  0.6493
 7908SOL    HW135183   0.382   3.711   6.794 -0.2178  0.0673  0.0658
 7908SOL    HW235184   0.249   3.752   6.835  0.5762 -0.9133  1.3440
 7909SOL     OW35185   2.633   4.177   6.338 -0.6817  0.4320 -0.9257
 7909SOL    HW135186   2.623   4.255   6.284  0.7195  0.0061 -1.8059
 7909SOL    HW235187   2.696   4.211   6.401 -0.4076  0.5934 -1.2901
 7910SOL     OW35188   0.365   4.381   5.924  0.0509  0.9421  0.2074
 7910SOL    HW135189   0.286   4.374   5.977  1.3051 -1.9566  1.6908
 7910SOL    HW235190   0.366   4.298   5.875  0.7533  0.4043  1.1178
 7911SOL     OW35191   3.370   1.491   1.206  0.0933  0.1292 -0.3130
 7911SOL    HW135192   3.402   1.555   1.142 -1.8460 -2.2119 -3.6016
 7911SOL    HW235193   3.333   1.422   1.151  1.9750  0.0972 -1.5223
 7912SOL     OW35194   4.132   4.275   2.699 -0.0928  0.2993 -0.0792
 7912SOL    HW135195   4.172   4.348   2.652  1.9694  0.8690  2.4858
 7912SOL    HW235196   4.058   4.251   2.644  0.1730  0.5639 -0.5510
 7913SOL     OW35197   0.057   0.864   2.716 -0.3413  0.2364 -0.0973
 7913SOL    HW135198   0.103   0.782   2.736 -0.7044  0.3235  1.1099
 7913SOL    HW235199   0.006   0.877   2.796  0.8083  4.1305 -0.0008
 7914SOL     OW35200   2.451   0.108  17.216 -0.2599 -0.3666  0.0964
 7914SOL    HW135201   2.510   0.125  17.142 -3.1031  2.2187 -1.5916
 7914SOL    HW235202   2.483   0.174  17.278  0.6461 -0.1114 -0.6270
 7915SOL     OW35203   0.823   1.534   3.252 -0.1082  0.1723 -0.2583
 7915SOL    HW135204   0.730   1.545   3.231 -0.3619 -2.3471 -0.3924
 7915SOL    HW235205   0.871   1.535   3.169 -1.7773  1.6030 -1.1929
 7916SOL     OW35206   3.825   0.361   9.007 -0.0908  0.1303 -0.5431
 7916SOL    HW135207   3.794   0.279   8.970 -1.1973  1.5184 -2.6872
 7916SOL    HW235208   3.837   0.331   9.097  2.9881 -0.4591 -1.1403
 7917SOL     OW35209   0.173   4.446   9.189  0.0087  0.2987  0.1558
 7917SOL    HW135210   0.111   4.518   9.187 -0.5313 -0.1480  0.7391
 7917SOL    HW235211   0.212   4.455   9.102  0.5888 -2.2501  0.1530
 7918SOL     OW35212   0.921   3.962   6.732  0.0075  0.0231 -0.8117
 7918SOL    HW135213   0.857   3.982   6.664 -1.4840  1.1827  0.9417
 7918SOL    HW235214   0.922   3.867   6.741 -0.2905  0.0478 -0.5175
 7919SOL     OW35215   2.141   2.204   2.520  0.2828 -0.0392 -0.1807
 7919SOL    HW135216   2.106   2.140   2.458  0.1546  0.4282 -0.5916
 7919SOL    HW235217   2.065   2.257   2.545 -1.2233 -0.4185 -3.8694
 7920SOL     OW35218   1.768   0.938   2.858  0.0383  0.4203  0.2471
 7920SOL    HW135219   1.720   0.881   2.918 -2.1683  0.7727 -1.1849
 7920SOL    HW235220   1.853   0.895   2.867 -0.5863 -1.2126 -1.6601
 7921SOL     OW35221   2.753   3.513   6.638  0.0684 -0.1823 -0.0537
 7921SOL    HW135222   2.812   3.442   6.663  0.2004 -0.7675 -2.0038
 7921SOL    HW235223   2.824   3.575   6.620 -2.4764  2.8942  0.3996
 7922SOL     OW35224   0.948   2.269   8.625 -0.4016  0.4439  0.0805
 7922SOL    HW135225   0.931   2.298   8.536  0.7996  0.3913 -0.1554
 7922SOL    HW235226   0.958   2.352   8.673 -1.0711  1.1539 -1.0226
 7923SOL     OW35227   0.607   0.098   3.822 -0.1870 -0.0627 -0.6222
 7923SOL    HW135228   0.603   0.122   3.730  1.1634  0.1012 -0.6368
 7923SOL    HW235229   0.702   0.094   3.825 -0.1252  0.3484 -1.9769
 7924SOL     OW35230   0.937   4.134   8.910  0.0884  0.0776 -0.3908
 7924SOL    HW135231   0.996   4.135   8.835 -1.4250 -0.7773 -1.6040
 7924SOL    HW235232   0.900   4.047   8.897 -1.2600  0.3814  1.3643
 7925SOL     OW35233   0.175   0.276   7.274 -0.1649 -0.0225  0.1482
 7925SOL    HW135234   0.108   0.229   7.224 -0.9294 -1.3921  2.4778
 7925SOL    HW235235   0.230   0.298   7.199  0.5706  1.0322  1.0022
 7926SOL     OW35236   3.565   3.944   6.564  0.0353  0.2305  0.0932
 7926SOL    HW135237   3.652   3.983   6.563  0.7192 -1.3303 -0.8129
 7926SOL    HW235238   3.562   3.933   6.659  1.7529 -2.8120 -0.1978
 7927SOL     OW35239   0.733   1.757   6.855 -0.7099  0.1179 -0.0060
 7927SOL    HW135240   0.782   1.683   6.891 -0.1144  0.4666 -0.0988
 7927SOL    HW235241   0.731   1.819   6.927 -1.5227  0.5525 -0.4076
 7928SOL     OW35242   1.531   2.074   6.842  0.2813  0.3730  0.1031
 7928SOL    HW135243   1.564   2.117   6.920  0.3161  2.0854 -0.8585
 7928SOL    HW235244   1.614   2.051   6.800  0.7781 -1.0160  1.8374
 7929SOL     OW35245   3.744   2.198   4.746 -0.3378  0.2000  0.2544
 7929SOL    HW135246   3.691   2.136   4.695 -0.8687  3.1143 -2.7210
 7929SOL    HW235247   3.817   2.212   4.686  1.0316  0.2543  1.9625
 7930SOL     OW35248   1.226   4.463   9.313 -0.1785  0.5205  0.1252
 7930SOL    HW135249   1.145   4.513   9.328 -2.4182 -2.5869 -1.5041
 7930SOL    HW235250   1.286   4.516   9.365 -0.0045 -0.5320  1.0036
 7931SOL     OW35251   3.256   2.295  17.038  0.6482  0.0826 -0.3876
 7931SOL    HW135252   3.349   2.320  17.042  0.2641  1.7028 -1.5197
 7931SOL    HW235253   3.237   2.269  17.128 -0.4343  1.9283 -0.0784
 7932SOL     OW35254   3.171   3.511   2.863 -0.3685 -0.8521 -0.1725
 7932SOL    HW135255   3.230   3.438   2.846  1.1139  0.3904 -0.3355
 7932SOL    HW235256   3.155   3.502   2.957 -1.7251 -0.8362 -0.3947
 7933SOL     OW35257   3.361   2.178   6.740  0.5579  0.2098 -0.0239
 7933SOL    HW135258   3.340   2.269   6.764 -0.1403  0.6040 -2.1091
 7933SOL    HW235259   3.456   2.183   6.757  0.4859  0.7455  0.2379
 7934SOL     OW35260   2.775   3.935   3.309 -0.1489 -0.4925 -0.3672
 7934SOL    HW135261   2.794   3.855   3.260  1.8765 -0.6319  0.6286
 7934SOL    HW235262   2.680   3.930   3.317 -0.0303 -1.4412  0.5340
 7935SOL     OW35263   2.263   2.633   9.337 -0.0137  0.2825  0.3198
 7935SOL    HW135264   2.296   2.606   9.251 -0.4948  2.0356 -0.4274
 7935SOL    HW235265   2.232   2.555   9.382  1.8157  0.7398  2.3915
 7936SOL     OW35266   2.019   0.085   5.211  0.1869 -0.3928 -0.2078
 7936SOL    HW135267   1.968   0.166   5.211  0.9217  0.0735  0.4266
 7936SOL    HW235268   2.091   0.101   5.272  1.3191 -0.3606 -1.5669
 7937SOL     OW35269   1.766   1.844   2.896  1.0738 -0.1891 -0.4381
 7937SOL    HW135270   1.851   1.887   2.904  0.0114  1.5180  1.5365
 7937SOL    HW235271   1.730   1.884   2.817  1.0848  2.8395  1.1189
 7938SOL     OW35272   3.599   1.770   4.121  0.5302 -0.8741  0.0621
 7938SOL    HW135273   3.562   1.829   4.055  1.4144 -0.3133  0.0617
 7938SOL    HW235274   3.648   1.836   4.172 -2.9648 -1.4026  4.1474
 7939SOL     OW35275   3.630   3.540   8.219 -0.1133 -0.0858  0.3813
 7939SOL    HW135276   3.589   3.581   8.295 -2.9484 -0.2895 -1.0433
 7939SOL    HW235277   3.614   3.446   8.232 -3.1343  0.7718  2.6389
 7940SOL     OW35278   0.992   4.275   4.480 -0.0417  0.1001  0.0685
 7940SOL    HW135279   0.927   4.219   4.522 -0.3235  0.8401  0.6302
 7940SOL    HW235280   1.001   4.329   4.558  0.8812  2.1603 -1.4616
 7941SOL     OW35281   4.273   3.116   1.092  0.3348  0.1152  0.3528
 7941SOL    HW135282   4.365   3.133   1.115  0.1353  0.9325  0.5433
 7941SOL    HW235283   4.229   3.197   1.115 -1.0920 -0.5935  0.0978
 7942SOL     OW35284   3.117   2.733   1.617  0.4771 -0.1126 -0.0101
 7942SOL    HW135285   3.150   2.726   1.527 -0.2641 -1.5148 -0.1607
 7942SOL    HW235286   3.169   2.666   1.660  1.5002  0.5197 -0.2638
 7943SOL     OW35287   4.242   1.141  11.446  0.3263 -0.1612 -0.3603
 7943SOL    HW135288   4.147   1.136  11.439  0.2153  1.0059  0.3059
 7943SOL    HW235289   4.257   1.059  11.493  0.3945 -0.7875 -1.4788
 7944SOL     OW35290   1.084   2.751   3.154  0.6030  0.3412  0.7786
 7944SOL    HW135291   1.067   2.748   3.060 -2.2865 -2.2281  1.3626
 7944SOL    HW235292   1.131   2.834   3.157 -0.5242  0.9434  2.1409
 7945SOL     OW35293   2.930   2.005   3.611  0.1152 -0.2531 -0.4853
 7945SOL    HW135294   2.989   2.050   3.671 -0.5264  2.1794 -1.6658
 7945SOL    HW235295   2.998   1.950   3.572  1.0520  2.3610 -2.5403
 7946SOL     OW35296   1.020   2.481   6.631 -0.2092  1.1157  0.0408
 7946SOL    HW135297   1.037   2.572   6.604 -1.2396  0.4795 -2.7468
 7946SOL    HW235298   1.010   2.447   6.543  0.5604  2.9149 -0.7524
 7947SOL     OW35299   0.021   1.743   4.408 -0.4043 -0.2015  0.4439
 7947SOL    HW135300   4.657   1.740   4.365  0.1760  1.5325 -0.8259
 7947SOL    HW235301   0.056   1.662   4.372 -2.7344 -0.3148 -1.6323
 7948SOL     OW35302   0.718   0.701   9.461  0.2693  0.1427 -0.2281
 7948SOL    HW135303   0.788   0.735   9.516 -1.8502 -0.5534  2.8665
 7948SOL    HW235304   0.754   0.733   9.378  0.3616  2.7200  0.8058
 7949SOL     OW35305   4.271   2.752   4.435 -0.2389  0.4930 -0.1998
 7949SOL    HW135306   4.238   2.828   4.483  1.5846  1.7271 -0.8851
 7949SOL    HW235307   4.267   2.781   4.344  0.3877  0.1095 -0.3508
 7950SOL     OW35308   2.015   3.632   3.724 -0.2597 -0.1974 -0.0558
 7950SOL    HW135309   1.935   3.584   3.702  0.6533 -2.9881  2.5833
 7950SOL    HW235310   2.083   3.599   3.665  1.1943  2.7043  0.0016
 7951SOL     OW35311   4.459   4.301   6.920  0.0715  0.3698  0.5938
 7951SOL    HW135312   4.412   4.245   6.857  0.4515  0.1456  0.5085
 7951SOL    HW235313   4.458   4.246   6.998  1.8967  1.5398  1.4305
 7952SOL     OW35314   2.334   1.626   1.947  0.0003 -1.0027  0.1099
 7952SOL    HW135315   2.312   1.553   1.889 -2.0632 -1.2074  1.1558
 7952SOL    HW235316   2.273   1.694   1.917  1.3397 -0.0282 -0.4463
 7953SOL     OW35317   2.498   2.430  11.702  0.6130 -0.2388 -0.0451
 7953SOL    HW135318   2.537   2.411  11.787 -0.7186 -0.8908  0.4207
 7953SOL    HW235319   2.571   2.405  11.645  1.8195  0.9666  0.9755
 7954SOL     OW35320   1.783   0.514   3.293 -0.2475  0.2206  0.1126
 7954SOL    HW135321   1.774   0.429   3.336  3.2192 -0.1353  0.1388
 7954SOL    HW235322   1.874   0.533   3.316  0.2711  0.3256 -1.9609
 7955SOL     OW35323   3.477   1.148   3.437 -0.5466 -0.3196 -0.5195
 7955SOL    HW135324   3.448   1.183   3.353  1.3516  0.0056 -1.0475
 7955SOL    HW235325   3.405   1.093   3.465  1.2644 -1.5225  1.7723
 7956SOL     OW35326   1.917   2.800   3.373  0.5933 -0.6424 -0.1026
 7956SOL    HW135327   1.925   2.752   3.456 -1.6258  0.5251  0.7990
 7956SOL    HW235328   1.965   2.878   3.400  2.1335 -1.4977 -0.3823
 7957SOL     OW35329   0.606   2.257  15.481 -0.1198  0.0455  0.3328
 7957SOL    HW135330   0.537   2.277  15.417 -0.0343  0.2005  0.2884
 7957SOL    HW235331   0.638   2.346  15.498  1.6327 -0.5221 -0.0974
 7958SOL     OW35332   2.695   0.174   3.560  0.3401  0.5357  0.1127
 7958SOL    HW135333   2.774   0.122   3.575  2.2920  3.3760 -0.3085
 7958SOL    HW235334   2.730   0.248   3.511  1.0492  1.4228  1.9600
 7959SOL     OW35335   4.190   1.917   6.570  0.0963  0.5568 -0.4070
 7959SOL    HW135336   4.225   1.937   6.483 -0.9504  2.0304 -0.4920
 7959SOL    HW235337   4.140   1.998   6.578  0.5702  0.9416 -1.3055
 7960SOL     OW35338   0.104   1.227   6.557 -0.3583 -0.3059  0.1337
 7960SOL    HW135339   0.144   1.154   6.603  0.3244 -0.7497 -1.1584
 7960SOL    HW235340   0.061   1.177   6.488 -0.4692 -2.1603  1.5796
 7961SOL     OW35341   4.557   2.177   3.679  0.7795  0.1493 -0.1283
 7961SOL    HW135342   4.471   2.195   3.718  0.3327 -0.1842 -0.9798
 7961SOL    HW235343   4.563   2.253   3.621  0.8969  0.4303  0.2500
 7962SOL     OW35344   0.864   0.767  13.513 -0.1887  0.0565 -0.2270
 7962SOL    HW135345   0.803   0.696  13.533  0.8571 -0.7707 -0.0244
 7962SOL    HW235346   0.817   0.841  13.553  0.2427  1.1139 -1.7058
 7963SOL     OW35347   4.452   0.277   1.474  0.2383 -0.2940 -0.1942
 7963SOL    HW135348   4.405   0.352   1.436  0.6615  0.5153  0.8532
 7963SOL    HW235349   4.409   0.206   1.427 -0.6540 -0.9689  1.6200
 7964SOL     OW35350   1.626   4.253   7.249 -0.3966 -0.0040  0.5461
 7964SOL    HW135351   1.591   4.326   7.300  0.2416  1.4451 -1.0773
 7964SOL    HW235352   1.641   4.181   7.310 -0.8526 -1.4292 -1.0179
 7965SOL     OW35353   3.650   3.306   5.211  0.5092 -0.0789  0.3107
 7965SOL    HW135354   3.658   3.229   5.155 -2.1778 -0.7646  0.8650
 7965SOL    HW235355   3.741   3.337   5.205  0.7329 -0.3589  2.3789
 7966SOL     OW35356   1.754   4.631   9.142  0.1505  0.1311  0.3114
 7966SOL    HW135357   1.837   4.617   9.097 -0.1472  0.6197 -0.3961
 7966SOL    HW235358   1.785   4.662   9.227  2.5354  0.4086 -0.6614
 7967SOL     OW35359   1.217   2.057   6.112  0.1471 -0.3368 -0.0516
 7967SOL    HW135360   1.273   2.068   6.035  0.4250 -1.2657  0.0184
 7967SOL    HW235361   1.279   2.068   6.183  0.5120 -1.6623 -0.1683
 7968SOL     OW35362   2.532   3.665  13.722  0.6285  0.0691 -0.2106
 7968SOL    HW135363   2.448   3.619  13.724  0.6981  0.0177  1.2175
 7968SOL    HW235364   2.598   3.596  13.712  0.9550  0.4380 -0.6093
 7969SOL     OW35365   1.571   0.280   4.581  0.8714  0.3161  0.0417
 7969SOL    HW135366   1.658   0.292   4.544  1.0251 -1.5216 -0.1945
 7969SOL    HW235367   1.565   0.184   4.578  1.4385  0.2911 -0.1505
 7970SOL     OW35368   1.166   4.390   5.375  0.1999 -0.5347 -0.5412
 7970SOL    HW135369   1.109   4.329   5.423  1.3495 -1.6534 -0.5977
 7970SOL    HW235370   1.192   4.446   5.448 -1.5211 -0.2312 -0.1448
 7971SOL     OW35371   0.181   4.575   6.980 -0.0330 -0.4129 -0.2659
 7971SOL    HW135372   0.242   4.521   7.030  0.6363  0.2238 -0.3968
 7971SOL    HW235373   0.100   4.524   6.982 -1.6688  2.2255 -0.1295
 7972SOL     OW35374   3.509   0.343   6.540 -0.3484  0.2948  0.3805
 7972SOL    HW135375   3.484   0.339   6.448 -0.7412 -0.1712  0.5053
 7972SOL    HW235376   3.429   0.305   6.578  0.5987  0.3131  2.3987
 7973SOL     OW35377   1.841   0.706   5.043  0.8304  0.8472 -0.5892
 7973SOL    HW135378   1.801   0.792   5.033  1.0132  1.0980  0.7596
 7973SOL    HW235379   1.762   0.656   5.066  0.1970  2.5647  0.9967
 7974SOL     OW35380   0.958   2.864  10.233 -0.1308  0.4170 -0.5523
 7974SOL    HW135381   0.868   2.885  10.258  0.0716  1.2926 -0.5536
 7974SOL    HW235382   1.013   2.932  10.272  0.4309 -0.1973 -0.2956
 7975SOL     OW35383   4.080   1.593  10.022  0.6338 -0.3781 -0.2224
 7975SOL    HW135384   3.985   1.579  10.018  0.6016 -0.1720 -0.1524
 7975SOL    HW235385   4.113   1.503  10.018 -0.4981 -0.7436 -1.4794
 7976SOL     OW35386   3.537   3.037   6.340  0.1132  0.4488 -0.1198
 7976SOL    HW135387   3.468   3.048   6.404 -0.6070 -0.2417 -0.7779
 7976SOL    HW235388   3.515   3.118   6.294  0.3532 -0.2053 -1.4088
 7977SOL     OW35389   4.373   0.140   2.082 -0.2293  0.4057  0.2826
 7977SOL    HW135390   4.407   0.084   2.012 -2.1409 -0.5174  0.0897
 7977SOL    HW235391   4.429   0.122   2.158  0.6342  1.3606 -0.1291
 7978SOL     OW35392   2.124   2.224  13.317 -0.0938  1.0101 -0.2450
 7978SOL    HW135393   2.116   2.190  13.228 -0.4478 -3.1670  1.3823
 7978SOL    HW235394   2.036   2.260  13.323 -0.3351  0.0096  2.3346
 7979SOL     OW35395   1.936   3.037  15.983  0.3339 -0.0837  0.0816
 7979SOL    HW135396   1.902   2.948  15.971 -1.3265  0.5908 -0.2225
 7979SOL    HW235397   2.004   3.013  16.045  1.0564 -0.9629 -1.0483
 7980SOL     OW35398   1.057   1.229   2.164 -0.4456 -0.2676  0.5158
 7980SOL    HW135399   1.084   1.166   2.098 -0.4970  1.6087 -1.2774
 7980SOL    HW235400   0.970   1.202   2.196 -1.1703  0.8285 -0.5407
 7981SOL     OW35401   4.285   3.862   7.257 -0.7338  0.3264 -0.1836
 7981SOL    HW135402   4.202   3.852   7.211 -1.9528  1.6102  1.7734
 7981SOL    HW235403   4.263   3.849   7.349  0.4776 -2.1608 -0.2435
 7982SOL     OW35404   2.545   1.433  17.251  0.4172  0.3120  0.0068
 7982SOL    HW135405   2.538   1.442  17.156 -2.2970  0.7180  0.2672
 7982SOL    HW235406   2.610   1.500  17.271  0.5726  0.4024 -0.8045
 7983SOL     OW35407   0.984   3.838   8.527  0.6743 -0.3162  0.0090
 7983SOL    HW135408   0.923   3.851   8.600 -0.9201 -0.5493 -1.3036
 7983SOL    HW235409   0.974   3.922   8.482 -1.0892 -0.1575  0.6868
 7984SOL     OW35410   2.957   2.845   0.136  0.8881  1.2070 -0.2475
 7984SOL    HW135411   2.995   2.837   0.049 -0.3334 -0.5342 -0.6318
 7984SOL    HW235412   2.918   2.757   0.136  0.2364  1.5030 -1.3776
 7985SOL     OW35413   3.828   3.983   6.559  0.3582 -0.1185 -0.1132
 7985SOL    HW135414   3.903   3.930   6.585  0.9865  0.3966 -0.8832
 7985SOL    HW235415   3.864   4.048   6.499 -0.5721 -0.0210 -0.5689
 7986SOL     OW35416   0.169   4.011  16.239  0.3127 -0.0040  0.1532
 7986SOL    HW135417   0.138   4.070  16.307  1.5892 -1.8433  2.3563
 7986SOL    HW235418   0.097   4.013  16.176 -0.7752  0.0297  1.4097
 7987SOL     OW35419   0.799   2.927   3.581 -0.6113  0.8949 -0.1033
 7987SOL    HW135420   0.740   2.859   3.614 -0.2121  2.2670  3.4902
 7987SOL    HW235421   0.831   2.902   3.494  2.4848 -0.3038  1.3880
 7988SOL     OW35422   4.177   1.255   3.818  0.2977  0.3636  1.1263
 7988SOL    HW135423   4.096   1.213   3.847 -0.9801  0.7379 -1.9369
 7988SOL    HW235424   4.146   1.341   3.848 -1.9971  0.5414 -1.7411
 7989SOL     OW35425   1.637   4.064  13.121  0.0294 -0.2417 -0.4187
 7989SOL    HW135426   1.670   4.135  13.176  0.0110 -2.2843  2.2062
 7989SOL    HW235427   1.570   4.119  13.080  1.1308 -1.4235 -3.7874
 7990SOL     OW35428   1.474   0.047   2.914  0.5665 -0.1120 -0.0631
 7990SOL    HW135429   1.433   0.132   2.898 -1.3077 -0.8926  0.5383
 7990SOL    HW235430   1.416   0.001   2.853 -1.7753  0.6231  1.6054
 7991SOL     OW35431   1.303   1.841   2.187  0.3396 -0.1300  0.4975
 7991SOL    HW135432   1.352   1.767   2.222  0.4608  0.3176  1.2846
 7991SOL    HW235433   1.215   1.819   2.217  0.2365  0.3086  0.5287
 7992SOL     OW35434   3.968   4.692   4.538  0.1458  0.1882 -0.1557
 7992SOL    HW135435   3.947   4.600   4.556  0.8094 -0.5103 -2.8834
 7992SOL    HW235436   4.064   4.692   4.538  0.1462 -0.2990  0.9645
 7993SOL     OW35437   0.083   0.824  16.372  0.1131 -0.0795  0.0589
 7993SOL    HW135438   0.137   0.753  16.405 -0.5971 -0.4961  0.3358
 7993SOL    HW235439   0.151   0.891  16.362  1.5029 -1.4142  0.7786
 7994SOL     OW35440   3.085   1.348   2.842  0.5335 -0.1239 -0.5482
 7994SOL    HW135441   3.094   1.418   2.906  0.5149  0.8759 -1.6317
 7994SOL    HW235442   2.998   1.315   2.864  0.6360  0.5566  0.8554
 7995SOL     OW35443   4.381   0.905   1.072 -0.3071  0.4197 -0.1076
 7995SOL    HW135444   4.336   0.959   1.137 -2.4571 -1.1032 -0.3363
 7995SOL    HW235445   4.459   0.882   1.123 -0.0300 -0.8894 -1.1107
 7996SOL     OW35446   2.242   1.251   7.175  0.4444  0.8468  0.4041
 7996SOL    HW135447   2.291   1.333   7.178  0.5179  0.7795  1.2449
 7996SOL    HW235448   2.238   1.226   7.083  0.5354 -0.0065  0.6300
 7997SOL     OW35449   3.333   4.609   4.628 -0.2749 -0.2271 -0.2542
 7997SOL    HW135450   3.303   4.533   4.579 -1.7730 -0.6530  1.3403
 7997SOL    HW235451   3.254   4.647   4.665 -1.1367  1.0217 -3.3546
 7998SOL     OW35452   2.562   1.681   2.671  0.0996 -0.0576  0.5103
 7998SOL    HW135453   2.657   1.693   2.683  0.1650 -1.2531  1.2482
 7998SOL    HW235454   2.524   1.764   2.699 -0.9091 -0.1008 -0.7468
 7999SOL     OW35455   3.399   2.828  10.517  0.7511  0.2601 -0.5653
 7999SOL    HW135456   3.459   2.775  10.570  0.3217  1.5816  1.2390
 7999SOL    HW235457   3.410   2.907  10.569 -0.6766  0.7764 -1.0405
 8000SOL     OW35458   1.020   2.725   2.864  0.7339  0.1803  0.6749
 8000SOL    HW135459   1.009   2.630   2.861 -1.0690  0.4227 -0.7718
 8000SOL    HW235460   0.932   2.758   2.887  0.1509  0.2918 -1.7144
 8001SOL     OW35461   0.826   0.883  17.595 -0.3154  0.4628 -0.1455
 8001SOL    HW135462   0.743   0.931  17.589 -0.1271  0.8396  0.2651
 8001SOL    HW235463   0.794   0.802  17.556 -0.0599  0.1860  0.2238
 8002SOL     OW35464   2.894   0.619  11.015 -0.3238  0.1440  0.0598
 8002SOL    HW135465   2.803   0.648  11.004 -1.0299 -1.0532  2.6271
 8002SOL    HW235466   2.888   0.528  10.985  0.1633  0.0455  0.2675
 8003SOL     OW35467   3.949   3.510   9.855  0.9302 -0.5084 -0.0980
 8003SOL    HW135468   3.901   3.590   9.834  2.7666  1.0013  1.4158
 8003SOL    HW235469   3.917   3.488   9.942  0.5374 -0.4893 -0.2368
 8004SOL     OW35470   0.619   3.558   6.984  0.7646  0.4044  0.0266
 8004SOL    HW135471   0.584   3.540   6.897  1.5668  0.1473 -0.2378
 8004SOL    HW235472   0.566   3.636   7.002  0.1568 -0.1351  0.5873
 8005SOL     OW35473   3.141   0.088  17.439 -0.3490  0.1314 -0.3260
 8005SOL    HW135474   3.195   0.019  17.401  1.3387  1.3568 -0.1640
 8005SOL    HW235475   3.110   0.039  17.515 -1.1920 -1.3620 -1.6316
 8006SOL     OW35476   4.533   0.529   9.277  0.0599  0.2633  0.4865
 8006SOL    HW135477   4.596   0.594   9.246  0.0317  0.3436  0.5999
 8006SOL    HW235478   4.570   0.509   9.363  0.5903  0.1982  0.2388
 8007SOL     OW35479   2.984   3.522   3.392 -0.2164 -0.1401 -0.1010
 8007SOL    HW135480   2.927   3.474   3.331  0.2020 -0.5667 -0.1589
 8007SOL    HW235481   2.912   3.578   3.421 -1.1165 -0.9981 -0.6974
 8008SOL     OW35482   0.704   2.309   3.552 -0.0637  0.2379  0.2388
 8008SOL    HW135483   0.728   2.322   3.644  1.1676  1.3041 -0.2439
 8008SOL    HW235484   0.721   2.215   3.547 -0.1541  0.1210  1.8533
 8009SOL     OW35485   4.146   3.523   7.145 -0.0478  0.0716  0.3252
 8009SOL    HW135486   4.157   3.543   7.238 -2.1809 -1.1000  0.8278
 8009SOL    HW235487   4.187   3.438   7.124  1.1817  0.9031 -0.6580
 8010SOL     OW35488   0.371   3.324  11.845 -0.2966 -0.1169 -0.2336
 8010SOL    HW135489   0.439   3.280  11.896  1.2939  0.8385 -1.5134
 8010SOL    HW235490   0.410   3.398  11.797 -1.2813  0.9270  0.5872
 8011SOL     OW35491   0.386   0.515  15.237  0.5747  0.3536 -0.0490
 8011SOL    HW135492   0.368   0.437  15.185 -0.1970 -0.7409  1.8661
 8011SOL    HW235493   0.297   0.551  15.242  0.0101 -0.7905 -1.7862
 8012SOL     OW35494   1.695   0.200   2.239  0.1693 -0.5926  0.4275
 8012SOL    HW135495   1.680   0.268   2.173  0.7601 -0.7292  0.1490
 8012SOL    HW235496   1.628   0.134   2.218 -0.2878  0.1359 -0.4160
 8013SOL     OW35497   0.749   4.039  12.506 -0.1102  0.0428  0.1564
 8013SOL    HW135498   0.723   4.130  12.495 -0.1850 -0.1096 -0.9297
 8013SOL    HW235499   0.728   4.022  12.597 -3.7642 -1.8246 -1.0275
 8014SOL     OW35500   3.567   0.383   5.383  0.3835 -0.1290  0.1873
 8014SOL    HW135501   3.588   0.474   5.403 -1.5465  0.8601 -2.3410
 8014SOL    HW235502   3.501   0.365   5.450  2.3523 -0.8987  1.9313
 8015SOL     OW35503   1.584   1.537   7.597  0.3878 -0.0184 -0.0658
 8015SOL    HW135504   1.520   1.608   7.600 -0.7410 -1.0779  0.9690
 8015SOL    HW235505   1.534   1.468   7.642 -0.6598  0.7939  0.0214
 8016SOL     OW35506   4.183   3.867   3.496 -0.2058  0.3400 -0.0930
 8016SOL    HW135507   4.122   3.798   3.470  1.3844 -1.6429  1.4982
 8016SOL    HW235508   4.262   3.838   3.451 -1.4630 -2.8420 -0.2055
 8017SOL     OW35509   3.734   4.007  14.617  0.0313 -0.2074 -0.2463
 8017SOL    HW135510   3.678   4.067  14.667  0.5797  0.8112 -0.8338
 8017SOL    HW235511   3.758   3.951  14.691 -0.2643 -1.7081 -1.3128
 8018SOL     OW35512   1.251   4.148   7.338  0.0769 -0.0143  0.2440
 8018SOL    HW135513   1.157   4.150   7.355 -0.1046 -0.1788 -0.7082
 8018SOL    HW235514   1.268   4.240   7.359  1.7179 -0.4813  0.9096
 8019SOL     OW35515   0.401   0.241   4.412  0.0019  0.1170  0.4480
 8019SOL    HW135516   0.321   0.197   4.441  0.2682  0.2816  1.4461
 8019SOL    HW235517   0.468   0.175   4.434  0.4997  0.5918  0.3556
 8020SOL     OW35518   4.626   4.495   5.869 -0.3285  0.0806  0.0484
 8020SOL    HW135519   4.680   4.558   5.822  1.3090 -1.7968 -0.6036
 8020SOL    HW235520   4.611   4.423   5.808 -0.1794  0.8791 -0.9334
 8021SOL     OW35521   1.057   2.413   3.347 -0.0201 -0.6215  0.0711
 8021SOL    HW135522   0.996   2.465   3.400 -0.6816 -0.0460 -1.2505
 8021SOL    HW235523   1.088   2.349   3.410  0.8609 -1.0676 -0.8137
 8022SOL     OW35524   3.576   2.859   6.735  0.1551  0.3182 -0.1172
 8022SOL    HW135525   3.585   2.857   6.639 -0.4518  0.1520 -0.1659
 8022SOL    HW235526   3.620   2.941   6.759  1.5658 -0.8188  1.1672
 8023SOL     OW35527   0.960   2.379   4.477  0.2152  0.1701 -0.4261
 8023SOL    HW135528   1.040   2.328   4.467  0.1982  0.0375  0.1025
 8023SOL    HW235529   0.949   2.369   4.572 -1.9351 -0.3997 -0.7222
 8024SOL     OW35530   3.801   2.439   9.618 -0.7293 -0.3500 -0.4410
 8024SOL    HW135531   3.802   2.469   9.527  0.8329 -1.5895 -0.8410
 8024SOL    HW235532   3.750   2.504   9.667  0.6397  1.1218 -0.9680
 8025SOL     OW35533   4.296   4.064   2.806 -0.3150  0.1030  0.0205
 8025SOL    HW135534   4.234   4.119   2.758 -2.0287 -0.9181  1.0547
 8025SOL    HW235535   4.367   4.052   2.743  1.2379 -1.7151  2.1232
 8026SOL     OW35536   4.299   2.776   2.687 -0.7512  0.2674  0.4807
 8026SOL    HW135537   4.213   2.817   2.674 -1.2795 -1.3456 -1.1799
 8026SOL    HW235538   4.276   2.692   2.646  0.3452 -0.0505  0.5321
 8027SOL     OW35539   4.187   3.208   0.368  0.6762  0.0504 -0.1477
 8027SOL    HW135540   4.141   3.211   0.452 -3.1420 -0.7317 -2.2140
 8027SOL    HW235541   4.113   3.169   0.322  1.4406 -0.6629 -0.7680
 8028SOL     OW35542   2.606   1.269   2.614  0.1386  0.3957 -0.7438
 8028SOL    HW135543   2.598   1.257   2.519 -0.5105  0.4480 -0.6938
 8028SOL    HW235544   2.559   1.187   2.629  1.8124 -0.1365  1.4018
 8029SOL     OW35545   0.252   2.516   3.849  0.1726 -0.0138 -0.6164
 8029SOL    HW135546   0.194   2.465   3.792 -1.0812 -0.6738  1.2235
 8029SOL    HW235547   0.193   2.568   3.904  0.5734 -0.1514 -0.0588
 8030SOL     OW35548   4.365   4.519  15.068  0.7127  0.3015 -0.0180
 8030SOL    HW135549   4.289   4.558  15.111 -0.6349 -3.4986  1.0416
 8030SOL    HW235550   4.437   4.569  15.107  1.6898 -0.8725 -0.3240
 8031SOL     OW35551   2.174   4.205   0.902  0.0878 -0.0569  0.2954
 8031SOL    HW135552   2.267   4.184   0.890 -0.2961 -1.5250 -0.1774
 8031SOL    HW235553   2.167   4.193   0.996  0.3220  1.2582  0.4716
 8032SOL     OW35554   2.919   3.496   2.721 -0.5441  0.5343  0.5143
 8032SOL    HW135555   3.000   3.534   2.755 -0.2687 -1.0595  1.6245
 8032SOL    HW235556   2.889   3.569   2.667  2.1455 -1.0036 -3.0027
 8033SOL     OW35557   0.547   3.814   4.526  0.2620 -0.3066 -0.0672
 8033SOL    HW135558   0.500   3.892   4.556 -0.7110 -0.2782 -1.6723
 8033SOL    HW235559   0.514   3.801   4.437  0.5989 -0.0176 -0.2360
 8034SOL     OW35560   0.485   4.450  13.810 -0.1888  0.3712  0.1082
 8034SOL    HW135561   0.562   4.425  13.860 -0.1766  1.3752  0.5801
 8034SOL    HW235562   0.513   4.518  13.749  2.0998 -0.2630  0.4318
 8035SOL     OW35563   3.936   1.287   9.232  0.0828 -0.2307  0.1182
 8035SOL    HW135564   3.871   1.316   9.168  0.9110  2.5789  0.5543
 8035SOL    HW235565   4.011   1.329   9.191 -1.3663  0.3636 -1.9249
 8036SOL     OW35566   2.081   2.146   1.132 -0.3251  0.1831  0.5121
 8036SOL    HW135567   2.066   2.054   1.150  1.6275 -0.3008 -0.2461
 8036SOL    HW235568   2.004   2.193   1.162 -1.0623  1.2037 -2.9779
 8037SOL     OW35569   1.422   1.113   2.227  0.7583 -1.0057 -0.4103
 8037SOL    HW135570   1.392   1.053   2.159 -1.8954  0.5508 -0.5951
 8037SOL    HW235571   1.437   1.060   2.306  0.5136  0.1568  0.4233
 8038SOL     OW35572   2.550   2.399   6.248  0.5311 -0.7818  0.4823
 8038SOL    HW135573   2.645   2.408   6.241  0.5414  0.8484  2.6145
 8038SOL    HW235574   2.526   2.455   6.322  1.8396 -0.1195  0.4033
 8039SOL     OW35575   0.776   0.583  12.084 -0.3096 -0.4993 -0.6469
 8039SOL    HW135576   0.743   0.654  12.028  3.1203  0.6543 -1.2192
 8039SOL    HW235577   0.691   0.553  12.114 -1.1768  0.8683 -1.7102
 8040SOL     OW35578   4.507   2.320  14.348  0.1253 -0.2353 -0.3103
 8040SOL    HW135579   4.518   2.390  14.284 -2.0589 -0.5979 -1.0672
 8040SOL    HW235580   4.424   2.345  14.390 -1.0762  0.5257 -3.1641
 8041SOL     OW35581   3.835   1.619   3.702  0.0597  0.0768  0.2969
 8041SOL    HW135582   3.777   1.691   3.728  2.7009  1.8725  1.1840
 8041SOL    HW235583   3.816   1.630   3.609 -0.9933  1.6626  0.6898
 8042SOL     OW35584   3.433   1.342  12.136 -0.0538  0.2608 -0.1026
 8042SOL    HW135585   3.407   1.394  12.060 -1.9242 -1.3236 -0.5511
 8042SOL    HW235586   3.474   1.267  12.092  0.4857  0.2107  0.4785
 8043SOL     OW35587   2.510   4.370  14.311 -0.1624 -0.0727 -1.2312
 8043SOL    HW135588   2.463   4.436  14.260 -3.9097 -0.5163  1.6410
 8043SOL    HW235589   2.567   4.426  14.364  0.3016  1.0183 -2.8870
 8044SOL     OW35590   0.441   1.117   0.248  0.1119 -0.2572  0.1013
 8044SOL    HW135591   0.495   1.057   0.197 -0.8850 -0.2322 -0.9790
 8044SOL    HW235592   0.430   1.057   0.321  1.2819 -1.5941 -0.8194
 8045SOL     OW35593   1.250   0.248   5.137  1.0161 -0.1289  0.1494
 8045SOL    HW135594   1.228   0.297   5.217 -0.5443  0.0216 -0.3807
 8045SOL    HW235595   1.195   0.170   5.145 -0.6153  0.8945 -1.1832
 8046SOL     OW35596   0.506   2.889   2.558 -0.2026 -0.4669  0.7065
 8046SOL    HW135597   0.421   2.858   2.528  0.7195  0.3502 -2.6810
 8046SOL    HW235598   0.505   2.967   2.502 -0.2965 -1.6496 -0.9291
 8047SOL     OW35599   3.600   3.131   0.971  0.3574  0.1158 -0.0954
 8047SOL    HW135600   3.617   3.062   0.907 -0.9530 -0.1895 -0.1125
 8047SOL    HW235601   3.517   3.094   1.003  0.5927 -1.7473 -1.6085
 8048SOL     OW35602   4.647   3.529   2.512 -0.6917  0.0651 -0.9157
 8048SOL    HW135603   4.618   3.463   2.576 -0.3389  0.9917  0.1923
 8048SOL    HW235604   4.611   3.494   2.431 -2.9688 -0.6950  0.4142
 8049SOL     OW35605   3.119   2.969   2.369 -0.4187 -0.0037  0.1208
 8049SOL    HW135606   3.130   2.887   2.417 -3.2137  0.6264  1.8426
 8049SOL    HW235607   3.165   3.026   2.430  0.6156 -1.0204  0.2826
 8050SOL     OW35608   3.051   0.682   7.540 -0.0173  0.4265 -0.1770
 8050SOL    HW135609   3.021   0.614   7.480 -0.4894 -0.4496  1.0582
 8050SOL    HW235610   2.965   0.718   7.564 -0.1933 -0.1961  0.1166
 8051SOL     OW35611   1.542   4.549  11.922 -0.3383  0.0350 -0.3553
 8051SOL    HW135612   1.468   4.521  11.868 -0.8311 -0.1441  0.4174
 8051SOL    HW235613   1.608   4.565  11.855  1.4004 -1.6056  0.9461
 8052SOL     OW35614   2.781   2.818   4.231  0.2786 -0.0560 -0.0697
 8052SOL    HW135615   2.738   2.749   4.181  0.6896 -1.5832  1.6977
 8052SOL    HW235616   2.751   2.796   4.319  0.0943 -0.0254 -0.1254
 8053SOL     OW35617   1.979   1.531   9.339  0.3320  0.1927  0.0453
 8053SOL    HW135618   1.929   1.556   9.417  0.0776  0.9259 -0.3551
 8053SOL    HW235619   2.066   1.508   9.373 -0.0268 -1.7736 -0.3633
 8054SOL     OW35620   1.662   1.339  15.313 -0.5110 -0.1541 -0.3542
 8054SOL    HW135621   1.719   1.303  15.244  2.7384  0.0608  2.2376
 8054SOL    HW235622   1.724   1.402  15.349 -0.9908  0.8743 -1.3414
 8055SOL     OW35623   1.596   0.795   4.381 -0.2312  0.5723  0.1207
 8055SOL    HW135624   1.548   0.742   4.445  1.7596 -0.6723  0.5654
 8055SOL    HW235625   1.609   0.874   4.433 -1.0048 -1.7829  3.8943
 8056SOL     OW35626   4.601   1.843   5.581 -0.1228 -1.1170 -1.0321
 8056SOL    HW135627   4.540   1.881   5.518  0.7785  1.0037 -0.6358
 8056SOL    HW235628   4.684   1.845   5.535  0.3292 -1.3081 -0.2318
 8057SOL     OW35629   2.879   2.654   7.471 -0.6239  0.0040 -0.8516
 8057SOL    HW135630   2.950   2.659   7.406 -0.4566  1.1706 -0.5906
 8057SOL    HW235631   2.922   2.660   7.556  0.9172 -2.9269 -1.4079
 8058SOL     OW35632   1.556   1.302   5.311  0.6024 -0.0147  0.1009
 8058SOL    HW135633   1.573   1.355   5.233  0.0339  0.0703  0.0363
 8058SOL    HW235634   1.635   1.248   5.302  0.6836  0.1108  0.0579
 8059SOL     OW35635   3.722   1.425   8.065  0.2765  0.1038  0.1973
 8059SOL    HW135636   3.746   1.387   8.149  2.2102  2.0777  0.5335
 8059SOL    HW235637   3.627   1.412   8.066  0.1819  0.8545  0.7479
 8060SOL     OW35638   1.097   0.177  17.371 -0.1323 -0.4879 -0.3232
 8060SOL    HW135639   1.057   0.255  17.411  0.1680  1.0067 -2.9172
 8060SOL    HW235640   1.185   0.208  17.352 -0.4930  1.6217  1.3953
 8061SOL     OW35641   0.129   2.723  13.982  0.1747 -0.5176  0.3055
 8061SOL    HW135642   0.037   2.699  13.974 -0.1595  0.9941 -0.2577
 8061SOL    HW235643   0.149   2.737  14.075  1.2816 -0.2023  0.0219
 8062SOL     OW35644   2.661   1.653   1.907 -0.1582  0.7093  0.7919
 8062SOL    HW135645   2.684   1.642   1.815 -0.4689 -0.1756  0.8259
 8062SOL    HW235646   2.570   1.624   1.901  0.1018  0.2991 -1.2512
 8063SOL     OW35647   3.530   3.306  10.689  0.2594 -0.1737  0.5592
 8063SOL    HW135648   3.471   3.345  10.754  0.5680  0.7438  0.2940
 8063SOL    HW235649   3.610   3.324  10.738 -0.3590 -2.1775  2.2996
 8064SOL     OW35650   0.686   3.516   7.388  0.3664 -0.8348 -0.1410
 8064SOL    HW135651   0.697   3.425   7.361  0.6920 -0.1972 -2.1842
 8064SOL    HW235652   0.777   3.543   7.381  0.8928 -2.8597 -1.1585
 8065SOL     OW35653   3.924   3.464   7.857 -0.5428  0.2271 -0.0816
 8065SOL    HW135654   3.990   3.522   7.895 -0.6580 -0.2681  0.8940
 8065SOL    HW235655   3.843   3.492   7.901 -0.7078  0.1295 -0.3211
 8066SOL     OW35656   2.339   3.872   1.828 -0.1888 -0.1596 -0.0255
 8066SOL    HW135657   2.327   3.925   1.907 -1.4307 -0.4689 -0.0120
 8066SOL    HW235658   2.385   3.932   1.768 -1.2787 -2.0869 -2.7982
 8067SOL     OW35659   0.725   3.883   8.316 -0.1125 -0.1422  0.2686
 8067SOL    HW135660   0.646   3.903   8.267 -2.1157 -2.6299  2.4428
 8067SOL    HW235661   0.681   3.892   8.400 -1.3080  2.9863 -0.7046
 8068SOL     OW35662   1.691   0.935   2.594 -0.1934 -0.3341 -0.2023
 8068SOL    HW135663   1.757   0.985   2.546 -1.6068  1.5026 -0.2480
 8068SOL    HW235664   1.717   0.932   2.686 -0.6532  1.3192 -0.0073
 8069SOL     OW35665   3.430   1.690   8.675 -0.6779  0.2303 -0.5722
 8069SOL    HW135666   3.415   1.722   8.586 -2.7593 -0.2105 -0.3933
 8069SOL    HW235667   3.415   1.596   8.660  3.0464 -0.6816  1.3462
 8070SOL     OW35668   3.149   0.318   5.572  0.0526 -0.1182  0.3323
 8070SOL    HW135669   3.111   0.252   5.629  1.3024 -0.9722  0.1688
 8070SOL    HW235670   3.185   0.255   5.510  2.1461 -1.1741  2.6314
 8071SOL     OW35671   1.952   3.896  15.397 -0.4619  0.4263  0.7299
 8071SOL    HW135672   1.949   3.854  15.311  0.7945  2.5372 -0.3525
 8071SOL    HW235673   1.923   3.983  15.372 -0.4680  0.3026  0.3062
 8072SOL     OW35674   3.414   2.291   8.118  0.7478 -1.0521  0.1881
 8072SOL    HW135675   3.476   2.326   8.182 -0.7851 -0.6109  1.4374
 8072SOL    HW235676   3.404   2.205   8.160  1.8703 -1.7253 -0.9291
 8073SOL     OW35677   1.186   0.395   4.263  0.3488  0.1935  0.3329
 8073SOL    HW135678   1.105   0.404   4.312  1.9379  0.2591  2.9574
 8073SOL    HW235679   1.216   0.311   4.297  0.4804  0.5088  0.9997
 8074SOL     OW35680   4.228   0.995   2.984  0.1478 -1.0132 -0.5132
 8074SOL    HW135681   4.265   1.081   2.965 -2.4889 -0.3946 -2.9390
 8074SOL    HW235682   4.253   0.988   3.076 -3.4267  2.6662  0.7221
 8075SOL     OW35683   4.417   3.689   8.409  0.0006 -0.1443  0.0788
 8075SOL    HW135684   4.330   3.671   8.374  1.5075 -0.3415 -3.6053
 8075SOL    HW235685   4.469   3.685   8.329 -1.2572  2.0495 -0.8373
 8076SOL     OW35686   3.629   4.642   4.075 -0.6934  0.2984 -0.2459
 8076SOL    HW135687   3.697   4.638   4.143  0.3043 -0.5483 -1.3024
 8076SOL    HW235688   3.560   4.687   4.124 -2.0282 -0.8878 -1.0509
 8077SOL     OW35689   4.634   1.197   7.517  0.2454 -0.3274 -0.5432
 8077SOL    HW135690   4.616   1.203   7.423  0.3620  1.7058 -0.4313
 8077SOL    HW235691   4.561   1.243   7.559 -0.5581 -3.1775  1.1629
 8078SOL     OW35692   0.690   4.132  14.740  0.1580  0.1387  0.5566
 8078SOL    HW135693   0.660   4.045  14.715 -1.5075  0.1216  2.6688
 8078SOL    HW235694   0.686   4.180  14.657  2.6434 -1.2055 -0.3446
 8079SOL     OW35695   2.143   1.648  13.328 -0.0809 -0.4748  0.4364
 8079SOL    HW135696   2.129   1.577  13.391  0.6602 -0.4517  0.6203
 8079SOL    HW235697   2.238   1.648  13.327 -0.0870 -1.2491 -0.3056
 8080SOL     OW35698   4.137   0.057   5.851 -0.3921  0.2540  0.0255
 8080SOL    HW135699   4.232   0.051   5.860 -0.2939  0.1879 -1.0866
 8080SOL    HW235700   4.108   0.086   5.938  1.4311  1.1073  0.3510
 8081SOL     OW35701   2.317   3.628   1.993 -0.0007 -0.1339 -0.2100
 8081SOL    HW135702   2.324   3.688   1.919  1.1653 -2.0539 -1.6465
 8081SOL    HW235703   2.372   3.678   2.054  2.4195 -1.7658 -1.0448
 8082SOL     OW35704   2.008   0.142  10.223  0.5181  0.3505  0.8537
 8082SOL    HW135705   1.977   0.053  10.206  1.0795  0.6048 -1.4252
 8082SOL    HW235706   2.054   0.178  10.147 -2.4274  0.2332 -0.9956
 8083SOL     OW35707   0.512   2.473   3.424  0.3357  0.3708  0.2574
 8083SOL    HW135708   0.572   2.418   3.475 -0.8057 -0.0826  1.1107
 8083SOL    HW235709   0.548   2.464   3.336  0.0108 -1.5598  0.3097
 8084SOL     OW35710   4.153   1.405   3.094  0.8864 -0.1386 -0.2809
 8084SOL    HW135711   4.177   1.497   3.085  0.7073 -0.1291 -0.7160
 8084SOL    HW235712   4.224   1.382   3.153  1.7401  2.6017 -0.2528
 8085SOL     OW35713   0.407   0.501   7.893  0.7244 -0.3604  0.0042
 8085SOL    HW135714   0.371   0.419   7.858  1.5609 -1.2918  1.3160
 8085SOL    HW235715   0.331   0.553   7.868  0.1574 -1.3399 -0.3124
 8086SOL     OW35716   1.722   0.585   2.421 -0.5051 -0.2285 -0.9596
 8086SOL    HW135717   1.713   0.492   2.440  0.1951  0.1698  1.4037
 8086SOL    HW235718   1.736   0.578   2.327 -1.8224  1.9396 -1.3370
 8087SOL     OW35719   2.197   3.934   1.162  0.4882 -0.0866 -0.1261
 8087SOL    HW135720   2.210   4.028   1.174  2.2090 -0.4261  0.6960
 8087SOL    HW235721   2.201   3.900   1.252 -0.6925 -1.1006 -0.4665
 8088SOL     OW35722   4.002   3.865   7.183  0.2011 -0.7279 -0.1158
 8088SOL    HW135723   3.979   3.857   7.090 -2.1285  0.9252  0.3185
 8088SOL    HW235724   3.951   3.797   7.227 -0.7020  1.1470  1.7563
 8089SOL     OW35725   1.662   2.613   8.025 -0.1393 -0.2656  0.0982
 8089SOL    HW135726   1.568   2.604   8.042 -0.0966  0.1277  0.5347
 8089SOL    HW235727   1.681   2.619   8.119 -1.1841 -0.9555  0.3526
 8090SOL     OW35728   0.112   2.524  16.314  0.2527  1.0191 -0.4980
 8090SOL    HW135729   0.063   2.599  16.281  2.0205  1.7706 -1.4334
 8090SOL    HW235730   0.204   2.546  16.300  0.6736 -1.4168 -1.6065
 8091SOL     OW35731   2.596   3.242   7.747  0.1297  0.2661 -0.2180
 8091SOL    HW135732   2.523   3.230   7.808  0.5080 -1.3475 -0.0836
 8091SOL    HW235733   2.623   3.152   7.726 -1.3270 -0.9364  3.0685
 8092SOL     OW35734   2.654   0.510   6.226  0.0580 -0.3036  0.2145
 8092SOL    HW135735   2.583   0.454   6.195  0.6797  0.1302 -2.0246
 8092SOL    HW235736   2.686   0.547   6.144 -1.4314  1.6289  0.5116
 8093SOL     OW35737   3.885   0.490  10.653 -0.0802  0.2078 -0.6035
 8093SOL    HW135738   3.898   0.575  10.697  0.8829 -1.8582  3.1364
 8093SOL    HW235739   3.792   0.483  10.676  0.0928  1.0515  0.3762
 8094SOL     OW35740   3.880   4.038   3.265  0.5447  0.0966  0.1723
 8094SOL    HW135741   3.824   4.056   3.340  0.9828 -0.0460  0.5324
 8094SOL    HW235742   3.845   3.949   3.257 -0.2088  0.4526 -0.4829
 8095SOL     OW35743   3.659   3.358  14.447  0.3771 -0.4075  0.4466
 8095SOL    HW135744   3.662   3.447  14.413  0.2046 -0.4796  0.2446
 8095SOL    HW235745   3.728   3.355  14.513 -0.0578  0.5792  0.9451
 8096SOL     OW35746   0.620   0.470   4.923 -0.0797  0.4603  0.4796
 8096SOL    HW135747   0.638   0.467   5.017 -0.4413  4.0223  0.6785
 8096SOL    HW235748   0.651   0.557   4.898 -1.8848  1.2244  0.9416
 8097SOL     OW35749   0.228   4.153   7.689  0.7822  0.4412  0.5601
 8097SOL    HW135750   0.132   4.151   7.683  0.9694 -2.5002 -1.1752
 8097SOL    HW235751   0.240   4.231   7.635 -2.3055  0.8933  0.5348
 8098SOL     OW35752   2.086   4.227   3.140 -0.5492 -0.1195  0.9036
 8098SOL    HW135753   2.131   4.311   3.144  1.1524 -0.9200 -0.9463
 8098SOL    HW235754   2.000   4.244   3.178 -0.3526  2.5585  0.1144
 8099SOL     OW35755   3.467   2.539   3.534  0.6377 -0.6970 -0.3767
 8099SOL    HW135756   3.411   2.501   3.467  1.0337 -0.5637 -0.7775
 8099SOL    HW235757   3.550   2.533   3.487  1.1897 -1.9553  0.7270
 8100SOL     OW35758   0.094   4.231   5.738 -0.4212 -0.1282 -0.7352
 8100SOL    HW135759   0.033   4.188   5.678 -0.8257  0.7127 -0.9304
 8100SOL    HW235760   0.076   4.324   5.726  3.3978  0.8941  1.5395
 8101SOL     OW35761   1.039   0.743   7.538  0.5441 -0.2814 -0.1683
 8101SOL    HW135762   1.058   0.785   7.454 -1.1079 -0.3600 -0.5863
 8101SOL    HW235763   0.994   0.809   7.589  1.1343  0.9312 -1.2226
 8102SOL     OW35764   4.696   0.811   8.760  0.1847  0.2666  0.1405
 8102SOL    HW135765   4.700   0.836   8.667  1.2449 -0.4003  0.0085
 8102SOL    HW235766   0.040   0.871   8.797 -2.0040  0.6204  3.4117
 8103SOL     OW35767   1.901   3.579   1.785  0.2264  0.0480 -0.0293
 8103SOL    HW135768   1.905   3.521   1.861  2.5633 -0.8853 -0.8984
 8103SOL    HW235769   1.918   3.668   1.817 -1.6168  0.5556 -0.4618
 8104SOL     OW35770   4.355   4.378   8.669  0.2285 -0.1171 -0.2234
 8104SOL    HW135771   4.400   4.422   8.742 -0.7427  2.3771 -1.1208
 8104SOL    HW235772   4.294   4.320   8.714  2.1705 -0.8388  1.4804
 8105SOL     OW35773   4.312   0.119  14.296  0.3569  0.4492  0.3042
 8105SOL    HW135774   4.229   0.165  14.288  0.0439  0.1086  1.5753
 8105SOL    HW235775   4.291   0.026  14.284  0.3816  0.3628  0.9213
 8106SOL     OW35776   0.554   0.654  10.269 -0.2789  0.0046 -0.2551
 8106SOL    HW135777   0.463   0.666  10.297 -0.0111 -1.7865  1.4692
 8106SOL    HW235778   0.572   0.735  10.222  3.8308 -0.3136  0.6960
 8107SOL     OW35779   2.338   1.720   7.575  0.3369  0.4961 -0.3548
 8107SOL    HW135780   2.400   1.673   7.629  0.1230  2.4808  1.6058
 8107SOL    HW235781   2.393   1.789   7.538 -1.0859  2.1891  0.6571
 8108SOL     OW35782   2.205   4.236   8.209 -0.0524 -0.3577  0.3188
 8108SOL    HW135783   2.230   4.144   8.206 -0.9762 -0.6666  1.9304
 8108SOL    HW235784   2.204   4.255   8.303  1.2696  2.3183 -0.2037
 8109SOL     OW35785   4.698   1.061   5.959  0.5212  0.5731 -0.3133
 8109SOL    HW135786   4.618   1.061   6.012  0.3590  1.0464 -0.5535
 8109SOL    HW235787   4.683   0.976   5.920 -0.5957  1.4925 -1.8647
 8110SOL     OW35788   4.315   3.520   3.569 -0.6774  0.2268  0.1988
 8110SOL    HW135789   4.266   3.580   3.512  1.5059 -0.7062 -2.6368
 8110SOL    HW235790   4.347   3.453   3.509  1.8933  1.1868  0.5018
 8111SOL     OW35791   0.086   3.407  14.898  0.1131 -0.3463 -0.0578
 8111SOL    HW135792   0.171   3.451  14.904 -0.1520 -0.2577  2.8533
 8111SOL    HW235793   0.095   3.340  14.966 -1.3392  0.5486  0.9948
 8112SOL     OW35794   4.448   4.271   6.533  0.0728  0.0133  0.0390
 8112SOL    HW135795   4.471   4.201   6.472  1.4295 -1.0608  1.7585
 8112SOL    HW235796   4.406   4.215   6.598 -0.8251  2.1837  1.3161
 8113SOL     OW35797   3.067   0.226  11.651 -0.0371  1.0727  0.7566
 8113SOL    HW135798   3.036   0.311  11.619 -0.8697 -0.2764 -1.9544
 8113SOL    HW235799   3.100   0.260  11.734 -2.9224  1.5419  1.7201
 8114SOL     OW35800   2.668   0.564  14.296  0.1535 -0.0031  0.3777
 8114SOL    HW135801   2.590   0.509  14.302 -0.5782  1.1140  1.1995
 8114SOL    HW235802   2.693   0.585  14.386 -2.2772  0.2129  1.0199
 8115SOL     OW35803   2.907   1.268   6.085  0.1849 -0.2040  0.6652
 8115SOL    HW135804   2.900   1.226   6.000  0.5085  2.6362 -0.7598
 8115SOL    HW235805   2.848   1.211   6.134  1.7465 -0.5596  2.1546
 8116SOL     OW35806   2.569   3.974   4.286 -0.0362  0.3375 -0.5392
 8116SOL    HW135807   2.529   3.889   4.306  1.6725  0.1035  1.8879
 8116SOL    HW235808   2.656   3.937   4.270  0.4216  0.9535  0.4807
 8117SOL     OW35809   0.259   2.456   3.096  0.2074  1.0395  0.0043
 8117SOL    HW135810   0.190   2.458   3.030  1.0469  0.7472 -0.8880
 8117SOL    HW235811   0.279   2.548   3.108  0.4556  0.7331  2.0076
 8118SOL     OW35812   0.931   4.317   9.197 -0.0487 -0.3816  0.1098
 8118SOL    HW135813   0.931   4.318   9.101 -1.3911  0.7332  0.1328
 8118SOL    HW235814   1.014   4.363   9.208 -1.4308  2.3554 -0.8938
 8119SOL     OW35815   4.459   1.478   4.993  0.5021  0.2613  0.3428
 8119SOL    HW135816   4.531   1.442   4.941 -0.0076  0.3115 -0.3943
 8119SOL    HW235817   4.474   1.572   4.993 -0.2546  0.3827 -1.3531
 8120SOL     OW35818   2.884   4.276   2.710 -0.1744  0.0523  0.0243
 8120SOL    HW135819   2.944   4.201   2.707 -0.9215 -0.4751 -1.5788
 8120SOL    HW235820   2.879   4.318   2.624 -0.5960 -1.7977 -0.8310
 8121SOL     OW35821   4.250   4.573   1.097  0.1014 -0.1532 -0.2695
 8121SOL    HW135822   4.271   4.504   1.034 -0.1391  1.3912 -2.0331
 8121SOL    HW235823   4.159   4.600   1.081 -0.0881 -0.1001  0.9391
 8122SOL     OW35824   4.629   3.267  12.452 -0.3269 -0.3885  0.1437
 8122SOL    HW135825   4.590   3.244  12.536  1.0785 -0.0144  0.8974
 8122SOL    HW235826   0.000   3.259  12.474 -0.0486 -3.1773 -2.0118
 8123SOL     OW35827   2.919   0.427   0.164 -0.2972  0.2648  0.0018
 8123SOL    HW135828   2.903   0.335   0.143  0.2819  0.5989 -1.8723
 8123SOL    HW235829   2.911   0.458   0.074  0.8022 -1.3008 -0.6365
 8124SOL     OW35830   4.345   3.122   9.140 -0.2207 -0.1024  0.8215
 8124SOL    HW135831   4.374   3.035   9.112  2.1082  1.2681 -0.9227
 8124SOL    HW235832   4.403   3.121   9.216  0.2459 -0.0493  0.4678
 8125SOL     OW35833   3.213   4.554  13.309  0.8351 -0.2328 -0.4818
 8125SOL    HW135834   3.164   4.605  13.374  2.4116 -1.1801  1.4676
 8125SOL    HW235835   3.160   4.570  13.231 -1.0203  0.6106  0.9651
 8126SOL     OW35836   2.694   2.879   4.967  0.0067  1.0507  0.2346
 8126SOL    HW135837   2.777   2.892   5.013 -0.0618 -0.1084  0.6685
 8126SOL    HW235838   2.651   2.964   4.975 -0.9718  0.5494  0.2970
 8127SOL     OW35839   2.408   1.615   6.104 -0.4912  0.3212  0.1122
 8127SOL    HW135840   2.415   1.697   6.153  0.8347 -0.8679  1.8681
 8127SOL    HW235841   2.314   1.612   6.084 -0.3891  1.4503 -0.5496
 8128SOL     OW35842   4.221   1.821  16.424 -0.0985  0.5443  0.5906
 8128SOL    HW135843   4.307   1.834  16.384 -1.0675 -0.8099 -1.9943
 8128SOL    HW235844   4.243   1.784  16.509  2.1524  2.8859  1.0245
 8129SOL     OW35845   0.849   1.512   6.967 -0.4789 -0.5343 -0.3021
 8129SOL    HW135846   0.852   1.517   7.062 -0.6239 -1.2603 -0.2602
 8129SOL    HW235847   0.909   1.439   6.952 -1.0970 -1.2088  0.5000
 8130SOL     OW35848   0.007   1.491  10.448  0.9525 -0.7119 -0.8059
 8130SOL    HW135849   0.047   1.408  10.474 -0.4604 -1.7941 -2.0805
 8130SOL    HW235850   4.702   1.534  10.529  1.9063 -2.3099  0.3313
 8131SOL     OW35851   4.009   2.718   8.938  0.7036 -0.3739 -0.2097
 8131SOL    HW135852   4.096   2.751   8.918  0.5062 -0.1462 -0.7098
 8131SOL    HW235853   3.968   2.744   8.855  1.3021  1.0854 -0.0521
 8132SOL     OW35854   2.772   4.714   8.853 -0.2703  0.2051 -0.3848
 8132SOL    HW135855   2.678   4.695   8.854  0.2764 -2.6122  0.2954
 8132SOL    HW235856   2.797   4.700   8.944 -1.5111 -0.0845 -0.0909
 8133SOL     OW35857   1.991   2.190   8.072  0.0743  0.1281  0.5593
 8133SOL    HW135858   2.071   2.209   8.122 -0.9535 -0.3700  2.3912
 8133SOL    HW235859   2.006   2.097   8.054 -0.1399  0.0462  0.7979
 8134SOL     OW35860   3.637   1.109   3.889 -0.2604  0.0481  0.3707
 8134SOL    HW135861   3.726   1.139   3.905 -0.0145 -0.3674 -0.2363
 8134SOL    HW235862   3.638   1.091   3.795  1.0977  2.1073  0.0106
 8135SOL     OW35863   3.492   4.202   9.307 -0.6169 -0.1470  0.6194
 8135SOL    HW135864   3.570   4.190   9.252  0.5359  2.1236  1.7821
 8135SOL    HW235865   3.540   4.261   9.365 -3.6485  0.9968  1.9320
 8136SOL     OW35866   0.904   4.435   6.132  0.2207  0.6004 -0.2831
 8136SOL    HW135867   0.916   4.342   6.151 -0.0196  1.0006  1.8983
 8136SOL    HW235868   0.983   4.479   6.164  0.2914  0.9379 -0.9328
 8137SOL     OW35869   3.844   0.983   6.170 -0.7213  0.2141  0.3716
 8137SOL    HW135870   3.780   0.937   6.115  0.2480 -1.3736  0.6019
 8137SOL    HW235871   3.786   1.047   6.211 -2.2827 -1.4876  0.8120
 8138SOL     OW35872   0.962   0.841   6.971  0.7601 -0.6971  0.1309
 8138SOL    HW135873   1.004   0.767   7.016  1.5857  0.0355  0.5473
 8138SOL    HW235874   0.942   0.893   7.048 -0.9644 -0.4564 -0.4746
 8139SOL     OW35875   0.058   3.023   2.635  0.2801  0.0334  0.8025
 8139SOL    HW135876   4.690   2.988   2.626  0.4387  0.2934 -1.9409
 8139SOL    HW235877   0.118   2.959   2.598  1.0589  1.5930 -0.6570
 8140SOL     OW35878   2.827   2.712   2.236 -0.5904 -0.1858  0.0711
 8140SOL    HW135879   2.901   2.687   2.181 -2.5147 -1.4246 -1.9504
 8140SOL    HW235880   2.773   2.637   2.210 -2.6876  0.6592  1.8936
 8141SOL     OW35881   1.835   1.915   7.757 -0.1843  0.0436 -0.8555
 8141SOL    HW135882   1.833   1.822   7.733 -2.0086  0.1205 -1.0305
 8141SOL    HW235883   1.750   1.941   7.721 -0.4199 -0.6007 -0.7651
 8142SOL     OW35884   3.657   1.763  12.600  0.8425 -0.7997  0.5670
 8142SOL    HW135885   3.599   1.833  12.632  2.4535 -0.4168  2.6662
 8142SOL    HW235886   3.744   1.781  12.635  0.5938  1.4783  0.0522
 8143SOL     OW35887   3.810   3.933  13.093 -0.0011 -0.0095 -0.5401
 8143SOL    HW135888   3.777   3.845  13.078  1.3599 -0.0833 -3.0492
 8143SOL    HW235889   3.747   3.959  13.161 -1.2628 -2.0878 -0.9314
 8144SOL     OW35890   4.457   2.215   0.900 -0.5263 -0.3263 -0.1210
 8144SOL    HW135891   4.415   2.137   0.935  1.4458 -1.7952 -0.9786
 8144SOL    HW235892   4.530   2.234   0.959 -0.6108 -1.4865  0.3692
 8145SOL     OW35893   4.410   0.033   7.264 -0.4443  0.8999  0.0753
 8145SOL    HW135894   4.465   0.024   7.186  0.1996 -4.1739  1.1504
 8145SOL    HW235895   4.442   0.118   7.293 -0.0253 -0.2621  2.9710
 8146SOL     OW35896   1.319   4.458   6.097 -0.4489 -0.2888 -0.2945
 8146SOL    HW135897   1.328   4.487   6.006 -1.1621  1.1622  0.1039
 8146SOL    HW235898   1.399   4.406   6.103 -1.3240 -1.5976  0.0612
 8147SOL     OW35899   0.024   2.797   3.245 -0.6412  0.7606  0.4731
 8147SOL    HW135900   4.717   2.847   3.168 -0.7181  0.4612  0.3028
 8147SOL    HW235901   0.035   2.861   3.314 -1.2270  0.2930  1.0003
 8148SOL     OW35902   0.907   0.274   3.196  0.7924  0.1456  0.2336
 8148SOL    HW135903   0.873   0.189   3.223 -2.4551  2.1457  2.3931
 8148SOL    HW235904   0.834   0.333   3.214 -0.4678 -1.7480  1.2778
 8149SOL     OW35905   1.701   3.906   7.934  0.1547 -0.0918  0.6915
 8149SOL    HW135906   1.749   3.824   7.934 -0.6327 -0.5758 -1.4073
 8149SOL    HW235907   1.721   3.936   8.022  0.5055  1.7863 -0.0207
 8150SOL     OW35908   1.719   3.146  10.730 -0.2913 -0.1486 -0.2374
 8150SOL    HW135909   1.801   3.125  10.775 -0.1515  0.9466  0.0031
 8150SOL    HW235910   1.730   3.240  10.716 -2.1949 -0.1030 -1.4577
 8151SOL     OW35911   1.296   4.666   2.727 -0.2717 -0.3803 -0.2753
 8151SOL    HW135912   1.328   4.628   2.644 -0.3121  2.1605 -1.4553
 8151SOL    HW235913   1.233   4.600   2.754  0.1919 -0.5454  0.4088
 8152SOL     OW35914   0.203   1.773   6.608 -0.2928  0.1172 -0.4105
 8152SOL    HW135915   0.238   1.698   6.655 -2.1826 -0.1268  0.6374
 8152SOL    HW235916   0.111   1.747   6.606 -0.0865 -0.4576 -2.5861
 8153SOL     OW35917   4.234   2.474   4.156  0.1733 -0.3419  0.5167
 8153SOL    HW135918   4.241   2.561   4.119  3.2977 -0.6028  0.4813
 8153SOL    HW235919   4.200   2.432   4.076  0.7542  0.0451  0.0762
 8154SOL     OW35920   1.264   0.668   2.199 -0.4362 -0.0673  0.3036
 8154SOL    HW135921   1.261   0.686   2.293 -0.8292  0.1545  0.2474
 8154SOL    HW235922   1.322   0.593   2.214  1.7303  1.6173  0.3864
 8155SOL     OW35923   3.495   0.045   7.540  0.6311 -0.4738  0.2866
 8155SOL    HW135924   3.450   4.682   7.540  0.1590 -0.2337 -1.0377
 8155SOL    HW235925   3.543   0.020   7.461  0.7303  1.8454 -0.4018
 8156SOL     OW35926   3.126   3.978   3.471  0.4922 -0.3089 -0.3709
 8156SOL    HW135927   3.106   3.998   3.562 -3.1810 -1.6602 -0.8786
 8156SOL    HW235928   3.219   3.999   3.459  0.2070  0.2782 -1.5481
 8157SOL     OW35929   0.275   4.506  14.279 -0.3247 -0.4244 -0.1038
 8157SOL    HW135930   0.369   4.509  14.294 -0.8102  0.2227  2.8595
 8157SOL    HW235931   0.269   4.441  14.209  1.9173 -1.6185  0.8298
 8158SOL     OW35932   3.156   0.405   9.901 -0.4960  0.3351 -0.3010
 8158SOL    HW135933   3.174   0.321   9.945  0.2335  0.2331 -0.7966
 8158SOL    HW235934   3.061   0.402   9.894 -0.2841 -2.4228 -1.7647
 8159SOL     OW35935   2.877   3.207   2.222 -0.1918  0.2421  0.4336
 8159SOL    HW135936   2.866   3.118   2.254  0.5604 -0.6557 -1.8531
 8159SOL    HW235937   2.947   3.233   2.283 -2.1159  0.7255  2.4587
 8160SOL     OW35938   0.744   0.396   9.405 -0.2721  0.1377 -0.1512
 8160SOL    HW135939   0.685   0.392   9.330 -0.2596 -1.9227 -0.0468
 8160SOL    HW235940   0.731   0.489   9.426 -1.2604 -0.0757  0.2048
 8161SOL     OW35941   0.676   3.524   5.486 -0.3053  0.3122 -0.0479
 8161SOL    HW135942   0.641   3.596   5.434  0.4119  0.9357  0.3286
 8161SOL    HW235943   0.641   3.444   5.447 -1.5499  0.5696  0.5337
 8162SOL     OW35944   3.859   3.241   2.836 -0.7567  0.2762 -0.1241
 8162SOL    HW135945   3.945   3.202   2.849 -1.7395 -1.4979  1.1082
 8162SOL    HW235946   3.805   3.167   2.808 -2.0765  0.4803  1.8290
 8163SOL     OW35947   0.685   2.889  13.422 -0.0121 -0.0664  0.0342
 8163SOL    HW135948   0.694   2.904  13.516  2.7783 -1.3721 -0.0138
 8163SOL    HW235949   0.769   2.848  13.401  1.5845  2.1923  1.9530
 8164SOL     OW35950   1.750   4.296   4.283 -0.0618 -0.4440 -0.3216
 8164SOL    HW135951   1.800   4.236   4.340  1.5424  0.8487 -0.3691
 8164SOL    HW235952   1.823   4.355   4.263  0.5809 -0.4596  1.9149
 8165SOL     OW35953   2.465   2.832   1.682  0.1516 -0.0437  0.4734
 8165SOL    HW135954   2.547   2.799   1.646  0.3871  0.3617  0.6361
 8165SOL    HW235955   2.415   2.763   1.726 -0.3999 -2.2828 -3.6877
 8166SOL     OW35956   0.911   3.132  11.393 -0.3456 -0.1319  0.0972
 8166SOL    HW135957   0.939   3.139  11.302 -1.2909 -0.3906 -0.2121
 8166SOL    HW235958   0.934   3.215  11.434  1.0999  0.4930 -2.0192
 8167SOL     OW35959   4.231   3.361   0.832  0.0892 -0.4500  0.2367
 8167SOL    HW135960   4.210   3.433   0.773 -0.7514 -0.8512  0.0600
 8167SOL    HW235961   4.202   3.393   0.917 -2.7207 -0.8217 -0.5799
 8168SOL     OW35962   1.232   3.000   4.128 -0.2550 -0.1958 -0.0235
 8168SOL    HW135963   1.296   2.985   4.198 -1.9854 -0.9082  1.3850
 8168SOL    HW235964   1.167   2.932   4.141  0.5276 -0.5874  1.8733
 8169SOL     OW35965   2.814   1.472   8.361  0.2793  0.1197  0.0578
 8169SOL    HW135966   2.893   1.521   8.384  0.1078  0.1460  0.6009
 8169SOL    HW235967   2.761   1.501   8.436  1.1103  1.5062  0.0951
 8170SOL     OW35968   2.459   1.930   2.763 -0.0465 -0.4625  0.5008
 8170SOL    HW135969   2.397   1.932   2.836 -1.2816  0.5227 -0.5530
 8170SOL    HW235970   2.420   1.960   2.681 -0.4376 -2.5440 -0.0684
 8171SOL     OW35971   4.052   3.159   3.944  0.4980 -0.4715  0.4454
 8171SOL    HW135972   3.970   3.210   3.943  0.2435 -0.8549  1.4683
 8171SOL    HW235973   4.096   3.191   3.866  0.2071 -0.5454  0.2514
 8172SOL     OW35974   1.041   0.458   8.727  0.4157 -0.0534 -0.3447
 8172SOL    HW135975   0.995   0.536   8.755 -0.0792  0.6130 -3.0000
 8172SOL    HW235976   0.961   0.407   8.712  1.9737 -1.9048 -2.4359
 8173SOL     OW35977   4.435   2.273   6.510  0.6554 -0.2869  0.0868
 8173SOL    HW135978   4.494   2.259   6.583 -1.6859 -0.0891  2.0229
 8173SOL    HW235979   4.360   2.229   6.551 -0.4288  0.3058 -1.2498
 8174SOL     OW35980   3.961   1.345  11.879  0.4910  0.4382 -0.0873
 8174SOL    HW135981   4.044   1.372  11.841  0.1962  1.0630 -0.2747
 8174SOL    HW235982   3.983   1.325  11.970 -0.5726 -0.4570 -0.0213
 8175SOL     OW35983   1.574   3.191   2.299  0.3563 -0.3826 -0.5499
 8175SOL    HW135984   1.614   3.228   2.220  0.2816  2.5087  0.7465
 8175SOL    HW235985   1.560   3.098   2.280  3.3376 -0.4976 -2.2659
 8176SOL     OW35986   0.597   0.073   6.447 -0.6650 -0.2753 -0.1500
 8176SOL    HW135987   0.559   0.120   6.522  0.6836  1.5807 -0.6265
 8176SOL    HW235988   0.614   4.707   6.481  0.9589 -0.6860 -2.0411
 8177SOL     OW35989   2.176   0.422   4.936  0.5447 -0.4385  0.0403
 8177SOL    HW135990   2.237   0.398   4.867  0.1221  1.7528 -1.0794
 8177SOL    HW235991   2.095   0.393   4.896  0.2993  1.3885 -0.7700
 8178SOL     OW35992   0.648   2.085   4.054  0.0465  0.5221 -0.0987
 8178SOL    HW135993   0.728   2.118   4.012 -0.1226 -0.9548 -1.6094
 8178SOL    HW235994   0.582   2.098   3.986  0.0633  1.5067  0.0704
 8179SOL     OW35995   3.916   4.029  10.253  0.0721 -0.2685  0.7962
 8179SOL    HW135996   3.915   4.013  10.348 -0.4050  0.4005  0.9014
 8179SOL    HW235997   3.967   4.109  10.246  0.5285 -0.3695  2.9190
 8180SOL     OW35998   1.989   4.578  10.141 -0.2231  0.1793 -0.4160
 8180SOL    HW135999   1.918   4.560  10.079 -1.5752  4.1798 -0.0194
 8180SOL    HW236000   2.041   4.498  10.135 -0.0819  0.3175 -0.9920
 8181SOL     OW36001   3.475   3.871  15.475  0.4245 -0.6640  0.1919
 8181SOL    HW136002   3.425   3.793  15.452 -2.7774  1.4110  0.1542
 8181SOL    HW236003   3.444   3.893  15.563  0.5122  1.0280 -0.2104
 8182SOL     OW36004   1.495   3.588   8.084  0.4874  0.3202  0.4052
 8182SOL    HW136005   1.560   3.560   8.020  0.1591  3.1865 -1.1627
 8182SOL    HW236006   1.449   3.659   8.039  0.4685  0.6729  0.9722
 8183SOL     OW36007   0.915   4.069   7.861  0.5329 -0.2115  0.3952
 8183SOL    HW136008   0.952   4.151   7.894  0.0475 -0.2527  1.0301
 8183SOL    HW236009   0.905   4.023   7.944 -0.8888  0.9276  0.8468
 8184SOL     OW36010   1.803   4.171   4.764  0.0821 -0.9538 -0.2312
 8184SOL    HW136011   1.839   4.084   4.749 -0.1896 -1.5383  2.4635
 8184SOL    HW236012   1.871   4.223   4.721  2.0295 -2.0595  1.5193
 8185SOL     OW36013   2.249   2.032   3.854  0.5963 -0.0320  0.6336
 8185SOL    HW136014   2.293   2.029   3.769 -1.2283  0.3489 -0.3261
 8185SOL    HW236015   2.259   1.938   3.869 -2.5259 -0.3781  0.4931
 8186SOL     OW36016   0.184   4.499   5.686 -0.2029  0.0082  0.4427
 8186SOL    HW136017   0.191   4.589   5.716  0.4399  0.1766 -0.2297
 8186SOL    HW236018   0.258   4.456   5.729  0.2300  1.1304  0.8227
 8187SOL     OW36019   2.071   0.560   3.422 -0.4923 -0.4922  0.4304
 8187SOL    HW136020   2.028   0.536   3.504  1.9057  0.1123  1.8681
 8187SOL    HW236021   2.065   0.473   3.382  1.8413 -0.4542 -0.0364
 8188SOL     OW36022   1.838   0.410  11.510  0.0012 -0.0313 -0.2381
 8188SOL    HW136023   1.811   0.344  11.445  1.0546 -1.0938  0.4133
 8188SOL    HW236024   1.917   0.442  11.466 -0.1609  3.1688  1.8034
 8189SOL     OW36025   0.789   0.703  15.618  0.3067  0.4110 -0.1583
 8189SOL    HW136026   0.722   0.696  15.549  0.1644  0.7962 -0.0557
 8189SOL    HW236027   0.851   0.753  15.566  0.9235 -0.2313 -0.0332
 8190SOL     OW36028   4.205   0.681   4.880  0.1536 -0.4215  0.2102
 8190SOL    HW136029   4.123   0.725   4.903 -0.3096 -0.2302 -1.7359
 8190SOL    HW236030   4.240   0.734   4.808  0.4505 -0.2264  0.5025
 8191SOL     OW36031   2.571   3.214  11.464  0.4080 -0.1276  0.1543
 8191SOL    HW136032   2.623   3.149  11.512 -0.7349 -0.0033  1.5657
 8191SOL    HW236033   2.640   3.272  11.434  4.4496 -4.0599  1.9387
 8192SOL     OW36034   0.616   4.340  10.372 -0.0409 -0.7566  0.1989
 8192SOL    HW136035   0.578   4.416  10.417 -0.3953  0.9028 -2.8875
 8192SOL    HW236036   0.705   4.374  10.372 -0.1217 -0.5431  0.2732
 8193SOL     OW36037   1.028   2.467  17.301 -0.2158 -0.1020 -0.0475
 8193SOL    HW136038   1.106   2.423  17.267 -0.7218 -2.0239  1.2360
 8193SOL    HW236039   1.040   2.461  17.396  1.3415 -0.6018 -0.2718
 8194SOL     OW36040   4.701   4.303   2.475 -0.3020  0.4332  0.2838
 8194SOL    HW136041   0.034   4.241   2.523  1.1802  0.3439 -1.5073
 8194SOL    HW236042   4.685   4.242   2.403  0.8000  1.8279 -1.1496
 8195SOL     OW36043   2.612   4.491   0.489  0.6348  0.4074 -0.1519
 8195SOL    HW136044   2.563   4.562   0.449  2.1711  2.3456  1.3578
 8195SOL    HW236045   2.558   4.468   0.564  0.0689  0.7296 -0.4670
 8196SOL     OW36046   0.610   4.604  11.044 -0.1886  0.1906 -0.4554
 8196SOL    HW136047   0.619   4.668  10.973  0.9628 -0.6423 -1.0507
 8196SOL    HW236048   0.637   4.522  11.003 -0.7642 -0.3484  0.2461
 8197SOL     OW36049   1.898   3.836   1.173  0.1851  0.0368 -0.0555
 8197SOL    HW136050   1.892   3.875   1.260 -0.6730  1.2381 -0.6569
 8197SOL    HW236051   1.981   3.873   1.143  0.4247  0.2465  0.8848
 8198SOL     OW36052   3.711   2.140   8.525  0.0887  0.0961 -0.8042
 8198SOL    HW136053   3.688   2.208   8.589 -0.5883 -0.8551 -0.0274
 8198SOL    HW236054   3.788   2.180   8.486  0.5964 -1.0691 -0.9897
 8199SOL     OW36055   4.582   3.294   4.530  0.0957 -0.1920 -0.2021
 8199SOL    HW136056   4.516   3.284   4.599 -0.8553 -1.1370 -1.2564
 8199SOL    HW236057   4.549   3.369   4.480  0.8850  0.2485 -0.0768
 8200SOL     OW36058   1.751   0.256  11.304 -0.3955  0.5707  0.2111
 8200SOL    HW136059   1.780   0.242  11.214  2.3933  2.7194  0.8103
 8200SOL    HW236060   1.665   0.296  11.291 -0.2312  1.1151  0.8200
 8201SOL     OW36061   4.197   4.123  10.043  0.5310 -0.4948  0.5132
 8201SOL    HW136062   4.262   4.123   9.973  1.2976 -0.6697  1.2140
 8201SOL    HW236063   4.145   4.048  10.014  0.5357 -0.0727 -0.5765
 8202SOL     OW36064   2.123   3.413   7.011 -0.1917  0.1440 -0.4447
 8202SOL    HW136065   2.192   3.452   6.957  1.4240 -2.5535 -0.3210
 8202SOL    HW236066   2.067   3.488   7.030  0.5756  1.1993 -2.3031
 8203SOL     OW36067   0.451   3.325  16.610 -0.8927 -0.4339  0.3365
 8203SOL    HW136068   0.406   3.385  16.669  1.3226  1.4167  0.1400
 8203SOL    HW236069   0.522   3.300  16.669  0.7707 -1.2284 -1.9788
 8204SOL     OW36070   0.911   2.034   8.076  0.2184 -0.2558 -0.1933
 8204SOL    HW136071   0.889   1.955   8.027 -0.4086 -1.5874  2.1985
 8204SOL    HW236072   0.967   2.007   8.149  0.9247 -0.4668 -0.8098
 8205SOL     OW36073   3.038   1.513   8.521  0.3961  0.4537 -0.2432
 8205SOL    HW136074   3.055   1.436   8.467 -0.1173 -1.3014  2.0917
 8205SOL    HW236075   3.115   1.568   8.517 -0.3650  1.6185  1.1042
 8206SOL     OW36076   3.714   1.164   7.052  0.2839 -0.2533 -0.1589
 8206SOL    HW136077   3.690   1.163   7.145 -0.8718 -2.1212 -0.4773
 8206SOL    HW236078   3.632   1.138   7.010  0.7478 -1.2342 -0.4537
 8207SOL     OW36079   1.341   2.771  15.531  0.3730 -0.4550 -0.0289
 8207SOL    HW136080   1.274   2.703  15.536  0.6246 -0.6342  0.8327
 8207SOL    HW236081   1.313   2.819  15.452  1.4231 -0.3377 -0.3349
 8208SOL     OW36082   1.668   3.414   7.185  0.4258  0.5199 -0.1701
 8208SOL    HW136083   1.646   3.335   7.136  0.6962  0.5125 -0.2797
 8208SOL    HW236084   1.759   3.423   7.155  0.8084 -0.5902  0.6292
 8209SOL     OW36085   4.445   3.067   5.256 -0.2102  0.3564  1.0360
 8209SOL    HW136086   4.441   2.989   5.201 -1.6839  0.9741  0.2705
 8209SOL    HW236087   4.372   3.119   5.223 -0.4613 -0.2603  0.6137
 8210SOL     OW36088   2.811   4.145   6.749  0.1614 -0.0243  0.8177
 8210SOL    HW136089   2.804   4.202   6.826  1.5488  1.0452  0.1540
 8210SOL    HW236090   2.787   4.206   6.679  0.0737 -1.1422 -0.1335
 8211SOL     OW36091   4.677   2.718   9.739  0.2642  0.8990  0.6489
 8211SOL    HW136092   0.022   2.679   9.681 -1.4967 -0.5029 -0.4390
 8211SOL    HW236093   4.711   2.671   9.816  0.4184 -0.0135  0.0348
 8212SOL     OW36094   1.948   0.861   7.325  0.2464 -0.2485  0.1490
 8212SOL    HW136095   1.957   0.924   7.397  1.1656 -1.1691  0.8349
 8212SOL    HW236096   2.041   0.838   7.322  0.2806 -0.3616  1.7930
 8213SOL     OW36097   2.508   0.732   3.195 -0.6048  0.2567 -0.2866
 8213SOL    HW136098   2.590   0.717   3.148  0.3878  1.0493  1.1857
 8213SOL    HW236099   2.504   0.645   3.236  3.4684  0.6704  0.9910
 8214SOL     OW36100   4.040   3.554  10.928 -0.4298 -0.3281 -0.1787
 8214SOL    HW136101   4.085   3.616  10.870  2.8910 -1.7088  0.9589
 8214SOL    HW236102   4.109   3.491  10.948 -1.2936 -1.3242 -0.3995
 8215SOL     OW36103   2.706   2.725   8.569  0.0454  0.2434 -0.0715
 8215SOL    HW136104   2.777   2.754   8.512 -0.8009  1.2841 -0.6251
 8215SOL    HW236105   2.669   2.799   8.618  0.8059 -0.1576  1.0881
 8216SOL     OW36106   3.298   3.396   3.363 -0.1654  0.4386  0.1179
 8216SOL    HW136107   3.216   3.435   3.331  0.2775  0.9060 -0.4471
 8216SOL    HW236108   3.361   3.446   3.310  2.0861  0.1326  2.5592
 8217SOL     OW36109   3.689   4.707  10.123 -0.2848 -0.6674  0.1718
 8217SOL    HW136110   3.740   0.043  10.180  0.7078 -0.8564 -0.5202
 8217SOL    HW236111   3.653   4.650  10.191 -0.3084 -2.3188 -1.2107
 8218SOL     OW36112   4.671   0.567   8.868  0.2867  0.0638  0.2430
 8218SOL    HW136113   4.678   0.655   8.830  2.1542 -0.2246 -0.0784
 8218SOL    HW236114   4.579   0.544   8.880  0.2795  0.3108  0.6579
 8219SOL     OW36115   1.154   1.449   5.882 -0.0099 -0.3932 -0.2770
 8219SOL    HW136116   1.160   1.413   5.793 -1.2686  0.5199 -0.7281
 8219SOL    HW236117   1.147   1.544   5.876  0.0129 -0.4132 -0.6388
 8220SOL     OW36118   1.413   0.913  16.234  0.1330 -0.1713  0.2466
 8220SOL    HW136119   1.336   0.897  16.288 -0.7439 -1.9599 -1.5474
 8220SOL    HW236120   1.396   0.863  16.155  1.3227 -0.0856 -0.0737
 8221SOL     OW36121   0.294   3.492   7.786 -0.2635  0.2350 -0.0422
 8221SOL    HW136122   0.278   3.398   7.776  0.2673  0.2776 -1.2710
 8221SOL    HW236123   0.227   3.528   7.728 -0.3225 -0.1951 -0.2382
 8222SOL     OW36124   0.468   1.770   4.295  0.1587 -0.1387  0.1720
 8222SOL    HW136125   0.482   1.821   4.216 -0.4194 -1.4883 -0.7987
 8222SOL    HW236126   0.527   1.694   4.295  0.6541  0.2525 -0.3505
 8223SOL     OW36127   3.977   0.986   0.495  0.1755  0.8391 -0.0587
 8223SOL    HW136128   3.941   1.039   0.424 -0.6260  1.5348  0.8635
 8223SOL    HW236129   4.022   0.913   0.453 -0.7388 -0.2175  0.8321
 8224SOL     OW36130   1.015   0.044   4.888 -0.2734 -0.0294 -0.2798
 8224SOL    HW136131   1.082   0.004   4.945 -1.4361 -0.1911  0.9890
 8224SOL    HW236132   1.066   0.112   4.844  1.5446 -0.2604  1.4413
 8225SOL     OW36133   1.932   2.968   1.275  0.0628 -0.2809 -0.3649
 8225SOL    HW136134   2.003   2.935   1.330 -0.4684  1.9429  1.6506
 8225SOL    HW236135   1.924   3.053   1.319 -0.7816 -0.1685 -0.7367
 8226SOL     OW36136   0.281   1.404   7.906  0.1493 -0.2221 -0.9644
 8226SOL    HW136137   0.186   1.406   7.910  0.2215 -1.0832  1.1539
 8226SOL    HW236138   0.302   1.429   7.997  3.1976 -0.6878 -1.5216
 8227SOL     OW36139   2.567   2.493   8.789 -0.1325  0.2055  0.4085
 8227SOL    HW136140   2.635   2.555   8.814 -2.2879  3.0613 -0.7367
 8227SOL    HW236141   2.593   2.424   8.851 -0.7385 -0.4089 -0.0113
 8228SOL     OW36142   1.215   3.616   5.857  0.6375  0.2454  0.3186
 8228SOL    HW136143   1.221   3.534   5.807  2.5315  0.7356 -0.2507
 8228SOL    HW236144   1.306   3.645   5.848 -0.0987  2.2535 -0.6228
 8229SOL     OW36145   2.432   1.970  14.974 -1.0373  0.1597 -1.0368
 8229SOL    HW136146   2.350   2.009  14.943 -0.1181  2.8815 -0.0701
 8229SOL    HW236147   2.499   1.993  14.909 -1.2976 -0.0041 -1.3575
 8230SOL     OW36148   2.168   2.819   8.049  0.0341  0.0009  0.1393
 8230SOL    HW136149   2.189   2.898   7.998  0.1285 -0.2459 -0.2085
 8230SOL    HW236150   2.086   2.789   8.009 -0.2627  0.1008  0.6806
 8231SOL     OW36151   3.632   0.485  12.132 -0.2543  0.3680 -0.6770
 8231SOL    HW136152   3.633   0.484  12.228 -0.9093  1.2472 -0.6627
 8231SOL    HW236153   3.580   0.406  12.113 -0.9852  0.9590 -1.1346
 8232SOL     OW36154   1.512   3.548   3.449 -0.1389  0.1027  0.5027
 8232SOL    HW136155   1.535   3.491   3.375  0.5784 -1.7081  2.1093
 8232SOL    HW236156   1.430   3.520   3.490 -0.2846  0.9272  0.7688
 8233SOL     OW36157   1.371   3.230  13.348 -0.6916 -0.0500  0.0869
 8233SOL    HW136158   1.403   3.305  13.297 -2.0469 -0.8288 -1.9138
 8233SOL    HW236159   1.457   3.194  13.372  0.0931  1.1352 -0.9553
 8234SOL     OW36160   2.222   2.227   9.130 -0.7248 -0.0413  0.1887
 8234SOL    HW136161   2.159   2.265   9.190 -0.2981  1.1007 -0.0916
 8234SOL    HW236162   2.234   2.298   9.067 -1.7823 -0.0505 -0.0111
 8235SOL     OW36163   3.075   3.856   9.413  0.3477 -0.1975 -0.3310
 8235SOL    HW136164   3.010   3.790   9.441  0.0406  0.0809 -0.3903
 8235SOL    HW236165   3.146   3.792   9.409  0.7760  0.4387 -2.3461
 8236SOL     OW36166   2.742   2.742   1.650  0.9549 -0.1187  0.9773
 8236SOL    HW136167   2.799   2.801   1.601 -0.2519 -0.5981 -0.9908
 8236SOL    HW236168   2.761   2.657   1.610  2.7347 -0.2244  2.0583
 8237SOL     OW36169   2.217   4.685   7.960  0.4716  0.0719  0.8767
 8237SOL    HW136170   2.152   0.020   7.919 -0.4842 -1.2995  0.4968
 8237SOL    HW236171   2.291   4.657   7.906  0.4514  0.6153  0.5724
 8238SOL     OW36172   3.778   3.709   7.584  0.7768  0.1526  0.4381
 8238SOL    HW136173   3.694   3.730   7.543  1.3050  0.7198 -0.3703
 8238SOL    HW236174   3.741   3.660   7.657 -0.5643  0.7020  0.1259
 8239SOL     OW36175   3.111   3.990   0.488 -0.1883  0.0738 -0.7253
 8239SOL    HW136176   3.022   4.024   0.479  0.2317  1.8290  1.7013
 8239SOL    HW236177   3.159   4.064   0.449  0.6670  0.2849  0.7429
 8240SOL     OW36178   2.703   1.272   8.566 -0.3750  0.5789  0.1815
 8240SOL    HW136179   2.772   1.286   8.502 -0.0205  0.0930  0.4557
 8240SOL    HW236180   2.664   1.187   8.545 -0.2333  0.0158  2.2581
 8241SOL     OW36181   2.631   2.766   1.003  0.4469 -0.4787 -0.2159
 8241SOL    HW136182   2.538   2.781   0.987  0.0425 -1.3477  1.3987
 8241SOL    HW236183   2.667   2.741   0.918 -0.2728 -0.1235 -0.6269
 8242SOL     OW36184   0.865   1.437  11.173 -0.2098 -0.4979 -0.0621
 8242SOL    HW136185   0.783   1.484  11.162 -0.8140 -1.4255  0.4669
 8242SOL    HW236186   0.846   1.356  11.221  1.6697 -0.1072  1.3400
 8243SOL     OW36187   3.579   3.998  16.790 -0.4515 -0.0251 -0.2782
 8243SOL    HW136188   3.570   4.091  16.769  0.9223 -0.5642 -3.1839
 8243SOL    HW236189   3.672   3.988  16.809 -0.0612 -0.1738 -2.2423
 8244SOL     OW36190   2.614   2.910  15.872 -0.5444 -0.1360  0.3338
 8244SOL    HW136191   2.529   2.919  15.915 -0.6972 -3.5507  0.7320
 8244SOL    HW236192   2.663   2.840  15.915 -0.2447 -0.1053  0.0458
 8245SOL     OW36193   4.117   0.896  12.758  0.2844 -0.2292  0.4428
 8245SOL    HW136194   4.030   0.869  12.785  0.2752 -1.7499 -1.0636
 8245SOL    HW236195   4.102   0.968  12.697  1.0679 -0.8835 -0.5357
 8246SOL     OW36196   2.700   2.574  14.033 -0.5301 -0.0385  0.4821
 8246SOL    HW136197   2.672   2.664  14.019 -1.0113 -0.2031  0.4117
 8246SOL    HW236198   2.621   2.520  14.044 -0.0476 -0.3111  2.6035
 8247SOL     OW36199   2.222   2.853   5.063 -0.0703 -0.2504  0.1562
 8247SOL    HW136200   2.199   2.790   5.130  0.1112 -1.0763 -0.5601
 8247SOL    HW236201   2.144   2.909   5.059 -1.1232 -1.5780  2.5332
 8248SOL     OW36202   2.361   4.710   8.287  0.2314  0.2221  0.1493
 8248SOL    HW136203   2.412   0.031   8.356  1.2488  5.1635 -3.6239
 8248SOL    HW236204   2.409   4.628   8.294  0.8447  0.4544 -1.3277
 8249SOL     OW36205   3.754   4.475   8.573 -0.5579  0.0581  0.6928
 8249SOL    HW136206   3.844   4.491   8.599 -2.1972  2.6180  4.8159
 8249SOL    HW236207   3.746   4.380   8.588 -2.4823 -0.3399 -2.8835
 8250SOL     OW36208   1.188   2.245  14.434  0.1987  0.0381  0.1555
 8250SOL    HW136209   1.232   2.253  14.519  0.1907  0.6029  0.1017
 8250SOL    HW236210   1.234   2.319  14.394 -0.0329 -0.2543 -0.6470
 8251SOL     OW36211   1.300   0.853  11.180  0.2257 -0.6582 -0.0154
 8251SOL    HW136212   1.260   0.774  11.216 -1.5968 -0.9726 -2.7286
 8251SOL    HW236213   1.235   0.920  11.199 -1.7776 -2.5143 -0.2566
 8252SOL     OW36214   3.947   3.219   1.364  0.4335  0.3285 -0.9644
 8252SOL    HW136215   3.956   3.138   1.413 -1.0122  1.3807  1.0656
 8252SOL    HW236216   4.028   3.264   1.389 -0.0976  0.2244  0.9619
 8253SOL     OW36217   4.661   2.445   2.618 -0.1991  0.2715 -0.4548
 8253SOL    HW136218   4.707   2.397   2.549  3.0402  0.9769  1.1695
 8253SOL    HW236219   4.658   2.532   2.577 -0.9732  1.0755  1.3101
 8254SOL     OW36220   2.659   0.942  17.313  0.3557 -0.3494  0.6023
 8254SOL    HW136221   2.596   0.932  17.241  3.1787  1.1375 -2.0541
 8254SOL    HW236222   2.600   0.989  17.373  0.4204  0.2616  0.1844
 8255SOL     OW36223   1.238   1.149  13.473 -0.1816 -0.4335 -0.8796
 8255SOL    HW136224   1.307   1.204  13.510 -1.2319  0.0880  0.2913
 8255SOL    HW236225   1.166   1.169  13.532  1.8986  1.5773  0.9663
 8256SOL     OW36226   4.008   1.358  15.597 -0.0753 -0.2735  0.6232
 8256SOL    HW136227   3.985   1.382  15.507 -2.6360 -0.8051  1.1345
 8256SOL    HW236228   4.101   1.379  15.589 -0.1524 -0.7045 -1.2329
 8257SOL     OW36229   3.688   2.307   5.470  0.3874 -0.0113  0.0489
 8257SOL    HW136230   3.649   2.237   5.417  1.0244  1.2854 -2.1045
 8257SOL    HW236231   3.765   2.322   5.416 -0.0234  0.1035 -0.5049
 8258SOL     OW36232   4.119   3.247   9.096 -0.0640 -0.2953 -0.4121
 8258SOL    HW136233   4.198   3.197   9.116  1.2878  1.4127 -1.5421
 8258SOL    HW236234   4.064   3.176   9.062 -0.6806 -0.2418  0.4867
 8259SOL     OW36235   2.861   4.297  10.721 -0.2787 -0.6452 -0.0132
 8259SOL    HW136236   2.826   4.210  10.742 -1.4002 -0.2063 -0.0162
 8259SOL    HW236237   2.799   4.356  10.765 -0.5587 -1.2941  0.4701
 8260SOL     OW36238   2.385   0.477  14.376 -0.0497  0.6189  0.2033
 8260SOL    HW136239   2.383   0.553  14.435  0.1112 -0.5929  1.7603
 8260SOL    HW236240   2.313   0.489  14.315  0.6892 -0.2065 -0.8347
 8261SOL     OW36241   0.419   4.140  10.317 -0.1148 -0.2023  0.5144
 8261SOL    HW136242   0.345   4.200  10.307  0.9866  1.5918  3.1848
 8261SOL    HW236243   0.484   4.203  10.350 -2.2275  2.4092 -0.3964
 8262SOL     OW36244   1.673   4.613   6.251  0.1024 -0.3186 -0.1295
 8262SOL    HW136245   1.754   4.585   6.294  0.9788  2.4104  0.0121
 8262SOL    HW236246   1.633   4.664   6.322  0.2915  0.6012 -0.6939
 8263SOL     OW36247   2.119   2.519   2.683  0.0793 -0.1864  0.5037
 8263SOL    HW136248   2.082   2.477   2.606  0.5963  1.5209 -0.6898
 8263SOL    HW236249   2.046   2.559   2.731 -1.4605 -2.1145 -0.2681
 8264SOL     OW36250   1.022   3.617   4.714 -0.2907 -0.5725 -0.0191
 8264SOL    HW136251   1.021   3.612   4.618  0.9960 -0.6952 -0.0293
 8264SOL    HW236252   1.032   3.709   4.739 -1.1696 -0.2754 -0.7646
 8265SOL     OW36253   0.623   2.836   3.961  0.4179  0.0580  0.0366
 8265SOL    HW136254   0.651   2.754   4.002 -1.0584 -0.2379  0.4351
 8265SOL    HW236255   0.531   2.833   3.988  0.9869  0.6436  2.0452
 8266SOL     OW36256   2.994   0.188   4.277  0.3964 -0.1287 -0.2072
 8266SOL    HW136257   3.031   0.163   4.362  0.9892 -0.0221 -0.4400
 8266SOL    HW236258   2.929   0.253   4.307  1.5054  0.1656  1.5922
 8267SOL     OW36259   4.204   2.392   8.708  0.2633  0.6119 -0.5850
 8267SOL    HW136260   4.227   2.473   8.663  0.6690  0.9492  0.2344
 8267SOL    HW236261   4.119   2.412   8.746  0.7195  1.2864  0.0891
 8268SOL     OW36262   2.539   2.190   6.807 -0.0581 -0.3687  0.3955
 8268SOL    HW136263   2.482   2.246   6.755 -0.3214 -0.9328  0.0775
 8268SOL    HW236264   2.501   2.104   6.787  0.8713 -0.4362 -1.0601
 8269SOL     OW36265   4.055   0.775   9.513 -0.0341  0.3216 -0.0447
 8269SOL    HW136266   3.994   0.773   9.587  2.8023 -1.8721  2.2259
 8269SOL    HW236267   4.093   0.688   9.518 -0.2902  0.2379  0.4786
 8270SOL     OW36268   3.335   2.037   4.808 -0.4790  0.3120 -0.0858
 8270SOL    HW136269   3.398   2.105   4.831  0.9516 -1.2360  0.6502
 8270SOL    HW236270   3.256   2.089   4.800 -2.0240 -1.9077  0.5875
 8271SOL     OW36271   1.749   3.813   0.348 -0.0993  0.4548 -0.0769
 8271SOL    HW136272   1.737   3.727   0.307  0.2236  1.0577 -1.4326
 8271SOL    HW236273   1.665   3.854   0.327 -0.7592 -1.1027 -0.5128
 8272SOL     OW36274   3.212   0.485   7.344  0.0764 -0.6548 -0.8124
 8272SOL    HW136275   3.292   0.505   7.296  0.0808 -0.2544 -0.6402
 8272SOL    HW236276   3.252   0.474   7.430 -1.2948 -0.8729 -0.1986
 8273SOL     OW36277   1.888   0.970   6.795  0.7597  0.3475 -0.1282
 8273SOL    HW136278   1.797   1.001   6.795  0.2803 -1.0473 -1.8593
 8273SOL    HW236279   1.933   1.048   6.763 -1.5306  1.7127 -0.0389
 8274SOL     OW36280   4.368   2.743   5.270 -0.7115  0.0021  0.4654
 8274SOL    HW136281   4.420   2.663   5.256  2.0301  1.4095  2.7142
 8274SOL    HW236282   4.414   2.798   5.207  0.6450 -0.1455  1.3260
 8275SOL     OW36283   0.410   2.687   8.799 -0.1477 -0.6783 -0.3337
 8275SOL    HW136284   0.459   2.615   8.759  0.4468 -0.7031  0.4377
 8275SOL    HW236285   0.427   2.673   8.892  1.4723  1.3998 -0.3136
 8276SOL     OW36286   1.321   0.407   2.280  0.4438  0.1882 -0.3584
 8276SOL    HW136287   1.366   0.422   2.363  1.1596 -0.5442 -0.6182
 8276SOL    HW236288   1.241   0.359   2.302  0.1108  0.3896 -1.1329
 8277SOL     OW36289   3.077   1.268   7.213 -0.0128 -0.7026 -0.1714
 8277SOL    HW136290   3.159   1.238   7.254 -0.3669  0.8077  1.6353
 8277SOL    HW236291   3.068   1.193   7.155  0.4209 -0.4632 -0.5491
 8278SOL     OW36292   0.470   0.659   0.581  0.0536  0.0435 -0.1797
 8278SOL    HW136293   0.415   0.666   0.659 -0.1549 -3.7878 -0.0090
 8278SOL    HW236294   0.525   0.589   0.614  0.8555 -0.5906 -2.8251
 8279SOL     OW36295   3.119   0.407   2.927  0.2103  0.0896 -0.7300
 8279SOL    HW136296   3.085   0.429   3.014 -0.7287 -0.4311 -0.9630
 8279SOL    HW236297   3.058   0.336   2.906  0.6801 -0.8823  1.2004
 8280SOL     OW36298   1.975   2.610   8.888  0.4431 -0.5167 -0.3507
 8280SOL    HW136299   2.062   2.623   8.925  0.3430  0.5682 -0.5045
 8280SOL    HW236300   1.974   2.527   8.839  0.2380 -1.7911  1.8325
 8281SOL     OW36301   2.432   4.208   4.394 -0.3517  0.1510 -0.0280
 8281SOL    HW136302   2.504   4.269   4.408 -0.7521  0.6039  0.0736
 8281SOL    HW236303   2.478   4.125   4.398  1.1160  0.8518 -2.0743
 8282SOL     OW36304   2.736   4.536   7.284 -0.3116  0.0855  0.2340
 8282SOL    HW136305   2.717   4.615   7.335 -2.4779 -0.9346  1.0038
 8282SOL    HW236306   2.795   4.578   7.222  0.7192 -1.4070  0.1827
 8283SOL     OW36307   3.065   3.668  11.583  0.1533 -0.2299 -0.8922
 8283SOL    HW136308   3.055   3.573  11.589  0.0267 -0.2793 -1.7863
 8283SOL    HW236309   3.008   3.709  11.648  0.2448 -1.3585 -0.1128
 8284SOL     OW36310   0.360   1.338  11.620  0.3929 -0.5183  0.2732
 8284SOL    HW136311   0.347   1.427  11.585 -1.2192 -0.8420  0.0343
 8284SOL    HW236312   0.347   1.285  11.542 -0.3584  1.2761 -0.8403
 8285SOL     OW36313   0.086   2.497   2.859 -0.0811  0.0619  0.3989
 8285SOL    HW136314   0.029   2.498   2.781 -0.2418  1.0518  0.5281
 8285SOL    HW236315   0.165   2.534   2.821 -0.0176  2.7117  3.1622
 8286SOL     OW36316   2.115   2.561   6.241 -0.0334  0.7761  0.3338
 8286SOL    HW136317   2.128   2.522   6.154 -0.5060  0.2880  0.4793
 8286SOL    HW236318   2.028   2.525   6.256  0.0240  1.0548  1.2926
 8287SOL     OW36319   0.393   2.303   1.698  0.0580  0.2012 -0.0770
 8287SOL    HW136320   0.404   2.221   1.650  1.0471  0.5903 -0.5141
 8287SOL    HW236321   0.468   2.303   1.758 -0.5858 -0.4515  0.7223
 8288SOL     OW36322   2.179   4.459   7.685  0.1642 -0.4122  0.4428
 8288SOL    HW136323   2.177   4.373   7.642  0.0834 -1.1020  1.8076
 8288SOL    HW236324   2.177   4.419   7.773  0.1328  0.0976  0.6709
 8289SOL     OW36325   2.370   3.070   8.916 -0.1316  0.8060  0.3413
 8289SOL    HW136326   2.288   3.097   8.957 -0.7600 -1.2005  0.4448
 8289SOL    HW236327   2.370   2.974   8.922  0.8231  0.8369  0.8273
 8290SOL     OW36328   0.077   1.247   5.188 -0.1547  0.3764  0.6317
 8290SOL    HW136329   0.021   1.289   5.253  0.5489  1.4203  0.5635
 8290SOL    HW236330   0.093   1.162   5.230 -0.6937 -0.2950 -0.5105
 8291SOL     OW36331   3.231   2.048   2.939  0.6048  0.4380 -0.3372
 8291SOL    HW136332   3.213   2.086   2.853  2.3831  0.4715 -0.7111
 8291SOL    HW236333   3.147   2.009   2.961  0.5932  1.6119  1.6521
 8292SOL     OW36334   1.700   0.985   4.538  0.3841  0.2574  0.2711
 8292SOL    HW136335   1.686   1.080   4.547 -1.9889  0.1441 -2.0216
 8292SOL    HW236336   1.772   0.994   4.475 -0.0148  0.6015 -0.1357
 8293SOL     OW36337   3.092   1.780   5.555 -0.4234 -0.2211  0.3790
 8293SOL    HW136338   3.077   1.849   5.491  2.6467 -0.9708 -1.1332
 8293SOL    HW236339   3.171   1.818   5.594 -1.1060 -0.0614  1.6022
 8294SOL     OW36340   1.209   4.298  16.927  0.0919  0.0490  0.0265
 8294SOL    HW136341   1.259   4.337  16.999  1.7673  1.7036 -2.0284
 8294SOL    HW236342   1.271   4.256  16.868 -0.5997  0.1633 -0.7838
 8295SOL     OW36343   1.735   2.617   4.304 -0.4353 -0.1450 -0.5078
 8295SOL    HW136344   1.738   2.612   4.399 -0.6720 -0.1206 -0.4999
 8295SOL    HW236345   1.750   2.711   4.293  1.6591  0.1131  4.5334
 8296SOL     OW36346   2.365   4.654  13.037  0.0392  0.2038  0.1971
 8296SOL    HW136347   2.303   4.719  13.070 -1.4476  0.1356 -2.4647
 8296SOL    HW236348   2.313   4.591  12.987 -0.8195  1.1747 -0.1383
 8297SOL     OW36349   3.119   1.567  13.370  0.1669  0.3753  0.7913
 8297SOL    HW136350   3.177   1.624  13.320 -1.9874  0.3334 -1.7685
 8297SOL    HW236351   3.170   1.487  13.379 -1.6369 -0.8443  0.1050
 8298SOL     OW36352   1.007   3.389  17.546  0.1573 -0.0800  0.0870
 8298SOL    HW136353   1.099   3.364  17.550 -0.1056 -1.2560 -1.3744
 8298SOL    HW236354   0.969   3.321  17.491 -3.6919  0.8293  1.5897
 8299SOL     OW36355   4.317   1.538   4.677  0.0320  0.0430  0.2825
 8299SOL    HW136356   4.381   1.468   4.684  0.3066  0.3609  1.0807
 8299SOL    HW236357   4.333   1.596   4.752 -0.8900 -0.5069  0.9065
 8300SOL     OW36358   1.851   1.382   2.518 -0.1647  0.1792 -0.2281
 8300SOL    HW136359   1.810   1.336   2.591  0.4829  0.3835  0.2601
 8300SOL    HW236360   1.896   1.451   2.567  1.3849 -0.0034 -1.4125
 8301SOL     OW36361   2.324   1.438  16.661 -0.7663  0.0508 -0.5049
 8301SOL    HW136362   2.302   1.356  16.705  1.8014  0.2908  1.2284
 8301SOL    HW236363   2.344   1.406  16.573  3.1347 -0.0947  0.4435
 8302SOL     OW36364   3.507   0.517   8.588 -0.1092  0.4303 -0.0978
 8302SOL    HW136365   3.551   0.463   8.523  1.9578 -2.0645  3.3276
 8302SOL    HW236366   3.522   0.467   8.669 -2.7974  0.4268  0.3799
 8303SOL     OW36367   2.012   4.212   6.785  0.3927 -0.2047 -0.9188
 8303SOL    HW136368   1.977   4.274   6.720  0.5959  0.0450 -0.7916
 8303SOL    HW236369   2.097   4.252   6.801 -0.5207  1.4281 -0.1458
 8304SOL     OW36370   2.046   3.404   2.810  0.0684 -0.2203  0.3012
 8304SOL    HW136371   2.118   3.464   2.795  1.7518 -2.4185 -0.3490
 8304SOL    HW236372   2.088   3.333   2.857 -0.1454  0.6115  1.7491
 8305SOL     OW36373   3.668   2.450   1.865  0.0760  0.3325  0.0622
 8305SOL    HW136374   3.680   2.533   1.819  2.1367  1.0748  1.9573
 8305SOL    HW236375   3.575   2.441   1.844 -0.1609  3.0165 -0.0147
 8306SOL     OW36376   0.649   4.218   0.018  0.0033  0.4454 -0.0551
 8306SOL    HW136377   0.669   4.311   0.032  0.3620  0.4004 -0.2664
 8306SOL    HW236378   0.572   4.199   0.071  1.2523  0.7717  1.9028
 8307SOL     OW36379   0.321   0.546   3.612  0.2385  0.2882  0.4399
 8307SOL    HW136380   0.232   0.525   3.642  0.8858 -0.4366  1.8231
 8307SOL    HW236381   0.328   0.639   3.634  1.6100  0.2063  0.3604
 8308SOL     OW36382   1.444   1.629   2.277 -0.3863 -0.0275 -0.7490
 8308SOL    HW136383   1.403   1.549   2.244 -0.2462 -1.2436  2.0670
 8308SOL    HW236384   1.515   1.593   2.329 -0.6454 -0.0859 -0.4350
 8309SOL     OW36385   2.259   4.294   6.858 -0.0670 -0.0178 -0.8968
 8309SOL    HW136386   2.309   4.375   6.858 -0.7435  0.4041 -1.6326
 8309SOL    HW236387   2.327   4.232   6.832 -0.3581  0.1231 -1.9785
 8310SOL     OW36388   3.208   1.800   8.318 -0.4465  0.3834  0.6184
 8310SOL    HW136389   3.222   1.726   8.378 -2.6969 -0.2232  0.3979
 8310SOL    HW236390   3.191   1.873   8.377 -0.8918  0.6377  0.1758
 8311SOL     OW36391   2.201   3.173   4.494  0.1433 -0.2974  0.0026
 8311SOL    HW136392   2.219   3.159   4.587 -1.6940 -0.5566  0.3007
 8311SOL    HW236393   2.150   3.092   4.489  0.2426 -0.4698  1.8408
 8312SOL     OW36394   4.385   0.589  17.539 -0.0259 -0.0248  0.8514
 8312SOL    HW136395   4.413   0.509  17.495 -1.2418 -1.2396  2.2854
 8312SOL    HW236396   4.301   0.564  17.578  0.1708  1.3875  2.1561
 8313SOL     OW36397   1.403   3.885   1.952 -0.2320 -0.1649  0.0665
 8313SOL    HW136398   1.481   3.839   1.982  0.2514  1.6250  1.5471
 8313SOL    HW236399   1.346   3.814   1.920  0.0999 -1.6391  2.7256
 8314SOL     OW36400   3.702   2.976   7.144 -0.1224  0.1449  0.4266
 8314SOL    HW136401   3.677   3.048   7.202 -0.7632  0.0404  0.2820
 8314SOL    HW236402   3.664   2.907   7.198  0.5673 -0.5963 -0.0374
 8315SOL     OW36403   4.157   3.822   8.785 -0.4989 -0.6931  0.6647
 8315SOL    HW136404   4.218   3.768   8.734  0.3443 -0.5186  1.4917
 8315SOL    HW236405   4.202   3.842   8.867  1.7727 -1.7206 -0.3372
 8316SOL     OW36406   3.186   3.918   2.307  0.0444  0.0726 -0.3357
 8316SOL    HW136407   3.237   3.923   2.387  0.5287 -0.2273 -0.6241
 8316SOL    HW236408   3.209   4.002   2.268  2.1850  0.4729  1.7781
 8317SOL     OW36409   0.784   0.818   0.844 -0.3353  0.1337 -1.1817
 8317SOL    HW136410   0.829   0.776   0.917 -0.9272  2.0229  0.2307
 8317SOL    HW236411   0.801   0.749   0.779 -1.4402  0.6221 -1.9874
 8318SOL     OW36412   0.422   1.080   5.232 -0.5974 -0.0307 -0.4848
 8318SOL    HW136413   0.445   1.151   5.292 -1.7161  1.6526 -2.0698
 8318SOL    HW236414   0.496   1.020   5.239  0.2986  1.3927  2.4384
 8319SOL     OW36415   3.171   2.594  12.347 -0.2612 -0.0226  0.4806
 8319SOL    HW136416   3.177   2.511  12.394  1.1164 -0.6638 -0.8446
 8319SOL    HW236417   3.246   2.638  12.388 -0.4121  1.7172 -1.1401
 8320SOL     OW36418   1.594   3.937   5.911  0.0013 -0.2029  0.2796
 8320SOL    HW136419   1.542   3.930   5.991 -0.7984 -0.1084 -0.2284
 8320SOL    HW236420   1.529   3.952   5.842  1.3139 -0.1619 -0.9360
 8321SOL     OW36421   0.546   2.870   5.120 -0.4226  0.4911  0.0077
 8321SOL    HW136422   0.587   2.908   5.197  0.6597  1.4771 -1.0503
 8321SOL    HW236423   0.623   2.831   5.079 -1.5783 -1.1297 -0.6506
 8322SOL     OW36424   4.463   0.203   0.907 -0.4175  0.2121  0.0719
 8322SOL    HW136425   4.530   0.261   0.943 -1.3580  1.1649  0.2799
 8322SOL    HW236426   4.378   0.232   0.941  0.1292  0.3406  1.3036
 8323SOL     OW36427   3.504   2.116   4.221 -0.4252  0.2885  0.4400
 8323SOL    HW136428   3.445   2.088   4.291 -0.3721 -1.0259 -0.0469
 8323SOL    HW236429   3.572   2.052   4.241  0.7068  1.6482  0.9809
 8324SOL     OW36430   2.711   0.440   7.001 -0.1235 -0.2590 -0.5506
 8324SOL    HW136431   2.746   0.446   6.912 -0.3812 -0.9812 -0.6959
 8324SOL    HW236432   2.618   0.425   6.983 -0.0054 -0.6535 -0.8207
 8325SOL     OW36433   4.558   2.102   5.972  0.0229 -0.1329 -0.0861
 8325SOL    HW136434   4.606   2.153   5.908 -1.6628 -3.6528 -4.1267
 8325SOL    HW236435   4.582   2.015   5.941  0.4269  0.1052 -0.4377
 8326SOL     OW36436   2.793   3.416   3.228 -0.0316  0.5474 -0.1204
 8326SOL    HW136437   2.722   3.480   3.220  0.8326  1.8925  3.0215
 8326SOL    HW236438   2.772   3.346   3.166 -0.5989 -1.2542  2.1087
 8327SOL     OW36439   2.593   2.246   7.965  0.3933 -0.1232 -0.2297
 8327SOL    HW136440   2.612   2.159   7.930  0.5273 -0.6151  1.0395
 8327SOL    HW236441   2.497   2.244   7.959  0.3103  0.6027  0.8532
 8328SOL     OW36442   2.096   1.417   2.928 -0.2652  0.5914  0.5433
 8328SOL    HW136443   2.101   1.466   3.011 -1.7808  0.9527  0.4190
 8328SOL    HW236444   2.007   1.381   2.932  0.2630 -0.6568  1.1492
 8329SOL     OW36445   1.812   0.147  14.897 -0.0839 -0.2040  0.4977
 8329SOL    HW136446   1.751   0.077  14.919 -0.0402 -0.2616  0.4385
 8329SOL    HW236447   1.761   0.186  14.827 -0.1936 -1.1132  0.0679
 8330SOL     OW36448   3.519   3.732   6.413 -0.2853 -0.2028  0.3875
 8330SOL    HW136449   3.547   3.815   6.451  0.4862  0.1725 -0.9617
 8330SOL    HW236450   3.524   3.670   6.485 -0.7091 -0.2003  0.4178
 8331SOL     OW36451   2.361   2.571   2.568 -0.0883 -0.1624 -0.0697
 8331SOL    HW136452   2.409   2.490   2.584 -1.3495 -0.9280 -0.0945
 8331SOL    HW236453   2.278   2.552   2.611 -1.8656  2.9272 -2.1201
 8332SOL     OW36454   1.880   0.455  16.500 -0.0873 -0.0940  0.6780
 8332SOL    HW136455   1.820   0.391  16.462 -0.5051  1.0946 -0.6493
 8332SOL    HW236456   1.939   0.381  16.515 -0.9364 -0.9487 -0.2010
 8333SOL     OW36457   2.149   2.426   4.170  0.3237  0.1494  0.1789
 8333SOL    HW136458   2.230   2.456   4.212  0.3968 -1.3762  1.1298
 8333SOL    HW236459   2.097   2.500   4.200  1.4697  0.0810  2.2751
 8334SOL     OW36460   4.440   3.400   8.341  0.1817 -0.3107 -0.0078
 8334SOL    HW136461   4.530   3.384   8.369 -0.3842 -2.3489  0.5776
 8334SOL    HW236462   4.444   3.463   8.268  0.9790  0.3070  0.5700
 8335SOL     OW36463   1.497   3.978   9.192 -0.2075  0.0492 -0.5727
 8335SOL    HW136464   1.540   3.921   9.257  0.6500  2.1807  0.7208
 8335SOL    HW236465   1.556   4.051   9.175 -0.5829  0.8827  1.6798
 8336SOL     OW36466   0.741   2.403   2.229  0.3751 -0.3916  0.3299
 8336SOL    HW136467   0.804   2.472   2.248 -0.6988  0.4639  0.8167
 8336SOL    HW236468   0.663   2.459   2.231  1.3942  0.9843  1.4388
 8337SOL     OW36469   4.313   4.201   6.054 -0.1145 -0.2611  0.3995
 8337SOL    HW136470   4.282   4.141   6.121 -0.0384 -0.7846 -0.0362
 8337SOL    HW236471   4.302   4.147   5.976  1.2379  0.6019 -0.3995
 8338SOL     OW36472   1.336   3.451   5.300 -0.7613 -0.3861  0.0429
 8338SOL    HW136473   1.338   3.385   5.369  0.7827 -1.0139 -0.6129
 8338SOL    HW236474   1.266   3.507   5.333 -0.8317  0.0641 -0.8766
 8339SOL     OW36475   1.054   1.157  13.665  0.1858  0.1160 -0.3235
 8339SOL    HW136476   1.028   1.246  13.689 -3.4946 -0.5221 -1.9674
 8339SOL    HW236477   0.966   1.123  13.653 -0.2366  1.8522 -2.1856
 8340SOL     OW36478   1.656   0.827  12.888 -0.5833  0.3399 -0.2074
 8340SOL    HW136479   1.677   0.887  12.960  1.0932 -0.2693 -0.2052
 8340SOL    HW236480   1.723   0.762  12.906 -1.3570 -0.1812  0.7674
 8341SOL     OW36481   1.649   1.648   4.249  0.5910  0.7075 -0.0965
 8341SOL    HW136482   1.613   1.725   4.292  1.6261 -0.1035  2.2129
 8341SOL    HW236483   1.608   1.665   4.164 -1.0394  0.4846  0.6546
 8342SOL     OW36484   0.405   4.586   3.856 -0.1760  0.0481 -0.2005
 8342SOL    HW136485   0.475   4.527   3.829  0.1618 -0.6149  2.1279
 8342SOL    HW236486   0.430   4.594   3.948  0.9864 -0.2860 -0.4959
 8343SOL     OW36487   3.118   1.004   1.954  0.4670  0.4182 -0.4957
 8343SOL    HW136488   3.049   0.983   1.891  0.8097 -0.4064 -0.5816
 8343SOL    HW236489   3.072   1.036   2.032 -0.3149  0.7911 -1.1110
 8344SOL     OW36490   0.113   2.462   4.560  0.8709  0.4922  0.1097
 8344SOL    HW136491   0.088   2.372   4.540  1.0579  0.7526 -1.2741
 8344SOL    HW236492   0.028   2.504   4.563  0.1749 -0.8792 -0.4674
 8345SOL     OW36493   0.069   1.472  16.564  0.3077  0.0051 -0.0679
 8345SOL    HW136494   4.712   1.424  16.536  0.1729  1.1110 -1.5455
 8345SOL    HW236495   0.067   1.546  16.505 -0.5528 -1.3104 -1.6863
 8346SOL     OW36496   1.118   2.212   2.539  0.2172 -0.7797  0.1309
 8346SOL    HW136497   1.107   2.118   2.526 -0.5893 -0.8033  0.9987
 8346SOL    HW236498   1.208   2.223   2.571  0.3237  0.1400 -0.4656
 8347SOL     OW36499   2.892   2.259   5.555  0.2831  0.1948  0.2433
 8347SOL    HW136500   2.927   2.244   5.643 -1.2646 -0.2120  0.7983
 8347SOL    HW236501   2.855   2.346   5.566  0.0829  0.0333  0.8430
 8348SOL     OW36502   0.848   2.454  13.957  0.1894  0.9540  0.2460
 8348SOL    HW136503   0.769   2.464  14.009  2.0193  2.4988  2.7780
 8348SOL    HW236504   0.901   2.435  14.035  1.8551 -0.1201 -1.1477
 8349SOL     OW36505   2.818   2.816   8.132 -0.1153  0.0951  0.0033
 8349SOL    HW136506   2.804   2.908   8.108 -0.5113 -0.2532 -1.1304
 8349SOL    HW236507   2.866   2.782   8.056  0.4906  3.5197 -1.1630
 8350SOL     OW36508   2.743   0.711   7.541  0.4486 -0.0527 -0.5712
 8350SOL    HW136509   2.719   0.688   7.452  1.0649  1.5001 -1.1441
 8350SOL    HW236510   2.711   0.802   7.543  2.2323  0.5924 -1.9699
 8351SOL     OW36511   3.161   2.421  11.662 -0.1412  0.1461  0.6493
 8351SOL    HW136512   3.162   2.439  11.567  3.0447 -0.3520  0.5985
 8351SOL    HW236513   3.095   2.485  11.688 -0.2626 -0.8513  2.7158
 8352SOL     OW36514   2.051   4.226  10.844  0.5737  0.1063  0.5104
 8352SOL    HW136515   1.966   4.219  10.888  0.4500 -1.8992 -0.0464
 8352SOL    HW236516   2.025   4.190  10.759  0.1179 -2.4033  1.6862
 8353SOL     OW36517   1.103   4.324   3.154 -0.5202 -0.0102 -0.2167
 8353SOL    HW136518   1.103   4.291   3.244 -1.3309 -1.4886 -0.7760
 8353SOL    HW236519   1.122   4.241   3.111  2.6063  0.7933 -0.4284
 8354SOL     OW36520   1.223   3.143   3.891 -0.1594  0.3372 -0.0509
 8354SOL    HW136521   1.144   3.122   3.843 -0.6572  0.4943  0.6957
 8354SOL    HW236522   1.225   3.074   3.958 -0.0919 -0.7699 -1.1993
 8355SOL     OW36523   2.351   2.443   0.054  0.3695 -0.7737  0.2093
 8355SOL    HW136524   2.329   2.502   0.126  2.6635  0.4938 -0.1275
 8355SOL    HW236525   2.386   2.494  17.670  0.1916 -0.0259  0.6462
 8356SOL     OW36526   3.024   0.347   2.498 -0.1065  0.0851  0.1391
 8356SOL    HW136527   2.944   0.340   2.549 -0.4307  0.0881 -0.3717
 8356SOL    HW236528   3.021   0.264   2.450 -0.0439  1.5271 -2.3705
 8357SOL     OW36529   3.128   4.431   4.875 -0.6016  0.2898  0.3374
 8357SOL    HW136530   3.129   4.458   4.967  1.7667 -0.5944  0.5845
 8357SOL    HW236531   3.213   4.459   4.841  0.0990 -2.5451 -0.2908
 8358SOL     OW36532   3.719   3.949   7.010  0.0974 -0.5449 -0.7778
 8358SOL    HW136533   3.667   3.873   6.985 -0.6390 -0.1970 -0.3260
 8358SOL    HW236534   3.665   3.981   7.083  1.1181 -1.6152  0.4426
 8359SOL     OW36535   3.402   0.134   8.422 -0.3197  0.4300  0.2550
 8359SOL    HW136536   3.354   0.208   8.459  2.0765  3.2194 -2.2486
 8359SOL    HW236537   3.410   0.171   8.334  0.9747  0.3345  0.3267
 8360SOL     OW36538   3.765   3.498   1.396  0.5168  0.0810 -0.5042
 8360SOL    HW136539   3.735   3.472   1.309  2.1810 -2.7403 -0.2403
 8360SOL    HW236540   3.859   3.496   1.382  0.6664  0.6712  0.4259
 8361SOL     OW36541   0.385   0.756   3.957 -0.6655  0.0865 -0.0340
 8361SOL    HW136542   0.414   0.674   3.917  2.0160  1.9497 -1.9909
 8361SOL    HW236543   0.330   0.734   4.032 -2.8846 -0.9629 -1.9723
 8362SOL     OW36544   2.852   4.705  12.804  0.2751 -0.4418  0.2574
 8362SOL    HW136545   2.774   4.690  12.857 -0.8614 -1.0540 -1.5735
 8362SOL    HW236546   2.907   0.038  12.859  0.9148 -0.5103 -0.3161
 8363SOL     OW36547   2.275   0.594   8.196 -0.1477  0.1275 -0.2777
 8363SOL    HW136548   2.265   0.500   8.182  0.1134 -0.2298  1.8829
 8363SOL    HW236549   2.229   0.636   8.123 -2.3243  1.4965  1.8660
 8364SOL     OW36550   3.337   0.607  13.952  0.0091  1.0723  0.1589
 8364SOL    HW136551   3.391   0.623  14.029 -0.0349  3.0267 -0.2165
 8364SOL    HW236552   3.365   0.517  13.935  0.0921  0.5680  2.9038
 8365SOL     OW36553   2.521   3.553   9.502  0.2870 -0.0147  0.9279
 8365SOL    HW136554   2.554   3.548   9.592  0.9663  2.1083  0.8100
 8365SOL    HW236555   2.426   3.549   9.512 -0.0667  0.8756 -2.2644
 8366SOL     OW36556   4.539   0.205  10.344  0.2740 -0.4810 -0.3119
 8366SOL    HW136557   4.556   0.270  10.412 -0.4602  0.5310 -1.0849
 8366SOL    HW236558   4.451   0.182  10.372  0.7761  1.3744  2.8702
 8367SOL     OW36559   3.228   2.266   7.316 -0.3247  0.2868  0.1644
 8367SOL    HW136560   3.314   2.273   7.357  0.5490 -0.9517 -1.4666
 8367SOL    HW236561   3.179   2.237   7.394  0.6461 -0.8277  0.3607
 8368SOL     OW36562   0.466   4.007   2.631 -0.1222  0.5817  0.7434
 8368SOL    HW136563   0.428   3.972   2.711 -0.3926  1.8686  1.1826
 8368SOL    HW236564   0.429   4.095   2.621  0.9870  0.8568 -1.0258
 8369SOL     OW36565   4.311   2.672   3.527  0.1067 -0.1269 -0.4019
 8369SOL    HW136566   4.235   2.716   3.488  0.0820 -0.9338 -1.2489
 8369SOL    HW236567   4.358   2.745   3.569 -1.9072  0.7530  0.3660
 8370SOL     OW36568   1.649   2.349   7.286  0.1055 -0.1194  0.2599
 8370SOL    HW136569   1.571   2.390   7.248 -0.2138  0.1682  1.2280
 8370SOL    HW236570   1.705   2.427   7.281 -0.2649  0.1810  0.7449
 8371SOL     OW36571   0.357   1.325   5.524  0.5483  0.2693 -0.5533
 8371SOL    HW136572   0.271   1.291   5.551  0.9941 -0.7195 -0.3789
 8371SOL    HW236573   0.411   1.320   5.602 -0.3595 -1.8908 -0.0474
 8372SOL     OW36574   0.394   0.049   1.322 -0.3554 -0.8300  0.0703
 8372SOL    HW136575   0.469   0.100   1.293 -1.1436  0.5801  0.5148
 8372SOL    HW236576   0.423   0.017   1.407  1.2743  0.9091  0.1826
 8373SOL     OW36577   3.857   4.206   6.118 -0.4677 -0.2701  0.2442
 8373SOL    HW136578   3.873   4.276   6.055 -3.8632 -0.8604 -1.2406
 8373SOL    HW236579   3.761   4.213   6.122 -0.4196  1.2521 -1.3175
 8374SOL     OW36580   2.282   0.875   6.948 -0.5242  0.2172 -0.3463
 8374SOL    HW136581   2.232   0.801   6.914  1.0922 -0.9581 -0.1465
 8374SOL    HW236582   2.214   0.942   6.939 -1.0476  0.1053  2.8006
 8375SOL     OW36583   1.089   4.118   4.270 -0.0598 -0.4177  0.3451
 8375SOL    HW136584   1.111   4.154   4.356 -0.7614 -0.7403  0.6529
 8375SOL    HW236585   1.173   4.077   4.247 -1.3921 -2.1606 -1.3366
 8376SOL     OW36586   3.199   3.459   3.614  0.1529  0.3246  0.3751
 8376SOL    HW136587   3.111   3.477   3.581 -0.5917 -3.4534  0.3305
 8376SOL    HW236588   3.230   3.422   3.532  0.3149 -2.0426  1.5143
 8377SOL     OW36589   2.272   0.844   5.490  0.2252  0.4218 -0.2757
 8377SOL    HW136590   2.232   0.910   5.433 -0.1014  1.0204  0.6613
 8377SOL    HW236591   2.322   0.896   5.553  1.9973 -1.3099 -0.2449
 8378SOL     OW36592   2.303   3.543   2.787  0.1001  0.2146 -0.4841
 8378SOL    HW136593   2.391   3.563   2.820 -0.6907  0.2531  1.6309
 8378SOL    HW236594   2.325   3.473   2.726  2.2538  0.0548  0.4610
 8379SOL     OW36595   1.518   2.825   6.502  0.0055 -0.0393 -0.0242
 8379SOL    HW136596   1.585   2.894   6.494 -1.2991  0.8620 -3.0357
 8379SOL    HW236597   1.437   2.871   6.479  1.1032  1.1368 -1.5974
 8380SOL     OW36598   4.033   2.452   2.759  0.0653  0.4894 -0.0715
 8380SOL    HW136599   4.107   2.403   2.722 -1.4264 -0.8294 -1.3453
 8380SOL    HW236600   4.006   2.507   2.685  0.2856 -2.0081 -2.0021
 8381SOL     OW36601   2.202   3.624   9.954 -0.5256 -0.4019 -0.7013
 8381SOL    HW136602   2.267   3.609   9.886  1.3627  0.3828  0.9108
 8381SOL    HW236603   2.182   3.712   9.923 -1.9365 -1.5418 -2.9759
 8382SOL     OW36604   3.164   1.332  12.746  0.1524 -0.8110 -0.4218
 8382SOL    HW136605   3.162   1.426  12.762 -1.2842 -0.8926 -0.1746
 8382SOL    HW236606   3.127   1.334  12.658  2.3756 -1.2075 -1.3824
 8383SOL     OW36607   0.880   0.874   6.102 -0.5780 -0.1456  0.4398
 8383SOL    HW136608   0.827   0.890   6.180  0.2014  2.2858  0.4605
 8383SOL    HW236609   0.871   0.957   6.056  3.9012 -1.1389 -2.2067
 8384SOL     OW36610   0.203   4.063  14.192  0.2625 -0.1176 -0.0345
 8384SOL    HW136611   0.167   4.047  14.279  0.4503 -1.0243 -0.1305
 8384SOL    HW236612   0.156   3.992  14.148  2.2318 -0.4006 -1.7157
 8385SOL     OW36613   0.056   1.723   8.160  0.6253 -0.1377  0.1497
 8385SOL    HW136614   0.006   1.789   8.112 -2.3676 -1.5614  1.3470
 8385SOL    HW236615   0.022   1.738   8.249 -1.1840  1.6895 -0.8511
 8386SOL     OW36616   4.001   2.827  12.185 -0.6255  0.0239  0.5649
 8386SOL    HW136617   4.048   2.744  12.178 -0.2406  0.2169  0.8966
 8386SOL    HW236618   3.923   2.804  12.134 -1.0181 -0.9910  1.6483
 8387SOL     OW36619   4.165   0.651  13.918 -0.1764  0.2577 -0.3744
 8387SOL    HW136620   4.202   0.566  13.893 -1.8204 -0.7196  0.5204
 8387SOL    HW236621   4.243   0.706  13.928  0.0256 -0.1297  0.2228
 8388SOL     OW36622   3.688   2.736  15.645  0.6971  0.5117  0.0619
 8388SOL    HW136623   3.754   2.805  15.637 -1.5904  2.7334  0.2368
 8388SOL    HW236624   3.694   2.725  15.740 -1.3033 -1.1460  0.0048
 8389SOL     OW36625   3.928   2.802   4.456 -0.6094 -0.8032  0.4389
 8389SOL    HW136626   3.903   2.837   4.370  2.1800 -1.6571 -0.7097
 8389SOL    HW236627   3.946   2.876   4.514 -0.5762  0.1995 -0.8411
 8390SOL     OW36628   2.828   3.061   8.498 -0.2303 -0.4369  0.3423
 8390SOL    HW136629   2.737   3.040   8.520  0.2065 -0.7805  1.8633
 8390SOL    HW236630   2.862   2.974   8.476  0.9080  0.7288 -2.4320
 8391SOL     OW36631   1.761   1.878   3.833 -0.1487 -0.3361  0.1371
 8391SOL    HW136632   1.698   1.929   3.882  0.1334  0.2369 -0.0917
 8391SOL    HW236633   1.843   1.911   3.869 -0.0402 -2.8921  2.1856
 8392SOL     OW36634   1.905   1.539   5.215  0.0398 -0.2964  0.0079
 8392SOL    HW136635   1.967   1.467   5.203 -1.7820 -1.9540  0.6580
 8392SOL    HW236636   1.963   1.613   5.197 -3.3131  1.7146 -2.5759
 8393SOL     OW36637   2.177   2.964  12.904  0.2283 -0.7933  0.7392
 8393SOL    HW136638   2.259   2.923  12.876 -1.4099 -2.2248 -1.9074
 8393SOL    HW236639   2.164   2.930  12.993 -0.3573 -0.6281  0.7158
 8394SOL     OW36640   1.655   4.640   9.639 -0.3506 -0.2029 -0.3935
 8394SOL    HW136641   1.686   0.009   9.642  1.1420 -0.7680  0.9672
 8394SOL    HW236642   1.644   4.617   9.731  1.2286 -0.1072 -0.1849
 8395SOL     OW36643   1.238   3.060   3.465  0.7937  0.3552  0.0619
 8395SOL    HW136644   1.218   3.010   3.544  1.2344 -1.9463 -1.2612
 8395SOL    HW236645   1.200   3.146   3.479  0.2812  0.3578 -1.3086
 8396SOL     OW36646   3.827   3.797   2.264  0.0427 -0.4169 -0.2644
 8396SOL    HW136647   3.769   3.754   2.328  1.3772 -1.0903  0.4992
 8396SOL    HW236648   3.832   3.885   2.301  1.4159 -0.4311 -0.4311
 8397SOL     OW36649   2.111   0.558   8.909 -0.0583  0.0269 -0.2797
 8397SOL    HW136650   2.026   0.538   8.871  0.6179  1.8751 -2.7411
 8397SOL    HW236651   2.170   0.541   8.836 -0.4267  0.4515 -0.6766
 8398SOL     OW36652   4.020   4.183   4.492  0.3004 -0.0635  0.4296
 8398SOL    HW136653   4.054   4.115   4.435 -0.5746 -1.5325  1.6696
 8398SOL    HW236654   3.996   4.133   4.570 -0.5639 -0.0679  0.1536
 8399SOL     OW36655   0.257   2.071   5.566 -0.4992 -0.3321  0.4676
 8399SOL    HW136656   0.341   2.028   5.582  0.4164  2.1593  2.4424
 8399SOL    HW236657   0.195   1.999   5.576  0.0558 -0.9749 -0.7852
 8400SOL     OW36658   1.142   3.206   7.167  0.0427  0.0748 -0.0490
 8400SOL    HW136659   1.117   3.114   7.177  0.5169 -0.1838 -1.2467
 8400SOL    HW236660   1.058   3.245   7.189 -0.4968  0.1572 -2.2454
 8401SOL     OW36661   2.007   4.125   7.473 -0.1342 -0.2710  0.3729
 8401SOL    HW136662   1.964   4.135   7.388 -0.2132  0.6648  0.5259
 8401SOL    HW236663   1.955   4.173   7.537  3.0792  1.3647  1.7291
 8402SOL     OW36664   3.853   1.492  15.187 -0.5234 -0.2393 -0.1625
 8402SOL    HW136665   3.922   1.479  15.123  0.3353  1.4116  0.4353
 8402SOL    HW236666   3.816   1.572  15.149 -0.6852  0.0520  0.5880
 8403SOL     OW36667   0.908   2.445  13.356  0.1965  0.8404  0.1733
 8403SOL    HW136668   0.880   2.451  13.265 -0.0625 -2.4811  0.0385
 8403SOL    HW236669   0.825   2.434  13.401  0.3526  0.9842  0.5010
 8404SOL     OW36670   4.460   3.325   5.356  0.1482 -0.2986  1.3106
 8404SOL    HW136671   4.434   3.238   5.388  2.0718 -1.3654 -0.0661
 8404SOL    HW236672   4.541   3.338   5.405  0.0247 -1.7677  1.9156
 8405SOL     OW36673   1.510   3.180   6.677 -0.1986  0.0948  0.2928
 8405SOL    HW136674   1.512   3.229   6.595 -1.1470 -0.1019  0.1507
 8405SOL    HW236675   1.576   3.235   6.719 -0.6139 -0.0270  1.0970
 8406SOL     OW36676   0.675   0.337   7.380 -0.2979  0.3566 -0.6777
 8406SOL    HW136677   0.681   0.408   7.316  0.2836  0.9977  0.0861
 8406SOL    HW236678   0.661   0.267   7.316 -0.2319 -1.0761  0.8833
 8407SOL     OW36679   0.806   0.505   5.623 -0.3992  1.1774  0.2697
 8407SOL    HW136680   0.722   0.534   5.585  0.3006  1.3309 -1.1737
 8407SOL    HW236681   0.809   0.553   5.705  0.1674 -0.0820  0.9788
 8408SOL     OW36682   4.431   4.404   5.057  0.2800  0.2064 -0.3106
 8408SOL    HW136683   4.400   4.401   4.966 -1.0756 -2.0671  0.2279
 8408SOL    HW236684   4.355   4.363   5.097  0.3487 -1.7679 -2.2287
 8409SOL     OW36685   4.704   3.200   2.284 -0.3605  0.7892 -0.4966
 8409SOL    HW136686   0.022   3.172   2.202 -0.9625 -1.8135  0.1114
 8409SOL    HW236687   4.721   3.119   2.332 -0.5730  1.0171 -0.0247
 8410SOL     OW36688   4.250   3.625   3.893  0.2743 -0.8772  0.5586
 8410SOL    HW136689   4.239   3.530   3.896 -0.2218 -0.8369 -0.0033
 8410SOL    HW236690   4.171   3.656   3.849  0.7699 -0.9285 -0.3689
 8411SOL     OW36691   3.052   1.545   0.919 -0.2671 -0.2631  0.3370
 8411SOL    HW136692   3.126   1.508   0.871 -1.1334 -1.1131 -0.3551
 8411SOL    HW236693   3.077   1.633   0.946  2.5758 -1.4581  1.5626
 8412SOL     OW36694   1.787   2.283   8.261 -0.2281 -0.5821 -0.0158
 8412SOL    HW136695   1.789   2.209   8.322 -0.9163  0.6624  1.5151
 8412SOL    HW236696   1.865   2.270   8.206  0.8531 -0.0698  1.3919
 8413SOL     OW36697   3.964   0.271   9.257  0.3283  0.8537 -0.2709
 8413SOL    HW136698   4.047   0.312   9.230  1.0477  0.8757  1.9450
 8413SOL    HW236699   3.996   0.236   9.341 -0.2344 -1.5614 -1.0834
 8414SOL     OW36700   1.584   1.006   5.742  0.1193  0.0008 -0.2842
 8414SOL    HW136701   1.660   1.060   5.718  0.9388  0.1858  2.7271
 8414SOL    HW236702   1.555   1.048   5.823 -1.7882 -3.0001  0.5965
 8415SOL     OW36703   4.141   1.880   2.427 -0.1454 -0.2656  0.5374
 8415SOL    HW136704   4.217   1.890   2.371 -0.8544 -0.4178 -0.4525
 8415SOL    HW236705   4.072   1.857   2.365  0.7512 -1.7160  0.0943
 8416SOL     OW36706   1.638   3.763   7.144 -0.0863  0.6046 -0.3723
 8416SOL    HW136707   1.600   3.700   7.205  0.7854  2.0382  1.6592
 8416SOL    HW236708   1.654   3.714   7.064  0.1407  0.7083 -0.3919
 8417SOL     OW36709   3.608   1.796   6.429  0.6295  0.2838 -0.3244
 8417SOL    HW136710   3.565   1.839   6.503  2.2048 -1.0285  1.3443
 8417SOL    HW236711   3.661   1.871   6.401 -0.4801  1.1059 -0.2171
 8418SOL     OW36712   1.026   1.214   7.317 -0.0062  0.1426  0.4297
 8418SOL    HW136713   1.108   1.175   7.348 -0.6774 -1.6647 -0.0381
 8418SOL    HW236714   1.049   1.211   7.224 -1.3114 -1.2647  0.1575
 8419SOL     OW36715   1.938   1.898   3.622  0.3056 -0.2769 -0.7000
 8419SOL    HW136716   1.965   1.807   3.611  0.3076 -0.4190  0.4455
 8419SOL    HW236717   1.854   1.881   3.665  0.6345  0.0747  0.0879
 8420SOL     OW36718   4.698   4.397   6.976 -0.0680 -0.0572  0.5180
 8420SOL    HW136719   4.692   4.363   7.066 -1.0516 -0.4469  0.3085
 8420SOL    HW236720   4.609   4.369   6.955  0.2367 -0.5358 -0.1014
 8421SOL     OW36721   3.617   0.647  13.546  0.0267 -0.3650  0.3967
 8421SOL    HW136722   3.577   0.712  13.487  0.7143 -1.2425 -1.0540
 8421SOL    HW236723   3.564   0.662  13.624 -2.3919  0.0410 -1.3220
 8422SOL     OW36724   1.688   3.319   5.421 -0.4673  0.4552 -0.2746
 8422SOL    HW136725   1.778   3.348   5.434 -0.4128  0.3448 -0.4052
 8422SOL    HW236726   1.678   3.269   5.502  2.5916  1.6047  0.8064
 8423SOL     OW36727   0.397   0.900   8.533  0.1983 -0.1135  0.0048
 8423SOL    HW136728   0.339   0.881   8.459 -0.7357  1.3081  0.3675
 8423SOL    HW236729   0.357   0.980   8.569  0.9642  0.4488 -0.3977
 8424SOL     OW36730   1.412   0.192   8.547  0.4871  0.5540  0.1438
 8424SOL    HW136731   1.469   0.242   8.606  1.2973 -0.7523  0.4724
 8424SOL    HW236732   1.480   0.134   8.512 -2.1392 -1.4444 -1.6694
 8425SOL     OW36733   4.167   0.798   6.141  0.8915 -0.1346 -1.2385
 8425SOL    HW136734   4.262   0.806   6.140  0.6526  2.7245  0.2951
 8425SOL    HW236735   4.144   0.835   6.056 -2.4880  0.5890 -0.0319
 8426SOL     OW36736   2.658   3.649   3.500  0.0782 -0.2376  0.3085
 8426SOL    HW136737   2.742   3.694   3.499 -0.3227  0.5212  0.9179
 8426SOL    HW236738   2.631   3.670   3.590 -0.0455 -0.5021  0.3362
 8427SOL     OW36739   3.213   3.567   9.104 -0.0050 -0.0529  0.3423
 8427SOL    HW136740   3.129   3.578   9.147 -0.2858  1.8645 -0.7114
 8427SOL    HW236741   3.178   3.555   9.016  1.8983  0.8003 -0.5304
 8428SOL     OW36742   3.712   0.323   5.140  0.0686 -0.2146 -0.1450
 8428SOL    HW136743   3.662   0.362   5.211 -1.0412 -0.0042 -1.0369
 8428SOL    HW236744   3.665   0.352   5.061  0.9096 -0.8871 -0.8945
 8429SOL     OW36745   2.409   0.241   4.095 -0.4470  0.1011 -0.1554
 8429SOL    HW136746   2.412   0.310   4.029  0.2077 -0.8928 -1.1824
 8429SOL    HW236747   2.420   0.166   4.037 -1.4144  0.4550 -0.7945
 8430SOL     OW36748   2.016   0.801   8.957 -0.2244  0.1390  0.0649
 8430SOL    HW136749   2.007   0.813   8.863 -0.7996  2.3498  0.4140
 8430SOL    HW236750   2.085   0.735   8.963  0.7945  0.9936 -2.1704
 8431SOL     OW36751   4.532   1.480   8.242  0.2993  0.6053 -0.4917
 8431SOL    HW136752   4.564   1.475   8.332 -0.0730 -1.2045 -0.4547
 8431SOL    HW236753   4.503   1.571   8.242 -1.2522  0.1124  0.2296
 8432SOL     OW36754   2.798   3.460   1.388  0.0388  0.0379  0.2024
 8432SOL    HW136755   2.827   3.550   1.403  1.3643 -0.4968  0.8124
 8432SOL    HW236756   2.749   3.454   1.471 -0.9095  0.8106 -0.3019
 8433SOL     OW36757   0.522   3.553   4.333  0.6264  0.0441  0.3635
 8433SOL    HW136758   0.615   3.575   4.335  0.2134  2.0236 -1.5850
 8433SOL    HW236759   0.483   3.630   4.374 -0.1367 -0.2003  0.1050
 8434SOL     OW36760   2.495   4.328  17.454  0.6410 -0.7799  0.1835
 8434SOL    HW136761   2.466   4.396  17.393 -0.3738  0.5188  2.0996
 8434SOL    HW236762   2.525   4.385  17.525  0.2668 -1.4952  0.9158
 8435SOL     OW36763   4.144   1.769  11.195 -0.3094 -0.6467 -0.0680
 8435SOL    HW136764   4.130   1.857  11.231 -0.2360 -0.7743  0.2723
 8435SOL    HW236765   4.240   1.764  11.193 -0.3630 -0.5363 -2.6459
 8436SOL     OW36766   1.444   4.296  14.693  0.4708  0.9066 -0.1876
 8436SOL    HW136767   1.517   4.234  14.702  0.3853  0.5829 -1.6217
 8436SOL    HW236768   1.369   4.261  14.741  0.0199  4.0960  1.4101
 8437SOL     OW36769   3.979   1.239  15.839  0.1000  0.0776  0.0618
 8437SOL    HW136770   3.966   1.280  15.754 -1.6023 -1.9043 -0.6539
 8437SOL    HW236771   4.069   1.214  15.820  0.0202 -1.1481  1.2697
 8438SOL     OW36772   3.147   0.764   4.655 -0.3614 -0.1257  0.0919
 8438SOL    HW136773   3.094   0.685   4.667  1.0181 -0.8472  1.5701
 8438SOL    HW236774   3.078   0.829   4.647  1.5876  1.9985  0.5166
 8439SOL     OW36775   1.023   0.424   0.844 -0.2442 -0.3701 -0.2566
 8439SOL    HW136776   1.071   0.377   0.776 -0.4876 -0.6947 -0.2037
 8439SOL    HW236777   0.978   0.488   0.788  0.3816 -0.5950 -1.0134
 8440SOL     OW36778   1.837   3.304   9.253  0.1004 -0.4095 -0.3558
 8440SOL    HW136779   1.911   3.343   9.300  0.2070  0.8381 -1.5632
 8440SOL    HW236780   1.774   3.377   9.250  1.0476  0.5934  3.3540
 8441SOL     OW36781   2.155   2.855  11.608  0.0944 -0.8231 -0.2437
 8441SOL    HW136782   2.192   2.769  11.627  2.1601  0.0742 -0.1621
 8441SOL    HW236783   2.070   2.856  11.651  0.1866  0.5722 -0.0742
 8442SOL     OW36784   3.313   2.548   1.704  0.3184  0.2811  0.2404
 8442SOL    HW136785   3.337   2.467   1.658 -0.9142  1.4139 -2.4072
 8442SOL    HW236786   3.399   2.587   1.717  0.6603 -0.5673  0.5111
 8443SOL     OW36787   0.812   0.517   6.970  0.1735 -0.0948  0.0357
 8443SOL    HW136788   0.820   0.610   6.992 -1.6787  0.6473 -2.3742
 8443SOL    HW236789   0.886   0.468   7.004  0.2691  0.0998  0.1061
 8444SOL     OW36790   2.232   4.702   4.892  0.8272 -0.5420  0.1292
 8444SOL    HW136791   2.278   0.046   4.945  2.2791 -0.7257 -0.8934
 8444SOL    HW236792   2.262   4.721   4.803  0.2570  2.2910  0.5466
 8445SOL     OW36793   1.979   0.132   2.270  0.4853 -0.4501 -0.0103
 8445SOL    HW136794   2.012   0.219   2.292 -0.5484 -0.3082  0.9967
 8445SOL    HW236795   1.886   0.151   2.258  0.6827  0.4785 -0.0615
 8446SOL     OW36796   0.150   4.381  16.366  0.0444  0.0812  0.2596
 8446SOL    HW136797   0.188   4.360  16.281  1.9691  0.9226  0.9105
 8446SOL    HW236798   0.185   4.470  16.373 -0.6233  0.5039 -1.7222
 8447SOL     OW36799   3.436   0.374   3.556  0.3303  0.4900 -0.3397
 8447SOL    HW136800   3.379   0.297   3.555  2.1260 -0.8397 -1.2391
 8447SOL    HW236801   3.489   0.357   3.634 -0.4454  0.1707  0.1166
 8448SOL     OW36802   3.840   3.841   8.733 -0.1594 -0.2104  0.1152
 8448SOL    HW136803   3.786   3.850   8.654 -1.2842 -0.8965  0.8004
 8448SOL    HW236804   3.790   3.896   8.793  0.1570  3.6094 -3.1300
 8449SOL     OW36805   2.540   1.093   2.912 -0.1068  0.7075  0.0932
 8449SOL    HW136806   2.592   1.128   2.984 -1.5683  2.8486  0.0997
 8449SOL    HW236807   2.471   1.159   2.900 -0.4361  0.1839 -0.8664
 8450SOL     OW36808   4.608   0.330   2.676  0.0908  0.3849  0.2331
 8450SOL    HW136809   4.676   0.288   2.623 -2.3399 -1.5479 -1.3205
 8450SOL    HW236810   4.605   0.412   2.627 -0.4564  1.0698  1.4042
 8451SOL     OW36811   1.970   1.660   3.023  0.0441 -0.6952 -0.4688
 8451SOL    HW136812   1.965   1.653   3.119 -0.4078 -1.6893 -0.5681
 8451SOL    HW236813   1.879   1.676   2.999 -1.1835 -2.7924  2.7166
 8452SOL     OW36814   4.583   3.315   2.651 -0.8571  0.6816 -0.4140
 8452SOL    HW136815   4.598   3.350   2.739 -0.6126  1.6056 -0.8222
 8452SOL    HW236816   4.649   3.245   2.656 -1.3643  0.3085  1.4175
 8453SOL     OW36817   2.964   3.475   6.290 -0.0442  0.2750 -0.4496
 8453SOL    HW136818   2.916   3.425   6.355  1.1798  0.3281  0.4879
 8453SOL    HW236819   2.899   3.544   6.275 -0.3003  0.0513 -0.3649
 8454SOL     OW36820   3.685   0.002   6.806  0.3850  0.1160  0.7657
 8454SOL    HW136821   3.605   0.052   6.822  0.6653  0.6384  0.5390
 8454SOL    HW236822   3.742   0.038   6.874  0.6450 -2.6460  2.0219
 8455SOL     OW36823   3.308   3.904   0.211  0.1122 -0.3635  0.7686
 8455SOL    HW136824   3.241   3.839   0.191  1.3175 -0.8531 -1.7386
 8455SOL    HW236825   3.272   3.983   0.171  0.7566 -0.1138  0.6902
 8456SOL     OW36826   3.405   3.446   4.047  0.1475  0.0460  0.0266
 8456SOL    HW136827   3.388   3.402   3.964  0.3371  2.0581 -1.0738
 8456SOL    HW236828   3.362   3.530   4.034 -0.0206 -0.4745 -2.7739
 8457SOL     OW36829   2.285   4.512   9.508 -0.2288  0.0187 -0.5863
 8457SOL    HW136830   2.231   4.590   9.520 -1.4354 -1.0562  0.9408
 8457SOL    HW236831   2.226   4.443   9.540  1.4555 -1.0873  0.1491
 8458SOL     OW36832   4.142   4.446   8.108 -0.4316  0.7705  0.0161
 8458SOL    HW136833   4.198   4.392   8.164 -1.4214 -0.3284 -0.0568
 8458SOL    HW236834   4.070   4.463   8.168  0.0230  0.1720  0.7287
 8459SOL     OW36835   1.649   3.129   7.106 -0.0805  0.2666 -0.1404
 8459SOL    HW136836   1.565   3.120   7.149 -0.7128 -0.8102 -1.5827
 8459SOL    HW236837   1.702   3.067   7.156  0.1135  1.8660  1.6304
 8460SOL     OW36838   0.082   0.002   5.214 -0.7337 -0.6041 -0.3729
 8460SOL    HW136839   0.111   4.660   5.279 -0.1100  0.8013  0.7320
 8460SOL    HW236840   4.709   4.714   5.226 -0.8646 -0.1395 -1.0078
 8461SOL     OW36841   2.748   4.001  13.089 -0.4232  0.6635 -0.4198
 8461SOL    HW136842   2.748   3.995  13.184  1.7808 -2.0070 -0.5845
 8461SOL    HW236843   2.744   3.908  13.068 -0.4922  0.5730 -0.0138
 8462SOL     OW36844   4.133   3.048   5.729 -0.1236  0.1111 -0.1140
 8462SOL    HW136845   4.136   3.090   5.815  0.1643  0.3553 -0.2430
 8462SOL    HW236846   4.095   3.116   5.674  1.0319  1.2041  0.4568
 8463SOL     OW36847   3.854   0.521  13.508  0.3027 -0.0030  0.4773
 8463SOL    HW136848   3.762   0.545  13.512  0.2565 -0.2731  1.0493
 8463SOL    HW236849   3.894   0.601  13.542  0.7515 -0.1331  0.2579
 8464SOL     OW36850   2.313   2.339   4.647 -0.9614  0.1518  0.0249
 8464SOL    HW136851   2.371   2.341   4.570 -2.1729  1.4045 -0.8573
 8464SOL    HW236852   2.382   2.356   4.711 -1.4639  1.3219  0.2586
 8465SOL     OW36853   3.803   4.059   2.299 -0.6208  0.5626 -0.4014
 8465SOL    HW136854   3.716   4.060   2.260 -1.3880  1.9050  1.3614
 8465SOL    HW236855   3.852   4.071   2.218 -1.9113  0.1485 -1.2344
 8466SOL     OW36856   1.184   2.835   3.651 -0.0905  0.1682  0.2470
 8466SOL    HW136857   1.145   2.759   3.694 -0.4583  0.0843 -0.2360
 8466SOL    HW236858   1.142   2.830   3.566 -2.5318  1.9161  1.3450
 8467SOL     OW36859   3.466   2.189  17.444  0.0128 -0.4942  0.0399
 8467SOL    HW136860   3.547   2.197  17.395 -0.8281  2.7061 -0.8260
 8467SOL    HW236861   3.426   2.109  17.410  2.3916 -1.2726 -0.8893
 8468SOL     OW36862   2.779   1.728  16.704  0.0884 -0.2258  0.1275
 8468SOL    HW136863   2.770   1.818  16.735  4.8710 -0.1109  1.1761
 8468SOL    HW236864   2.698   1.682  16.728  0.1576 -0.0287  0.7340
 8469SOL     OW36865   3.119   4.253  10.675 -0.3652 -0.7994  0.5831
 8469SOL    HW136866   3.166   4.333  10.697  0.4845 -1.3112  0.6286
 8469SOL    HW236867   3.029   4.279  10.697 -0.3716 -0.9323  0.7129
 8470SOL     OW36868   1.544   2.848   6.777  0.2082  0.1486 -0.0098
 8470SOL    HW136869   1.590   2.928   6.753 -1.2423  1.1752  0.6122
 8470SOL    HW236870   1.510   2.807   6.698 -0.6305 -0.1613  0.5146
 8471SOL     OW36871   4.433   3.103  17.460 -0.6702 -0.1843  0.0940
 8471SOL    HW136872   4.481   3.091  17.542  1.3854 -0.2542 -1.1152
 8471SOL    HW236873   4.419   3.010  17.443  1.9997 -0.3814 -1.0014
 8472SOL     OW36874   3.556   0.809  11.111 -0.1646 -0.1253  0.5443
 8472SOL    HW136875   3.566   0.886  11.055  0.1786 -1.1493 -0.7966
 8472SOL    HW236876   3.624   0.749  11.079  0.3172  0.2159  0.9121
 8473SOL     OW36877   2.776   0.726  14.100  0.0739  0.2969  0.0928
 8473SOL    HW136878   2.731   0.688  14.175  2.1654 -0.1304  1.1346
 8473SOL    HW236879   2.846   0.768  14.150 -0.0012 -2.0026  2.1376
 8474SOL     OW36880   3.925   1.474  13.859 -0.6876  0.3017 -0.5591
 8474SOL    HW136881   3.993   1.417  13.823  0.9677  2.3740 -0.6628
 8474SOL    HW236882   3.941   1.484  13.953 -1.4324  2.6485 -0.6747
 8475SOL     OW36883   1.854   4.470   9.493  0.1384  0.5182  0.3558
 8475SOL    HW136884   1.805   4.536   9.543  0.1379  0.0749  0.9515
 8475SOL    HW236885   1.800   4.462   9.415 -2.7773  0.3590  2.3806
 8476SOL     OW36886   4.578   1.615  15.761  0.2456  0.4036 -0.9842
 8476SOL    HW136887   4.507   1.679  15.757  0.2645  0.4109 -1.2533
 8476SOL    HW236888   4.544   1.544  15.815  0.9424  0.0514 -0.9965
 8477SOL     OW36889   2.604   3.989   7.533 -0.1438 -0.4743 -0.0868
 8477SOL    HW136890   2.557   4.070   7.513 -0.7820 -0.6039  0.8857
 8477SOL    HW236891   2.602   3.985   7.629 -1.0458  0.6512 -0.0612
 8478SOL     OW36892   1.182   3.531   9.559 -0.4699  0.1122 -0.2922
 8478SOL    HW136893   1.091   3.544   9.532 -0.4345  0.0975 -0.4181
 8478SOL    HW236894   1.195   3.458   9.619 -2.3366  1.1953  1.4143
 8479SOL     OW36895   3.681   4.311  15.094  0.2386  0.2480 -0.2721
 8479SOL    HW136896   3.635   4.274  15.169 -1.7576  0.6390 -1.2960
 8479SOL    HW236897   3.623   4.279  15.025 -0.8382  2.1102 -0.2334
 8480SOL     OW36898   3.452   0.012   4.238  0.2815 -0.0884 -0.1530
 8480SOL    HW136899   3.461   0.042   4.328 -0.5078  1.5016 -0.6034
 8480SOL    HW236900   3.358   0.028   4.229 -0.0482 -1.3917  1.1321
 8481SOL     OW36901   1.888   1.732  17.525  0.3432 -0.0828 -0.0451
 8481SOL    HW136902   1.844   1.647  17.534  0.7256 -0.2886 -0.0881
 8481SOL    HW236903   1.810   1.786  17.515  0.9811  0.7456 -0.5085
 8482SOL     OW36904   4.455   2.363  10.459 -0.3193 -0.0158 -0.2638
 8482SOL    HW136905   4.430   2.314  10.537 -0.1074 -0.5861 -0.5558
 8482SOL    HW236906   4.421   2.317  10.382 -0.5224 -0.2531 -0.0310
 8483SOL     OW36907   0.387   0.034  16.097 -0.0440  0.3875 -0.3057
 8483SOL    HW136908   0.308   0.011  16.049  0.2291  1.5246 -1.2979
 8483SOL    HW236909   0.404   0.128  16.088  1.3645  0.0749 -0.9256
 8484SOL     OW36910   4.644   1.594  14.582 -0.0259 -0.0824 -0.2323
 8484SOL    HW136911   4.596   1.569  14.661  0.6004  0.9072  0.4584
 8484SOL    HW236912   4.650   1.512  14.532  1.7663  0.5157 -1.0093
 8485SOL     OW36913   4.028   4.198  15.965 -0.0712  0.0634  0.0269
 8485SOL    HW136914   4.031   4.159  15.877  0.5906 -0.5807  0.3321
 8485SOL    HW236915   3.992   4.130  16.022  0.7739 -0.9748 -0.6741
 8486SOL     OW36916   2.502   4.177   1.381 -0.7253 -0.1025  0.1207
 8486SOL    HW136917   2.544   4.263   1.393  1.5250 -1.2504  0.3702
 8486SOL    HW236918   2.412   4.200   1.358 -0.3853  3.0681  1.9074
 8487SOL     OW36919   0.041   2.215   9.506  0.7596 -0.2685  0.5844
 8487SOL    HW136920   0.082   2.136   9.540  1.3835 -0.3629 -0.3669
 8487SOL    HW236921   4.674   2.184   9.488  0.2826  0.4145  1.7719
 8488SOL     OW36922   2.913   4.520   3.431  0.0768 -0.1102  0.6143
 8488SOL    HW136923   2.955   4.508   3.517  2.0505  1.1704 -0.1705
 8488SOL    HW236924   2.825   4.552   3.450 -0.9274 -3.1488  1.0181
 8489SOL     OW36925   1.677   3.760  15.317  0.5676  0.1090  0.3777
 8489SOL    HW136926   1.738   3.727  15.251  0.3625  2.0516 -0.7838
 8489SOL    HW236927   1.709   3.850  15.320 -1.5071  0.8665 -0.0136
 8490SOL     OW36928   0.574   1.576   0.229  0.2510 -0.3603 -0.1826
 8490SOL    HW136929   0.620   1.660   0.234  0.5163 -0.4181 -1.6659
 8490SOL    HW236930   0.535   1.584   0.142  1.8203  0.2605 -0.8283
 8491SOL     OW36931   1.958   1.898   9.884 -0.1100 -0.2550  0.0146
 8491SOL    HW136932   1.966   1.924   9.976 -2.3292 -0.9974  0.4243
 8491SOL    HW236933   2.044   1.883   9.845 -0.0058 -1.4179  0.6862
 8492SOL     OW36934   4.466   4.635   0.859 -0.6856  0.3162 -0.3421
 8492SOL    HW136935   4.427   4.548   0.867 -1.0625  0.6508  1.4103
 8492SOL    HW236936   4.406   4.681   0.918  0.2473  1.2188 -0.0948
 8493SOL     OW36937   3.915   3.659   0.947 -0.0495  0.0520 -0.2516
 8493SOL    HW136938   3.901   3.753   0.940 -0.2332  0.1695  1.6816
 8493SOL    HW236939   4.008   3.654   0.968  0.0840  2.3349 -0.3155
 8494SOL     OW36940   3.396   3.934  10.266  0.2711 -0.4589  0.4675
 8494SOL    HW136941   3.424   3.907  10.179  1.8095  2.3529  0.0673
 8494SOL    HW236942   3.422   3.863  10.325  2.1910 -1.7908 -2.0179
 8495SOL     OW36943   4.326   4.627   3.100 -0.0941 -0.3613 -0.2122
 8495SOL    HW136944   4.379   4.547   3.091 -0.6374 -0.8765  1.1624
 8495SOL    HW236945   4.243   4.592   3.134 -0.1009 -0.0505  0.0851
 8496SOL     OW36946   1.265   4.471  13.735 -0.0428  0.0802  0.6765
 8496SOL    HW136947   1.354   4.491  13.708  0.3796 -2.1099  0.4602
 8496SOL    HW236948   1.212   4.535  13.687  1.3594  1.4776  1.0103
 8497SOL     OW36949   0.450   1.400  13.652 -0.4622  0.1604 -0.2788
 8497SOL    HW136950   0.471   1.490  13.676  2.7050 -0.8531  0.7649
 8497SOL    HW236951   0.521   1.355  13.699 -0.0941  0.2517 -0.7430
 8498SOL     OW36952   3.453   3.827   5.494 -0.3442  0.6123 -0.0959
 8498SOL    HW136953   3.421   3.738   5.511  0.7897  0.3394  0.6206
 8498SOL    HW236954   3.427   3.860   5.580  0.4120 -0.7155  0.6327
 8499SOL     OW36955   3.051   1.250   8.042 -0.0946  0.0703 -0.0527
 8499SOL    HW136956   3.095   1.188   8.100  0.9845 -1.5568 -2.6091
 8499SOL    HW236957   3.054   1.201   7.959  0.7755  0.2676 -0.1355
 8500SOL     OW36958   3.886   2.956   6.576 -0.2790 -0.1235 -0.2190
 8500SOL    HW136959   3.861   2.878   6.627 -0.0129  0.1474  0.3308
 8500SOL    HW236960   3.977   2.941   6.551 -0.6582  2.2590 -2.9916
 8501SOL     OW36961   1.694   3.316   7.728  0.0244  0.5483 -0.0113
 8501SOL    HW136962   1.650   3.240   7.766  0.2115  0.2446 -0.4056
 8501SOL    HW236963   1.724   3.283   7.643  2.0715  1.3570  0.3980
 8502SOL     OW36964   1.426   2.558   4.002 -0.1176 -0.0753 -0.1351
 8502SOL    HW136965   1.453   2.643   3.967  0.9244 -0.3538 -0.0051
 8502SOL    HW236966   1.332   2.569   4.020 -0.1508  0.8919 -0.8980
 8503SOL     OW36967   1.329   2.625   8.367 -0.2246 -0.2508  0.3346
 8503SOL    HW136968   1.373   2.695   8.416 -0.3232  0.7298 -0.9710
 8503SOL    HW236969   1.366   2.547   8.409  0.5704 -0.3187 -0.5210
 8504SOL     OW36970   4.060   0.565  12.851 -0.0534  0.0337  0.4083
 8504SOL    HW136971   4.042   0.486  12.800 -0.0489 -1.2576  2.4053
 8504SOL    HW236972   4.050   0.518  12.934  1.8040 -3.3690 -1.2665
 8505SOL     OW36973   0.747   0.596   3.668 -0.3805  0.3774  0.0502
 8505SOL    HW136974   0.836   0.570   3.689 -1.2058 -1.6804  1.0032
 8505SOL    HW236975   0.722   0.655   3.740 -1.6439 -0.6090  0.4325
 8506SOL     OW36976   3.727   1.675  11.783  0.2191 -0.1689  0.5972
 8506SOL    HW136977   3.818   1.679  11.752 -0.5144  0.0923 -1.4787
 8506SOL    HW236978   3.714   1.580  11.793 -0.6885 -0.3674 -2.5121
 8507SOL     OW36979   2.926   0.170   5.903 -0.4402  0.6976 -0.2104
 8507SOL    HW136980   2.910   0.081   5.870 -3.2227  0.4636  1.7695
 8507SOL    HW236981   3.020   0.182   5.892 -0.7561  1.8407 -1.6152
 8508SOL     OW36982   1.619   4.615   3.886 -0.0009 -0.6833 -0.3987
 8508SOL    HW136983   1.564   4.690   3.908  0.4232 -0.8408  1.1615
 8508SOL    HW236984   1.589   4.543   3.942 -0.3310  0.4081  0.7992
 8509SOL     OW36985   3.132   3.708   0.172 -0.1064  0.3885 -0.2004
 8509SOL    HW136986   3.137   3.612   0.173 -0.1504  0.3860 -0.2186
 8509SOL    HW236987   3.084   3.716   0.090 -0.5356 -1.2343 -0.1126
 8510SOL     OW36988   0.893   3.217  12.499 -0.3163  0.0321 -0.1536
 8510SOL    HW136989   0.933   3.282  12.441 -0.7446 -2.6911 -3.5239
 8510SOL    HW236990   0.956   3.224  12.571  1.5525 -0.4525 -1.7324
 8511SOL     OW36991   1.343   1.603   8.696  0.1185 -0.2456 -0.2530
 8511SOL    HW136992   1.261   1.602   8.647  0.3270  2.4558 -0.6152
 8511SOL    HW236993   1.395   1.574   8.621  0.3506 -0.4087 -0.0303
 8512SOL     OW36994   4.047   4.385   4.850 -0.0528  0.3692 -0.6629
 8512SOL    HW136995   3.968   4.341   4.882  1.3943 -2.7050 -1.3339
 8512SOL    HW236996   4.012   4.405   4.763 -0.4747 -0.6692 -0.7257
 8513SOL     OW36997   3.024   3.970   9.957 -0.2673  0.3799 -0.4337
 8513SOL    HW136998   3.019   3.875   9.953  2.1812  0.2082  0.2585
 8513SOL    HW236999   2.967   3.991   9.884  0.5205 -2.6971 -1.9356
 8514SOL     OW37000   3.568   3.304   1.871 -0.1745  0.9795 -0.3293
 8514SOL    HW137001   3.644   3.355   1.899  0.0015 -0.7204  2.3108
 8514SOL    HW237002   3.576   3.306   1.775 -0.8282  3.3268 -0.3135
 8515SOL     OW37003   3.259   0.309   2.323 -0.0068  0.7179 -0.2880
 8515SOL    HW137004   3.246   0.355   2.406  0.8464  2.1356 -0.9362
 8515SOL    HW237005   3.225   0.220   2.332  0.0071  0.5102 -2.2618
 8516SOL     OW37006   0.077   4.597   6.201 -0.2213  0.2709 -0.6612
 8516SOL    HW137007   0.064   4.508   6.168 -0.8530 -0.5148  1.6872
 8516SOL    HW237008   4.718   4.626   6.243  0.9715  2.7010 -0.0849
 8517SOL     OW37009   3.094   2.630   2.747  0.0570  0.0031  0.6667
 8517SOL    HW137010   3.027   2.657   2.809 -0.9533 -0.3548 -0.2692
 8517SOL    HW237011   3.080   2.536   2.751  0.2525 -0.0629 -0.1295
 8518SOL     OW37012   2.616   0.840   8.235  0.2583 -0.1441 -0.3061
 8518SOL    HW137013   2.628   0.749   8.262 -0.2777 -0.3949 -0.9106
 8518SOL    HW237014   2.610   0.880   8.322 -0.7686  0.2036 -0.5321
 8519SOL     OW37015   0.668   4.567  15.714  0.0653  0.1235  0.1993
 8519SOL    HW137016   0.705   4.582  15.801 -0.9202 -1.8675  0.9711
 8519SOL    HW237017   0.615   4.647  15.716  0.3107  0.2705  0.9145
 8520SOL     OW37018   1.281   4.466   6.858  0.5196  0.5696 -0.5000
 8520SOL    HW137019   1.356   4.478   6.916 -2.1208  0.4521  3.0104
 8520SOL    HW237020   1.208   4.447   6.917 -0.6947  0.4216 -2.0388
 8521SOL     OW37021   0.238   0.276   6.721  0.1541 -0.4296 -0.0861
 8521SOL    HW137022   0.218   0.349   6.663 -0.0165 -1.0451 -0.8093
 8521SOL    HW237023   0.166   0.218   6.693  1.9399 -3.0762  0.7879
 8522SOL     OW37024   1.225   2.904   8.061  0.6648  0.3271  0.0121
 8522SOL    HW137025   1.321   2.899   8.056  0.6158 -1.3931  1.0116
 8522SOL    HW237026   1.193   2.983   8.018 -1.0181  0.0723  0.8336
 8523SOL     OW37027   0.800   2.881   2.966  0.5279  0.3620  0.3847
 8523SOL    HW137028   0.813   2.976   2.972 -0.7632  0.5498  0.1582
 8523SOL    HW237029   0.791   2.854   3.057 -0.4113  0.7146  0.3995
 8524SOL     OW37030   3.704   2.220   6.409  0.0408  0.3674  0.2960
 8524SOL    HW137031   3.779   2.265   6.368 -0.7205 -1.0627 -2.6223
 8524SOL    HW237032   3.709   2.131   6.375  2.2650 -0.2970  2.3417
 8525SOL     OW37033   0.989   2.594  14.860  0.1512 -0.2905 -0.2058
 8525SOL    HW137034   0.938   2.551  14.792  2.5786 -2.3451 -0.7620
 8525SOL    HW237035   1.075   2.595  14.817  0.3330  0.6573  0.1789
 8526SOL     OW37036   1.687   0.377   3.684  0.3389  0.0022 -0.5098
 8526SOL    HW137037   1.606   0.353   3.728  0.0392  2.5789  0.3667
 8526SOL    HW237038   1.690   0.473   3.687  3.0301 -0.0506 -0.7729
 8527SOL     OW37039   1.320   2.789   5.184 -0.5081 -0.3392  0.1240
 8527SOL    HW137040   1.399   2.748   5.148 -0.3390  0.4562 -0.3923
 8527SOL    HW237041   1.295   2.853   5.118 -0.1082 -2.4652 -2.1058
 8528SOL     OW37042   3.589   0.705   4.229  0.1936  0.5394 -0.1304
 8528SOL    HW137043   3.592   0.610   4.215  0.0572  0.5392 -0.1618
 8528SOL    HW237044   3.627   0.740   4.149 -0.1881 -1.1401 -1.0631
 8529SOL     OW37045   1.927   3.797   5.185 -0.4152 -0.4567  0.2911
 8529SOL    HW137046   1.893   3.868   5.240  0.8824  1.4523 -1.3583
 8529SOL    HW237047   1.951   3.734   5.253 -1.0358 -1.8687 -0.7919
 8530SOL     OW37048   2.737   4.226   5.208  0.3352 -0.1762 -0.1772
 8530SOL    HW137049   2.657   4.180   5.232 -0.6982  1.0218 -1.3558
 8530SOL    HW237050   2.793   4.148   5.209 -0.3625 -0.6599  1.4596
 8531SOL     OW37051   4.374   0.394   6.506 -0.2255 -0.1146 -0.2349
 8531SOL    HW137052   4.424   0.465   6.546 -2.4081  1.9461 -1.1651
 8531SOL    HW237053   4.311   0.369   6.574  0.4520 -1.4666 -0.1068
 8532SOL     OW37054   2.539   4.170   7.173  0.0294  0.3163 -0.4334
 8532SOL    HW137055   2.569   4.256   7.146  2.9434 -0.5330  0.0828
 8532SOL    HW237056   2.527   4.188   7.266 -0.0064  0.9390 -0.5573
 8533SOL     OW37057   4.625   4.060   7.797  0.6648  0.1335 -0.1060
 8533SOL    HW137058   4.692   4.002   7.833  0.4300  1.0903  1.8776
 8533SOL    HW237059   4.638   4.144   7.841  0.4884  1.1876 -2.0652
 8534SOL     OW37060   4.186   2.655   5.521 -0.1698 -0.2950 -0.6696
 8534SOL    HW137061   4.266   2.699   5.494 -1.0799  1.0471 -1.1623
 8534SOL    HW237062   4.198   2.569   5.480 -1.5157  0.3113 -2.3330
 8535SOL     OW37063   0.954   0.448   4.448 -0.1940  0.2702 -0.5980
 8535SOL    HW137064   1.012   0.503   4.499  0.3274 -0.5557 -0.2973
 8535SOL    HW237065   0.882   0.504   4.419  0.1721 -0.2372 -2.5382
 8536SOL     OW37066   0.055   0.214   3.100  0.4074 -0.1440  0.1492
 8536SOL    HW137067   0.006   0.239   3.022 -1.2992 -0.1395  1.2125
 8536SOL    HW237068   0.141   0.250   3.080  0.3942  0.2486  0.7828
 8537SOL     OW37069   2.473   2.847   7.758 -0.4700 -0.0541 -0.6379
 8537SOL    HW137070   2.478   2.876   7.849 -1.2748 -1.2467 -0.2188
 8537SOL    HW237071   2.548   2.788   7.757 -0.6757 -0.3315  0.4896
 8538SOL     OW37072   3.721   0.012  13.485 -0.1242 -0.5185 -0.1301
 8538SOL    HW137073   3.740   0.070  13.412 -1.4375  1.9163  1.4835
 8538SOL    HW237074   3.659   0.059  13.541 -0.4024  0.1525 -1.0145
 8539SOL     OW37075   0.159   1.195  11.157  0.4687  0.3938  0.2070
 8539SOL    HW137076   0.141   1.103  11.135 -0.1881  0.6099 -0.1549
 8539SOL    HW237077   0.198   1.235  11.080 -1.4657 -1.0175 -1.5075
 8540SOL     OW37078   0.255   4.559   2.403 -0.6481  0.4482 -0.1596
 8540SOL    HW137079   0.216   4.587   2.320 -1.8290 -0.9430 -0.0786
 8540SOL    HW237080   0.287   4.475   2.369 -0.9891 -0.2861  1.3415
 8541SOL     OW37081   2.126   3.434   6.283 -0.5729 -0.4340  0.4306
 8541SOL    HW137082   2.182   3.488   6.338  1.3822 -0.3570 -1.6398
 8541SOL    HW237083   2.129   3.345   6.320 -0.2920  0.0724  1.6143
 8542SOL     OW37084   3.601   2.340   2.638  0.6479  0.5998 -0.5237
 8542SOL    HW137085   3.570   2.291   2.715 -1.0060  0.8009 -1.0705
 8542SOL    HW237086   3.693   2.350   2.663  0.6019 -1.9263  0.6968
 8543SOL     OW37087   0.932   1.273   0.633 -0.3803 -0.1789 -0.1879
 8543SOL    HW137088   0.891   1.233   0.709  0.6101 -2.7627 -1.0289
 8543SOL    HW237089   1.022   1.257   0.661 -0.3978 -1.5998 -0.9648
 8544SOL     OW37090   2.501   0.956   7.681 -0.0904 -0.1567  0.2615
 8544SOL    HW137091   2.492   1.051   7.691  1.2359 -0.1537  1.4249
 8544SOL    HW237092   2.585   0.944   7.724  0.0333  1.5497  0.4932
 8545SOL     OW37093   3.288   0.245   4.995  0.1345  0.1865 -0.3402
 8545SOL    HW137094   3.299   0.339   4.982 -1.1089  0.5072  0.9983
 8545SOL    HW237095   3.193   0.232   4.997  0.4697 -2.5025 -2.1037
 8546SOL     OW37096   0.258   1.655   4.605  0.0322  0.1887 -0.0839
 8546SOL    HW137097   0.345   1.693   4.601 -0.1665  0.6310 -0.2352
 8546SOL    HW237098   0.204   1.720   4.650  0.1226  0.7488 -0.7819
 8547SOL     OW37099   4.092   1.348   6.910  0.2397  0.4082  0.0082
 8547SOL    HW137100   4.104   1.442   6.918 -0.2876  0.3253  1.8049
 8547SOL    HW237101   4.001   1.336   6.882  0.3716 -1.9081  0.5075
 8548SOL     OW37102   0.445   1.982   7.507 -0.6011  0.6398 -0.0710
 8548SOL    HW137103   0.375   2.018   7.561 -0.6237  1.5791 -0.7260
 8548SOL    HW237104   0.522   2.021   7.549 -0.2914  1.2232 -1.1705
 8549SOL     OW37105   4.041   3.587   6.895 -0.1563  0.8418  0.3096
 8549SOL    HW137106   4.071   3.568   6.983 -1.2681 -0.1110  0.4840
 8549SOL    HW237107   4.035   3.683   6.900 -1.6895  0.6904  1.5091
 8550SOL     OW37108   3.462   2.105   2.256  0.4535  0.0006  0.2492
 8550SOL    HW137109   3.502   2.190   2.235  0.4989 -0.0683  0.0593
 8550SOL    HW237110   3.467   2.107   2.352  1.5653  1.9674  0.1597
 8551SOL     OW37111   1.689   3.583  17.168 -0.2110 -0.1180 -0.1648
 8551SOL    HW137112   1.642   3.665  17.183  0.0424 -0.7130  3.8889
 8551SOL    HW237113   1.758   3.623  17.117  0.5071 -0.8142  0.2665
 8552SOL     OW37114   4.645   0.558  11.278  0.1933 -0.1479  0.1142
 8552SOL    HW137115   4.553   0.584  11.286  0.1809 -0.4419  0.9301
 8552SOL    HW237116   4.660   0.515  11.362  1.2785 -1.7784 -0.9118
 8553SOL     OW37117   1.864   4.552   3.365  0.4161 -0.0441 -0.4065
 8553SOL    HW137118   1.947   4.550   3.318  0.1749 -0.4249 -0.8218
 8553SOL    HW237119   1.813   4.495   3.307  0.3765  1.2980 -1.7029
 8554SOL     OW37120   0.064   4.639   6.479 -0.0995 -0.2677  0.1533
 8554SOL    HW137121   0.146   4.608   6.440 -0.1765  0.0013 -0.2221
 8554SOL    HW237122   0.008   4.566   6.454  0.2220 -0.7821  0.9337
 8555SOL     OW37123   1.917   4.467  16.670  0.2907  0.0948  0.1678
 8555SOL    HW137124   1.955   4.389  16.711 -0.4126  0.1498  0.9173
 8555SOL    HW237125   1.977   4.487  16.598  2.3987  3.3857  2.8053
 8556SOL     OW37126   1.515   2.822   1.458 -0.1374  0.3254 -0.0325
 8556SOL    HW137127   1.460   2.744   1.456  0.0523  0.0779  3.8062
 8556SOL    HW237128   1.448   2.882   1.425 -1.9046 -1.1915  0.7672
 8557SOL     OW37129   2.801   1.998   0.865  0.1767  0.6615  0.2580
 8557SOL    HW137130   2.725   1.962   0.819 -0.2800 -0.5422  1.9495
 8557SOL    HW237131   2.858   1.926   0.839 -0.2765  0.8380 -1.2102
 8558SOL     OW37132   4.239   0.434  15.976 -0.1882  0.3615  0.1798
 8558SOL    HW137133   4.151   0.398  15.985  0.3216 -1.0569 -0.3819
 8558SOL    HW237134   4.259   0.465  16.064  0.4924  0.0185  0.1486
 8559SOL     OW37135   3.755   0.178   8.809 -0.4285  0.5161  0.3338
 8559SOL    HW137136   3.706   0.248   8.766  0.3415  0.8785  0.0585
 8559SOL    HW237137   3.720   0.123   8.740  1.1857 -0.3945  0.2336
 8560SOL     OW37138   0.564   1.769   6.410  0.2547 -0.4587  0.0762
 8560SOL    HW137139   0.635   1.792   6.470 -0.0338  2.6399 -0.7633
 8560SOL    HW237140   0.569   1.673   6.404  2.5575 -0.3454  0.3535
 8561SOL     OW37141   2.829   3.453   4.426  0.1786 -0.1114 -0.3635
 8561SOL    HW137142   2.778   3.453   4.345 -0.8502 -3.8512  0.2819
 8561SOL    HW237143   2.756   3.436   4.486  0.2947  2.4251  0.5000
 8562SOL     OW37144   1.342   0.393   5.746  0.4225 -0.3880 -0.1494
 8562SOL    HW137145   1.378   0.461   5.691 -1.4291 -0.8577 -1.9417
 8562SOL    HW237146   1.423   0.373   5.792  0.8312 -0.7141 -1.0181
 8563SOL     OW37147   3.079   4.715   7.494  0.4344 -0.0770  0.3269
 8563SOL    HW137148   3.102   4.627   7.465 -0.8631  0.4826 -2.4317
 8563SOL    HW237149   3.031   4.696   7.574  0.4718 -1.9164 -0.0726
 8564SOL     OW37150   2.972   3.551  16.657  0.7851 -0.4112  0.0285
 8564SOL    HW137151   3.026   3.476  16.683  1.5210 -0.5705 -1.9797
 8564SOL    HW237152   2.937   3.505  16.580  0.7430 -0.2204 -0.0655
 8565SOL     OW37153   3.533   1.524  12.677 -0.2495 -0.3954  0.1304
 8565SOL    HW137154   3.491   1.446  12.640 -1.0126  0.1284 -0.0955
 8565SOL    HW237155   3.565   1.583  12.608 -2.0600 -1.2997 -1.4753
 8566SOL     OW37156   2.843   3.303   7.884  0.0118  0.4291 -0.5624
 8566SOL    HW137157   2.901   3.238   7.844  1.0410  1.7589 -1.2242
 8566SOL    HW237158   2.762   3.294   7.835 -0.1561  1.2815 -0.4422
 8567SOL     OW37159   0.795   1.290  13.755  0.3641 -0.3076 -0.5338
 8567SOL    HW137160   0.728   1.291  13.823  0.5752 -0.0013 -0.3298
 8567SOL    HW237161   0.857   1.364  13.761 -0.0979 -0.1619  2.0747
 8568SOL     OW37162   4.496   3.328   3.772  0.0850  0.6254  0.0998
 8568SOL    HW137163   4.539   3.255   3.727 -1.1956  0.2995 -0.5948
 8568SOL    HW237164   4.479   3.384   3.696  1.0467 -0.2813 -0.7953
 8569SOL     OW37165   2.813   4.097  16.980 -0.5597 -0.6322 -0.0625
 8569SOL    HW137166   2.804   4.185  16.945 -1.8207 -1.3433 -1.5702
 8569SOL    HW237167   2.882   4.065  16.922 -0.3041 -2.6175  1.3535
 8570SOL     OW37168   0.226   0.923   4.238 -0.4717  0.1882  0.2382
 8570SOL    HW137169   0.316   0.922   4.205 -0.4240  0.1310  0.3728
 8570SOL    HW237170   0.207   0.829   4.234 -1.0664  0.3540 -0.9034
 8571SOL     OW37171   1.707   3.006   0.656  0.0632  0.0736 -0.3110
 8571SOL    HW137172   1.620   3.003   0.697  0.1654  0.5068 -0.0572
 8571SOL    HW237173   1.742   2.930   0.703  0.0469  0.3666  0.1816
 8572SOL     OW37174   2.753   2.189   1.111 -0.5761 -0.5105  0.0064
 8572SOL    HW137175   2.808   2.150   1.044 -0.6055 -0.9914  0.2610
 8572SOL    HW237176   2.729   2.107   1.154 -1.0174 -0.0394  0.6738
 8573SOL     OW37177   1.996   2.691  14.208  0.0053 -0.3957  0.0255
 8573SOL    HW137178   2.068   2.665  14.150 -0.9607  0.2309 -1.4506
 8573SOL    HW237179   2.039   2.683  14.293  0.5078  1.0368 -0.0995
 8574SOL     OW37180   4.084   2.100  11.028 -0.4238 -0.2720 -0.1494
 8574SOL    HW137181   4.113   2.080  11.117 -1.8388  2.9760  1.0297
 8574SOL    HW237182   3.991   2.079  11.033 -0.3417 -0.4926  0.4150
 8575SOL     OW37183   1.446   2.720  15.213 -0.1892 -0.5250  0.3851
 8575SOL    HW137184   1.469   2.798  15.163  0.1008 -1.4683 -0.9554
 8575SOL    HW237185   1.368   2.739  15.266 -0.3801 -1.7094  0.5255
 8576SOL     OW37186   3.516   2.927  12.857 -0.3853 -0.2792  0.6269
 8576SOL    HW137187   3.603   2.950  12.825 -1.0072  0.2575 -0.6770
 8576SOL    HW237188   3.495   2.999  12.916  0.8184  2.5817 -2.4712
 8577SOL     OW37189   3.673   1.079   3.145  0.0076  0.8236  1.0589
 8577SOL    HW137190   3.665   1.159   3.198  0.1663  0.7211  1.2405
 8577SOL    HW237191   3.638   1.009   3.200  0.7451  0.8438  1.5685
 8578SOL     OW37192   3.699   1.842   3.740 -1.0474  0.7012 -0.4514
 8578SOL    HW137193   3.672   1.903   3.671 -2.5147 -1.7866 -2.0594
 8578SOL    HW237194   3.630   1.855   3.804 -0.9493  1.6353 -0.5263
 8579SOL     OW37195   3.798   4.497   7.704  0.1136 -0.2721 -0.3314
 8579SOL    HW137196   3.868   4.475   7.766  0.8147  1.2425 -0.5772
 8579SOL    HW237197   3.746   4.551   7.763  2.7607 -0.6705  2.3839
 8580SOL     OW37198   0.187   1.685   6.157 -0.8080 -0.4370 -0.5268
 8580SOL    HW137199   0.243   1.718   6.228  0.2793 -1.5289 -0.8689
 8580SOL    HW237200   0.102   1.724   6.173  0.0345  0.8259  0.8415
 8581SOL     OW37201   4.087   0.621   1.436 -0.0113  0.0368  0.0029
 8581SOL    HW137202   4.096   0.591   1.526 -0.1337 -0.2882 -0.0931
 8581SOL    HW237203   4.109   0.714   1.443 -0.5848  0.2405 -0.7757
 8582SOL     OW37204   1.091   3.581   6.335 -0.1339 -0.0319 -0.1896
 8582SOL    HW137205   1.000   3.608   6.350  0.4143  0.8551  1.5386
 8582SOL    HW237206   1.069   3.538   6.252  0.0005 -0.0009 -0.2404
 8583SOL     OW37207   2.404   4.221   2.661  0.2282 -0.3890  0.0852
 8583SOL    HW137208   2.382   4.129   2.649 -1.4038 -0.2039  1.5210
 8583SOL    HW237209   2.461   4.221   2.738  2.1052 -2.0480 -1.3144
 8584SOL     OW37210   0.011   1.740   8.422  0.3805 -0.2478  0.8674
 8584SOL    HW137211   4.642   1.754   8.451 -1.0668  0.3134 -3.9639
 8584SOL    HW237212   0.039   1.660   8.465  0.6423  0.1998  1.5267
 8585SOL     OW37213   1.552   3.097   7.789 -0.1682 -0.2259 -0.3652
 8585SOL    HW137214   1.458   3.110   7.805  0.2640 -1.1924  2.8174
 8585SOL    HW237215   1.571   3.012   7.829  0.2297  0.8283  1.6688
 8586SOL     OW37216   1.436   0.452   8.109  0.3497 -0.1186  0.4885
 8586SOL    HW137217   1.384   0.429   8.187  0.9809  2.7707  1.7886
 8586SOL    HW237218   1.432   0.370   8.061  1.0528 -1.1035  2.1132
 8587SOL     OW37219   2.648   3.974   2.676 -0.6740 -0.6716  0.6858
 8587SOL    HW137220   2.569   3.928   2.704 -0.9140 -1.5835 -1.4305
 8587SOL    HW237221   2.639   4.047   2.736  0.0335 -1.1244  1.3405
 8588SOL     OW37222   0.948   2.645  13.812 -0.4353 -0.1438 -0.6585
 8588SOL    HW137223   1.039   2.654  13.841 -0.4516 -0.7591 -0.4040
 8588SOL    HW237224   0.919   2.594  13.888 -0.3431  1.8833  0.7278
 8589SOL     OW37225   4.437   1.350   7.389  0.2212 -0.1183 -0.0590
 8589SOL    HW137226   4.364   1.404   7.360  0.7677  0.9540  0.5690
 8589SOL    HW237227   4.491   1.349   7.310  0.1623  0.2531 -0.1018
 8590SOL     OW37228   1.611   4.014   4.301  0.3057 -0.0929 -0.1304
 8590SOL    HW137229   1.694   3.979   4.333  0.8510 -0.2558 -1.7646
 8590SOL    HW237230   1.643   4.064   4.226  2.2058  1.6638  1.8535
 8591SOL     OW37231   0.210   1.461  15.993  0.2345  0.5273  0.2018
 8591SOL    HW137232   0.237   1.373  16.020 -1.6228 -0.6621 -1.7802
 8591SOL    HW237233   0.195   1.443  15.900  1.5545 -0.2716  0.1405
 8592SOL     OW37234   4.395   0.470   4.834  0.0423 -0.9237 -0.0093
 8592SOL    HW137235   4.473   0.523   4.822 -0.4328 -0.3232 -0.4601
 8592SOL    HW237236   4.325   0.521   4.875  0.5287  0.6526 -1.1252
 8593SOL     OW37237   3.077   2.676   4.567  0.0072 -0.5004 -0.2102
 8593SOL    HW137238   3.111   2.725   4.493  1.0206  0.4206  0.8857
 8593SOL    HW237239   2.996   2.721   4.591 -0.7707 -1.9893  0.0327
 8594SOL     OW37240   1.517   1.999   7.423 -0.4001 -0.0123  0.0691
 8594SOL    HW137241   1.468   1.975   7.344 -0.1947  1.6302 -0.5540
 8594SOL    HW237242   1.609   2.013   7.399 -1.0321  3.2929 -0.4616
 8595SOL     OW37243   1.314   2.129   2.222 -0.0696  0.0599  0.2985
 8595SOL    HW137244   1.340   2.045   2.260 -2.1874 -0.7740 -0.1375
 8595SOL    HW237245   1.341   2.189   2.292 -0.8453  0.2416  0.4400
 8596SOL     OW37246   2.014   3.561   0.935 -0.0576 -0.3988 -0.0503
 8596SOL    HW137247   1.997   3.528   1.023 -0.5708 -1.4518 -0.5512
 8596SOL    HW237248   2.038   3.478   0.894 -0.2983  0.0185 -1.0305
 8597SOL     OW37249   1.678   3.219   6.156 -0.0579  0.0813  0.0279
 8597SOL    HW137250   1.758   3.238   6.107 -0.2445 -0.0082 -0.3056
 8597SOL    HW237251   1.703   3.248   6.244  0.5548  0.1099 -0.1546
 8598SOL     OW37252   1.253   1.934  17.169  0.6073 -0.3255  0.3614
 8598SOL    HW137253   1.174   1.970  17.128  0.8358  0.8218  0.9417
 8598SOL    HW237254   1.221   1.932  17.260 -1.1556  0.8262 -0.2257
 8599SOL     OW37255   1.708   3.590   5.988  0.0340 -0.4612  0.0158
 8599SOL    HW137256   1.789   3.546   5.962  0.5490  0.1593  0.5716
 8599SOL    HW237257   1.727   3.607   6.080 -1.3793  3.4436 -0.4047
 8600SOL     OW37258   1.182   4.270   6.487 -0.2363 -0.1145 -0.1497
 8600SOL    HW137259   1.218   4.359   6.484  2.3831 -1.0948  1.8209
 8600SOL    HW237260   1.231   4.233   6.561  0.5056  2.7797  0.8295
 8601SOL     OW37261   4.389   0.383   3.763 -0.3962 -0.2236  0.1494
 8601SOL    HW137262   4.360   0.348   3.679  1.5284 -0.6744 -0.3403
 8601SOL    HW237263   4.479   0.349   3.763 -0.2771  0.0873 -1.2725
 8602SOL     OW37264   2.394   4.526   5.356 -0.0432 -0.2308 -0.0691
 8602SOL    HW137265   2.375   4.436   5.383  1.1720  0.0630  1.7692
 8602SOL    HW237266   2.382   4.575   5.438  1.5198 -0.9479  0.5973
 8603SOL     OW37267   0.250   1.892   2.999  0.3639  0.2120 -0.4284
 8603SOL    HW137268   0.281   1.982   3.007  1.0647  0.0328 -1.1009
 8603SOL    HW237269   0.231   1.873   3.091  0.0791  0.8514 -0.3560
 8604SOL     OW37270   4.480   1.518   6.731  0.3138 -0.4242 -0.7020
 8604SOL    HW137271   4.421   1.575   6.682  0.1997  0.0396 -0.0265
 8604SOL    HW237272   4.483   1.559   6.818 -0.3524 -0.9687 -0.4219
 8605SOL     OW37273   3.491   0.156   5.788 -0.6571 -0.2114  0.0425
 8605SOL    HW137274   3.502   0.076   5.737 -0.6490 -1.1279  1.4703
 8605SOL    HW237275   3.424   0.189   5.728 -0.1972  2.0396  0.7708
 8606SOL     OW37276   2.623   1.151   4.161 -0.1039 -0.2399  0.5803
 8606SOL    HW137277   2.662   1.078   4.209 -1.2159 -2.1698 -1.5058
 8606SOL    HW237278   2.630   1.115   4.073 -1.1705 -1.8593  1.1790
 8607SOL     OW37279   2.609   2.387  14.879 -0.1403  0.4674 -0.2080
 8607SOL    HW137280   2.661   2.467  14.888 -1.6169  1.8992 -4.5009
 8607SOL    HW237281   2.642   2.324  14.944 -1.1179 -0.5970 -0.7511
 8608SOL     OW37282   2.804   1.492   4.467  0.4404  0.2160  0.0646
 8608SOL    HW137283   2.729   1.476   4.524  0.2126 -1.5448 -0.7370
 8608SOL    HW237284   2.760   1.458   4.389  1.8181 -0.5871 -0.3619
 8609SOL     OW37285   1.133   3.773   1.271  0.5972 -0.3356  0.1625
 8609SOL    HW137286   1.136   3.812   1.358 -2.7557 -0.4694  0.3376
 8609SOL    HW237287   1.118   3.849   1.215  0.9368 -1.7761 -1.8648
 8610SOL     OW37288   3.033   3.727   4.104  0.2960 -0.0227  0.4574
 8610SOL    HW137289   3.018   3.643   4.061 -1.0193  2.0445 -3.1711
 8610SOL    HW237290   3.126   3.735   4.084  0.5583 -0.1221  1.6193
 8611SOL     OW37291   1.683   4.070  12.136 -0.1230  0.3442 -0.1710
 8611SOL    HW137292   1.682   3.992  12.081 -1.0809 -0.0536  0.4068
 8611SOL    HW237293   1.634   4.133  12.082  1.1822  0.3570 -1.3178
 8612SOL     OW37294   3.928   2.583   5.120  0.1746  0.2522  0.4978
 8612SOL    HW137295   3.882   2.661   5.151  1.7241  1.8147 -1.1579
 8612SOL    HW237296   4.004   2.623   5.079  1.8070 -0.6539  2.6719
 8613SOL     OW37297   3.876   1.930   6.445 -0.1870  0.2046 -0.3833
 8613SOL    HW137298   3.909   1.841   6.443  1.1960  0.6833  1.2206
 8613SOL    HW237299   3.874   1.947   6.539  0.2145  4.1786 -1.0636
 8614SOL     OW37300   3.381   0.642   2.992 -0.1224 -0.0201  0.6781
 8614SOL    HW137301   3.350   0.730   3.015  1.5298  0.6578  0.3699
 8614SOL    HW237302   3.318   0.603   2.932  1.1259 -1.0662  0.0379
 8615SOL     OW37303   1.501   3.153   4.415 -0.0513  0.1823 -0.2113
 8615SOL    HW137304   1.483   3.237   4.456  0.1699 -0.8598  2.0041
 8615SOL    HW237305   1.528   3.184   4.328 -1.8212  1.4818 -0.3003
 8616SOL     OW37306   3.063   2.560  15.640  0.3183  0.1006  0.5099
 8616SOL    HW137307   3.010   2.637  15.658 -0.2282  0.4705 -2.6335
 8616SOL    HW237308   3.087   2.576  15.549 -1.4519  0.3085  0.0744
 8617SOL     OW37309   1.482   1.732   3.993  0.0710  0.0331  0.0686
 8617SOL    HW137310   1.534   1.701   3.919  0.1134  2.1146 -0.7586
 8617SOL    HW237311   1.398   1.686   3.990 -0.2938  0.6417  1.0085
 8618SOL     OW37312   1.358   2.354   8.125 -0.4187  0.4721  0.0109
 8618SOL    HW137313   1.400   2.411   8.060 -0.9182  0.7776 -0.0483
 8618SOL    HW237314   1.330   2.297   8.053  1.7635 -1.3032  0.5589
 8619SOL     OW37315   0.916   4.708  13.602 -0.0939  0.7073 -0.2993
 8619SOL    HW137316   1.010   4.695  13.591  0.2903  1.9251  1.6022
 8619SOL    HW237317   0.886   0.016  13.516 -0.7541 -0.2811 -0.4076
 8620SOL     OW37318   2.880   3.793   4.954  0.4479 -0.3628  0.3976
 8620SOL    HW137319   2.789   3.818   4.938  0.1533 -3.1967 -2.1196
 8620SOL    HW237320   2.924   3.869   4.917 -1.2062 -0.6767 -2.1679
 8621SOL     OW37321   3.181   0.655   2.774 -0.4826  0.8676 -0.3671
 8621SOL    HW137322   3.133   0.599   2.836  0.0281 -1.3258 -1.9399
 8621SOL    HW237323   3.224   0.587   2.723  0.4875 -0.5142  2.2961
 8622SOL     OW37324   1.312   0.424   1.518  0.5755 -0.8410 -0.5496
 8622SOL    HW137325   1.361   0.493   1.563 -0.0470  0.4669 -1.8805
 8622SOL    HW237326   1.248   0.402   1.586  1.1949 -0.1093  0.2687
 8623SOL     OW37327   0.899   2.876   5.350  0.4836  0.5472 -0.4667
 8623SOL    HW137328   0.951   2.954   5.330 -0.4833  1.3487  0.1095
 8623SOL    HW237329   0.813   2.917   5.339  0.1206  0.5641  2.6589
 8624SOL     OW37330   3.566   1.125   0.728  0.2169  0.6768  0.4519
 8624SOL    HW137331   3.595   1.089   0.644  2.5716  0.2711  1.4479
 8624SOL    HW237332   3.648   1.110   0.776  1.0403  1.8567 -0.5824
 8625SOL     OW37333   0.412   1.244   8.520  0.6159 -0.0830  0.1141
 8625SOL    HW137334   0.459   1.273   8.598 -1.2619  0.5929  1.0074
 8625SOL    HW237335   0.483   1.204   8.470  1.0737 -0.7272  1.2973
 8626SOL     OW37336   3.650   0.384   2.965  0.5259  0.6000  0.2168
 8626SOL    HW137337   3.560   0.355   2.980  0.5331 -0.4073 -1.8167
 8626SOL    HW237338   3.656   0.428   2.880 -0.2344  0.0211 -0.1310
 8627SOL     OW37339   2.882   3.376   0.527  0.6212 -0.4645 -0.3122
 8627SOL    HW137340   2.843   3.330   0.452 -1.3493 -1.9232  1.6167
 8627SOL    HW237341   2.893   3.304   0.589 -0.8716  0.2283  0.7321
 8628SOL     OW37342   1.832   2.552   9.177  0.0999  0.1933  0.0905
 8628SOL    HW137343   1.886   2.625   9.208  2.2637 -1.4643  0.2273
 8628SOL    HW237344   1.848   2.553   9.082  0.2451  1.9855  0.1291
 8629SOL     OW37345   0.397   2.448   6.077 -0.0223  0.0840 -0.5474
 8629SOL    HW137346   0.325   2.507   6.056 -1.0527 -0.3849  1.7008
 8629SOL    HW237347   0.388   2.383   6.007 -0.9134 -0.5253  0.1359
 8630SOL     OW37348   0.746   1.138   5.236  0.1825 -0.1587 -0.2531
 8630SOL    HW137349   0.689   1.209   5.265 -0.4458 -1.0127  0.6166
 8630SOL    HW237350   0.757   1.153   5.142  0.9675  0.9726  0.0062
 8631SOL     OW37351   3.881   1.886  16.087 -0.0494  0.5128 -0.3340
 8631SOL    HW137352   3.914   1.869  16.175  0.6688 -0.6975 -0.8473
 8631SOL    HW237353   3.838   1.805  16.062  1.3548  0.1435 -1.5685
 8632SOL     OW37354   1.893   1.617   3.295  0.1580 -0.7407 -0.1669
 8632SOL    HW137355   1.978   1.623   3.338 -0.4656 -0.5763  1.0335
 8632SOL    HW237356   1.838   1.570   3.357 -1.3429  0.7852 -0.3545
 8633SOL     OW37357   2.507   1.478   3.941 -0.1756 -0.0828  0.4819
 8633SOL    HW137358   2.414   1.471   3.964 -0.3970  1.8605  0.2146
 8633SOL    HW237359   2.504   1.437   3.855  1.1176  1.7309 -0.4354
 8634SOL     OW37360   2.450   4.461  11.067 -0.0095 -0.2130 -0.8141
 8634SOL    HW137361   2.391   4.412  11.010  3.1380 -0.2425 -4.1080
 8634SOL    HW237362   2.383   4.491  11.128 -0.4194  0.5787 -1.6632
 8635SOL     OW37363   4.659   1.833   6.229 -0.0450 -0.0787  0.1237
 8635SOL    HW137364   4.668   1.920   6.267 -0.5450 -0.0090  0.0793
 8635SOL    HW237365   4.650   1.780   6.308 -0.3337  0.2263  0.2961
 8636SOL     OW37366   1.222   2.209   8.611  0.8510  0.1046 -0.1786
 8636SOL    HW137367   1.157   2.199   8.680  0.2583 -0.0884 -0.7680
 8636SOL    HW237368   1.168   2.254   8.547  0.1115 -0.3540  0.1271
 8637SOL     OW37369   2.657   4.226   9.641 -0.1183 -0.5774  0.3697
 8637SOL    HW137370   2.637   4.305   9.592 -3.3765 -1.4069  0.3859
 8637SOL    HW237371   2.598   4.167   9.594  2.6933 -1.9538 -1.4794
 8638SOL     OW37372   2.808   3.720   6.209 -0.4769  0.0706 -0.3484
 8638SOL    HW137373   2.832   3.782   6.277  2.4049 -0.7470 -0.5975
 8638SOL    HW237374   2.719   3.695   6.233 -0.8019  2.4727  0.9406
 8639SOL     OW37375   3.339   2.571   2.053 -0.1630  0.5009  0.0215
 8639SOL    HW137376   3.327   2.510   1.981 -1.5984 -0.2553  0.8819
 8639SOL    HW237377   3.395   2.641   2.022  0.3775 -0.4022 -1.0192
 8640SOL     OW37378   0.105   3.523   6.093  0.1643  0.6783 -0.1621
 8640SOL    HW137379   0.054   3.529   6.012  0.2961 -0.5351 -0.3462
 8640SOL    HW237380   0.032   3.530   6.155 -0.5540 -4.3629 -0.4034
 8641SOL     OW37381   1.206   4.671   1.916  0.0375 -0.2293 -0.2283
 8641SOL    HW137382   1.189   0.043   1.904  1.0403 -0.0299 -0.1438
 8641SOL    HW237383   1.147   4.652   1.989 -0.1443  0.6364 -0.1529
 8642SOL     OW37384   4.231   0.846   1.575 -0.5776 -0.3631  0.2338
 8642SOL    HW137385   4.205   0.834   1.666 -2.1423  0.5271 -0.1026
 8642SOL    HW237386   4.285   0.768   1.558 -0.4502 -0.1269 -0.4432
 8643SOL     OW37387   0.090   1.775   4.033 -0.2294  0.3155 -0.3926
 8643SOL    HW137388   0.020   1.764   3.968  1.4575  0.5218 -2.2509
 8643SOL    HW237389   0.088   1.694   4.084 -0.6483  1.3201  1.1543
 8644SOL     OW37390   2.013   2.973   8.877  0.1115 -0.3213 -0.0391
 8644SOL    HW137391   1.938   2.915   8.871 -1.5008  1.7330  0.1307
 8644SOL    HW237392   1.978   3.038   8.938  1.9602  0.2775  0.4082
 8645SOL     OW37393   2.262   2.431   8.921 -0.0974  0.0564  0.0390
 8645SOL    HW137394   2.285   2.518   8.952  0.7158  0.7526 -2.4668
 8645SOL    HW237395   2.306   2.420   8.836 -0.4218 -0.2874 -0.0873
 8646SOL     OW37396   0.806   2.586   4.672 -0.0839 -0.0376  0.3735
 8646SOL    HW137397   0.800   2.532   4.593 -0.7004 -0.1051  0.4628
 8646SOL    HW237398   0.791   2.673   4.635  0.9103  1.1783  2.8548
 8647SOL     OW37399   4.012   1.271   5.693 -0.0670 -0.2055  0.2509
 8647SOL    HW137400   3.958   1.215   5.639 -0.4052 -1.8916  2.3162
 8647SOL    HW237401   4.037   1.340   5.632 -1.6217 -0.7159 -0.9473
 8648SOL     OW37402   2.708   0.138   6.729 -0.1885  0.7280  0.0168
 8648SOL    HW137403   2.621   0.124   6.765  0.5295 -1.1446  1.0035
 8648SOL    HW237404   2.770   0.096   6.788  1.0548  0.2289 -1.6538
 8649SOL     OW37405   1.478   1.233  14.717 -0.3133  0.2870  0.1792
 8649SOL    HW137406   1.495   1.324  14.740  1.0461  0.4871 -1.6694
 8649SOL    HW237407   1.541   1.180  14.767  0.9845  0.7709 -0.9411
 8650SOL     OW37408   4.623   3.066   3.178 -0.0048  0.1987 -0.1917
 8650SOL    HW137409   4.690   3.121   3.218 -1.7453  1.3301  1.1595
 8650SOL    HW237410   4.596   3.125   3.108  1.1542  0.1515 -0.6772
 8651SOL     OW37411   2.746   3.731   1.465  0.4892  0.4268  1.0407
 8651SOL    HW137412   2.693   3.745   1.543  0.5795  1.2099  0.9567
 8651SOL    HW237413   2.732   3.811   1.413 -0.5241 -0.4260 -0.0062
 8652SOL     OW37414   4.485   1.280  15.668 -0.3413  0.3998  0.1555
 8652SOL    HW137415   4.484   1.249  15.578  2.8195  0.0597  0.2247
 8652SOL    HW237416   4.580   1.294  15.675 -0.0691 -1.3594 -0.1648
 8653SOL     OW37417   0.252   1.740   3.790  0.4457 -0.0918 -0.2813
 8653SOL    HW137418   0.204   1.739   3.873  0.8499 -1.8556 -0.0760
 8653SOL    HW237419   0.248   1.650   3.760  0.2997  0.1923 -1.1145
 8654SOL     OW37420   1.848   2.895  11.664 -0.6553  0.1454 -0.2717
 8654SOL    HW137421   1.835   2.881  11.757  0.6123 -4.1523 -0.7236
 8654SOL    HW237422   1.820   2.808  11.633  1.7849 -0.9097  0.4521
 8655SOL     OW37423   4.657   2.988  12.373  0.1247 -0.6917  0.0970
 8655SOL    HW137424   4.709   2.980  12.454  1.2040  0.2146 -0.5030
 8655SOL    HW237425   4.658   3.084  12.381  0.3060 -0.5812 -1.3984
 8656SOL     OW37426   2.061   0.493   9.858 -0.8518  0.3282  0.3288
 8656SOL    HW137427   2.100   0.465   9.775 -2.1125  0.7844 -0.4268
 8656SOL    HW237428   2.134   0.542   9.895  0.9392 -1.3333 -0.9667
 8657SOL     OW37429   1.093   1.970   3.872 -0.4224 -0.5919 -0.2620
 8657SOL    HW137430   1.110   1.941   3.962  2.4620  0.1706 -0.5593
 8657SOL    HW237431   1.146   2.049   3.870  0.3938 -1.0878  1.1638
 8658SOL     OW37432   0.610   0.343  11.588 -0.0462  0.1419 -0.0078
 8658SOL    HW137433   0.560   0.392  11.652  1.4972  1.4698  0.1568
 8658SOL    HW237434   0.682   0.310  11.641  1.6651 -0.3292 -2.6377
 8659SOL     OW37435   4.507   0.919  17.106 -0.6309 -0.3974  0.0752
 8659SOL    HW137436   4.520   1.000  17.057 -1.8262 -1.7345 -2.4284
 8659SOL    HW237437   4.448   0.952  17.174 -1.6862 -1.2149 -0.4451
 8660SOL     OW37438   1.743   4.067   3.455  0.2698 -0.4609 -0.2103
 8660SOL    HW137439   1.707   4.111   3.532 -2.9673 -0.2467 -1.8608
 8660SOL    HW237440   1.727   3.975   3.474  1.3887 -0.7692 -0.7739
 8661SOL     OW37441   3.209   0.198   7.677  0.3317 -0.3168 -0.0568
 8661SOL    HW137442   3.169   0.172   7.594  3.2887  2.3271 -2.2855
 8661SOL    HW237443   3.145   0.262   7.710 -1.4474 -1.7815 -0.6106
 8662SOL     OW37444   1.199   0.880   2.601 -0.1430  0.5813 -0.2260
 8662SOL    HW137445   1.111   0.916   2.607 -0.2852  0.4190 -1.3555
 8662SOL    HW237446   1.237   0.920   2.680  1.4360  0.8523 -1.1260
 8663SOL     OW37447   0.632   0.290   8.173 -0.7695 -0.1592  0.1350
 8663SOL    HW137448   0.660   0.226   8.108  0.5783  0.8142 -0.2231
 8663SOL    HW237449   0.671   0.373   8.148 -1.2148 -0.1100 -0.4019
 8664SOL     OW37450   2.828   4.088   3.947  0.0970  0.4370 -0.2077
 8664SOL    HW137451   2.767   4.091   4.020  0.0341  1.7327 -0.2993
 8664SOL    HW237452   2.767   4.129   3.885 -2.6220 -1.4644  1.2044
 8665SOL     OW37453   2.043   0.284  17.425 -0.6447 -0.6892  0.5207
 8665SOL    HW137454   2.031   0.358  17.365 -1.7513 -3.9403 -3.2617
 8665SOL    HW237455   2.098   0.332  17.487 -1.6203  1.5980 -0.3934
 8666SOL     OW37456   3.960   2.763   3.407  0.2827 -0.1496 -0.2497
 8666SOL    HW137457   3.973   2.734   3.498 -0.3755  0.9620  0.2028
 8666SOL    HW237458   3.957   2.689   3.347 -0.4018 -0.3515  0.0408
 8667SOL     OW37459   1.493   0.574   4.006  0.0691  0.4756 -0.3196
 8667SOL    HW137460   1.403   0.592   4.032  0.4075 -0.0056  1.1931
 8667SOL    HW237461   1.518   0.654   3.961  1.3924  1.5258  2.2788
 8668SOL     OW37462   4.639   2.621  15.894  0.7030  0.0537 -0.5758
 8668SOL    HW137463   4.606   2.650  15.979 -1.2914 -1.1089 -0.9559
 8668SOL    HW237464   0.002   2.583  15.917  1.2009  0.7265 -1.2608
 8669SOL     OW37465   4.638   2.686   4.557 -0.2177 -0.4361  0.0764
 8669SOL    HW137466   4.578   2.758   4.574  1.6282  0.9933  0.6207
 8669SOL    HW237467   4.687   2.738   4.493  0.3930 -0.1683  0.7577
 8670SOL     OW37468   0.969   1.030   1.752 -0.6601  0.5143 -0.1919
 8670SOL    HW137469   0.880   1.017   1.782 -0.8462  0.3072 -0.8245
 8670SOL    HW237470   1.015   1.021   1.836 -1.9796  0.0802  0.4736
 8671SOL     OW37471   0.751   2.522  17.304  0.1033  0.0241  0.1804
 8671SOL    HW137472   0.743   2.537  17.398  0.2242  2.6508 -0.2174
 8671SOL    HW237473   0.843   2.496  17.297  0.1156 -0.4678  2.3388
 8672SOL     OW37474   2.692   1.655  12.280 -0.7275 -0.5885 -0.0700
 8672SOL    HW137475   2.622   1.652  12.214  0.0124 -2.2723 -0.7711
 8672SOL    HW237476   2.725   1.739  12.251 -2.2170 -0.7042 -2.1362
 8673SOL     OW37477   1.339   1.378   2.230  0.5979  0.4014  0.1677
 8673SOL    HW137478   1.384   1.299   2.263  2.2280  1.5848  0.7839
 8673SOL    HW237479   1.260   1.375   2.283  0.5168 -2.4044 -0.0923
 8674SOL     OW37480   3.420   0.353   7.521  0.4743  0.0268 -0.1005
 8674SOL    HW137481   3.427   0.434   7.570  2.6169  0.7037 -1.5056
 8674SOL    HW237482   3.412   0.292   7.594 -0.7256  1.0872  0.6413
 8675SOL     OW37483   0.397   0.312   6.068  0.3427 -0.5141  0.4761
 8675SOL    HW137484   0.399   0.309   6.164 -0.3481  2.1776  0.5780
 8675SOL    HW237485   0.419   0.404   6.056 -0.8824  0.1033  2.9318
 8676SOL     OW37486   3.544   2.634  13.435  0.3105 -0.7166 -0.4713
 8676SOL    HW137487   3.560   2.617  13.527  0.9768  0.1813 -0.4265
 8676SOL    HW237488   3.467   2.691  13.442 -0.0641 -1.2248 -0.4164
 8677SOL     OW37489   3.834   4.548   4.230 -0.6711  0.3638  0.3524
 8677SOL    HW137490   3.867   4.622   4.280  1.3682  0.5266 -1.2221
 8677SOL    HW237491   3.909   4.537   4.171 -3.0351  0.6950 -2.7341
 8678SOL     OW37492   4.539   4.036   4.422  0.2531  0.3075 -0.3776
 8678SOL    HW137493   4.562   4.128   4.429 -1.4278  0.9102 -2.9988
 8678SOL    HW237494   4.545   4.015   4.515  0.5199  0.2642 -0.4029
 8679SOL     OW37495   0.721   3.950  11.517 -0.6110 -0.3114  0.2036
 8679SOL    HW137496   0.652   4.011  11.541  1.3158  1.5191  1.1769
 8679SOL    HW237497   0.765   3.999  11.447 -3.4668 -0.2226 -1.5085
 8680SOL     OW37498   0.764   3.515  17.222 -0.0334 -0.0730 -0.2110
 8680SOL    HW137499   0.845   3.535  17.268  0.1426 -0.7064 -0.2512
 8680SOL    HW237500   0.796   3.445  17.165  0.2543 -1.2763  1.4609
 8681SOL     OW37501   2.102   2.952  11.319 -0.2328  0.4052 -0.3004
 8681SOL    HW137502   2.151   2.932  11.399 -0.4125 -0.4503 -0.4028
 8681SOL    HW237503   2.021   2.984  11.358 -0.3134  0.6860 -0.6939
 8682SOL     OW37504   0.333   1.132  15.326  0.3599 -0.0705 -0.1127
 8682SOL    HW137505   0.378   1.054  15.293 -0.6346 -1.1077  0.9616
 8682SOL    HW237506   0.388   1.207  15.304 -0.6927  0.6413 -0.3134
 8683SOL     OW37507   1.930   0.503   7.664  0.1672 -0.2560 -0.4879
 8683SOL    HW137508   1.985   0.530   7.591  2.0258  0.2327  1.1011
 8683SOL    HW237509   1.885   0.586   7.685  0.9012 -0.4177  1.7423
 8684SOL     OW37510   3.525   4.537   4.809  0.4698 -0.4392  0.0676
 8684SOL    HW137511   3.456   4.577   4.755  2.8683  1.8624 -1.2751
 8684SOL    HW237512   3.567   4.620   4.830 -1.8156  0.1684  2.3007
 8685SOL     OW37513   1.286   0.062   3.508  0.6123  0.8945 -0.4494
 8685SOL    HW137514   1.294   0.027   3.597 -1.1313  0.3975 -0.4998
 8685SOL    HW237515   1.204   0.111   3.507  0.5300  0.7293 -1.9073
 8686SOL     OW37516   1.811   1.843  11.643  0.0999 -0.1655  0.4621
 8686SOL    HW137517   1.818   1.888  11.727  2.5624 -0.2198  0.2892
 8686SOL    HW237518   1.719   1.860  11.621  0.6500 -1.7501 -3.0060
 8687SOL     OW37519   2.847   3.459  16.914  0.0032 -0.4651  0.3449
 8687SOL    HW137520   2.775   3.481  16.856  2.2631  1.9034 -1.5946
 8687SOL    HW237521   2.893   3.543  16.911  1.9990 -1.5193  1.3364
 8688SOL     OW37522   3.327   4.602  13.018  0.2833 -0.2878  0.3972
 8688SOL    HW137523   3.276   4.566  12.945 -0.9764 -1.8033  2.0087
 8688SOL    HW237524   3.318   4.528  13.079  1.9340  0.5738  1.6543
 8689SOL     OW37525   0.667   1.759  15.652  0.4372 -0.0068 -0.6032
 8689SOL    HW137526   0.595   1.780  15.711  0.7297 -0.2864 -0.1478
 8689SOL    HW237527   0.622   1.789  15.573  0.2059 -0.0642 -0.4940
 8690SOL     OW37528   3.387   4.000  11.108  0.2923 -0.2571  0.2472
 8690SOL    HW137529   3.368   4.002  11.202 -2.0505 -1.4655 -0.1768
 8690SOL    HW237530   3.300   3.979  11.073  0.7812  0.2438 -1.2598
 8691SOL     OW37531   3.914   4.450  10.147 -0.0866  0.1996  0.1828
 8691SOL    HW137532   3.830   4.469  10.107 -0.5674  2.1167  2.1670
 8691SOL    HW237533   3.880   4.463  10.235 -1.3844 -1.9833  0.0141
 8692SOL     OW37534   0.532   4.256   4.000 -0.0297 -0.2453 -0.3393
 8692SOL    HW137535   0.559   4.267   3.908  3.5425 -2.8313  0.3880
 8692SOL    HW237536   0.592   4.311   4.051  0.9192 -1.4439 -0.1467
 8693SOL     OW37537   1.158   2.550  13.406  0.1053  0.4168  0.1558
 8693SOL    HW137538   1.067   2.521  13.409  0.0418  0.6111  0.1271
 8693SOL    HW237539   1.216   2.477  13.427 -1.1398 -0.8163 -0.7350
 8694SOL     OW37540   3.227   3.957   2.944 -0.2167 -0.4330 -0.5363
 8694SOL    HW137541   3.319   3.944   2.967  0.6025  3.1417 -1.8107
 8694SOL    HW237542   3.215   3.895   2.872  1.7949  0.0383 -1.2767
 8695SOL     OW37543   3.830   3.419   6.025  0.4351  0.0462  0.3589
 8695SOL    HW137544   3.831   3.324   6.031  0.0819 -0.0778 -1.7090
 8695SOL    HW237545   3.799   3.444   6.112 -1.6748 -1.1576 -0.0574
 8696SOL     OW37546   3.936   4.184   2.009  0.5393 -0.5759  0.0671
 8696SOL    HW137547   3.969   4.273   2.020  1.3702 -0.8653 -0.0644
 8696SOL    HW237548   3.854   4.203   1.963  0.9595  1.7314  0.2900
 8697SOL     OW37549   0.092   3.396   8.198 -0.1799  0.5017 -0.5017
 8697SOL    HW137550   0.046   3.400   8.282 -2.0283  1.4688 -1.5726
 8697SOL    HW237551   0.154   3.324   8.205 -0.8947 -0.3845 -3.0643
 8698SOL     OW37552   4.411   3.422   0.567 -0.3742  0.7794 -0.1656
 8698SOL    HW137553   4.492   3.466   0.593  0.0118 -1.5621  2.5217
 8698SOL    HW237554   4.344   3.487   0.589 -1.1884 -0.4169  0.8562
 8699SOL     OW37555   1.628   2.873  10.996  0.2486 -0.0694  0.4767
 8699SOL    HW137556   1.563   2.863  11.066 -1.6140 -1.4770 -1.4411
 8699SOL    HW237557   1.689   2.938  11.031  0.3597 -0.0546  0.2543
 8700SOL     OW37558   1.403   1.762   7.574  0.9971  0.1939  0.4469
 8700SOL    HW137559   1.438   1.848   7.594  1.6957 -0.2830  1.2802
 8700SOL    HW237560   1.358   1.783   7.492  1.5177  1.1475  0.4061
 8701SOL     OW37561   1.660   1.257   4.513  0.5505  0.1570 -0.0122
 8701SOL    HW137562   1.636   1.341   4.552 -0.8590  0.2403 -1.0501
 8701SOL    HW237563   1.636   1.278   4.422  1.1434  1.2354  0.0773
 8702SOL     OW37564   2.908   3.294   6.605  0.0156 -0.6475 -0.0038
 8702SOL    HW137565   2.893   3.232   6.533  2.0564 -1.5971  0.3973
 8702SOL    HW237566   2.912   3.239   6.683  1.1630  0.0364  0.4235
 8703SOL     OW37567   0.279   2.985   3.091 -0.0182 -0.2983  0.0840
 8703SOL    HW137568   0.316   3.058   3.041 -0.4333 -1.8187 -2.4656
 8703SOL    HW237569   0.243   3.025   3.170  1.7648  0.2692  0.6112
 8704SOL     OW37570   2.531   3.683   6.211 -0.2481  0.3454  0.1671
 8704SOL    HW137571   2.499   3.772   6.196  0.7386  0.6087 -0.3849
 8704SOL    HW237572   2.524   3.650   6.121 -0.3990 -0.1124  0.3469
 8705SOL     OW37573   1.871   2.515   5.374 -0.3702  0.0373 -0.1327
 8705SOL    HW137574   1.877   2.423   5.401 -0.6869 -0.0849 -0.4759
 8705SOL    HW237575   1.959   2.550   5.382  0.0678 -0.6001 -2.1228
 8706SOL     OW37576   4.363   0.578   2.600 -0.4271  0.1579  0.1028
 8706SOL    HW137577   4.351   0.483   2.600  3.8778 -0.3933 -2.3765
 8706SOL    HW237578   4.452   0.589   2.567 -0.7986  1.7054 -0.3826
 8707SOL     OW37579   1.476   3.623   8.353  0.0933  0.0153 -0.0347
 8707SOL    HW137580   1.513   3.539   8.380 -0.3351 -1.1678 -3.1047
 8707SOL    HW237581   1.449   3.615   8.261  1.7820  3.2711 -0.8160
 8708SOL     OW37582   4.483   2.989   4.529 -0.1609  0.4824  0.1368
 8708SOL    HW137583   4.541   3.005   4.603  0.9814 -0.5685 -0.5295
 8708SOL    HW237584   4.394   2.990   4.565 -0.7373 -0.9211 -1.2179
 8709SOL     OW37585   1.224   1.390   7.532  0.0465 -0.7397  0.1314
 8709SOL    HW137586   1.288   1.319   7.536  0.3449 -0.4744  0.0363
 8709SOL    HW237587   1.242   1.441   7.454 -0.4012 -0.2399  0.3554
 8710SOL     OW37588   1.485   0.341   7.242  0.1919 -0.2027  0.0296
 8710SOL    HW137589   1.478   0.292   7.161  0.1615 -3.7415  2.1575
 8710SOL    HW237590   1.566   0.306   7.280  0.7260  1.6038  0.5293
 8711SOL     OW37591   3.001   0.116   5.069  0.4450  0.3339  0.3442
 8711SOL    HW137592   2.981   0.059   5.144 -1.6513  0.5879 -0.0191
 8711SOL    HW237593   2.965   0.066   4.996 -2.8217  1.8683  0.8660
 8712SOL     OW37594   1.756   0.026   5.911  0.0513 -0.0998 -0.0684
 8712SOL    HW137595   1.801   4.693   5.847  0.5037  1.0002 -0.6884
 8712SOL    HW237596   1.828   0.048   5.971  0.8365 -2.3216 -0.2235
 8713SOL     OW37597   4.167   3.812  15.037  0.5040  0.3614  0.1047
 8713SOL    HW137598   4.161   3.729  15.086  0.9820  0.5499  0.4826
 8713SOL    HW237599   4.220   3.860  15.100  1.1618  0.4633 -0.5309
 8714SOL     OW37600   0.701   1.586   2.358 -0.2512  0.1834  0.0635
 8714SOL    HW137601   0.643   1.572   2.433 -0.0171 -0.3996  0.1323
 8714SOL    HW237602   0.732   1.496   2.349  2.7321  1.3486 -1.4749
 8715SOL     OW37603   4.583   1.439  12.066 -0.0492  0.1864  0.1426
 8715SOL    HW137604   4.652   1.373  12.057 -0.4901 -0.1824 -0.5672
 8715SOL    HW237605   4.606   1.526  12.032  0.1971  0.4622  1.0266
 8716SOL     OW37606   1.079   2.054   8.360 -0.2915 -0.3444 -0.8289
 8716SOL    HW137607   1.160   2.065   8.310  1.9202  1.5565  3.0861
 8716SOL    HW237608   1.057   1.963   8.342 -1.7468  0.1561 -1.6008
 8717SOL     OW37609   1.403   4.678   3.269  0.0333  0.2398  0.2834
 8717SOL    HW137610   1.330   4.686   3.208 -2.2613 -2.3109  2.7505
 8717SOL    HW237611   1.371   0.003   3.347  0.0141 -1.9593  1.5798
 8718SOL     OW37612   0.939   1.155   8.319  0.4181  0.3232 -0.1098
 8718SOL    HW137613   0.983   1.177   8.401 -0.1409  0.6366  0.1073
 8718SOL    HW237614   0.938   1.060   8.326  2.3356  0.2910 -0.2440
 8719SOL     OW37615   1.061   0.098  11.318 -0.4179  0.3117 -0.4435
 8719SOL    HW137616   1.041   0.068  11.407  1.7527  3.5051  1.1736
 8719SOL    HW237617   0.989   0.064  11.266 -0.5868  0.2361 -0.1613
 8720SOL     OW37618   3.329   3.729   5.899 -0.1899  0.4984 -0.0619
 8720SOL    HW137619   3.381   3.669   5.953 -3.3490  0.1569  2.6194
 8720SOL    HW237620   3.253   3.729   5.958 -0.6667 -0.1470 -0.6769
 8721SOL     OW37621   3.487   1.445  13.410  0.8507 -0.1099  0.1088
 8721SOL    HW137622   3.410   1.396  13.383  0.6730 -0.4646  1.2634
 8721SOL    HW237623   3.458   1.485  13.493 -2.3023 -0.4806 -0.8317
 8722SOL     OW37624   4.555   1.724   5.121  0.7584  0.5974 -0.0531
 8722SOL    HW137625   4.539   1.818   5.135 -1.0212  0.5658 -1.8818
 8722SOL    HW237626   4.651   1.726   5.121  0.7651  0.1478 -0.2348
 8723SOL     OW37627   2.189   2.737   9.015 -0.1499 -0.2339 -0.2784
 8723SOL    HW137628   2.280   2.762   9.003 -0.1917  0.0573 -0.0156
 8723SOL    HW237629   2.134   2.799   8.967 -0.7654  1.0953  2.0875
 8724SOL     OW37630   2.908   0.648   4.136 -0.5236 -0.5608 -0.2320
 8724SOL    HW137631   2.948   0.676   4.218  0.2527 -0.3512 -0.6928
 8724SOL    HW237632   2.970   0.697   4.082 -1.5565  1.5443  0.5019
 8725SOL     OW37633   2.663   3.666  17.067 -0.9788 -0.2993  0.0530
 8725SOL    HW137634   2.748   3.707  17.077 -0.7769 -0.6529 -0.1972
 8725SOL    HW237635   2.657   3.642  16.975 -1.9236  0.0394  0.0253
 8726SOL     OW37636   4.021   0.245   8.723  0.8673  0.1099  0.1431
 8726SOL    HW137637   3.939   0.218   8.764 -0.1324  2.1207 -0.5215
 8726SOL    HW237638   4.056   0.300   8.793 -1.9971  1.1091  0.8102
 8727SOL     OW37639   1.565   0.691   2.717  0.2503  0.0013 -0.1597
 8727SOL    HW137640   1.609   0.625   2.664  1.4448 -0.2316  1.1115
 8727SOL    HW237641   1.581   0.771   2.667 -1.0486 -0.7979 -1.8318
 8728SOL     OW37642   3.832   4.640  14.046  0.1427 -0.1140 -0.3857
 8728SOL    HW137643   3.805   0.008  14.028  1.1161 -0.2099 -2.3472
 8728SOL    HW237644   3.885   4.651  14.125  0.7141  1.4827 -1.0034
 8729SOL     OW37645   4.372   1.067   4.875 -0.0025  0.9373  0.2796
 8729SOL    HW137646   4.452   1.116   4.856  0.7108 -0.1604  0.4160
 8729SOL    HW237647   4.394   0.994   4.817  0.9124  2.0712 -0.7832
 8730SOL     OW37648   0.115   1.002   7.866 -0.2884  0.5329 -0.2818
 8730SOL    HW137649   0.176   0.988   7.938 -0.1531 -1.1548 -0.7216
 8730SOL    HW237650   0.150   0.962   7.786 -2.6346  3.0026 -2.5532
 8731SOL     OW37651   2.618   2.726   6.633  0.7301  0.0089  0.2525
 8731SOL    HW137652   2.671   2.801   6.607 -0.3176  0.5013 -0.4956
 8731SOL    HW237653   2.639   2.713   6.725 -1.0210 -0.3945  0.5953
 8732SOL     OW37654   3.450   4.687   8.776 -0.1247 -0.3914  0.2074
 8732SOL    HW137655   3.443   4.634   8.696  0.7242 -0.5636  0.2437
 8732SOL    HW237656   3.540   4.670   8.804 -1.2384 -1.9826  2.7974
 8733SOL     OW37657   1.024   0.816   9.459 -0.4309  0.3567  0.0424
 8733SOL    HW137658   0.983   0.823   9.545 -1.2825 -0.9432 -0.2556
 8733SOL    HW237659   0.997   0.898   9.418 -1.8447 -0.9191 -1.5967
 8734SOL     OW37660   1.152   4.009   5.287  0.3932 -0.6023 -0.2480
 8734SOL    HW137661   1.114   3.994   5.200 -2.7035  2.1967  0.6163
 8734SOL    HW237662   1.219   4.075   5.269  0.0916 -0.2063  0.0660
 8735SOL     OW37663   4.482   3.159  16.199 -0.2550 -0.9400  0.2537
 8735SOL    HW137664   4.534   3.239  16.199 -0.0100 -1.0992  1.3807
 8735SOL    HW237665   4.413   3.187  16.139  1.0713  0.7114 -0.5040
 8736SOL     OW37666   2.245   4.278   4.166  0.6738 -0.2145  0.4504
 8736SOL    HW137667   2.232   4.373   4.164  5.1237  0.3475 -1.2837
 8736SOL    HW237668   2.298   4.263   4.244  0.0766  1.6683  1.2268
 8737SOL     OW37669   1.087   2.086   5.009  0.1092  0.5300 -0.3127
 8737SOL    HW137670   1.080   2.040   5.092 -1.0660  2.5333  0.6905
 8737SOL    HW237671   1.047   2.170   5.031 -2.7144 -1.1137  0.8619
 8738SOL     OW37672   1.586   4.355   2.693  0.4820  0.0633  0.6330
 8738SOL    HW137673   1.653   4.298   2.655 -0.0028 -0.9988  1.3771
 8738SOL    HW237674   1.635   4.398   2.762  1.1133  1.9769 -1.0061
 8739SOL     OW37675   0.560   4.261   1.120 -0.8552 -0.0997  0.0462
 8739SOL    HW137676   0.591   4.245   1.030 -0.4617  0.4889  0.0802
 8739SOL    HW237677   0.522   4.348   1.113 -0.4982  0.1608  1.4302
 8740SOL     OW37678   0.016   2.857   2.131  0.3247  0.1193  0.2324
 8740SOL    HW137679   4.649   2.853   2.095 -0.3218 -0.9397  1.9125
 8740SOL    HW237680   0.036   2.932   2.075  0.6888  1.1642  1.7759
 8741SOL     OW37681   3.489   2.515   3.123  0.1832 -0.6507 -0.1802
 8741SOL    HW137682   3.459   2.437   3.076 -1.4957 -1.1521  1.7694
 8741SOL    HW237683   3.524   2.490   3.208  0.8618  2.1930  0.3862
 8742SOL     OW37684   0.673   4.465   5.630  0.3313 -0.2604 -0.9793
 8742SOL    HW137685   0.767   4.452   5.615  0.2200  0.0346 -1.9272
 8742SOL    HW237686   0.673   4.465   5.726  2.2462  1.3823 -0.9796
 8743SOL     OW37687   1.084   3.172   8.575  0.1130  0.3298  0.2140
 8743SOL    HW137688   1.150   3.221   8.624 -0.6028  1.2143  0.3056
 8743SOL    HW237689   1.114   3.190   8.485  2.9236  0.4424  1.1766
 8744SOL     OW37690   2.857   3.179  16.885 -0.1077  0.0437 -0.5150
 8744SOL    HW137691   2.933   3.166  16.828  1.0198 -0.5388  1.1377
 8744SOL    HW237692   2.871   3.270  16.909 -1.1151  1.0208 -3.5917
 8745SOL     OW37693   0.426   1.795  15.790  0.1286  0.6649  0.0069
 8745SOL    HW137694   0.360   1.756  15.733 -0.3427 -3.6094  3.4281
 8745SOL    HW237695   0.386   1.787  15.877 -0.7773  0.9049 -0.3861
 8746SOL     OW37696   0.044   3.849   5.193 -0.1900  0.0842 -0.7521
 8746SOL    HW137697   0.095   3.832   5.272 -0.5832 -0.4110 -0.6081
 8746SOL    HW237698   0.031   3.766   5.147  1.2635 -0.8923  0.6133
 8747SOL     OW37699   3.672   0.058   9.866 -0.2707 -0.1322 -0.1549
 8747SOL    HW137700   3.727   4.717   9.818  0.8024  0.3129  0.4834
 8747SOL    HW237701   3.688   0.040   9.959  2.3045 -0.6109 -0.6791
 8748SOL     OW37702   1.459   2.293   6.053 -0.4497  0.1269 -0.4449
 8748SOL    HW137703   1.426   2.377   6.022 -0.5235  0.7723  1.3434
 8748SOL    HW237704   1.551   2.314   6.044 -0.4445 -0.1499 -1.0360
 8749SOL     OW37705   3.470   3.516   1.113 -0.0852  0.1042  0.3183
 8749SOL    HW137706   3.528   3.550   1.045  0.4166  0.6912  1.0319
 8749SOL    HW237707   3.389   3.494   1.068  1.5400 -2.1315 -1.5348
 8750SOL     OW37708   0.586   1.865   4.815  1.1990 -0.2193  0.4121
 8750SOL    HW137709   0.524   1.866   4.742 -0.2468  3.3106  1.6826
 8750SOL    HW237710   0.667   1.864   4.765  2.0199  0.1682  1.7416
 8751SOL     OW37711   1.374   0.456   4.498  0.0654  0.1725  0.7422
 8751SOL    HW137712   1.346   0.411   4.419  0.8069  0.4135  0.3399
 8751SOL    HW237713   1.449   0.402   4.524  0.4407  0.8979  1.1828
 8752SOL     OW37714   3.508   0.532   7.180  0.4083 -0.2441  0.0675
 8752SOL    HW137715   3.582   0.518   7.120 -2.5209 -0.8667 -3.4188
 8752SOL    HW237716   3.545   0.532   7.268  1.6848  2.7276 -0.4454
 8753SOL     OW37717   2.239   2.833   9.533  0.1364  0.8283  0.2661
 8753SOL    HW137718   2.257   2.773   9.461 -3.6011 -0.1608  0.1270
 8753SOL    HW237719   2.165   2.790   9.577  1.0938  0.1630  1.2136
 8754SOL     OW37720   2.282   4.282   8.475  0.3194  0.1728  0.0135
 8754SOL    HW137721   2.366   4.311   8.510  0.0176  1.4770 -0.3661
 8754SOL    HW237722   2.233   4.249   8.550 -0.5445  2.3547  0.4020
 8755SOL     OW37723   4.673   0.515   1.383  0.6060  0.3037  0.1747
 8755SOL    HW137724   0.029   0.561   1.350  0.3159  0.7098  0.0560
 8755SOL    HW237725   4.658   0.442   1.323  1.2899 -0.6488  1.1558
 8756SOL     OW37726   1.352   4.054   4.362 -0.3600 -0.3549  0.5521
 8756SOL    HW137727   1.326   3.973   4.318 -1.9050  2.1652 -3.1898
 8756SOL    HW237728   1.447   4.062   4.348 -0.0770 -0.8036  2.1300
 8757SOL     OW37729   4.355   1.168   0.540 -0.4400  0.2955  0.2341
 8757SOL    HW137730   4.382   1.251   0.503  1.3261 -0.4032 -0.0521
 8757SOL    HW237731   4.388   1.176   0.630  1.2849 -2.2797 -0.1591
 8758SOL     OW37732   2.932   3.281  10.928 -0.9172 -0.0329  0.2950
 8758SOL    HW137733   2.940   3.204  10.983  1.2080 -0.2691 -0.3533
 8758SOL    HW237734   2.910   3.235  10.847 -3.9788  0.5237  0.8002
 8759SOL     OW37735   4.042   1.435  16.353 -0.4865  0.1116 -0.1858
 8759SOL    HW137736   3.952   1.468  16.346 -0.6291 -0.5645 -1.7446
 8759SOL    HW237737   4.086   1.514  16.321 -0.5679 -0.3080 -1.3501
 8760SOL     OW37738   3.554   0.748   5.821  0.4496  0.1516 -0.4432
 8760SOL    HW137739   3.532   0.825   5.768  1.0082  1.4748  1.2720
 8760SOL    HW237740   3.632   0.791   5.856 -0.5619 -0.5357  2.6128
 8761SOL     OW37741   1.615   0.898   7.770 -0.0954 -0.3703 -0.1272
 8761SOL    HW137742   1.545   0.872   7.710  0.5451 -2.0023 -0.1457
 8761SOL    HW237743   1.648   0.985   7.747  0.3825 -1.4181 -3.4357
 8762SOL     OW37744   0.090   2.879   4.984  0.0051 -0.3050 -0.0508
 8762SOL    HW137745   0.031   2.924   4.924 -1.1303 -0.1228  1.1910
 8762SOL    HW237746   0.054   2.790   4.983 -2.3442  0.6333  1.7856
 8763SOL     OW37747   1.480   3.086  14.567  0.9408  0.0896 -0.9278
 8763SOL    HW137748   1.431   3.139  14.630 -1.9019 -0.8546 -2.3840
 8763SOL    HW237749   1.495   3.152  14.500 -0.3870  0.6515 -0.6545
 8764SOL     OW37750   1.805   3.954   2.806 -0.1527  0.4326 -0.4105
 8764SOL    HW137751   1.867   3.932   2.875 -2.1355  0.7327  1.4402
 8764SOL    HW237752   1.747   3.879   2.814 -3.8200  3.1741 -0.9374
 8765SOL     OW37753   0.971   2.734   8.563  0.0529  0.1646 -0.0346
 8765SOL    HW137754   1.038   2.794   8.531  1.3398 -1.3073 -0.1126
 8765SOL    HW237755   0.997   2.644   8.543 -2.4003 -0.5736  0.0140
 8766SOL     OW37756   0.955   3.864   5.485  0.3668  0.3405  0.4246
 8766SOL    HW137757   1.006   3.934   5.444  1.3232 -0.6265 -0.0435
 8766SOL    HW237758   0.963   3.889   5.577  0.4976  0.5157  0.3645
 8767SOL     OW37759   2.343   0.289   6.278 -0.1490  0.3284  0.3604
 8767SOL    HW137760   2.291   0.370   6.285 -1.7727 -0.7271  0.4427
 8767SOL    HW237761   2.355   0.276   6.184 -1.4391  1.8029 -0.0112
 8768SOL     OW37762   0.603   3.135   3.743 -0.0410 -0.2845 -0.6027
 8768SOL    HW137763   0.687   3.146   3.698 -0.1840 -0.7265 -0.9782
 8768SOL    HW237764   0.619   3.186   3.823  0.2805 -3.9272  1.6425
 8769SOL     OW37765   3.250   0.929   2.762 -0.4074  0.1036 -0.2374
 8769SOL    HW137766   3.331   0.930   2.711 -1.8697  0.5540 -2.5600
 8769SOL    HW237767   3.232   0.835   2.761  0.9346 -0.1615 -0.4102
 8770SOL     OW37768   4.247   4.683   4.546 -0.1831 -0.1398  0.2194
 8770SOL    HW137769   4.256   0.033   4.609 -0.9778 -0.0232  0.2040
 8770SOL    HW237770   4.267   0.003   4.462 -1.1406 -1.9454 -0.9123
 8771SOL     OW37771   4.565   3.767   6.809 -0.1593  0.2061  0.2480
 8771SOL    HW137772   4.604   3.764   6.896  1.0704  0.1202 -0.3022
 8771SOL    HW237773   4.549   3.673   6.798 -1.2303  0.4412 -0.2345
 8772SOL     OW37774   1.839   0.826   4.050  0.0907 -0.1071 -0.1761
 8772SOL    HW137775   1.864   0.855   3.962 -1.6091  1.2430 -0.2313
 8772SOL    HW237776   1.899   0.755   4.070 -0.3221 -0.7323 -1.1508
 8773SOL     OW37777   0.190   1.761   7.822 -0.1671  0.3429 -0.1580
 8773SOL    HW137778   0.098   1.734   7.821  0.5497 -2.2220  2.5963
 8773SOL    HW237779   0.183   1.855   7.840  0.9471 -0.0550  2.3021
 8774SOL     OW37780   1.061   2.200   2.177  0.0001 -0.4576 -0.2205
 8774SOL    HW137781   1.084   2.269   2.239 -1.3107  0.7601 -1.0570
 8774SOL    HW237782   1.149   2.164   2.168  0.9514  1.1391  2.8105
 8775SOL     OW37783   0.918   1.278   4.483 -0.2640 -0.0549 -0.2350
 8775SOL    HW137784   0.886   1.365   4.457 -0.9492  0.3529  1.9433
 8775SOL    HW237785   0.954   1.292   4.571 -1.4407 -1.2669  0.4387
 8776SOL     OW37786   0.680   0.213   4.795 -0.0733 -1.0901 -0.1994
 8776SOL    HW137787   0.725   0.295   4.775 -0.5745 -0.6121  0.6027
 8776SOL    HW237788   0.635   0.250   4.871 -0.1623  0.2345 -0.8873
 8777SOL     OW37789   4.051   4.644   9.998 -0.4635  0.0713  0.3086
 8777SOL    HW137790   4.069   4.710  10.065 -0.4681 -0.0194  0.4008
 8777SOL    HW237791   4.011   4.579  10.056 -1.0204 -0.3266 -0.5265
 8778SOL     OW37792   0.511   1.950   8.986 -0.1818  0.2259 -0.1172
 8778SOL    HW137793   0.485   1.900   8.909  0.3889  1.6110 -1.2109
 8778SOL    HW237794   0.428   1.992   9.009  0.2141 -0.5600  2.7952
 8779SOL     OW37795   2.360   4.401   0.337 -0.1248 -0.0388 -0.0179
 8779SOL    HW137796   2.359   4.495   0.356 -0.7236 -0.1040  0.2756
 8779SOL    HW237797   2.314   4.400   0.252 -1.6575  0.7796  0.7901
 8780SOL     OW37798   4.084   0.743   4.140 -0.2532  0.1302  0.5505
 8780SOL    HW137799   4.069   0.790   4.058  2.2526  0.0463  0.0409
 8780SOL    HW237800   4.173   0.713   4.119 -1.4146 -1.7225 -1.6725
 8781SOL     OW37801   2.767   3.504   3.808 -0.5823  0.1357  0.1931
 8781SOL    HW137802   2.708   3.577   3.792 -1.5630 -0.9882 -1.3674
 8781SOL    HW237803   2.843   3.560   3.824 -0.4588  0.5426 -1.8538
 8782SOL     OW37804   4.179   0.996   0.678 -0.2373  0.6695  0.1213
 8782SOL    HW137805   4.106   0.990   0.617 -0.2909  1.0763  0.1436
 8782SOL    HW237806   4.242   1.044   0.624  0.9018  0.2763  1.0933
 8783SOL     OW37807   1.733   4.245   8.924  0.3621 -0.0966  0.1590
 8783SOL    HW137808   1.740   4.263   9.018  0.6042  1.2309 -0.1234
 8783SOL    HW237809   1.818   4.269   8.889 -0.0143  1.8869  0.6341
 8784SOL     OW37810   2.901   0.581   5.486  0.1295  0.2310 -0.0677
 8784SOL    HW137811   2.886   0.580   5.580 -1.6354 -1.4954 -0.3654
 8784SOL    HW237812   2.993   0.557   5.484  0.3750  1.1734 -0.2115
 8785SOL     OW37813   0.905   3.811   7.716 -0.4860  0.2063 -0.0593
 8785SOL    HW137814   0.936   3.900   7.735 -0.5967 -0.0916  1.5123
 8785SOL    HW237815   0.832   3.829   7.655  0.0771 -1.2312 -1.1567
 8786SOL     OW37816   2.083   4.125   9.840 -0.1029 -0.7675  0.3080
 8786SOL    HW137817   1.996   4.165   9.844 -0.0959 -0.6546 -0.7425
 8786SOL    HW237818   2.132   4.201   9.873 -1.1249  0.6061 -1.3645
 8787SOL     OW37819   0.659   3.655   4.697 -0.4305 -0.2500  0.5727
 8787SOL    HW137820   0.605   3.582   4.665  0.8604 -0.6988 -0.5585
 8787SOL    HW237821   0.618   3.719   4.639  0.9277 -1.2173 -1.4549
 8788SOL     OW37822   2.661   3.177   1.000  0.2624  0.0270 -0.2227
 8788SOL    HW137823   2.663   3.266   1.035 -0.8724 -0.1389  0.2681
 8788SOL    HW237824   2.584   3.188   0.945  0.1212  1.8664  0.3627
 8789SOL     OW37825   0.502   3.056   0.813  0.3830  0.4778  0.0788
 8789SOL    HW137826   0.463   2.997   0.878  0.8458 -1.0140 -0.9997
 8789SOL    HW237827   0.434   3.052   0.746  0.7246 -1.4184 -0.1795
 8790SOL     OW37828   3.868   4.583  11.169  0.1840 -0.1550 -0.1547
 8790SOL    HW137829   3.790   4.575  11.224  1.6192 -1.9486  1.5951
 8790SOL    HW237830   3.833   4.575  11.080  0.7952  0.9612 -0.5012
 8791SOL     OW37831   3.141   0.249   1.692  0.1340 -0.5683  0.4022
 8791SOL    HW137832   3.233   0.231   1.710  0.5069 -0.9997 -1.9565
 8791SOL    HW237833   3.103   0.255   1.780 -1.4767 -1.3928 -0.2382
 8792SOL     OW37834   2.698   1.141   3.688  0.7549 -0.5621 -0.1429
 8792SOL    HW137835   2.705   1.046   3.693  0.2078 -0.6007 -0.1407
 8792SOL    HW237836   2.773   1.164   3.744 -1.2725  2.8872  1.1570
 8793SOL     OW37837   0.021   3.907  13.462  0.1304 -0.3581  0.0671
 8793SOL    HW137838   0.084   3.877  13.527 -0.6418  1.0565  1.4669
 8793SOL    HW237839   0.085   3.951  13.405  0.5239  0.8120  1.4022
 8794SOL     OW37840   0.667   3.956  16.227 -0.9690 -0.0864 -0.3221
 8794SOL    HW137841   0.648   4.016  16.155 -0.4878 -0.4685 -0.7649
 8794SOL    HW237842   0.620   3.878  16.199 -1.7371  0.0384  0.6327
 8795SOL     OW37843   2.147   3.821  12.687  0.1502  0.7552 -0.0193
 8795SOL    HW137844   2.190   3.765  12.623  0.3040  1.0938 -0.2180
 8795SOL    HW237845   2.153   3.910  12.651  1.3456  1.2851  1.4401
 8796SOL     OW37846   1.712   2.869   3.618  0.4219  0.4055  0.8140
 8796SOL    HW137847   1.620   2.853   3.642  0.4385 -0.0906  0.5625
 8796SOL    HW237848   1.749   2.796   3.667 -1.4620 -1.0090  0.1495
 8797SOL     OW37849   2.343   3.388  16.722  0.4080 -0.3156  0.1490
 8797SOL    HW137850   2.343   3.293  16.731  1.9106 -0.2476  0.9814
 8797SOL    HW237851   2.352   3.409  16.629 -0.8686 -0.5508 -0.0156
 8798SOL     OW37852   1.393   4.366  12.151 -0.5387 -0.0885  0.3722
 8798SOL    HW137853   1.428   4.347  12.238 -1.0521  1.4922  0.9275
 8798SOL    HW237854   1.439   4.307  12.091 -2.7998 -0.9713 -0.5051
 8799SOL     OW37855   4.011   1.260   8.736  0.3903  0.6072  0.0619
 8799SOL    HW137856   3.961   1.187   8.773  0.7277  0.2348 -0.2047
 8799SOL    HW237857   4.097   1.241   8.772  0.3979 -1.4527 -1.0214
 8800SOL     OW37858   3.484   2.171  12.847  0.0829  0.4636  0.1042
 8800SOL    HW137859   3.504   2.213  12.931  0.5198  3.1002 -1.3046
 8800SOL    HW237860   3.510   2.245  12.792  0.3559  0.4200  0.1723
 8801SOL     OW37861   2.968   0.849   3.622  0.0357  0.1628 -0.2760
 8801SOL    HW137862   2.874   0.855   3.637  0.4542  1.8716  1.8109
 8801SOL    HW237863   2.985   0.898   3.541  0.0735  0.8717  0.1568
 8802SOL     OW37864   1.807   1.228  15.118 -0.0885  0.0420  0.1409
 8802SOL    HW137865   1.758   1.201  15.040  1.5801 -2.3132 -0.1035
 8802SOL    HW237866   1.896   1.244  15.087  0.3847 -1.0668  0.9113
 8803SOL     OW37867   1.479   2.474   2.624  0.7314  0.2046 -0.0285
 8803SOL    HW137868   1.454   2.561   2.594 -2.7262 -0.5958  0.5237
 8803SOL    HW237869   1.453   2.453   2.714  0.6873  0.3113 -0.0166
 8804SOL     OW37870   3.441   2.566   7.052  0.1522  0.3107  0.1322
 8804SOL    HW137871   3.534   2.562   7.028  1.0256 -0.5021  3.6222
 8804SOL    HW237872   3.415   2.477   7.028 -0.5854  0.1488  1.5672
 8805SOL     OW37873   2.940   4.099   9.269 -0.1985 -0.1535  0.0821
 8805SOL    HW137874   2.939   4.004   9.280  1.8912 -0.1989 -0.0735
 8805SOL    HW237875   3.030   4.121   9.293  0.3386 -0.6574 -1.5054
 8806SOL     OW37876   1.776   1.338   6.437 -0.6010  0.1872  0.1087
 8806SOL    HW137877   1.839   1.408   6.459 -0.4181  0.2117 -0.4968
 8806SOL    HW237878   1.767   1.352   6.343  2.5337 -0.7014 -0.3462
 8807SOL     OW37879   2.365   2.186   7.096  0.6907 -0.0189 -0.5934
 8807SOL    HW137880   2.367   2.093   7.074 -1.2618  0.0511 -1.0280
 8807SOL    HW237881   2.455   2.216   7.079  0.5842  1.3681  1.3065
 8808SOL     OW37882   1.874   2.827   6.212 -0.0147  0.4055 -0.1549
 8808SOL    HW137883   1.790   2.843   6.253 -1.3456 -0.9687 -2.3568
 8808SOL    HW237884   1.846   2.800   6.125 -1.1285  0.8243  0.0754
 8809SOL     OW37885   0.952   0.196   4.609  0.4298 -0.0309 -0.0766
 8809SOL    HW137886   0.910   0.271   4.568  2.8886  2.1898  1.4418
 8809SOL    HW237887   0.951   0.139   4.532 -1.7716  0.4430 -0.4002
 8810SOL     OW37888   0.018   1.906   2.775  0.5461 -0.2979  0.4470
 8810SOL    HW137889   0.110   1.881   2.775  1.1941  2.0057 -3.2382
 8810SOL    HW237890   0.029   1.977   2.711  0.0079 -0.5226  0.0974
 8811SOL     OW37891   3.537   2.625   4.417  0.2674  0.0354  0.7229
 8811SOL    HW137892   3.483   2.675   4.356  1.1269  0.6884  0.5120
 8811SOL    HW237893   3.616   2.618   4.363 -0.9415 -2.2850 -0.7931
 8812SOL     OW37894   2.776   2.337   7.687 -0.2251  0.1852  0.2552
 8812SOL    HW137895   2.707   2.368   7.746  1.1874  1.1349  1.3810
 8812SOL    HW237896   2.814   2.263   7.734 -3.9553 -1.1709  1.1338
 8813SOL     OW37897   0.012   3.453   8.488  0.1302 -0.2387 -0.5153
 8813SOL    HW137898   4.696   3.458   8.576  0.6517 -1.1558 -0.2416
 8813SOL    HW237899   0.047   3.542   8.479 -0.8426  0.0123 -1.8208
 8814SOL     OW37900   1.238   2.678  11.203  0.4690 -0.0677  0.2102
 8814SOL    HW137901   1.317   2.649  11.247 -0.5346 -2.4069  0.4623
 8814SOL    HW237902   1.278   2.748  11.151  1.4539 -0.8976 -0.1296
 8815SOL     OW37903   3.472   3.042   2.856 -0.1711  0.1375 -0.4936
 8815SOL    HW137904   3.565   3.028   2.836 -0.4601 -1.6675 -0.5661
 8815SOL    HW237905   3.438   2.953   2.854  1.7994 -0.6401  0.1644
 8816SOL     OW37906   0.851   0.119   8.797  0.2718 -0.1260 -0.6702
 8816SOL    HW137907   0.911   0.057   8.837  0.5470  1.0124  0.6833
 8816SOL    HW237908   0.885   0.114   8.707  0.5277 -0.9657 -0.5289
 8817SOL     OW37909   2.631   3.842   4.865 -0.1223 -0.2591  0.3760
 8817SOL    HW137910   2.599   3.906   4.801 -0.5808  0.0893  0.9589
 8817SOL    HW237911   2.631   3.763   4.810 -0.0900  0.2002 -0.2905
 8818SOL     OW37912   1.094   4.044  13.432  0.5043  0.1987 -0.1444
 8818SOL    HW137913   1.120   4.111  13.496  0.8155  1.7825 -1.9122
 8818SOL    HW237914   1.094   4.092  13.349 -0.9647 -0.1195 -0.3344
 8819SOL     OW37915   1.946   3.455   5.858  0.2586  0.2058  0.0120
 8819SOL    HW137916   1.921   3.376   5.905  2.8957  0.2704  1.5665
 8819SOL    HW237917   1.971   3.505   5.936 -0.5526  0.9652 -0.2168
 8820SOL     OW37918   1.073   2.710  12.131  0.5575  0.0686 -0.0444
 8820SOL    HW137919   1.064   2.799  12.095 -0.4431 -0.0446 -0.0906
 8820SOL    HW237920   1.042   2.667  12.052  2.2728 -0.1056 -0.6206
 8821SOL     OW37921   2.500   0.014   2.655 -0.8749  0.3212  0.5666
 8821SOL    HW137922   2.444   4.721   2.731 -3.0498 -1.3047 -1.3473
 8821SOL    HW237923   2.481   4.660   2.600  0.7209 -0.9257  1.7216
 8822SOL     OW37924   2.162   1.511   2.485  0.2224 -0.4065 -0.0084
 8822SOL    HW137925   2.147   1.421   2.456  0.1538 -0.6137  0.6883
 8822SOL    HW237926   2.241   1.504   2.538  0.9358 -2.8513 -1.3871
 8823SOL     OW37927   1.490   2.033  13.795 -0.2613 -0.4446 -0.0266
 8823SOL    HW137928   1.416   2.020  13.735  0.1970  1.9251 -1.1358
 8823SOL    HW237929   1.448   2.091  13.859  1.1657  0.1073  0.4010
 8824SOL     OW37930   0.137   4.707   3.257 -0.0448 -0.5876  0.7134
 8824SOL    HW137931   0.137   0.053   3.189  2.0878  0.2381  1.4931
 8824SOL    HW237932   0.190   4.643   3.209 -0.0093 -0.3933  0.4909
 8825SOL     OW37933   4.680   4.467  15.802  0.0595 -0.2329 -0.2137
 8825SOL    HW137934   0.005   4.383  15.801 -2.2103 -1.4933  1.3770
 8825SOL    HW237935   4.612   4.450  15.736  0.0899 -2.9066  0.4675
 8826SOL     OW37936   1.640   1.692  12.107 -0.0356 -0.1688 -0.2850
 8826SOL    HW137937   1.691   1.689  12.188  1.1366 -2.7907 -1.1170
 8826SOL    HW237938   1.555   1.658  12.132 -1.3152  1.7685 -1.9786
 8827SOL     OW37939   2.613   3.288   3.078  0.3070 -0.5776  0.4850
 8827SOL    HW137940   2.647   3.302   2.990 -0.4263 -3.3075 -0.2342
 8827SOL    HW237941   2.558   3.212   3.057 -1.5134  0.5282  1.3022
 8828SOL     OW37942   1.252   2.526   2.325 -0.0245 -0.4325  0.1183
 8828SOL    HW137943   1.222   2.599   2.380  0.6618  1.1853 -1.6523
 8828SOL    HW237944   1.161   2.504   2.303 -0.1232  0.7749 -0.6571
 8829SOL     OW37945   2.328   0.901   3.857  0.1973  0.1137  0.2212
 8829SOL    HW137946   2.389   0.974   3.853 -0.0483  0.2540 -1.0721
 8829SOL    HW237947   2.270   0.915   3.932  1.1355  1.4034  0.6813
 8830SOL     OW37948   4.270   3.151   1.611  0.5854  0.5840  0.2948
 8830SOL    HW137949   4.331   3.078   1.598 -1.6406 -1.0374 -0.8645
 8830SOL    HW237950   4.250   3.138   1.704 -0.6444 -0.6665 -0.1431
 8831SOL     OW37951   4.156   0.789   0.416  0.2157  0.3079  1.0688
 8831SOL    HW137952   4.213   0.854   0.375 -0.0128  0.4090  0.9074
 8831SOL    HW237953   4.211   0.742   0.479  0.7853 -0.1214  0.2510
 8832SOL     OW37954   1.506   3.211  10.536  0.2579  0.6039 -0.0166
 8832SOL    HW137955   1.565   3.287  10.537  0.4403  0.4862 -2.2035
 8832SOL    HW237956   1.543   3.163  10.610  0.6279  0.3434 -0.3717
 8833SOL     OW37957   3.734   0.838   7.141 -0.2238 -0.5127  0.0900
 8833SOL    HW137958   3.789   0.888   7.201  0.5430 -0.2660 -0.8239
 8833SOL    HW237959   3.770   0.750   7.126  0.4647 -0.2665  0.2897
 8834SOL     OW37960   3.895   0.107   4.295 -0.4008  0.5824  0.6019
 8834SOL    HW137961   3.881   0.060   4.378 -4.1110  1.1263  0.2868
 8834SOL    HW237962   3.957   0.171   4.330  1.3592 -0.2416 -1.0046
 8835SOL     OW37963   2.354   3.798   0.680 -0.0671  0.4368 -0.1400
 8835SOL    HW137964   2.298   3.784   0.756  0.9769  1.2840  0.7809
 8835SOL    HW237965   2.282   3.811   0.618 -0.0096 -1.3888 -0.5842
 8836SOL     OW37966   2.297   1.543  11.100  0.1723 -0.4203  0.1376
 8836SOL    HW137967   2.225   1.490  11.133  1.1783 -0.7347  1.8567
 8836SOL    HW237968   2.272   1.629  11.133  3.1576  0.9016 -1.0306
 8837SOL     OW37969   3.393   3.235   6.113 -0.2005 -0.4654 -0.2726
 8837SOL    HW137970   3.402   3.327   6.137 -0.4814 -0.4222 -0.3365
 8837SOL    HW237971   3.298   3.234   6.120 -0.2804 -0.2138 -1.3767
 8838SOL     OW37972   1.772   3.276   6.433 -0.0021 -0.3470 -0.8356
 8838SOL    HW137973   1.696   3.331   6.450  0.8892  0.2484  1.2469
 8838SOL    HW237974   1.833   3.341   6.470  0.4504 -1.5129  0.4591
 8839SOL     OW37975   0.232   1.779   2.054 -0.2673 -0.3123 -0.2856
 8839SOL    HW137976   0.222   1.847   2.120  0.0845 -0.8645  0.3365
 8839SOL    HW237977   0.208   1.835   1.981 -0.4775  2.2790  1.7823
 8840SOL     OW37978   3.116   4.263   8.274  0.2061  0.1945  0.5343
 8840SOL    HW137979   3.151   4.304   8.354 -0.1910 -0.4706  1.0530
 8840SOL    HW237980   3.028   4.299   8.273  1.0046  2.1473  0.4649
 8841SOL     OW37981   0.441   0.911   1.838 -0.3140  0.1768  0.2762
 8841SOL    HW137982   0.482   0.827   1.818  1.0537  1.5037 -2.4995
 8841SOL    HW237983   0.352   0.881   1.817  0.0054 -1.6383  1.5245
 8842SOL     OW37984   4.119   1.416   4.539  0.2693  0.3082  0.2244
 8842SOL    HW137985   4.191   1.358   4.517 -0.1971 -0.5990  1.0761
 8842SOL    HW237986   4.165   1.476   4.597 -1.1962  1.8881 -0.2714
 8843SOL     OW37987   0.771   0.045   3.247  0.2280  0.1366  0.7173
 8843SOL    HW137988   0.786   4.716   3.167  3.0601  1.7936  0.2281
 8843SOL    HW237989   0.788   4.700   3.314 -1.5996 -1.5207 -0.4361
 8844SOL     OW37990   1.715   1.852  10.363 -0.2375 -0.1439 -0.2314
 8844SOL    HW137991   1.714   1.798  10.442 -2.2512  0.5508  0.2290
 8844SOL    HW237992   1.781   1.920  10.381 -0.7484  0.0289  0.9579
 8845SOL     OW37993   2.886   3.404  16.439 -0.0576  0.3340 -0.0344
 8845SOL    HW137994   2.806   3.371  16.480  1.8550 -1.0392  2.5819
 8845SOL    HW237995   2.866   3.361  16.356 -1.0809 -1.7617  1.2981
 8846SOL     OW37996   0.658   1.020   2.718  0.0875 -0.3947 -0.0176
 8846SOL    HW137997   0.619   1.079   2.654  0.5570 -0.5637 -0.4607
 8846SOL    HW237998   0.587   0.959   2.738 -1.2649  1.7515  1.8014
 8847SOL     OW37999   2.961   3.942  16.070 -0.0985  0.3472  0.4965
 8847SOL    HW138000   2.930   3.963  16.158 -1.0197  0.4724  0.1449
 8847SOL    HW238001   3.041   3.995  16.061  0.3888 -0.1279  2.2270
 8848SOL     OW38002   3.857   1.102   9.900  0.1541  0.4520 -0.2907
 8848SOL    HW138003   3.777   1.123   9.949 -0.7243 -3.2761 -0.1493
 8848SOL    HW238004   3.921   1.152   9.950  0.4849 -1.2628  1.0181
 8849SOL     OW38005   0.613   1.997   2.966 -0.1423  0.5669 -0.0624
 8849SOL    HW138006   0.577   2.086   2.969  1.8648  1.3802  0.0823
 8849SOL    HW238007   0.671   2.007   2.890 -0.3809  0.1249 -0.3023
 8850SOL     OW38008   2.815   3.903   3.735 -0.3362 -0.4419 -0.1678
 8850SOL    HW138009   2.730   3.858   3.733  0.3578 -1.8308  0.9847
 8850SOL    HW238010   2.819   3.944   3.821  2.3042  0.6631 -0.8342
 8851SOL     OW38011   1.602   1.637   7.274  0.3305  0.0054  0.4344
 8851SOL    HW138012   1.588   1.606   7.363 -3.1875 -1.3971 -0.6304
 8851SOL    HW238013   1.569   1.566   7.220  1.0351  1.4358 -1.8774
 8852SOL     OW38014   2.921   4.212   6.139  0.1144 -0.0845  0.0700
 8852SOL    HW138015   2.985   4.148   6.170  0.4124  0.8655  1.4300
 8852SOL    HW238016   2.859   4.168   6.082  1.8158 -0.9494 -1.1294
 8853SOL     OW38017   0.360   4.301   3.247 -0.0244 -0.2058  0.9646
 8853SOL    HW138018   0.435   4.288   3.189 -2.6345  2.7127 -3.0319
 8853SOL    HW238019   0.376   4.390   3.278 -0.3212  0.4008 -0.6280
 8854SOL     OW38020   0.410   0.043   4.225  0.3406 -0.6787  0.1440
 8854SOL    HW138021   0.375   0.118   4.273  0.6098 -0.8633  0.6299
 8854SOL    HW238022   0.333   4.709   4.221  0.2639 -0.5290 -0.6042
 8855SOL     OW38023   3.700   3.765   3.873  0.3741  0.2700 -0.6641
 8855SOL    HW138024   3.638   3.810   3.931 -0.0562  0.3343 -1.1748
 8855SOL    HW238025   3.734   3.699   3.934 -1.1470  0.8686  0.8469
 8856SOL     OW38026   1.529   0.233   7.691  0.6574  0.0877  0.0515
 8856SOL    HW138027   1.508   0.326   7.680  0.5996 -0.4077 -4.1829
 8856SOL    HW238028   1.604   0.238   7.750  0.0628 -1.7950  0.9530
 8857SOL     OW38029   2.292   1.192   3.874  0.5528 -0.1856 -0.3882
 8857SOL    HW138030   2.224   1.129   3.899  1.5422 -1.5105 -1.0652
 8857SOL    HW238031   2.251   1.274   3.904 -0.5539 -0.5879 -0.8288
 8858SOL     OW38032   2.943   3.618   9.155  0.3734 -0.2831 -0.4296
 8858SOL    HW138033   2.912   3.642   9.242  0.6453  1.7566 -0.8950
 8858SOL    HW238034   2.910   3.689   9.100 -0.8235  0.6231  1.4552
 8859SOL     OW38035   0.754   0.713   1.401 -0.2879  0.0143  0.6909
 8859SOL    HW138036   0.835   0.673   1.370  0.3471  2.6959 -1.0853
 8859SOL    HW238037   0.779   0.805   1.404 -0.8200  0.2288 -1.0839
 8860SOL     OW38038   0.885   3.237   4.491 -0.2892  0.2063 -0.7763
 8860SOL    HW138039   0.908   3.281   4.409  0.7400  0.4779 -0.3355
 8860SOL    HW238040   0.791   3.253   4.498 -0.3144 -0.8725  1.2752
 8861SOL     OW38041   4.262   3.763   6.389  0.3454 -0.2397 -0.4523
 8861SOL    HW138042   4.177   3.736   6.354  0.8596  0.4524 -2.2478
 8861SOL    HW238043   4.297   3.802   6.309 -1.4935 -1.6355 -1.9531
 8862SOL     OW38044   0.837   0.869   6.750 -0.1891 -0.0946  0.1854
 8862SOL    HW138045   0.879   0.877   6.836 -1.2556 -1.2178  0.8194
 8862SOL    HW238046   0.760   0.926   6.756 -1.7761 -2.4231  2.1326
 8863SOL     OW38047   2.404   0.093   3.582  0.3349 -0.2590  0.3661
 8863SOL    HW138048   2.459   0.167   3.556 -0.4577  0.6549  1.3015
 8863SOL    HW238049   2.339   0.130   3.642  0.5630 -0.6560  0.8640
 8864SOL     OW38050   1.294   1.309   8.456 -0.0642  0.1726 -0.5160
 8864SOL    HW138051   1.309   1.220   8.425  0.7185 -0.2430  1.0879
 8864SOL    HW238052   1.234   1.287   8.527 -3.0562  1.1811 -2.7246
 8865SOL     OW38053   3.027   2.407   1.041  0.2220  0.8741  0.0189
 8865SOL    HW138054   3.029   2.315   1.015  0.4164  0.5347  1.2245
 8865SOL    HW238055   3.111   2.439   1.008 -0.8508  1.2690 -2.3086
 8866SOL     OW38056   0.580   1.755   3.919  0.4482  0.2846 -0.3332
 8866SOL    HW138057   0.584   1.719   3.830 -1.5982  0.2070 -0.3977
 8866SOL    HW238058   0.547   1.843   3.899  0.3107  0.4742  0.7319
 8867SOL     OW38059   3.442   4.295  17.432 -0.7288 -0.2103 -0.5179
 8867SOL    HW138060   3.501   4.333  17.367 -1.8378  0.0468 -1.3496
 8867SOL    HW238061   3.486   4.215  17.460 -0.4478 -0.0407 -0.4726
 8868SOL     OW38062   1.368   0.168   1.373 -1.3011 -0.2549 -0.1879
 8868SOL    HW138063   1.451   0.163   1.420 -0.6549  1.7604 -1.0978
 8868SOL    HW238064   1.324   0.241   1.417 -1.2774 -0.7157  0.5968
 8869SOL     OW38065   3.098   1.968  14.260  0.7448  0.1324 -0.6670
 8869SOL    HW138066   3.169   1.914  14.226  0.1159 -0.4056 -1.1101
 8869SOL    HW238067   3.033   1.973  14.190 -0.6037 -1.0736  0.4772
 8870SOL     OW38068   0.814   1.948   2.763 -0.2651  0.1029  0.5155
 8870SOL    HW138069   0.887   2.008   2.773  0.0189  0.0179 -1.0910
 8870SOL    HW238070   0.864   1.866   2.760  2.0177  1.5981 -1.7826
 8871SOL     OW38071   0.535   0.329   2.126 -0.1076 -0.2020 -0.2173
 8871SOL    HW138072   0.469   0.259   2.129  0.8389 -1.1046 -0.4930
 8871SOL    HW238073   0.506   0.387   2.055 -2.8819 -1.7610 -0.3447
 8872SOL     OW38074   2.909   3.736  16.856  0.2166 -0.4986  0.0505
 8872SOL    HW138075   2.933   3.823  16.824 -1.4528  1.1053  3.0874
 8872SOL    HW238076   2.929   3.685  16.778 -1.6568  0.1724 -0.8692
 8873SOL     OW38077   3.848   3.169   9.916  0.5105 -0.5633 -0.5720
 8873SOL    HW138078   3.856   3.120   9.998  2.7135 -1.6220 -1.4299
 8873SOL    HW238079   3.928   3.143   9.870  1.3331  0.6087  0.2040
 8874SOL     OW38080   3.360   4.647   5.214 -0.0698  0.1154 -0.0178
 8874SOL    HW138081   3.416   4.714   5.174  1.7843 -1.0438  0.6162
 8874SOL    HW238082   3.416   4.611   5.283 -0.4898 -1.4170 -0.4881
 8875SOL     OW38083   1.219   1.023   7.115  0.1052  0.0945 -0.0704
 8875SOL    HW138084   1.197   0.994   7.027 -2.1415  1.4495  0.0526
 8875SOL    HW238085   1.272   0.952   7.151 -0.2045  0.0460  0.2921
 8876SOL     OW38086   3.217   0.317  15.899 -0.1233 -0.0078 -0.1795
 8876SOL    HW138087   3.145   0.258  15.875 -0.1326 -0.3437  0.6919
 8876SOL    HW238088   3.171   0.396  15.926  0.3368  0.6368 -1.2604
 8877SOL     OW38089   1.488   3.592   9.666 -0.0091 -0.0439  0.1115
 8877SOL    HW138090   1.464   3.515   9.719  0.6185 -0.1311  0.2773
 8877SOL    HW238091   1.436   3.589   9.586  2.3503  0.0918 -1.4067
 8878SOL     OW38092   4.334   0.836   4.335 -0.2568  0.6006  0.3628
 8878SOL    HW138093   4.412   0.819   4.387  1.1505 -0.1894 -2.0077
 8878SOL    HW238094   4.353   0.785   4.256 -1.5304  0.6454  0.0188
 8879SOL     OW38095   0.158   4.478   3.780  0.5795  0.2998  0.3691
 8879SOL    HW138096   0.241   4.521   3.799  0.3193  1.2334 -0.6462
 8879SOL    HW238097   0.180   4.401   3.833 -0.6782 -0.7512 -0.6253
 8880SOL     OW38098   1.162   0.412  16.849  0.2987 -0.7640  0.4349
 8880SOL    HW138099   1.168   0.326  16.809 -0.1509 -1.2793  1.4825
 8880SOL    HW238100   1.116   0.378  16.925  2.2897  0.1417  2.0490
 8881SOL     OW38101   3.225   1.472   8.996 -0.4412 -0.4108 -0.1082
 8881SOL    HW138102   3.176   1.392   8.976 -0.1482 -0.1764 -1.8207
 8881SOL    HW238103   3.154   1.535   9.013 -0.4297 -0.1054 -1.1314
 8882SOL     OW38104   2.088   3.281   7.262  0.3689 -0.0654 -0.3926
 8882SOL    HW138105   2.104   3.331   7.182 -1.4256 -0.4947 -1.0115
 8882SOL    HW238106   2.014   3.326   7.303 -0.5867 -0.7058 -1.4144
 8883SOL     OW38107   4.366   2.562  17.611 -0.7055 -0.2248  0.1102
 8883SOL    HW138108   4.324   2.590   0.005 -0.1571  0.7781  0.0495
 8883SOL    HW238109   4.453   2.534  17.637 -0.7788 -0.0626  0.5438
 8884SOL     OW38110   2.845   3.228  12.185  0.0833  0.5295 -0.1334
 8884SOL    HW138111   2.869   3.144  12.226  1.7197  1.2332  0.3398
 8884SOL    HW238112   2.928   3.273  12.201 -0.0364  0.6263  0.2254
 8885SOL     OW38113   1.365   3.016   9.004 -0.6843 -0.2740 -0.2961
 8885SOL    HW138114   1.321   3.101   9.010  0.8375  0.5766 -1.2363
 8885SOL    HW238115   1.293   2.953   9.012 -0.4022 -0.0772  3.6735
 8886SOL     OW38116   3.321   2.112  13.755  0.2657  0.0656  0.0627
 8886SOL    HW138117   3.254   2.175  13.726  0.7393  0.2471 -0.6506
 8886SOL    HW238118   3.298   2.095  13.846  0.7287  0.3893  0.2398
 8887SOL     OW38119   4.595   3.565  16.695 -0.5882 -0.2045  0.6616
 8887SOL    HW138120   4.638   3.609  16.768 -1.0084  1.7153 -0.2266
 8887SOL    HW238121   4.511   3.611  16.694 -1.0662 -1.0509  2.1054
 8888SOL     OW38122   3.369   1.208   4.212  0.1515  0.2749 -0.1328
 8888SOL    HW138123   3.381   1.115   4.197 -0.2533 -0.2091  2.5259
 8888SOL    HW238124   3.333   1.211   4.301 -0.4996 -2.4140 -0.3109
 8889SOL     OW38125   0.554   4.612   8.468  0.4895 -0.4044  0.4304
 8889SOL    HW138126   0.532   4.705   8.466  0.1943 -0.4010  4.1280
 8889SOL    HW238127   0.532   4.594   8.377 -1.6768 -1.2084  1.1260
 8890SOL     OW38128   2.367   0.590  11.005 -0.3507  0.0782  0.4681
 8890SOL    HW138129   2.358   0.592  11.100  0.8741 -0.1153  0.5856
 8890SOL    HW238130   2.301   0.529  10.972 -0.4698  0.5649 -0.2048
 8891SOL     OW38131   2.353   0.031   3.081 -0.1698 -0.0043  0.0493
 8891SOL    HW138132   2.327   4.688   3.015 -2.7712 -0.2369  1.2953
 8891SOL    HW238133   2.352   0.108   3.024 -0.3987 -0.6624 -0.8345
 8892SOL     OW38134   2.797   2.051  16.495 -0.3753 -0.0089 -0.0534
 8892SOL    HW138135   2.832   2.032  16.582 -3.0514 -0.2447  0.9573
 8892SOL    HW238136   2.766   1.964  16.471  0.9929 -0.8669  1.2919
 8893SOL     OW38137   3.456   1.934  10.187  0.0400 -0.2497  0.4689
 8893SOL    HW138138   3.550   1.933  10.170 -0.2284  0.9174 -1.1101
 8893SOL    HW238139   3.438   1.906  10.098 -2.5661 -1.7043  1.4561
 8894SOL     OW38140   3.614   0.855   2.952 -0.2359  0.5890  0.2851
 8894SOL    HW138141   3.570   0.883   3.032  0.9982 -0.4343  1.3237
 8894SOL    HW238142   3.568   0.781   2.914  2.2013 -2.3823  3.1805
 8895SOL     OW38143   0.642   1.988   9.840 -0.2517  0.0465  0.1187
 8895SOL    HW138144   0.722   2.039   9.827  0.6008 -0.5634  2.7610
 8895SOL    HW238145   0.586   2.065   9.833  1.1708  1.1037  0.2852
 8896SOL     OW38146   3.275   1.308  13.292 -0.2596  0.2741  0.0786
 8896SOL    HW138147   3.305   1.336  13.205 -0.3316  1.4216  0.4227
 8896SOL    HW238148   3.273   1.213  13.277 -1.2168  0.4180 -0.7430
 8897SOL     OW38149   3.658   0.701  15.362  0.4380  0.1882 -0.2333
 8897SOL    HW138150   3.640   0.777  15.306 -0.7500 -1.1129 -1.6141
 8897SOL    HW238151   3.752   0.689  15.347  0.2351 -1.0183 -0.5447
 8898SOL     OW38152   4.215   0.206   5.219  0.1371 -0.3501 -0.1813
 8898SOL    HW138153   4.125   0.207   5.251 -0.2669  1.4640 -1.3581
 8898SOL    HW238154   4.237   0.113   5.228  3.7978  0.2565 -2.6064
 8899SOL     OW38155   3.688   0.523   7.435  0.0075 -0.4084  0.5369
 8899SOL    HW138156   3.740   0.596   7.401  0.3807  0.8549  3.8657
 8899SOL    HW238157   3.746   0.449   7.419  0.7690  0.5553 -1.1649
 8900SOL     OW38158   3.173   2.747   2.505  0.3212  0.4461 -0.0582
 8900SOL    HW138159   3.134   2.714   2.587  0.3572 -1.9503 -1.0000
 8900SOL    HW238160   3.153   2.670   2.451  1.0824  0.5694 -0.5033
 8901SOL     OW38161   4.481   1.514  16.842 -0.3311 -0.3812  0.3481
 8901SOL    HW138162   4.525   1.435  16.812 -2.2054 -0.3451 -2.4735
 8901SOL    HW238163   4.419   1.483  16.909 -0.1138  1.7721  1.5527
 8902SOL     OW38164   0.233   4.440  13.747 -0.2825 -0.0682 -0.2651
 8902SOL    HW138165   0.221   4.502  13.818  0.2915 -0.2815  0.0200
 8902SOL    HW238166   0.329   4.441  13.750 -0.4764  4.7554  2.5276
 8903SOL     OW38167   2.151   2.127   2.246 -0.6909 -0.0240  0.5637
 8903SOL    HW138168   2.234   2.171   2.229 -2.8553  3.7574 -0.2694
 8903SOL    HW238169   2.163   2.044   2.199  0.7974  0.7055 -0.3181
 8904SOL     OW38170   0.245   2.928   9.661 -0.7883  0.5614  0.3347
 8904SOL    HW138171   0.284   2.917   9.748  1.5057  1.0611 -0.6228
 8904SOL    HW238172   0.220   2.838   9.637 -1.8128  0.0897  3.1953
 8905SOL     OW38173   2.439   2.084   9.110  0.3887  0.3053 -0.3608
 8905SOL    HW138174   2.502   2.143   9.070  2.2165 -0.6278  1.1519
 8905SOL    HW238175   2.355   2.130   9.108  0.9597  1.3012 -1.2116
 8906SOL     OW38176   2.323   3.962  13.799 -0.3730 -0.7399  0.4539
 8906SOL    HW138177   2.313   4.052  13.767 -0.1035 -0.1545  2.0092
 8906SOL    HW238178   2.419   3.961  13.800 -0.3512  1.6165  2.6599
 8907SOL     OW38179   3.211   1.604   5.360  0.1747  0.0892  0.2147
 8907SOL    HW138180   3.130   1.559   5.335 -1.0125  0.2771  3.6961
 8907SOL    HW238181   3.174   1.672   5.415  1.0333  1.3878 -0.8114
 8908SOL     OW38182   2.336   2.751  11.269 -0.2686  0.4220 -0.0056
 8908SOL    HW138183   2.373   2.724  11.353  1.4463  0.2931 -0.7997
 8908SOL    HW238184   2.281   2.676  11.247 -0.1880 -0.6335  3.3110
 8909SOL     OW38185   2.032   2.337  11.070  0.3102  0.5932  0.1787
 8909SOL    HW138186   2.066   2.411  11.021 -0.1046 -0.3874 -1.6171
 8909SOL    HW238187   1.943   2.336  11.034 -0.4124 -2.6743  2.0163
 8910SOL     OW38188   1.839   2.297   2.074  0.4653 -0.1436  0.2145
 8910SOL    HW138189   1.910   2.349   2.111 -0.0255 -0.2739  1.3622
 8910SOL    HW238190   1.780   2.294   2.150 -1.3256  2.0118 -1.0948
 8911SOL     OW38191   3.988   2.617   3.941 -0.0705 -0.1409  0.1603
 8911SOL    HW138192   3.972   2.634   3.848  0.3094  0.5575  0.2231
 8911SOL    HW238193   3.996   2.707   3.972  2.5317 -0.9602  1.9482
 8912SOL     OW38194   1.669   3.216   0.467 -0.3863  0.0499 -0.4441
 8912SOL    HW138195   1.684   3.176   0.553 -1.3634 -2.2524 -1.3570
 8912SOL    HW238196   1.680   3.310   0.483  0.9122 -0.0957 -0.4941
 8913SOL     OW38197   0.649   3.085   4.186 -0.6678 -0.5239 -0.9575
 8913SOL    HW138198   0.595   3.164   4.178  0.6903  0.7817  2.8465
 8913SOL    HW238199   0.666   3.066   4.094  3.3292  0.6445 -0.4443
 8914SOL     OW38200   2.903   2.101  11.425  0.2940 -0.8466 -0.2728
 8914SOL    HW138201   2.838   2.164  11.393 -0.0459 -1.4322 -0.7334
 8914SOL    HW238202   2.843   2.036  11.461  0.4100  0.3486  2.0934
 8915SOL     OW38203   4.483   3.488   5.716  0.5265  0.2254  0.1589
 8915SOL    HW138204   4.427   3.423   5.757  0.7324 -0.9744 -1.4589
 8915SOL    HW238205   4.480   3.552   5.787 -0.2665 -1.9565  2.0778
 8916SOL     OW38206   3.583   0.208   1.724  0.1081 -0.2874 -0.0446
 8916SOL    HW138207   3.508   0.207   1.784  1.0420  0.9837  1.1694
 8916SOL    HW238208   3.607   0.116   1.729 -1.1362 -0.5859  0.3271
 8917SOL     OW38209   1.150   4.187   3.668 -0.1865 -0.2207 -0.2963
 8917SOL    HW138210   1.131   4.093   3.659 -0.5884  0.0166 -1.9721
 8917SOL    HW238211   1.116   4.214   3.583 -2.2237 -0.9565  0.2728
 8918SOL     OW38212   0.628   1.603  13.455 -0.0268  0.3168 -0.5917
 8918SOL    HW138213   0.720   1.606  13.429  0.1540  0.0915  0.0121
 8918SOL    HW238214   0.636   1.601  13.551 -1.2250  1.6485 -0.4743
 8919SOL     OW38215   0.319   3.011  17.533  0.1384  0.2379 -0.6012
 8919SOL    HW138216   0.359   3.084  17.487 -0.4817  0.1088 -1.3426
 8919SOL    HW238217   0.237   3.045  17.570  0.4494 -1.2650  1.4803
 8920SOL     OW38218   1.494   3.548   7.352 -0.3471 -0.1484  0.1152
 8920SOL    HW138219   1.425   3.560   7.287  0.3071  0.9678 -0.3720
 8920SOL    HW238220   1.555   3.492   7.304  0.1537  2.2421 -2.0149
 8921SOL     OW38221   0.607   2.790   5.666  0.0732  0.5024  0.4879
 8921SOL    HW138222   0.532   2.746   5.707 -0.9541  2.3155  0.5453
 8921SOL    HW238223   0.560   2.857   5.617  1.2490  1.1405  0.2303
 8922SOL     OW38224   1.575   2.655  13.049  0.2270 -0.3802 -0.5485
 8922SOL    HW138225   1.511   2.725  13.062 -1.0675 -1.4021 -1.4390
 8922SOL    HW238226   1.601   2.667  12.957 -0.8900  0.2354 -0.7807
 8923SOL     OW38227   4.063   1.142   5.142 -0.0437 -1.2245  0.0496
 8923SOL    HW138228   4.066   1.179   5.054  0.2798  0.9904  0.9862
 8923SOL    HW238229   4.144   1.180   5.177 -0.2779 -1.0765  0.4283
 8924SOL     OW38230   0.395   2.258   7.303 -0.0276 -0.1314  0.0035
 8924SOL    HW138231   0.442   2.287   7.381 -1.3169  0.0792  0.7038
 8924SOL    HW238232   0.336   2.199   7.350 -0.1411  0.8898  1.1281
 8925SOL     OW38233   1.536   0.979   9.138 -0.2779 -0.3041 -0.3715
 8925SOL    HW138234   1.547   1.073   9.125  0.4213 -0.5449 -1.5081
 8925SOL    HW238235   1.441   0.971   9.147 -0.2587 -0.2052 -0.0826
 8926SOL     OW38236   2.073   2.446  11.480 -0.1341  0.6934 -0.3768
 8926SOL    HW138237   1.996   2.486  11.520  0.1306  1.6965 -0.8674
 8926SOL    HW238238   2.077   2.362  11.526 -0.2843  0.0817 -1.4754
 8927SOL     OW38239   1.500   4.384   7.973  0.2705  0.3203 -0.7161
 8927SOL    HW138240   1.477   4.369   8.064  0.1752  1.2566 -0.5775
 8927SOL    HW238241   1.534   4.303   7.936  3.0530  0.2196  2.0733
 8928SOL     OW38242   2.490   0.694  15.828 -0.1824 -0.8046 -0.5451
 8928SOL    HW138243   2.442   0.677  15.909  0.4381  1.3517  0.2727
 8928SOL    HW238244   2.457   0.620  15.776 -1.0096 -0.2724 -0.7902
 8929SOL     OW38245   0.138   1.198   3.667 -0.0924  0.4709 -0.3328
 8929SOL    HW138246   0.126   1.151   3.585 -1.1169  0.2106 -0.0440
 8929SOL    HW238247   0.100   1.144   3.737 -1.2714  2.1950  0.3663
 8930SOL     OW38248   2.772   0.659  10.011  0.1163 -0.2348 -0.2312
 8930SOL    HW138249   2.862   0.689  10.007 -1.1492  3.6395  0.4795
 8930SOL    HW238250   2.721   0.740  10.004 -1.6098 -1.3168 -0.3797
 8931SOL     OW38251   3.974   0.893   3.039  0.1646 -0.0330  0.1558
 8931SOL    HW138252   4.060   0.932   3.021 -0.2998 -0.1433 -2.2544
 8931SOL    HW238253   3.994   0.800   3.033  0.7496  0.1447 -0.6720
 8932SOL     OW38254   1.857   4.588   7.391 -0.7965  0.0639  0.3213
 8932SOL    HW138255   1.834   4.655   7.326  1.9219  1.0696  0.3873
 8932SOL    HW238256   1.895   4.638   7.464 -0.9172 -1.9827  1.7736
 8933SOL     OW38257   4.652   1.836   2.298 -0.2329 -0.1272 -0.2881
 8933SOL    HW138258   4.653   1.741   2.310  1.0104 -0.0912 -0.1051
 8933SOL    HW238259   0.024   1.857   2.299 -0.5963  1.5301 -1.1590
 8934SOL     OW38260   3.820   2.519   8.791  0.2437 -0.4215  0.3229
 8934SOL    HW138261   3.843   2.576   8.864 -0.8275 -1.7877  1.7256
 8934SOL    HW238262   3.834   2.586   8.725 -0.4778  0.2259  0.8352
 8935SOL     OW38263   1.541   4.399   4.672 -0.3325 -0.5380  0.8431
 8935SOL    HW138264   1.460   4.372   4.630 -0.5230  2.0986 -0.4681
 8935SOL    HW238265   1.515   4.382   4.763 -1.0234 -0.8314  0.5906
 8936SOL     OW38266   1.503   0.766   5.832  0.5308  0.1791  0.0072
 8936SOL    HW138267   1.410   0.781   5.847  0.8705  1.3798  0.9431
 8936SOL    HW238268   1.527   0.832   5.766 -0.3405  0.1039 -0.3849
 8937SOL     OW38269   0.869   1.414   6.580 -0.0101  0.4915  0.1891
 8937SOL    HW138270   0.894   1.354   6.510 -1.9342  1.6503 -1.4535
 8937SOL    HW238271   0.889   1.500   6.544  0.0801  0.8948  1.1925
 8938SOL     OW38272   1.973   2.509   5.881 -0.3264 -0.1341 -0.2301
 8938SOL    HW138273   1.967   2.449   5.806  1.2696 -0.5822 -0.0055
 8938SOL    HW238274   2.019   2.446   5.937 -0.2527  0.1045 -0.0209
 8939SOL     OW38275   4.315   4.454   4.009 -0.2078 -0.0333  0.7765
 8939SOL    HW138276   4.252   4.382   4.006 -1.7290  1.3536 -0.2629
 8939SOL    HW238277   4.380   4.428   4.074  1.2699  1.2275 -0.2005
 8940SOL     OW38278   3.572   4.127  16.158 -0.9203 -0.6715  0.0034
 8940SOL    HW138279   3.615   4.141  16.074 -2.6242  0.2254 -0.7069
 8940SOL    HW238280   3.485   4.100  16.129 -1.4793  2.3240 -1.0557
 8941SOL     OW38281   3.693   2.891   3.897 -0.1187  0.1301  0.0624
 8941SOL    HW138282   3.680   2.903   3.802  0.2965 -1.3761 -0.1892
 8941SOL    HW238283   3.691   2.795   3.901 -3.4256  0.2393  0.9345
 8942SOL     OW38284   4.171   4.141  12.881 -0.1092  0.2922  0.5780
 8942SOL    HW138285   4.191   4.234  12.871  0.5342  0.1229  0.3222
 8942SOL    HW238286   4.093   4.121  12.829  0.0133  1.2120  0.0422
 8943SOL     OW38287   2.858   3.180  11.267  0.3701  0.2977 -0.2655
 8943SOL    HW138288   2.950   3.186  11.243  0.4994  2.5028  0.7962
 8943SOL    HW238289   2.846   3.273  11.285 -0.7379  0.3667 -1.3166
 8944SOL     OW38290   0.872   3.689   6.210 -0.6750  0.1259 -0.9917
 8944SOL    HW138291   0.850   3.773   6.169 -0.4873  1.1247  0.9592
 8944SOL    HW238292   0.790   3.648   6.235 -0.1755 -0.5474 -0.4715
 8945SOL     OW38293   2.670   0.879   5.690  0.1901  0.8074  0.0873
 8945SOL    HW138294   2.755   0.852   5.654  1.0232  1.5064  1.5261
 8945SOL    HW238295   2.632   0.808   5.741 -0.0309  0.5599 -0.4269
 8946SOL     OW38296   3.570   3.377   1.566 -0.7085  0.6844 -0.2571
 8946SOL    HW138297   3.618   3.447   1.521  1.4698 -0.0418  0.9564
 8946SOL    HW238298   3.531   3.345   1.485  0.8459  0.5415 -0.9360
 8947SOL     OW38299   4.496   0.137   0.639  0.3671  0.6490  0.5895
 8947SOL    HW138300   4.559   0.067   0.623  1.7145  1.6079  1.6517
 8947SOL    HW238301   4.482   0.135   0.734 -2.3262 -1.1760  0.1366
 8948SOL     OW38302   2.251   4.539   8.853 -0.1408  0.3108  0.1817
 8948SOL    HW138303   2.269   4.600   8.782 -1.3962 -0.0170 -0.4111
 8948SOL    HW238304   2.301   4.461   8.826 -0.0097  1.2369 -2.1871
 8949SOL     OW38305   2.294   2.461   7.242 -0.1096  0.3785  0.3297
 8949SOL    HW138306   2.323   2.454   7.332  2.5923 -0.4826 -0.6094
 8949SOL    HW238307   2.336   2.389   7.195 -1.6188  0.9783 -1.9612
 8950SOL     OW38308   1.419   1.291  13.596  0.3298  0.5439 -0.1883
 8950SOL    HW138309   1.424   1.383  13.573  0.8680  0.1983 -1.4702
 8950SOL    HW238310   1.512   1.267  13.588  0.4780  1.3301 -0.8528
 8951SOL     OW38311   0.164   4.312   7.307  0.3180 -0.1499  0.0587
 8951SOL    HW138312   0.096   4.257   7.345 -0.4636  0.1889 -0.8654
 8951SOL    HW238313   0.143   4.400   7.339  1.8104  0.4087 -0.5046
 8952SOL     OW38314   1.250   0.924   0.633  0.5265  0.2556 -0.3646
 8952SOL    HW138315   1.324   0.866   0.652 -0.4992 -1.7176 -2.3016
 8952SOL    HW238316   1.244   0.909   0.538 -0.7062 -0.3730 -0.1799
 8953SOL     OW38317   3.421   2.856   7.050 -0.0154  0.4873 -0.3583
 8953SOL    HW138318   3.428   2.762   7.032 -1.0643  0.4338 -0.4781
 8953SOL    HW238319   3.495   2.886   6.998  0.2562  0.6595  0.1226
 8954SOL     OW38320   1.255   0.330   0.604 -0.5289 -0.3795 -0.2634
 8954SOL    HW138321   1.344   0.334   0.639 -0.6802  0.7208 -0.0076
 8954SOL    HW238322   1.234   0.420   0.581  2.7558  0.2693 -0.7496
 8955SOL     OW38323   0.230   2.998   5.198 -0.5261 -0.0462 -0.5565
 8955SOL    HW138324   0.197   2.932   5.137  1.6368 -0.8983 -0.8346
 8955SOL    HW238325   0.152   3.053   5.203 -0.5641 -0.1662  0.2658
 8956SOL     OW38326   0.312   3.593   3.022  0.3693  0.2155 -0.2305
 8956SOL    HW138327   0.248   3.619   2.955 -1.9486 -0.2103  1.8249
 8956SOL    HW238328   0.300   3.498   3.008  0.2226  0.0512  1.0218
 8957SOL     OW38329   4.403   2.922   8.159 -0.0366 -0.1810  0.1494
 8957SOL    HW138330   4.462   2.959   8.225  1.3720 -0.4521 -0.9739
 8957SOL    HW238331   4.347   2.997   8.140  1.3098  0.2386 -2.0025
 8958SOL     OW38332   4.257   4.605   5.538  0.1838 -0.2790 -0.0031
 8958SOL    HW138333   4.307   4.686   5.541  2.4238 -1.6296 -1.2623
 8958SOL    HW238334   4.169   4.642   5.547 -0.1823 -1.7785  2.5232
 8959SOL     OW38335   3.825   0.240  14.229 -0.0230 -0.3642  0.2809
 8959SOL    HW138336   3.920   0.236  14.223 -0.1928 -1.9057 -1.2993
 8959SOL    HW238337   3.805   0.199  14.145  1.9642 -0.0838 -0.3284
 8960SOL     OW38338   2.230   4.637  14.716  0.2727 -0.0653  0.4101
 8960SOL    HW138339   2.228   4.613  14.623 -0.1306 -0.3176  0.4806
 8960SOL    HW238340   2.147   4.683  14.729 -0.0304 -0.4844 -0.0467
 8961SOL     OW38341   3.951   2.458  13.502 -0.2573  0.4350 -0.4833
 8961SOL    HW138342   3.894   2.526  13.467 -1.7639 -0.2895  0.5738
 8961SOL    HW238343   3.886   2.396  13.535 -0.8683  2.0773  1.4291
 8962SOL     OW38344   4.335   2.081   4.903  0.2339 -0.2645 -0.6447
 8962SOL    HW138345   4.256   2.100   4.852 -0.2940 -3.6787 -1.1077
 8962SOL    HW238346   4.396   2.099   4.831  0.9645  1.9980  0.5254
 8963SOL     OW38347   1.291   2.966   3.127  0.3095 -0.3397 -0.5862
 8963SOL    HW138348   1.351   3.040   3.136 -0.5674  0.4536 -1.2752
 8963SOL    HW238349   1.256   2.968   3.038 -1.1724 -0.6017 -0.0180
 8964SOL     OW38350   4.687   0.637   4.619 -0.0778  0.1751  0.2595
 8964SOL    HW138351   0.037   0.636   4.683  3.6476  0.9126 -3.9232
 8964SOL    HW238352   4.709   0.558   4.570 -2.3971  0.1846 -0.7875
 8965SOL     OW38353   2.296   1.967   7.290 -0.1718  0.2134  0.3410
 8965SOL    HW138354   2.339   2.020   7.223  0.6770 -0.7568  0.1241
 8965SOL    HW238355   2.208   1.946   7.260  1.2416 -0.5642 -3.1963
 8966SOL     OW38356   2.446   1.209   5.643 -0.3365  0.0020 -0.1789
 8966SOL    HW138357   2.428   1.292   5.600  0.1734  0.3351  0.2525
 8966SOL    HW238358   2.498   1.241   5.716  0.0124  1.7297 -1.1935
 8967SOL     OW38359   1.034   0.312  17.093 -0.0410  0.7972 -0.3287
 8967SOL    HW138360   0.951   0.337  17.136  0.2049  1.4510 -0.2387
 8967SOL    HW238361   1.079   0.251  17.151  1.8898 -0.0587 -2.7333
 8968SOL     OW38362   4.167   0.461   0.009  0.2089  0.1073 -0.1658
 8968SOL    HW138363   4.212   0.441   0.091  0.9594 -0.1973 -0.6515
 8968SOL    HW238364   4.137   0.548   0.033  2.1175  0.6001  0.4388
 8969SOL     OW38365   0.107   3.105   2.047  0.6815 -0.1925  0.1778
 8969SOL    HW138366   0.197   3.112   2.016  0.3193  0.3457 -0.7623
 8969SOL    HW238367   0.068   3.136   1.965 -2.1740  1.4314  2.1424
 8970SOL     OW38368   2.833   2.019   2.712 -0.2453  0.2669 -0.3758
 8970SOL    HW138369   2.761   2.074   2.681 -1.3935 -0.8227  0.3637
 8970SOL    HW238370   2.901   2.044   2.650 -1.4443  0.5189 -1.5705
 8971SOL     OW38371   2.929   4.362  17.389 -0.4518 -0.8827  0.0730
 8971SOL    HW138372   2.914   4.286  17.333 -0.3942 -0.1246 -0.9621
 8971SOL    HW238373   3.024   4.367  17.391 -0.5563  1.5590 -0.2129
 8972SOL     OW38374   1.989   1.680  17.196 -0.0226 -0.5379  0.2020
 8972SOL    HW138375   2.054   1.723  17.141  2.0794 -2.3630  1.2796
 8972SOL    HW238376   2.022   1.591  17.193  2.7176  0.5541 -2.0695
 8973SOL     OW38377   4.358   3.934   3.992 -0.1335 -0.0829 -0.4822
 8973SOL    HW138378   4.394   4.013   3.952 -0.0478  1.1797  2.1135
 8973SOL    HW238379   4.428   3.872   3.972  0.6084  0.9465 -1.0942
 8974SOL     OW38380   4.303   3.182   8.228 -0.2789  0.0643 -0.0890
 8974SOL    HW138381   4.354   3.257   8.258 -0.4342  0.0103  0.3119
 8974SOL    HW238382   4.245   3.176   8.304  0.1043  2.3642  0.3922
 8975SOL     OW38383   3.160   0.805   9.321  0.0340  0.1744 -0.0102
 8975SOL    HW138384   3.148   0.879   9.381 -0.3137  0.7950 -0.8411
 8975SOL    HW238385   3.192   0.729   9.370 -0.1213  0.6236  0.7876
 8976SOL     OW38386   1.263   3.270  17.372  0.1578  0.5287 -0.8875
 8976SOL    HW138387   1.319   3.279  17.294  0.3456 -0.1636 -0.8332
 8976SOL    HW238388   1.283   3.355  17.410  1.6698 -0.6968  1.0891
 8977SOL     OW38389   0.869   2.334   8.991  0.2512  0.4204 -0.4687
 8977SOL    HW138390   0.866   2.359   8.898  0.9749  0.2677 -0.5361
 8977SOL    HW238391   0.792   2.375   9.029 -1.1365 -0.5027 -2.2850
 8978SOL     OW38392   4.007   2.796   5.351 -0.0135 -0.5050 -0.6254
 8978SOL    HW138393   4.071   2.785   5.281 -0.7372  0.2872 -1.3994
 8978SOL    HW238394   4.039   2.723   5.405  2.4017 -0.4074 -1.9309
 8979SOL     OW38395   2.520   3.635   5.949  0.4768 -0.5951 -0.1903
 8979SOL    HW138396   2.499   3.682   5.868  1.0724  1.2363  0.7417
 8979SOL    HW238397   2.470   3.553   5.946 -2.1604  1.0013  0.9818
 8980SOL     OW38398   2.501   0.736   5.864  0.4412 -0.1414  0.7045
 8980SOL    HW138399   2.458   0.698   5.940  2.5962 -2.7170  0.6449
 8980SOL    HW238400   2.439   0.803   5.835  1.3011 -0.1313 -1.1345
 8981SOL     OW38401   0.663   2.072   2.548 -0.7022 -0.3725 -0.0694
 8981SOL    HW138402   0.721   2.002   2.521 -0.9638 -0.7472  0.3384
 8981SOL    HW238403   0.713   2.092   2.627 -2.3353 -0.2045  0.9317
 8982SOL     OW38404   2.930   2.204  11.780 -0.0527  0.0745  0.0011
 8982SOL    HW138405   2.933   2.295  11.749 -1.0372  0.5493  1.3395
 8982SOL    HW238406   2.851   2.174  11.737 -2.8399  2.1026  3.7440
 8983SOL     OW38407   0.105   3.767   2.003 -0.1475 -0.0969 -0.0796
 8983SOL    HW138408   0.105   3.681   1.962  1.8181 -0.5292  0.8039
 8983SOL    HW238409   0.195   3.798   1.992  0.7932 -3.4040 -1.7328
 8984SOL     OW38410   0.300   2.741   7.340  0.0195  0.0011  0.0225
 8984SOL    HW138411   0.249   2.741   7.421 -3.5322 -0.1537 -2.1661
 8984SOL    HW238412   0.379   2.702   7.376 -1.4596 -1.8818  1.1931
 8985SOL     OW38413   3.071   2.265   5.773  0.4091  0.0807 -0.4105
 8985SOL    HW138414   3.096   2.357   5.772 -1.3365  0.5542  0.1858
 8985SOL    HW238415   3.142   2.239   5.832  0.6859  1.5941 -0.0949
 8986SOL     OW38416   1.013   1.287   6.764  0.1060  0.2128  0.1677
 8986SOL    HW138417   0.941   1.309   6.704 -1.0613 -1.2100  1.0231
 8986SOL    HW238418   1.091   1.302   6.711  1.3803 -0.0819  1.9567
 8987SOL     OW38419   4.121   3.924   8.068  0.6393 -0.7242 -0.5892
 8987SOL    HW138420   4.090   3.978   7.995  1.6917  2.4239  1.2626
 8987SOL    HW238421   4.046   3.919   8.128  0.4840  2.6945 -0.4713
 8988SOL     OW38422   3.402   1.632  12.868  0.2754 -0.1558  0.0177
 8988SOL    HW138423   3.336   1.662  12.805 -3.3658 -3.7975  2.1097
 8988SOL    HW238424   3.458   1.587  12.804  1.5785  1.1723  0.2356
 8989SOL     OW38425   1.871   4.279   9.816 -0.0663 -0.5275  0.2887
 8989SOL    HW138426   1.830   4.239   9.893  0.9203 -1.5642  0.2778
 8989SOL    HW238427   1.860   4.370   9.844 -0.1547 -0.2509 -0.6516
 8990SOL     OW38428   2.672   1.796   5.750  0.6642  0.0108 -0.0876
 8990SOL    HW138429   2.701   1.830   5.665  0.2618  0.8679  0.1188
 8990SOL    HW238430   2.757   1.773   5.785  0.6213 -0.0924 -0.0511
 8991SOL     OW38431   2.076   0.855   6.395  0.7471 -0.5451 -0.3640
 8991SOL    HW138432   2.024   0.935   6.390  0.4460 -0.7213 -0.0395
 8991SOL    HW238433   2.039   0.809   6.470  3.4916 -1.3553  0.5197
 8992SOL     OW38434   3.647   1.092  10.070 -0.0332  0.6498  0.2928
 8992SOL    HW138435   3.653   1.125  10.160  0.3459  0.5802  0.2919
 8992SOL    HW238436   3.557   1.114  10.047  0.5144  1.0474 -1.4916
 8993SOL     OW38437   3.356   3.491   2.095 -0.8623  0.4421 -0.6018
 8993SOL    HW138438   3.310   3.467   2.014  0.7096 -1.1469 -1.0291
 8993SOL    HW238439   3.285   3.530   2.146  0.4506  0.7290  0.9913
 8994SOL     OW38440   1.712   1.592   0.582 -0.5716 -0.2717 -0.3182
 8994SOL    HW138441   1.629   1.578   0.627  0.3927 -2.8190  0.6491
 8994SOL    HW238442   1.772   1.607   0.655  2.0201  1.5868 -2.8136
 8995SOL     OW38443   3.606   2.986  13.408 -0.1360  0.1526 -0.7062
 8995SOL    HW138444   3.654   2.923  13.354 -0.0947 -0.1732 -0.2854
 8995SOL    HW238445   3.516   2.951  13.409 -0.6958  1.5582 -1.7809
 8996SOL     OW38446   3.252   0.077   3.993 -0.2905 -0.2667 -0.2435
 8996SOL    HW138447   3.183   0.142   3.979 -1.1050 -1.4437 -1.7973
 8996SOL    HW238448   3.225   4.714   3.956 -0.9257 -0.8134  1.4475
 8997SOL     OW38449   1.389   1.269   9.111  0.5341  0.4929  0.0081
 8997SOL    HW138450   1.364   1.229   9.028  1.9524  1.1163 -0.7041
 8997SOL    HW238451   1.382   1.359   9.079 -1.2325  1.2495  2.4608
 8998SOL     OW38452   2.638   0.691  15.386  0.1686  0.2831  0.8397
 8998SOL    HW138453   2.692   0.719  15.460 -0.1636 -1.2216  1.6731
 8998SOL    HW238454   2.548   0.700  15.418 -0.7703  0.5807 -1.9585
 8999SOL     OW38455   3.067   4.429   0.061 -0.1151 -0.1167 -0.0648
 8999SOL    HW138456   2.997   4.468   0.113  0.6738  2.5675 -1.0138
 8999SOL    HW238457   3.035   4.342   0.040  1.0992 -0.8759  1.2001
 9000SOL     OW38458   4.691   3.563   0.342  0.4693  0.0767 -0.4944
 9000SOL    HW138459   4.670   3.544   0.434 -0.2194  1.3805 -0.3869
 9000SOL    HW238460   0.009   3.649   0.354  1.1696 -0.5732  1.8469
 9001SOL     OW38461   0.910   0.420   6.495  0.5820 -0.3941 -0.4703
 9001SOL    HW138462   0.864   0.360   6.554 -2.3514  1.3046 -1.0157
 9001SOL    HW238463   0.878   0.509   6.512 -0.7765 -0.7514 -1.1216
 9002SOL     OW38464   2.664   0.368   1.165  0.3043 -0.2756  0.1839
 9002SOL    HW138465   2.712   0.413   1.235  0.0136  2.4786 -1.3468
 9002SOL    HW238466   2.737   0.363   1.103 -1.1326  0.2881 -1.5840
 9003SOL     OW38467   0.543   3.084   3.362  0.0170 -0.0370 -0.0769
 9003SOL    HW138468   0.633   3.115   3.374 -0.4972  0.7425  1.8535
 9003SOL    HW238469   0.552   2.988   3.363  0.7717  0.0363  0.1661
 9004SOL     OW38470   4.009   4.512   4.042 -0.6595  0.4462  0.3317
 9004SOL    HW138471   4.059   4.577   3.993 -1.5363  0.8690 -0.0005
 9004SOL    HW238472   3.961   4.475   3.969  0.5539  1.8910 -1.1886
 9005SOL     OW38473   2.558   3.890   5.331 -0.0604 -0.8360 -0.2217
 9005SOL    HW138474   2.646   3.858   5.354  0.3382 -0.0108 -0.5724
 9005SOL    HW238475   2.523   3.801   5.333  0.6054 -1.0627  2.2081
 9006SOL     OW38476   0.255   3.480  15.568  0.3272  0.6121  0.2285
 9006SOL    HW138477   0.283   3.510  15.481  0.0355  0.5154  0.1021
 9006SOL    HW238478   0.336   3.471  15.619 -0.0606  0.8786  0.8880
 9007SOL     OW38479   3.256   0.106  11.290  0.4662  0.3432  0.5571
 9007SOL    HW138480   3.199   0.074  11.360  1.4401  0.4468  1.3896
 9007SOL    HW238481   3.312   0.174  11.326 -0.0211  0.2626  1.4546
 9008SOL     OW38482   0.089   2.437   6.939 -0.0300 -0.0330  0.8714
 9008SOL    HW138483   0.161   2.424   7.000  2.7610 -2.2342 -2.8738
 9008SOL    HW238484   0.052   2.348   6.937 -2.8090  1.2022 -1.6149
 9009SOL     OW38485   2.745   1.666   3.415 -0.3926  0.1563 -0.2055
 9009SOL    HW138486   2.750   1.727   3.341 -0.6081  0.5279  0.0857
 9009SOL    HW238487   2.653   1.639   3.416 -0.2174 -0.4594 -1.0689
 9010SOL     OW38488   2.147   3.143   6.976 -0.3025 -0.3245 -0.4480
 9010SOL    HW138489   2.147   3.234   7.007  0.7010 -0.1060 -1.0889
 9010SOL    HW238490   2.097   3.138   6.895  1.9172 -0.5550 -1.8057
 9011SOL     OW38491   2.211   2.062  14.113  0.4185  0.9839 -0.6333
 9011SOL    HW138492   2.128   2.015  14.111  1.3587 -0.7258  0.2854
 9011SOL    HW238493   2.271   1.992  14.088 -1.7490 -0.8047 -0.8437
 9012SOL     OW38494   1.267   4.485  14.772  0.0135 -0.3372 -0.6945
 9012SOL    HW138495   1.349   4.531  14.789  0.8228 -1.9141 -0.3071
 9012SOL    HW238496   1.316   4.414  14.729 -1.7297 -1.9515 -0.0158
 9013SOL     OW38497   1.390   1.723   8.239  0.5820 -0.0564 -0.3587
 9013SOL    HW138498   1.430   1.646   8.279  2.5497  0.9670 -0.3372
 9013SOL    HW238499   1.450   1.787   8.279 -1.1163  1.1545  0.2338
 9014SOL     OW38500   2.531   2.523   0.805 -0.7382  0.6708 -0.5055
 9014SOL    HW138501   2.503   2.456   0.868  0.6157 -0.9246 -1.5787
 9014SOL    HW238502   2.471   2.517   0.730 -0.4967  0.3066 -0.6706
 9015SOL     OW38503   2.112   3.728   0.534  0.6765 -0.3690 -0.1808
 9015SOL    HW138504   2.186   3.667   0.538  1.7434  0.7793 -2.4547
 9015SOL    HW238505   2.044   3.668   0.504  1.4781 -3.2194  3.6788
 9016SOL     OW38506   0.242   0.992   7.567  0.2538  0.2121  0.2651
 9016SOL    HW138507   0.290   0.954   7.640  2.0092  0.7711 -0.6023
 9016SOL    HW238508   0.307   0.972   7.499  0.5676 -2.1778  1.2672
 9017SOL     OW38509   1.085   1.071   9.904  0.2475 -0.5110 -0.2110
 9017SOL    HW138510   1.012   1.018   9.870 -1.5686  0.7585  1.7207
 9017SOL    HW238511   1.090   1.045   9.996  2.3539  0.5239 -0.0314
 9018SOL     OW38512   2.046   0.939   5.764 -0.2349  0.1360 -0.0959
 9018SOL    HW138513   2.137   0.924   5.736  0.0721  1.2939  0.2541
 9018SOL    HW238514   2.065   0.986   5.845 -0.3252 -0.1755  0.1066
 9019SOL     OW38515   0.321   4.552  10.879 -0.6454  0.3195  0.1184
 9019SOL    HW138516   0.384   4.607  10.832  0.0790 -0.6537 -0.0541
 9019SOL    HW238517   0.354   4.463  10.864  0.6520  0.3283  3.0070
 9020SOL     OW38518   2.298   1.038   2.331 -0.3817 -0.3806 -0.0126
 9020SOL    HW138519   2.293   1.117   2.278  4.1294 -0.2418 -0.2450
 9020SOL    HW238520   2.231   1.059   2.396 -0.5510  0.2902 -0.4065
 9021SOL     OW38521   3.494   0.858   3.799 -0.3208 -0.4187  0.2772
 9021SOL    HW138522   3.497   0.764   3.785  2.3423 -0.4635  1.2278
 9021SOL    HW238523   3.548   0.886   3.725 -0.6534  0.0859  0.2263
 9022SOL     OW38524   4.375   1.417   0.441  0.0989  0.1513 -0.4014
 9022SOL    HW138525   4.408   1.492   0.392 -0.0417 -0.8344 -2.0229
 9022SOL    HW238526   4.299   1.455   0.486  0.9521 -1.2207  2.2056
 9023SOL     OW38527   1.675   3.773  13.863 -0.3485 -0.1603  0.4916
 9023SOL    HW138528   1.730   3.731  13.797 -2.8839 -1.1599 -0.9961
 9023SOL    HW238529   1.618   3.697  13.879 -2.8949  1.8243  0.8805
 9024SOL     OW38530   2.730   2.114   4.948 -0.3180 -0.7848  0.3366
 9024SOL    HW138531   2.760   2.136   4.860  1.9990 -1.4957  0.9378
 9024SOL    HW238532   2.640   2.094   4.924 -0.9456  1.6507  0.6613
 9025SOL     OW38533   2.112   0.434   3.839  0.0937 -0.0647  0.2393
 9025SOL    HW138534   2.200   0.399   3.851  1.1163  2.7857  0.9960
 9025SOL    HW238535   2.070   0.366   3.785 -0.4815 -0.7759  1.5853
 9026SOL     OW38536   0.805   1.745   0.753 -0.5288  0.2638 -0.0562
 9026SOL    HW138537   0.876   1.681   0.750 -1.3527 -0.6592 -0.1122
 9026SOL    HW238538   0.837   1.806   0.687 -1.5441 -0.3662 -1.1309
 9027SOL     OW38539   1.323   0.361   2.590  0.0789 -0.1032 -0.2185
 9027SOL    HW138540   1.343   0.403   2.673 -2.0663  0.3759  0.0551
 9027SOL    HW238541   1.227   0.358   2.593  0.0130  1.2974 -1.0770
 9028SOL     OW38542   2.591   2.041   4.544 -0.0678 -0.2755 -0.3767
 9028SOL    HW138543   2.616   2.003   4.460 -3.1083  1.4309 -2.0560
 9028SOL    HW238544   2.496   2.033   4.540 -0.1491  1.1222 -1.5501
 9029SOL     OW38545   4.505   3.580  10.177 -0.1661  0.4104 -0.4719
 9029SOL    HW138546   4.568   3.579  10.249  1.0415 -3.3605 -1.5772
 9029SOL    HW238547   4.448   3.507  10.202 -0.8172  0.1680 -2.6865
 9030SOL     OW38548   0.337   1.635  11.195  0.0050 -0.1945 -0.0333
 9030SOL    HW138549   0.338   1.661  11.103 -1.0246  0.8309  0.2488
 9030SOL    HW238550   0.330   1.721  11.235  0.5096 -0.2941  0.2606
 9031SOL     OW38551   3.969   2.738   9.761  0.3586  0.2860 -0.0210
 9031SOL    HW138552   3.874   2.732   9.772  0.0047  0.4123 -2.8090
 9031SOL    HW238553   3.994   2.692   9.840  1.4830 -0.2773 -0.7064
 9032SOL     OW38554   4.176   2.749   8.174  0.0415 -0.1949  0.4016
 9032SOL    HW138555   4.239   2.820   8.165 -0.2613  0.1387  0.9987
 9032SOL    HW238556   4.194   2.720   8.263  1.9977 -2.7464 -0.7943
 9033SOL     OW38557   2.564   4.065  12.902  0.2257  0.2189  0.5478
 9033SOL    HW138558   2.649   4.051  12.943  0.0232  0.2993  1.0075
 9033SOL    HW238559   2.502   4.073  12.975 -0.5698  0.0190 -0.1042
 9034SOL     OW38560   0.870   0.557   0.665  0.4803 -0.1560 -0.0523
 9034SOL    HW138561   0.852   0.531   0.574  0.9494  0.9993 -0.4854
 9034SOL    HW238562   0.781   0.551   0.699  0.6365  0.9322  0.5450
 9035SOL     OW38563   1.619   2.037  17.183 -0.2122 -0.9508  0.6237
 9035SOL    HW138564   1.584   1.953  17.213  1.6538 -0.7896  3.2633
 9035SOL    HW238565   1.712   2.020  17.201 -0.1730 -1.8257 -0.3672
 9036SOL     OW38566   0.672   1.067   1.776 -0.1959  0.4916  0.2815
 9036SOL    HW138567   0.586   1.063   1.819 -0.5962  3.0711 -0.3235
 9036SOL    HW238568   0.714   1.001   1.832  1.8381  1.0604 -0.5934
 9037SOL     OW38569   4.612   1.949   0.990 -0.5033 -0.5044  0.3630
 9037SOL    HW138570   4.641   2.039   0.978 -2.0422  0.0352  0.6920
 9037SOL    HW238571   4.572   1.976   1.073  0.5373  2.6775 -0.1867
 9038SOL     OW38572   0.964   2.017  10.583  0.0972  0.6469 -0.2084
 9038SOL    HW138573   0.981   1.924  10.576 -1.2588  0.5686 -2.8685
 9038SOL    HW238574   0.869   2.006  10.593  0.0453 -1.0414 -2.4852
 9039SOL     OW38575   1.518   0.383   0.702 -0.2061  0.1096  0.0004
 9039SOL    HW138576   1.572   0.396   0.780 -0.8261 -1.6269  0.7405
 9039SOL    HW238577   1.529   0.467   0.659  0.5264  0.4181  0.8026
 9040SOL     OW38578   2.318   1.239   2.842 -0.6651  0.4589 -0.8263
 9040SOL    HW138579   2.330   1.317   2.788  0.9443  1.7697  1.3786
 9040SOL    HW238580   2.245   1.279   2.890 -0.4061  0.6971 -0.6305
 9041SOL     OW38581   2.132   3.193   2.969 -0.1226 -0.5051 -0.0705
 9041SOL    HW138582   2.096   3.173   3.056 -2.8176  0.1178 -1.0364
 9041SOL    HW238583   2.155   3.107   2.935 -1.0212  0.0832 -2.1765
 9042SOL     OW38584   1.201   4.046   9.035  0.2113 -0.0193  0.1052
 9042SOL    HW138585   1.241   4.121   9.079 -0.8318  1.0730 -0.8013
 9042SOL    HW238586   1.110   4.073   9.021 -0.1567 -1.6630 -0.6332
 9043SOL     OW38587   1.094   3.288   3.570 -0.0116  0.7410  0.0287
 9043SOL    HW138588   1.029   3.292   3.500  0.4257  2.3678 -0.2782
 9043SOL    HW238589   1.043   3.233   3.630 -0.4333  0.6335 -0.4306
 9044SOL     OW38590   2.977   3.662   8.250  0.1027 -0.0275  0.2396
 9044SOL    HW138591   2.980   3.646   8.156 -0.4346  2.6669 -0.2369
 9044SOL    HW238592   2.910   3.597   8.269 -1.4316  0.9761 -1.7605
 9045SOL     OW38593   4.201   1.266   6.653  1.0642 -0.0007 -0.0614
 9045SOL    HW138594   4.180   1.307   6.736  0.6532 -1.3998  0.5369
 9045SOL    HW238595   4.147   1.187   6.652  1.0434  0.0109  0.1652
 9046SOL     OW38596   2.317   1.601   4.771  0.0851 -0.0124  0.2385
 9046SOL    HW138597   2.287   1.559   4.691  1.5887  1.9909 -1.3793
 9046SOL    HW238598   2.242   1.658   4.791  0.4930  0.5406  0.1852
 9047SOL     OW38599   4.049   3.352  10.194 -0.6979 -0.5183  0.4628
 9047SOL    HW138600   4.117   3.347  10.260  0.4748  1.4610 -0.5988
 9047SOL    HW238601   4.107   3.348  10.118 -0.3575 -2.0161  0.7920
 9048SOL     OW38602   4.629   2.092   6.308  0.2835  0.2070  0.4484
 9048SOL    HW138603   4.547   2.113   6.264  2.4920  0.2053 -3.6552
 9048SOL    HW238604   4.600   2.111   6.397 -0.2821 -2.5268  0.8385
 9049SOL     OW38605   3.925   2.300   9.130  0.0139  0.0443 -0.4695
 9049SOL    HW138606   3.983   2.373   9.149 -0.0164 -0.3042  0.9294
 9049SOL    HW238607   3.986   2.231   9.105  0.8143  1.2113 -1.7253
 9050SOL     OW38608   3.207   0.670   3.895  0.2388 -0.5335 -0.0018
 9050SOL    HW138609   3.237   0.678   3.986 -3.1475  1.4002  0.9673
 9050SOL    HW238610   3.176   0.580   3.899 -0.1573 -0.4626 -1.5563
 9051SOL     OW38611   4.670   4.218   8.426 -0.1508 -0.4833 -0.7639
 9051SOL    HW138612   4.633   4.143   8.380 -1.3200  0.9373 -2.1372
 9051SOL    HW238613   4.606   4.285   8.400  0.8515  0.4448 -0.8143
 9052SOL     OW38614   1.733   0.119  14.589  0.1437  0.4010 -0.0148
 9052SOL    HW138615   1.696   0.194  14.636 -0.7795 -0.6067  0.8685
 9052SOL    HW238616   1.681   0.110  14.509 -2.9589 -1.4401  2.2070
 9053SOL     OW38617   2.193   1.961   3.002 -0.5621 -0.2313 -0.0500
 9053SOL    HW138618   2.137   1.952   2.925 -0.6992 -0.9004  0.1308
 9053SOL    HW238619   2.171   2.050   3.030  1.2777  0.5983 -1.2073
 9054SOL     OW38620   1.837   2.837  10.764  0.1433  0.2438  0.0222
 9054SOL    HW138621   1.796   2.841  10.851  1.2143  0.0016  0.5467
 9054SOL    HW238622   1.761   2.814  10.712 -1.1430 -1.8911  2.8355
 9055SOL     OW38623   2.311   4.237  10.927  0.1498 -0.0854  0.5945
 9055SOL    HW138624   2.325   4.161  10.871  1.1366 -0.2311  1.0357
 9055SOL    HW238625   2.217   4.237  10.912  0.2344  2.5845  0.0110
 9056SOL     OW38626   1.205   1.882   7.753  0.2630  0.2646 -0.5308
 9056SOL    HW138627   1.238   1.800   7.716 -0.2136  1.5186 -3.8039
 9056SOL    HW238628   1.238   1.869   7.842  0.2574  0.8457 -0.4457
 9057SOL     OW38629   3.890   4.691  13.696 -0.4478 -0.0579  0.2918
 9057SOL    HW138630   3.857   0.049  13.738  1.0527 -0.5718  2.4612
 9057SOL    HW238631   3.860   4.711  13.608 -0.7955 -0.2222  0.3745
 9058SOL     OW38632   2.470   1.497   2.146  0.0634  0.7382 -0.3021
 9058SOL    HW138633   2.546   1.547   2.175 -0.9048  2.5558 -0.8711
 9058SOL    HW238634   2.416   1.566   2.108 -1.6143 -0.8851 -0.8841
 9059SOL     OW38635   0.423   4.514   7.408  0.2284 -0.3047  0.1245
 9059SOL    HW138636   0.500   4.547   7.363 -0.4447  1.1970  0.0607
 9059SOL    HW238637   0.359   4.534   7.339  0.7952  0.9436 -0.0338
 9060SOL     OW38638   1.173   2.837   5.932  0.4337  0.8436  0.1015
 9060SOL    HW138639   1.196   2.811   6.022  1.5333  2.7845  0.3659
 9060SOL    HW238640   1.081   2.863   5.935  0.3389  0.3740  1.3400
 9061SOL     OW38641   0.079   3.673   4.969  0.3769  0.2119  0.8404
 9061SOL    HW138642   4.721   3.640   4.929  0.7056  1.3509 -0.7577
 9061SOL    HW238643   0.147   3.628   4.919 -0.4512 -3.7492  3.3005
 9062SOL     OW38644   4.628   4.612   2.491 -0.1112 -0.2209  0.0335
 9062SOL    HW138645   4.679   4.532   2.478  0.7012  0.2195  0.5437
 9062SOL    HW238646   4.589   4.597   2.577 -0.8226  0.6628 -0.1365
 9063SOL     OW38647   3.440   2.038   8.225 -0.0800 -0.3929  0.4229
 9063SOL    HW138648   3.485   2.004   8.302 -0.9980 -1.4673  0.4785
 9063SOL    HW238649   3.430   1.960   8.171 -0.9791 -0.8622  1.2745
 9064SOL     OW38650   4.614   4.493   9.045 -0.1333 -0.4630  0.1591
 9064SOL    HW138651   4.566   4.536   8.975  0.2891 -0.9811 -0.4453
 9064SOL    HW238652   4.675   4.558   9.079 -3.6800  2.2189  1.5043
 9065SOL     OW38653   3.150   0.137  16.092 -0.0111 -0.0771 -0.3442
 9065SOL    HW138654   3.209   0.207  16.065 -0.4725  1.8469  3.5867
 9065SOL    HW238655   3.184   0.061  16.044  1.3215  0.4242 -0.1973
 9066SOL     OW38656   2.361   0.190  11.089 -0.4783  0.0124 -0.5102
 9066SOL    HW138657   2.410   0.163  11.167  0.3717 -2.0902 -1.7770
 9066SOL    HW238658   2.290   0.245  11.123 -0.5343  0.6781 -1.7436
 9067SOL     OW38659   3.770   3.288  15.805  0.0732  0.0368  0.2696
 9067SOL    HW138660   3.794   3.262  15.894 -0.4506 -1.7762 -0.1191
 9067SOL    HW238661   3.683   3.325  15.819  0.0391 -0.2124  0.7058
 9068SOL     OW38662   1.962   2.819   7.628 -0.3005  0.1193  0.2271
 9068SOL    HW138663   1.887   2.858   7.673 -0.0838 -0.1064  0.7897
 9068SOL    HW238664   1.934   2.835   7.538 -2.6449 -2.2659  0.5447
 9069SOL     OW38665   0.233   0.464   1.401 -0.0347 -0.2965  0.2628
 9069SOL    HW138666   0.201   0.387   1.449  0.1153 -0.4049  0.1860
 9069SOL    HW238667   0.239   0.519   1.479 -1.1064 -0.1762  0.2675
 9070SOL     OW38668   3.465   1.927   5.649 -0.4710  0.5891  0.7886
 9070SOL    HW138669   3.551   1.886   5.643 -1.1479 -0.6272 -0.7003
 9070SOL    HW238670   3.433   1.904   5.562 -0.1360  2.8587  0.0711
 9071SOL     OW38671   4.295   1.025   5.715 -0.1314  0.0245 -0.0797
 9071SOL    HW138672   4.306   0.991   5.626 -1.0673  1.6844 -0.8423
 9071SOL    HW238673   4.280   1.115   5.686  0.4555 -0.3031 -1.3737
 9072SOL     OW38674   2.675   3.578   0.453  0.0673  0.0157 -0.1746
 9072SOL    HW138675   2.672   3.492   0.411  0.2432 -0.5298  0.9307
 9072SOL    HW238676   2.692   3.549   0.543  0.8060  0.4845 -0.1549
 9073SOL     OW38677   1.451   1.715   5.051 -0.2241  0.6782 -0.6780
 9073SOL    HW138678   1.410   1.781   4.994 -0.6531  1.0178  0.0182
 9073SOL    HW238679   1.530   1.758   5.084 -1.8962  0.5056  3.5052
 9074SOL     OW38680   3.143   2.944  12.100 -0.3327  0.5753  0.7705
 9074SOL    HW138681   3.216   2.894  12.138 -0.6073 -0.8526 -0.5491
 9074SOL    HW238682   3.074   2.947  12.166 -0.2023  0.5776  0.9072
 9075SOL     OW38683   1.088   4.238  11.877  0.0033 -0.0104  0.4381
 9075SOL    HW138684   1.111   4.293  11.953  3.9012 -1.5643  0.3744
 9075SOL    HW238685   1.007   4.278  11.843  1.1358  3.2802  1.6043
 9076SOL     OW38686   0.452   1.170   4.708 -0.3161 -0.2482  0.0823
 9076SOL    HW138687   0.537   1.151   4.669 -1.1007 -0.4932 -1.4889
 9076SOL    HW238688   0.456   1.105   4.779 -3.3519  0.8747  1.2828
 9077SOL     OW38689   1.665   1.933   4.820 -0.0294 -0.3137 -0.1254
 9077SOL    HW138690   1.575   1.905   4.803  0.2865 -0.4603 -1.5108
 9077SOL    HW238691   1.723   1.862   4.793 -1.4674 -0.5296 -2.6898
 9078SOL     OW38692   1.400   3.844   4.224  0.5092 -0.3477 -0.3426
 9078SOL    HW138693   1.491   3.873   4.236  0.5975 -0.7157 -0.1164
 9078SOL    HW238694   1.408   3.812   4.135  0.9801  0.8126 -0.7259
 9079SOL     OW38695   3.495   4.165   6.877  0.2805  0.8499 -0.5561
 9079SOL    HW138696   3.523   4.147   6.966 -0.5668  0.5003 -0.3619
 9079SOL    HW238697   3.444   4.242   6.903 -0.3521 -0.3885  1.7926
 9080SOL     OW38698   4.188   2.618   6.180  0.3988  0.0394 -0.5968
 9080SOL    HW138699   4.219   2.528   6.189  2.7764  0.9947  0.8246
 9080SOL    HW238700   4.212   2.651   6.267  1.9960 -0.3969 -0.8778
 9081SOL     OW38701   3.342   4.626   6.825 -0.3800  0.5061  0.2866
 9081SOL    HW138702   3.262   4.641   6.774 -0.5195 -0.7363  0.1333
 9081SOL    HW238703   3.389   4.706   6.803  0.3905  0.7676  2.9526
 9082SOL     OW38704   2.209   0.067  10.405  0.2977  0.3738 -1.2651
 9082SOL    HW138705   2.134   0.113  10.366 -2.4937 -0.9286  2.5993
 9082SOL    HW238706   2.218   0.111  10.490  0.1342  1.0108 -1.5727
 9083SOL     OW38707   0.029   0.350   2.050  0.7075 -0.2324  0.1447
 9083SOL    HW138708   0.042   0.442   2.072  1.3676 -0.4852  0.8429
 9083SOL    HW238709   4.685   0.354   1.980  0.6868 -0.3058  0.1601
 9084SOL     OW38710   0.812   2.129  15.626  0.5892  0.1040  0.0398
 9084SOL    HW138711   0.745   2.171  15.572 -0.5238 -0.3622  1.0570
 9084SOL    HW238712   0.869   2.104  15.554 -0.3609 -1.0679 -0.3145
 9085SOL     OW38713   0.407   1.744   7.050 -0.5843 -0.1119  0.1913
 9085SOL    HW138714   0.400   1.824   6.999 -0.4381  0.3884  0.9442
 9085SOL    HW238715   0.323   1.707   7.024  0.5900 -0.1118 -3.5092
 9086SOL     OW38716   0.812   4.411   7.417 -0.0268 -0.3192  0.2644
 9086SOL    HW138717   0.769   4.339   7.464  0.8976 -0.1274  1.3748
 9086SOL    HW238718   0.814   4.466   7.495  1.4290  1.7582 -1.2459
 9087SOL     OW38719   4.640   1.914   3.224 -0.6596 -0.1953  0.2304
 9087SOL    HW138720   4.629   1.971   3.148 -0.3250  1.6020  1.5336
 9087SOL    HW238721   4.638   1.980   3.293 -5.2134 -2.0858  1.8845
 9088SOL     OW38722   1.900   0.746   6.612  0.3224 -0.1691 -0.1873
 9088SOL    HW138723   1.804   0.750   6.604  0.2905  2.4103  1.5139
 9088SOL    HW238724   1.921   0.808   6.681 -1.2673 -1.9607  1.9001
 9089SOL     OW38725   3.612   3.082   5.017 -0.0610 -0.1117 -0.6954
 9089SOL    HW138726   3.528   3.051   5.050 -0.6218  1.8626 -0.2584
 9089SOL    HW238727   3.598   3.070   4.923 -0.1359  2.2383 -0.9739
 9090SOL     OW38728   0.526   2.906   8.680 -0.7069  0.1340  0.0198
 9090SOL    HW138729   0.483   2.837   8.730 -0.1482  0.5073  1.0117
 9090SOL    HW238730   0.587   2.848   8.634 -0.9082 -0.9404  1.1042
 9091SOL     OW38731   2.568   0.701  13.155  0.0576 -0.2070  0.2510
 9091SOL    HW138732   2.549   0.634  13.089 -0.3425  1.0491 -0.9086
 9091SOL    HW238733   2.476   0.709  13.179  0.0684  1.9537 -0.4511
 9092SOL     OW38734   1.946   2.165   8.845  0.0945 -0.1548 -0.4222
 9092SOL    HW138735   1.959   2.075   8.875 -4.5725 -0.1976  1.5420
 9092SOL    HW238736   2.039   2.183   8.833  0.4155 -0.3449  1.7894
 9093SOL     OW38737   1.282   0.438   6.023  0.2612 -0.7321 -0.1860
 9093SOL    HW138738   1.376   0.437   6.040  0.6333  3.2017 -1.8712
 9093SOL    HW238739   1.262   0.519   6.069  2.2417 -0.3685  0.0478
 9094SOL     OW38740   0.965   2.908  10.625 -0.9638  0.6680  0.0420
 9094SOL    HW138741   0.977   2.982  10.566  1.3147  0.1740 -0.1324
 9094SOL    HW238742   1.034   2.933  10.687  0.1627 -0.7025 -0.6371
 9095SOL     OW38743   2.084   1.019   4.006  0.2762  0.8321 -0.4530
 9095SOL    HW138744   2.088   0.989   4.097 -0.2984 -2.0216 -1.3662
 9095SOL    HW238745   2.003   1.070   4.011 -0.5586 -0.2964 -2.2438
 9096SOL     OW38746   1.132   4.176   3.382 -0.1353 -0.8437 -0.0747
 9096SOL    HW138747   1.146   4.082   3.375 -0.0458 -0.8587  0.2926
 9096SOL    HW238748   1.046   4.180   3.424  0.9770  2.6636  1.8187
 9097SOL     OW38749   3.008   3.635   3.840  0.4183  0.0687  0.2405
 9097SOL    HW138750   3.022   3.729   3.853 -2.2880  0.7570 -1.7016
 9097SOL    HW238751   3.090   3.601   3.874 -0.4338  0.5188  2.7304
 9098SOL     OW38752   3.288   2.735   6.694  0.0249  0.2432  0.4717
 9098SOL    HW138753   3.329   2.782   6.767 -0.7137  0.1806  0.9272
 9098SOL    HW238754   3.345   2.659   6.684 -2.1169 -1.5213  1.5424
 9099SOL     OW38755   2.580   4.637  11.607 -0.4709 -0.4196  0.1501
 9099SOL    HW138756   2.584   4.648  11.512  0.0876  1.8538  0.4399
 9099SOL    HW238757   2.503   4.580  11.616 -0.5381 -0.5276 -1.1422
 9100SOL     OW38758   3.490   2.150   0.480 -0.1322 -0.0933  0.2196
 9100SOL    HW138759   3.468   2.217   0.416  0.3488 -0.0875  0.0574
 9100SOL    HW238760   3.572   2.182   0.518  0.7365  0.3741 -2.0295
 9101SOL     OW38761   3.073   4.698   6.674 -0.0090  0.2048 -0.7725
 9101SOL    HW138762   3.068   4.610   6.710  0.2383  1.0876  1.4531
 9101SOL    HW238763   3.132   4.681   6.600  0.4564 -0.1373 -0.3244
 9102SOL     OW38764   0.774   1.123   0.829  0.7020 -0.3647 -0.0260
 9102SOL    HW138765   0.816   1.037   0.823  1.2743 -0.2061  1.7863
 9102SOL    HW238766   0.686   1.095   0.854  0.6072 -0.5615 -0.5659
 9103SOL     OW38767   2.423   1.170  14.043 -0.4392  0.2417  0.3928
 9103SOL    HW138768   2.401   1.076  14.042 -1.3111  0.4811 -2.2945
 9103SOL    HW238769   2.338   1.213  14.037 -1.1451 -1.2887 -0.9055
 9104SOL     OW38770   3.317   2.168   0.197 -0.3830 -0.6495  0.2050
 9104SOL    HW138771   3.341   2.218   0.119 -2.2541 -0.7507 -0.4374
 9104SOL    HW238772   3.278   2.090   0.158  1.1921 -0.7088 -1.2445
 9105SOL     OW38773   0.415   1.630   1.883  0.0094  0.1810  0.2336
 9105SOL    HW138774   0.474   1.621   1.958 -0.5681  1.2176  0.8176
 9105SOL    HW238775   0.347   1.668   1.939  0.1323  2.1154 -0.9623
 9106SOL     OW38776   2.704   0.126   7.548 -0.0808  0.2166 -0.3737
 9106SOL    HW138777   2.720   0.220   7.550 -3.6003  0.7998  0.2229
 9106SOL    HW238778   2.739   0.101   7.462 -0.6982  1.4167 -0.9707
 9107SOL     OW38779   1.098   2.683  15.428 -0.0303 -0.1357  0.1853
 9107SOL    HW138780   1.021   2.697  15.484  1.1715  0.6502  1.6275
 9107SOL    HW238781   1.076   2.610  15.371 -0.8279 -1.6400  2.4525
 9108SOL     OW38782   1.702   3.612   8.583  0.7176  0.3529 -0.3040
 9108SOL    HW138783   1.783   3.640   8.540 -0.2652  0.8673 -1.8043
 9108SOL    HW238784   1.680   3.689   8.634 -0.6945  0.9402 -1.8041
 9109SOL     OW38785   4.403   3.047   7.300  0.1369  0.2973 -0.6217
 9109SOL    HW138786   4.409   3.046   7.396  0.9521  0.7178 -0.6652
 9109SOL    HW238787   4.458   3.120   7.275 -1.7413  1.9229  0.0215
 9110SOL     OW38788   1.178   0.012   8.250  0.5305  0.0603  0.5975
 9110SOL    HW138789   1.213   4.665   8.192  0.1953 -0.2746  0.7942
 9110SOL    HW238790   1.126   0.062   8.187 -2.4190 -1.8315  1.5318
 9111SOL     OW38791   2.316   4.137   3.000  0.1683 -0.5461 -0.2561
 9111SOL    HW138792   2.341   4.080   3.073 -0.7416 -0.1529  0.3619
 9111SOL    HW238793   2.256   4.085   2.946  1.0363 -2.1240  0.2842
 9112SOL     OW38794   4.191   3.089   3.499 -0.0985 -0.3044 -0.2852
 9112SOL    HW138795   4.162   3.020   3.560 -1.2150  0.1327 -0.3288
 9112SOL    HW238796   4.192   3.166   3.555 -0.9266  0.1925 -0.9578
 9113SOL     OW38797   3.175   1.996   8.513  0.2715  0.2356  0.1932
 9113SOL    HW138798   3.096   1.973   8.563 -0.2812  0.5330 -0.5374
 9113SOL    HW238799   3.231   2.029   8.583 -1.5217  1.6012  1.0038
 9114SOL     OW38800   4.287   2.811   5.774  0.3349 -0.0126 -0.0180
 9114SOL    HW138801   4.263   2.904   5.777  1.2710  0.2098  0.5156
 9114SOL    HW238802   4.306   2.801   5.681  2.2925  2.2724  0.1406
 9115SOL     OW38803   3.601   4.104   2.995 -0.2698 -0.2163 -0.4570
 9115SOL    HW138804   3.534   4.138   2.936  1.7613  1.5130 -1.7625
 9115SOL    HW238805   3.552   4.096   3.077  0.1823  0.5674 -0.1133
 9116SOL     OW38806   3.025   3.242   8.636 -0.5049  0.0745 -0.2313
 9116SOL    HW138807   3.107   3.221   8.591 -0.9973 -2.3031 -0.0201
 9116SOL    HW238808   2.977   3.159   8.641  1.4253 -1.0204  0.0600
 9117SOL     OW38809   3.642   1.399   4.709  0.1701  0.4765 -0.6077
 9117SOL    HW138810   3.727   1.419   4.749  0.2599  2.7836 -1.9804
 9117SOL    HW238811   3.643   1.457   4.633 -1.0633 -0.5061 -1.3766
 9118SOL     OW38812   2.618   0.296   5.790  0.0892  0.0186  0.3969
 9118SOL    HW138813   2.674   0.221   5.771 -0.6269  0.5171 -3.6976
 9118SOL    HW238814   2.580   0.313   5.704  0.8644 -0.2775  0.0016
 9119SOL     OW38815   0.863   1.773   9.400  0.0157 -0.1505  0.6651
 9119SOL    HW138816   0.922   1.705   9.430  0.9362 -0.7826 -2.5707
 9119SOL    HW238817   0.919   1.851   9.401 -0.4394  0.1696  1.2331
 9120SOL     OW38818   4.243   3.751   7.519  0.2961 -0.1516 -0.0196
 9120SOL    HW138819   4.219   3.835   7.558 -0.9431 -0.7280  0.4476
 9120SOL    HW238820   4.156   3.715   7.501 -0.8625  2.0744  1.1783
 9121SOL     OW38821   2.150   1.402   5.327  0.5436 -0.4045  0.1642
 9121SOL    HW138822   2.208   1.450   5.385  1.1708 -0.9333 -0.0284
 9121SOL    HW238823   2.214   1.373   5.263 -0.8534 -1.9313 -0.5573
 9122SOL     OW38824   1.171   2.427  14.209  0.1936 -0.2170  0.8004
 9122SOL    HW138825   1.092   2.441  14.157 -0.4556 -2.0453  1.2807
 9122SOL    HW238826   1.219   2.507  14.190  2.2223 -1.5699  0.2794
 9123SOL     OW38827   3.979   1.206  12.906  0.0051 -0.6334 -0.3735
 9123SOL    HW138828   3.974   1.137  12.972 -0.9925  0.6532  0.9120
 9123SOL    HW238829   3.885   1.224  12.902  0.3767  1.0321 -1.6551
 9124SOL     OW38830   1.137   0.192   6.814  0.2344 -0.0052  0.2303
 9124SOL    HW138831   1.064   0.229   6.763 -2.1036  0.7211  4.1485
 9124SOL    HW238832   1.134   0.104   6.776  0.5911 -0.5945  1.5949
 9125SOL     OW38833   1.041   3.309   8.999  0.3851 -0.2454  1.2302
 9125SOL    HW138834   0.991   3.246   8.947  0.6973  0.2945  0.2603
 9125SOL    HW238835   1.121   3.303   8.947  1.3837  2.3372  2.4624
 9126SOL     OW38836   2.789   4.420   3.765 -0.5337 -0.2291 -0.5195
 9126SOL    HW138837   2.868   4.421   3.711  0.9089  1.5164  1.6042
 9126SOL    HW238838   2.765   4.328   3.755  0.2318 -0.7308  2.1919
 9127SOL     OW38839   2.625   1.457  12.717 -0.8206  0.0535 -0.0322
 9127SOL    HW138840   2.620   1.532  12.657  3.0311  0.0269 -0.4290
 9127SOL    HW238841   2.554   1.488  12.774 -2.2132 -0.9866 -1.2275
 9128SOL     OW38842   4.480   1.773   6.005 -0.1539 -0.3172  0.3424
 9128SOL    HW138843   4.536   1.705   5.967 -0.1920  0.4362 -1.0760
 9128SOL    HW238844   4.538   1.794   6.078  1.1307  0.9692 -1.0420
 9129SOL     OW38845   4.386   0.960   7.364  0.0923  0.4189 -0.1372
 9129SOL    HW138846   4.345   0.922   7.287 -2.2730  1.1244  0.7986
 9129SOL    HW238847   4.463   0.997   7.320  1.3041  0.0489  1.6393
 9130SOL     OW38848   2.962   4.410   2.154  0.1862 -0.3020 -0.0852
 9130SOL    HW138849   2.910   4.413   2.074  0.5365 -0.4701 -0.3161
 9130SOL    HW238850   3.048   4.425   2.115 -0.9336  1.3880 -1.8836
 9131SOL     OW38851   2.359   1.293   0.361  0.4924  0.0472  0.1905
 9131SOL    HW138852   2.319   1.279   0.275 -0.5575  1.5703  0.4429
 9131SOL    HW238853   2.341   1.205   0.392 -2.3407  1.3227  2.1357
 9132SOL     OW38854   2.373   4.018   2.074 -0.2503 -0.2661 -0.2873
 9132SOL    HW138855   2.454   4.044   2.118 -0.1464 -2.8264  1.0235
 9132SOL    HW238856   2.308   4.045   2.138  0.6744 -1.4039  1.1436
 9133SOL     OW38857   4.190   4.185   8.450 -0.4662 -0.4449 -0.0346
 9133SOL    HW138858   4.149   4.123   8.510 -1.2895 -0.4563 -0.6086
 9133SOL    HW238859   4.142   4.172   8.369  1.1920 -1.1003 -0.9257
 9134SOL     OW38860   0.443   0.517   3.871  0.2052 -0.4568 -0.5463
 9134SOL    HW138861   0.396   0.450   3.920 -1.9022  1.5265  0.1569
 9134SOL    HW238862   0.439   0.481   3.783  2.6417 -0.9925 -0.4345
 9135SOL     OW38863   0.007   2.797   6.517  0.2418 -0.6139 -0.4021
 9135SOL    HW138864   4.648   2.763   6.477  0.2927 -0.0677 -0.9731
 9135SOL    HW238865   0.010   2.760   6.605  0.1596 -1.7368 -0.8746
 9136SOL     OW38866   2.246   0.302   1.500 -0.2792  0.2345  0.4176
 9136SOL    HW138867   2.314   0.346   1.449 -0.0592  2.0362  2.2518
 9136SOL    HW238868   2.203   0.364   1.559 -0.3698  0.9754 -0.4369
 9137SOL     OW38869   2.169   4.012   0.039 -0.1413 -0.6246 -0.0871
 9137SOL    HW138870   2.159   3.966   0.123 -3.6154  0.7207  0.2322
 9137SOL    HW238871   2.183   3.938  17.668  0.8486 -0.6883  0.2313
 9138SOL     OW38872   1.111   3.469   6.094  0.5690 -0.6471  0.0350
 9138SOL    HW138873   1.060   3.389   6.080  1.0800 -0.9721  0.0094
 9138SOL    HW238874   1.082   3.519   6.017 -0.2449 -0.4789  0.4493
 9139SOL     OW38875   2.610   0.184  16.913  0.2900  0.2014  0.6888
 9139SOL    HW138876   2.582   0.154  16.827  2.2551  3.5851 -1.1004
 9139SOL    HW238877   2.598   0.279  16.915 -1.4773  0.0087 -0.4641
 9140SOL     OW38878   2.188   1.664   4.122 -0.3492  0.4997 -0.0435
 9140SOL    HW138879   2.169   1.592   4.182 -2.2496 -0.1200 -1.3739
 9140SOL    HW238880   2.228   1.728   4.181 -2.9303  1.0044  1.1541
 9141SOL     OW38881   3.583   0.753   4.738 -0.3065  0.3272  0.2032
 9141SOL    HW138882   3.500   0.779   4.698 -0.6000 -2.0396 -0.7575
 9141SOL    HW238883   3.624   0.732   4.654 -0.3981  1.0483 -0.0171
 9142SOL     OW38884   0.557   4.077   1.342 -0.1790 -0.5537 -0.7112
 9142SOL    HW138885   0.544   4.158   1.292  1.3061 -0.6168 -1.2043
 9142SOL    HW238886   0.463   4.066   1.355 -0.1669  0.4437  0.1863
 9143SOL     OW38887   3.908   3.829   5.058 -0.0189 -0.0343  0.2655
 9143SOL    HW138888   3.893   3.872   4.973 -3.1440  0.9722  1.2984
 9143SOL    HW238889   3.935   3.906   5.108 -1.8093 -1.8921  4.0843
 9144SOL     OW38890   0.229   3.162  10.948  0.0127  0.1629  0.4124
 9144SOL    HW138891   0.229   3.257  10.962 -0.3648  0.2916 -0.4476
 9144SOL    HW238892   0.314   3.138  10.985 -0.2217  0.0985  0.9044
 9145SOL     OW38893   1.155   0.885   4.997 -0.6484  0.2409  0.0729
 9145SOL    HW138894   1.088   0.952   4.987 -0.3734  0.3468 -1.0864
 9145SOL    HW238895   1.162   0.882   5.092 -2.5177 -1.7892  0.1518
 9146SOL     OW38896   0.866   4.441  15.586 -0.7222  0.6009 -0.2403
 9146SOL    HW138897   0.927   4.478  15.650 -1.1428 -1.8972  1.5962
 9146SOL    HW238898   0.783   4.476  15.619 -1.1139 -0.5569  0.0099
 9147SOL     OW38899   0.846   2.535   7.492 -0.8147  0.0752  0.1353
 9147SOL    HW138900   0.891   2.599   7.436 -0.2861  1.1218  1.7700
 9147SOL    HW238901   0.866   2.561   7.582 -1.2740 -1.1710  0.5965
 9148SOL     OW38902   4.456   2.188  15.260 -0.0128  0.0004  0.0944
 9148SOL    HW138903   4.541   2.231  15.250  0.9267 -2.0558 -0.6674
 9148SOL    HW238904   4.436   2.220  15.348  0.4715 -1.2686  0.6552
 9149SOL     OW38905   2.273   2.906   9.840 -0.3315 -0.2436 -0.3592
 9149SOL    HW138906   2.334   2.908   9.913 -0.4209  1.5756 -0.3334
 9149SOL    HW238907   2.242   2.815   9.842  0.7280 -0.6236 -1.4786
 9150SOL     OW38908   0.901   2.201   7.168  0.0958  0.3312  0.2623
 9150SOL    HW138909   0.978   2.174   7.218 -0.7054  1.3744  2.0578
 9150SOL    HW238910   0.855   2.242   7.241  0.8515  0.2932  0.7546
 9151SOL     OW38911   3.660   2.294   6.045  0.3368  0.1594 -0.0668
 9151SOL    HW138912   3.648   2.388   6.036 -0.9103 -0.0459 -0.6179
 9151SOL    HW238913   3.755   2.293   6.039  0.1889 -3.1159 -2.0084
 9152SOL     OW38914   0.734   1.799  17.593  0.2816 -0.2648 -0.0036
 9152SOL    HW138915   0.727   1.769  17.684 -1.5526 -0.7685 -0.3152
 9152SOL    HW238916   0.667   1.748  17.548  0.2398 -1.2500  1.1571
 9153SOL     OW38917   2.971   3.941  15.050 -0.2221 -0.1661 -0.0458
 9153SOL    HW138918   2.891   3.890  15.039  0.0943 -0.7763  0.4938
 9153SOL    HW238919   2.937   4.030  15.059  1.2185  0.2514  1.2138
 9154SOL     OW38920   4.713   3.497  11.421  0.4011 -0.4687 -0.3917
 9154SOL    HW138921   0.008   3.535  11.508 -1.2522  0.5045 -0.5028
 9154SOL    HW238922   4.647   3.431  11.441  0.6459 -1.3157 -2.4154
 9155SOL     OW38923   2.364   0.961   5.727  0.2047 -0.5886 -0.0640
 9155SOL    HW138924   2.379   1.051   5.698  1.2787 -1.1891 -1.3942
 9155SOL    HW238925   2.374   0.980   5.820 -2.4336  0.7139 -0.0577
 9156SOL     OW38926   2.217   2.650  12.922  0.2059 -0.4736 -0.1010
 9156SOL    HW138927   2.199   2.690  13.007 -3.0125 -1.3191 -0.4000
 9156SOL    HW238928   2.299   2.685  12.887 -0.7777 -0.0110 -1.9271
 9157SOL     OW38929   3.322   1.424  16.327  0.3676  0.2322 -0.7945
 9157SOL    HW138930   3.352   1.498  16.380 -1.6834 -1.0579  2.1533
 9157SOL    HW238931   3.228   1.436  16.317  0.3693  1.9189  1.3054
 9158SOL     OW38932   4.713   2.065   7.672  0.3668 -0.1728 -0.3729
 9158SOL    HW138933   4.669   2.106   7.746  1.3347 -1.4004  0.9007
 9158SOL    HW238934   4.651   1.994   7.655 -0.6678  0.9685 -1.3983
 9159SOL     OW38935   2.051   4.095   1.926 -0.0117  0.0672  0.2673
 9159SOL    HW138936   1.979   4.121   1.983 -0.1561  1.3614 -0.5051
 9159SOL    HW238937   2.125   4.151   1.950  0.4584  0.2579 -1.6259
 9160SOL     OW38938   3.298   3.551   0.815 -0.9048  0.0895  0.0342
 9160SOL    HW138939   3.378   3.513   0.778 -1.8226 -0.4124 -1.3723
 9160SOL    HW238940   3.238   3.552   0.741  0.4403  0.5911 -1.0715
 9161SOL     OW38941   3.784   0.004  17.118  0.1566  0.2867  0.0040
 9161SOL    HW138942   3.787   4.635  17.152  0.5531  1.2292  2.4974
 9161SOL    HW238943   3.870   0.027  17.155  1.1143 -0.0704 -2.0030
 9162SOL     OW38944   3.912   1.452   6.147 -0.3537  0.1280 -0.1688
 9162SOL    HW138945   3.864   1.482   6.070 -1.2780  0.3650  0.4874
 9162SOL    HW238946   3.987   1.404   6.112  0.3472  0.0937  1.3821
 9163SOL     OW38947   2.166   0.566   1.889 -0.3519  0.4244 -0.3463
 9163SOL    HW138948   2.112   0.645   1.879  0.5844  1.4733  2.6850
 9163SOL    HW238949   2.175   0.518   1.807  1.1276  1.5071 -0.8071
 9164SOL     OW38950   1.724   3.662   5.050 -0.1064 -0.1548 -0.0372
 9164SOL    HW138951   1.785   3.724   5.090 -0.4244 -0.7844  1.4074
 9164SOL    HW238952   1.695   3.626   5.133  0.6836 -0.7607 -0.0177
 9165SOL     OW38953   4.182   3.561  14.804  0.1173 -0.6952 -0.1038
 9165SOL    HW138954   4.257   3.609  14.838 -0.8014  0.6934 -0.0430
 9165SOL    HW238955   4.233   3.488  14.768  1.6387 -0.1896  1.0071
 9166SOL     OW38956   4.040   0.005   8.552 -0.0158 -0.1966  0.2075
 9166SOL    HW138957   4.055   0.026   8.644  3.7704  1.7645 -0.8240
 9166SOL    HW238958   4.128   4.693   8.534 -0.6090 -1.9053  0.5167
 9167SOL     OW38959   4.216   1.504   7.327  0.2038 -0.1547 -0.1410
 9167SOL    HW138960   4.262   1.530   7.247  2.6991  0.8629  1.6246
 9167SOL    HW238961   4.135   1.468   7.290  0.7641 -0.2203 -1.2998
 9168SOL     OW38962   4.420   2.562   8.034 -0.1469 -0.5073 -0.0400
 9168SOL    HW138963   4.384   2.480   8.000 -3.9082  0.8695  0.6184
 9168SOL    HW238964   4.339   2.609   8.055  0.1923  0.1311 -0.1547
 9169SOL     OW38965   2.017   1.429   7.601 -0.6642 -0.5187 -0.1040
 9169SOL    HW138966   2.079   1.465   7.538 -0.3432  0.0338  0.5301
 9169SOL    HW238967   2.062   1.430   7.685  0.1060 -1.1344 -0.5085
 9170SOL     OW38968   1.455   2.172   8.299  0.1301  0.0897  0.2861
 9170SOL    HW138969   1.384   2.108   8.292  0.3878 -0.2626  0.8396
 9170SOL    HW238970   1.428   2.240   8.238 -2.3225 -2.9673 -2.0778
 9171SOL     OW38971   0.048   3.348  17.470 -0.0537 -0.2517 -0.0009
 9171SOL    HW138972   0.002   3.429  17.494  0.8817  0.1405  0.4936
 9171SOL    HW238973   4.718   3.324  17.393  0.3953  1.9079 -0.9749
 9172SOL     OW38974   4.204   2.632  10.966  0.2442 -0.1824 -0.5298
 9172SOL    HW138975   4.263   2.565  10.930  0.4867 -0.3957  0.2603
 9172SOL    HW238976   4.234   2.641  11.057  0.4149  0.4299 -0.6507
 9173SOL     OW38977   4.493   1.539   7.592 -0.1442  0.6207  0.5683
 9173SOL    HW138978   4.550   1.504   7.661  1.7136 -0.9607 -1.7842
 9173SOL    HW238979   4.503   1.484   7.515 -1.2336  0.6478  0.4158
 9174SOL     OW38980   3.322   0.306  11.113 -0.1351 -0.2551  0.5765
 9174SOL    HW138981   3.248   0.360  11.086  1.5776  2.3456  1.0693
 9174SOL    HW238982   3.375   0.330  11.038 -2.1329  0.2989 -0.6447
 9175SOL     OW38983   3.643   3.543   7.054  0.5799  0.1974  0.3792
 9175SOL    HW138984   3.598   3.627   7.055 -0.6571 -0.5072  2.8852
 9175SOL    HW238985   3.581   3.497   7.110  0.2119 -0.2412 -0.3923
 9176SOL     OW38986   2.317   1.307   5.967 -0.8695 -0.4604  0.6436
 9176SOL    HW138987   2.378   1.277   5.900  1.4313  1.1973  1.9558
 9176SOL    HW238988   2.369   1.291   6.046 -1.2983  1.0209  1.2283
 9177SOL     OW38989   3.815   3.782   3.144 -0.4544 -0.3133 -0.2126
 9177SOL    HW138990   3.807   3.753   3.053 -0.4082 -0.2057 -0.2502
 9177SOL    HW238991   3.744   3.736   3.190  0.1240 -0.5977  0.4028
 9178SOL     OW38992   2.463   2.727   5.846 -0.5565 -0.2629  0.1989
 9178SOL    HW138993   2.389   2.685   5.802 -0.1495  0.2130 -0.9355
 9178SOL    HW238994   2.450   2.816   5.815  2.4009  0.3174  0.5848
 9179SOL     OW38995   2.138   0.761  12.879 -0.1140  0.0198  0.2430
 9179SOL    HW138996   2.070   0.707  12.920  0.2983 -1.0297 -0.4546
 9179SOL    HW238997   2.182   0.700  12.820 -0.5439 -0.6587  0.6190
 9180SOL     OW38998   1.267   2.370  12.074  0.2898  0.1642 -0.3225
 9180SOL    HW138999   1.349   2.365  12.123  0.6511  0.7271 -0.8679
 9180SOL    HW239000   1.292   2.329  11.992 -1.9713  1.6193 -1.7461
 9181SOL     OW39001   2.358   1.674  12.484  0.3634  0.4269 -0.0272
 9181SOL    HW139002   2.296   1.641  12.549  3.1071  0.0071  2.4281
 9181SOL    HW239003   2.378   1.594  12.435  0.4484 -0.3562  1.2879
 9182SOL     OW39004   0.074   2.858   4.400 -0.5482  0.4186  0.2294
 9182SOL    HW139005   0.045   2.946   4.425 -0.5996  0.4793 -0.0421
 9182SOL    HW239006   0.119   2.885   4.320  0.3129  1.4401  1.0510
 9183SOL     OW39007   3.122   3.798  16.647  0.4095 -0.3195  0.0164
 9183SOL    HW139008   3.083   3.720  16.605 -0.1572  0.2483 -0.5137
 9183SOL    HW239009   3.155   3.829  16.563  0.8587  0.0600  0.3407
 9184SOL     OW39010   1.093   0.310   3.392  0.1864  0.2098 -0.2781
 9184SOL    HW139011   1.029   0.280   3.327 -1.6454  0.2533  1.5004
 9184SOL    HW239012   1.166   0.335   3.336 -0.6741  1.6316 -0.7761
 9185SOL     OW39013   3.319   0.895   6.837  0.1264  0.4187 -0.3116
 9185SOL    HW139014   3.368   0.813   6.842  1.2157  1.1205  0.6299
 9185SOL    HW239015   3.240   0.841   6.834  1.1820 -1.0882 -1.1580
 9186SOL     OW39016   2.991   2.720   3.847  0.5958 -0.2972 -0.0341
 9186SOL    HW139017   2.970   2.756   3.761  1.9150 -1.0018 -0.6527
 9186SOL    HW239018   2.910   2.744   3.893 -0.9808 -1.0885 -2.4013
 9187SOL     OW39019   3.635   2.075   7.070  0.3196 -0.0064  0.0112
 9187SOL    HW139020   3.652   1.988   7.034  1.3419 -0.4926  1.6468
 9187SOL    HW239021   3.540   2.080   7.060  0.3554 -2.8140 -1.6395
 9188SOL     OW39022   0.631   2.560   7.776  0.2126 -0.3524  0.1569
 9188SOL    HW139023   0.570   2.607   7.720  1.9197  0.2356 -1.2251
 9188SOL    HW239024   0.720   2.590   7.755 -0.2829 -1.5410 -3.5490
 9189SOL     OW39025   0.994   2.260   4.748 -0.3454  0.1969  0.4235
 9189SOL    HW139026   0.960   2.324   4.810 -1.2915 -0.1581  0.2721
 9189SOL    HW239027   0.927   2.192   4.755 -0.6038  0.4826  0.7260
 9190SOL     OW39028   1.073   2.205   0.501  0.1565 -0.0439 -0.3068
 9190SOL    HW139029   1.087   2.261   0.578 -0.1636  0.6039 -0.7225
 9190SOL    HW239030   1.079   2.275   0.435 -1.1895  1.0125  0.6885
 9191SOL     OW39031   0.211   4.092  17.108  0.3168  0.2044  0.2675
 9191SOL    HW139032   0.216   4.088  17.013 -0.5924  0.6481  0.1977
 9191SOL    HW239033   0.176   4.180  17.118 -1.3383 -0.3862 -0.1661
 9192SOL     OW39034   2.477   0.201   0.551  0.1522 -0.0232 -0.0809
 9192SOL    HW139035   2.500   0.282   0.596  1.7437 -0.0002 -0.8952
 9192SOL    HW239036   2.382   0.205   0.544 -0.0156  1.4946  3.0603
 9193SOL     OW39037   3.621   1.757   6.091  0.6492 -0.4009  0.0661
 9193SOL    HW139038   3.644   1.830   6.148  1.0946 -0.9213  0.5471
 9193SOL    HW239039   3.662   1.782   6.008  2.6699 -1.2116  0.8204
 9194SOL     OW39040   4.067   3.353   2.172 -0.0397 -0.2958 -0.0056
 9194SOL    HW139041   4.096   3.425   2.115 -0.3683 -0.4540 -0.3715
 9194SOL    HW239042   4.042   3.298   2.098 -2.2584 -1.0504  1.3109
 9195SOL     OW39043   3.713   3.651   2.473  0.3558  0.0624 -0.1941
 9195SOL    HW139044   3.647   3.594   2.435  1.9461 -1.0773 -1.2539
 9195SOL    HW239045   3.663   3.672   2.552 -0.7047 -1.5304 -0.4328
 9196SOL     OW39046   0.708   1.175  11.228  0.0108 -0.2365  0.0803
 9196SOL    HW139047   0.635   1.152  11.285 -0.8616  0.0814 -0.9242
 9196SOL    HW239048   0.785   1.143  11.277  1.1805  0.4251 -1.3302
 9197SOL     OW39049   3.101   3.996  17.189  0.1467 -0.2990 -0.3172
 9197SOL    HW139050   3.081   4.089  17.178  1.1632  0.1415  1.5172
 9197SOL    HW239051   3.192   3.999  17.218  0.2731 -1.5177 -0.5774
 9198SOL     OW39052   3.108   0.652   6.363 -0.1336 -0.0428 -0.0881
 9198SOL    HW139053   3.133   0.577   6.309  2.2764  1.2144 -0.7158
 9198SOL    HW239054   3.016   0.631   6.380  0.1596 -0.1034  1.4496
 9199SOL     OW39055   3.922   0.492   7.774  0.2088  0.3519  0.3412
 9199SOL    HW139056   3.875   0.420   7.817  1.7132 -0.2331  1.0257
 9199SOL    HW239057   3.996   0.441   7.741 -0.3110 -0.4345  0.4038
 9200SOL     OW39058   3.409   1.020   7.988 -0.0424 -0.5705  0.3022
 9200SOL    HW139059   3.403   1.020   7.892 -1.0915  0.2520  0.3715
 9200SOL    HW239060   3.504   1.008   7.993  0.3364  2.1247 -0.1562
 9201SOL     OW39061   4.104   0.920  15.886  0.4598 -0.3457  0.2223
 9201SOL    HW139062   4.161   0.905  15.961  1.2661 -1.2314 -0.5523
 9201SOL    HW239063   4.136   1.001  15.846 -1.8393 -0.5427 -2.0618
 9202SOL     OW39064   0.637   0.184  11.960 -0.0175  0.2664 -0.0467
 9202SOL    HW139065   0.603   0.262  11.918 -0.6761 -0.3593 -0.6877
 9202SOL    HW239066   0.670   0.231  12.036  1.3248  1.8267 -1.5998
 9203SOL     OW39067   3.652   2.575   1.462 -0.7778 -0.7582 -0.3479
 9203SOL    HW139068   3.634   2.610   1.375  0.9030 -2.4605 -1.3721
 9203SOL    HW239069   3.628   2.485   1.439  0.2288 -1.3832  1.0269
 9204SOL     OW39070   1.796   2.477  13.562 -0.5244 -0.4780  0.1293
 9204SOL    HW139071   1.772   2.410  13.627  1.6794  0.5217  1.9802
 9204SOL    HW239072   1.815   2.426  13.484  1.5561  2.8882 -1.5557
 9205SOL     OW39073   4.240   2.496   6.782 -0.5210  1.0191 -0.5645
 9205SOL    HW139074   4.285   2.513   6.865 -0.6037  1.3853 -0.5971
 9205SOL    HW239075   4.290   2.552   6.724  1.2695  0.7997  0.7577
 9206SOL     OW39076   0.573   1.204  12.847 -0.3077 -0.2904  0.0435
 9206SOL    HW139077   0.491   1.159  12.868 -1.1473 -0.1795 -3.0089
 9206SOL    HW239078   0.601   1.230  12.934  3.1428  0.9608 -1.4388
 9207SOL     OW39079   1.556   2.640   9.460  0.5264 -0.4400 -0.2005
 9207SOL    HW139080   1.532   2.652   9.552  2.3432 -0.0330  0.2303
 9207SOL    HW239081   1.651   2.632   9.471  0.5720  1.2779  0.7985
 9208SOL     OW39082   0.345   3.724   6.077 -0.2814 -0.1678 -0.1270
 9208SOL    HW139083   0.269   3.667   6.069  0.9653 -1.5972 -1.8038
 9208SOL    HW239084   0.369   3.723   6.170 -0.3680  1.8294 -0.1012
 9209SOL     OW39085   4.480   1.284  15.395 -0.9076 -0.0416  0.1217
 9209SOL    HW139086   4.434   1.255  15.316 -1.5581 -2.2030  1.2981
 9209SOL    HW239087   4.569   1.280  15.360 -1.3759 -0.0347 -1.0477
 9210SOL     OW39088   4.389   2.597  10.619  0.3677 -0.3894  0.1129
 9210SOL    HW139089   4.405   2.527  10.556  1.6406  0.8952 -0.9866
 9210SOL    HW239090   4.337   2.546  10.682 -0.1562  1.3292  1.0921
 9211SOL     OW39091   1.297   3.353   7.002  0.6112 -0.3901  0.2255
 9211SOL    HW139092   1.379   3.313   7.029  1.9381  2.0215 -0.2293
 9211SOL    HW239093   1.229   3.302   7.046  2.2194 -1.8135  1.0328
 9212SOL     OW39094   3.003   4.045   0.848 -0.0497 -1.0824  0.3061
 9212SOL    HW139095   2.987   4.030   0.941 -1.6296 -0.2941  0.1680
 9212SOL    HW239096   2.983   4.138   0.835 -1.6814 -1.2929  1.3684
 9213SOL     OW39097   3.893   2.365   7.677  0.0778 -0.1343  0.5148
 9213SOL    HW139098   3.872   2.455   7.702  0.2400  0.1482 -0.3522
 9213SOL    HW239099   3.912   2.320   7.759  0.5921 -1.3532 -0.2835
 9214SOL     OW39100   0.837   4.580   3.477 -0.1281  0.5588  0.6335
 9214SOL    HW139101   0.900   4.568   3.548  0.7290  1.4802  0.0254
 9214SOL    HW239102   0.820   4.490   3.448 -3.1910  1.0008  1.0431
 9215SOL     OW39103   3.080   2.141   6.969  0.7247 -0.0069  0.0496
 9215SOL    HW139104   3.138   2.083   7.017  1.0705 -0.3393 -0.7777
 9215SOL    HW239105   3.002   2.144   7.024  0.8402  3.4920  0.0230
 9216SOL     OW39106   2.558   0.554   4.153  0.4558 -0.6257  0.4462
 9216SOL    HW139107   2.627   0.604   4.111  0.8666 -2.2107 -0.7590
 9216SOL    HW239108   2.568   0.566   4.247  2.8321 -0.5530  0.1843
 9217SOL     OW39109   0.358   4.455   4.756 -0.0174 -0.0998  0.5506
 9217SOL    HW139110   0.287   4.519   4.759 -0.1993 -0.2271 -0.9944
 9217SOL    HW239111   0.435   4.513   4.756 -1.4009  1.7655  0.0866
 9218SOL     OW39112   4.051   1.018   9.393 -0.3102  0.0163 -0.5715
 9218SOL    HW139113   4.054   0.926   9.419 -1.9637  0.0363 -0.2583
 9218SOL    HW239114   3.956   1.032   9.388  0.0138  2.5820  0.3352
 9219SOL     OW39115   1.589   2.315   5.302 -0.4747  0.0453  0.3310
 9219SOL    HW139116   1.647   2.257   5.352  3.2719  2.4773 -1.1510
 9219SOL    HW239117   1.643   2.314   5.222 -0.4526 -2.8015  0.3741
 9220SOL     OW39118   3.904   1.948   8.277  0.0841 -0.4502 -0.1632
 9220SOL    HW139119   3.994   1.938   8.246  0.1932 -1.0985  0.3757
 9220SOL    HW239120   3.911   1.906   8.363  1.3655  0.4056  0.1413
 9221SOL     OW39121   0.789   0.436   9.802 -0.2953  0.1110  0.3407
 9221SOL    HW139122   0.873   0.452   9.759 -1.3498 -0.2804 -1.8525
 9221SOL    HW239123   0.765   0.526   9.824  0.3818  0.4551 -0.3182
 9222SOL     OW39124   1.618   3.253   4.191 -0.5164  0.0365  0.1201
 9222SOL    HW139125   1.599   3.201   4.113 -0.1287 -2.1075  1.4583
 9222SOL    HW239126   1.709   3.279   4.179 -1.1078 -0.0548 -4.3862
 9223SOL     OW39127   1.655   3.666   9.140  0.1563  0.1554  0.2447
 9223SOL    HW139128   1.748   3.652   9.122  0.3109 -0.5321  1.5385
 9223SOL    HW239129   1.651   3.758   9.114 -0.8758  0.7839  2.5567
 9224SOL     OW39130   1.272   0.036   3.804 -0.0264 -0.0491 -0.2175
 9224SOL    HW139131   1.206   0.105   3.807  1.2245  1.2456 -1.9882
 9224SOL    HW239132   1.348   0.080   3.843 -0.8021  2.1331 -1.1545
 9225SOL     OW39133   3.823   1.993   5.894 -0.0665 -0.0750  0.3934
 9225SOL    HW139134   3.918   2.000   5.896 -0.0864  0.6138 -0.7587
 9225SOL    HW239135   3.793   2.066   5.839 -2.4417 -1.7595 -0.5960
 9226SOL     OW39136   4.043   0.025   9.123 -0.1404 -0.3455  0.6144
 9226SOL    HW139137   4.005   0.104   9.162  1.9051  1.0662 -0.3173
 9226SOL    HW239138   4.131   0.052   9.099 -0.2111 -0.6994 -0.0489
 9227SOL     OW39139   1.503   0.699   8.987 -0.7459  0.0409  0.0060
 9227SOL    HW139140   1.496   0.774   9.046  2.3691  0.0170  0.4111
 9227SOL    HW239141   1.590   0.705   8.947 -1.8030 -1.8471 -2.5636
 9228SOL     OW39142   2.094   2.722  11.087  0.1785 -0.6367  0.5682
 9228SOL    HW139143   2.014   2.670  11.100  0.8436 -1.2941  2.0975
 9228SOL    HW239144   2.133   2.666  11.020  1.9315  1.1401  0.1090
 9229SOL     OW39145   1.256   2.216   1.703 -0.2475 -0.3114 -0.3062
 9229SOL    HW139146   1.199   2.281   1.663  1.3869  1.6002  0.4696
 9229SOL    HW239147   1.194   2.144   1.710 -1.5444  0.8164 -0.2723
 9230SOL     OW39148   3.067   0.910   4.156 -0.0830 -0.5593  0.3075
 9230SOL    HW139149   3.032   0.906   4.067 -0.4310  0.8446  0.3823
 9230SOL    HW239150   3.048   0.999   4.186  1.1373 -0.3703  0.5361
 9231SOL     OW39151   3.635   4.370   5.578  0.5283  0.1077  0.2405
 9231SOL    HW139152   3.682   4.420   5.645 -2.5301  0.7377  1.9402
 9231SOL    HW239153   3.616   4.297   5.638  0.2073  2.0875  2.5684
 9232SOL     OW39154   2.041   0.421  10.284  0.3442  0.3299  0.3845
 9232SOL    HW139155   2.078   0.421  10.372 -1.1005  0.3252  0.9990
 9232SOL    HW239156   2.008   0.331  10.274 -0.3038  1.0151 -3.4757
 9233SOL     OW39157   1.767   4.026   4.078  0.1936 -0.3200  0.1786
 9233SOL    HW139158   1.742   4.052   3.989 -2.8756  0.9797  1.4161
 9233SOL    HW239159   1.852   4.070   4.074  0.3487 -0.4493  2.2996
 9234SOL     OW39160   4.661   2.538   8.810  0.4687 -0.2345 -0.5334
 9234SOL    HW139161   4.635   2.452   8.779 -1.0753 -0.1216  0.4364
 9234SOL    HW239162   0.014   2.525   8.869  2.1821 -0.2496 -2.7359
 9235SOL     OW39163   3.723   1.940  10.190  0.6553  0.0547  0.0363
 9235SOL    HW139164   3.766   2.005  10.245  1.6094  0.3229 -1.0204
 9235SOL    HW239165   3.777   1.930  10.111  0.2851 -0.6399 -0.1343
 9236SOL     OW39166   1.364   2.124   1.002 -0.2862 -0.2616 -0.0347
 9236SOL    HW139167   1.387   2.175   1.079 -1.1697 -0.0671  0.1030
 9236SOL    HW239168   1.280   2.162   0.975  0.5159  0.6921 -1.2099
 9237SOL     OW39169   2.369   2.174   9.401 -0.4015 -0.4549 -0.0162
 9237SOL    HW139170   2.380   2.105   9.337 -0.1418  0.5742 -1.0855
 9237SOL    HW239171   2.351   2.119   9.477  2.6859 -0.0528  0.9841
 9238SOL     OW39172   4.138   3.346   1.163  0.1686  0.0694  0.3041
 9238SOL    HW139173   4.054   3.390   1.165 -1.0104 -2.2715  1.5230
 9238SOL    HW239174   4.150   3.344   1.258 -0.6989 -1.2638  0.3906
 9239SOL     OW39175   0.320   0.208   2.007 -0.1876  0.6238 -0.3409
 9239SOL    HW139176   0.280   0.195   1.921 -2.3993  1.2303  0.6216
 9239SOL    HW239177   0.253   0.181   2.070  2.3663 -1.8021  1.3954
 9240SOL     OW39178   2.199   3.778   5.565 -0.2903 -0.0533 -0.6493
 9240SOL    HW139179   2.141   3.714   5.607  0.9294 -0.3804  0.5237
 9240SOL    HW239180   2.137   3.849   5.545 -1.7330 -0.7436  1.3807
 9241SOL     OW39181   2.683   3.558   8.227  0.3747 -0.0049 -0.4538
 9241SOL    HW139182   2.674   3.615   8.304  0.1145 -0.5961 -0.0431
 9241SOL    HW239183   2.653   3.478   8.270  1.4186 -0.5272 -0.7067
 9242SOL     OW39184   0.245   0.787  16.093  0.7109  0.3828 -0.2733
 9242SOL    HW139185   0.254   0.803  16.187  0.7658 -0.1702 -0.1805
 9242SOL    HW239186   0.152   0.765  16.086  1.5979 -3.0077 -1.6332
 9243SOL     OW39187   2.854   2.809   4.665 -0.0864 -0.3503  0.0083
 9243SOL    HW139188   2.843   2.770   4.751 -0.0209  2.2423  1.1926
 9243SOL    HW239189   2.928   2.868   4.677  1.1391 -2.0662  0.7836
 9244SOL     OW39190   1.974   3.017   5.126 -0.2988  0.0664 -0.1240
 9244SOL    HW139191   2.006   3.087   5.183 -0.8287 -1.3152  1.8867
 9244SOL    HW239192   1.879   3.018   5.141  0.0073 -0.9278  1.9274
 9245SOL     OW39193   3.656   4.107   7.242  0.3711 -0.7983 -0.6370
 9245SOL    HW139194   3.676   4.199   7.224 -2.3711 -0.2878 -0.9870
 9245SOL    HW239195   3.738   4.079   7.283 -1.0686 -0.6354  2.3779
 9246SOL     OW39196   2.288   2.166  16.896  0.2775 -0.1662 -0.1040
 9246SOL    HW139197   2.246   2.082  16.877 -2.2466  0.7508  1.3303
 9246SOL    HW239198   2.343   2.187  16.821  0.8559 -1.3446 -0.0102
 9247SOL     OW39199   1.062   4.651  13.299  0.4818  0.2265 -0.0726
 9247SOL    HW139200   1.047   4.585  13.368 -3.0038  0.4845 -0.5855
 9247SOL    HW239201   0.969   4.668  13.285  0.9631  1.2743 -1.8556
 9248SOL     OW39202   3.976   1.883   3.921  0.5091 -0.5967  0.0379
 9248SOL    HW139203   3.929   1.801   3.935  0.5682 -0.6496 -0.0748
 9248SOL    HW239204   3.993   1.916   4.009 -2.0228  0.6974  0.0369
 9249SOL     OW39205   1.933   2.017  17.574  0.1196  0.4485 -0.3242
 9249SOL    HW139206   2.001   1.951  17.586 -1.1159 -0.8663 -0.6424
 9249SOL    HW239207   1.973   2.086  17.627 -0.1981 -0.6623  1.3451
 9250SOL     OW39208   2.374   0.603  11.292 -0.3701 -0.2662 -0.1017
 9250SOL    HW139209   2.305   0.634  11.351  0.9130 -1.8003  2.1996
 9250SOL    HW239210   2.404   0.525  11.339 -1.1400 -0.8038 -0.5157
 9251SOL     OW39211   4.123   3.176   7.374 -0.4520  0.3173 -0.1096
 9251SOL    HW139212   4.141   3.256   7.424  0.3789 -0.4983  0.9048
 9251SOL    HW239213   4.191   3.172   7.307 -0.2987 -0.5628  0.0897
 9252SOL     OW39214   4.668   2.112   3.947  0.0288 -0.0844 -0.0259
 9252SOL    HW139215   4.664   2.165   3.867  2.1844 -1.8690 -1.3378
 9252SOL    HW239216   4.650   2.027   3.907 -1.2704 -0.3103  1.0721
 9253SOL     OW39217   0.145   0.130   1.437  0.3334 -0.0476 -0.1081
 9253SOL    HW139218   0.120   0.042   1.465  2.4936 -0.9935 -1.2076
 9253SOL    HW239219   0.217   0.110   1.378 -0.4990 -1.9637 -0.4853
 9254SOL     OW39220   2.439   2.714  16.234 -0.2789 -0.0196  0.4145
 9254SOL    HW139221   2.406   2.649  16.296  1.1098 -1.1768 -0.0662
 9254SOL    HW239222   2.502   2.668  16.179 -0.2702  2.0827 -1.3457
 9255SOL     OW39223   3.822   1.829   0.577 -0.1805 -0.0741  1.0225
 9255SOL    HW139224   3.861   1.915   0.584 -0.1779 -0.2273  2.9732
 9255SOL    HW239225   3.731   1.844   0.603 -0.3947  0.4725 -0.0664
 9256SOL     OW39226   2.747   3.971   0.223 -0.4303 -0.3758  0.0619
 9256SOL    HW139227   2.771   3.946   0.134 -0.2443  1.4365 -0.4028
 9256SOL    HW239228   2.693   3.898   0.254 -0.5361 -1.5204 -2.8318
 9257SOL     OW39229   4.580   0.572   3.043  0.4776  0.0997 -0.1544
 9257SOL    HW139230   4.655   0.617   3.082  0.1922 -0.6319  1.2675
 9257SOL    HW239231   4.546   0.636   2.981  1.2494 -1.3010 -2.0303
 9258SOL     OW39232   3.857   2.283  11.544  0.0623 -0.4106  0.2866
 9258SOL    HW139233   3.845   2.284  11.449  1.2339  1.4876  0.1460
 9258SOL    HW239234   3.773   2.253  11.576  0.1151  0.5845  1.3709
 9259SOL     OW39235   3.307   1.201   2.774  0.2362  0.4008 -0.2685
 9259SOL    HW139236   3.229   1.248   2.804  0.8405 -0.1845  2.3026
 9259SOL    HW239237   3.280   1.110   2.783 -0.1258  0.5878  0.6204
 9260SOL     OW39238   3.459   0.297   8.219  0.2145 -0.0316 -0.1678
 9260SOL    HW139239   3.537   0.338   8.255  1.2221 -0.8488 -1.4080
 9260SOL    HW239240   3.397   0.365   8.194  0.4338 -0.5552 -2.1451
 9261SOL     OW39241   1.469   0.947   2.436  0.4159  0.6127 -0.8156
 9261SOL    HW139242   1.556   0.933   2.473 -1.3555 -2.4856  2.1392
 9261SOL    HW239243   1.441   0.857   2.420  1.0897  0.1665  0.5293
 9262SOL     OW39244   4.145   4.631  11.178 -0.0209 -0.4932 -0.2261
 9262SOL    HW139245   4.058   4.593  11.189 -0.4502  0.1849 -1.2962
 9262SOL    HW239246   4.164   4.647  11.271 -0.8019  1.3246 -0.3773
 9263SOL     OW39247   0.332   2.159   8.122  0.7848  0.5674 -0.4594
 9263SOL    HW139248   0.303   2.109   8.199 -0.9988  0.5830 -1.1182
 9263SOL    HW239249   0.414   2.200   8.150  1.9942 -1.4426 -1.0352
 9264SOL     OW39250   3.469   2.626   7.684 -0.0303 -0.3567 -0.2364
 9264SOL    HW139251   3.512   2.569   7.748  3.1685  0.1033 -1.9975
 9264SOL    HW239252   3.390   2.630   7.739  1.2982 -0.7543  1.6822
 9265SOL     OW39253   4.039   0.066   5.605  0.1258  0.1521  0.4959
 9265SOL    HW139254   4.068   0.081   5.695 -0.0544 -0.0035  0.5790
 9265SOL    HW239255   4.046   0.159   5.584  0.1229  0.1487  0.4804
 9266SOL     OW39256   0.975   4.442   8.122  0.2902  0.3404 -0.0318
 9266SOL    HW139257   0.987   4.537   8.113 -2.4943  0.7378  0.5459
 9266SOL    HW239258   0.879   4.442   8.125  0.2794  2.1838 -0.5139
 9267SOL     OW39259   1.765   3.236   5.689 -0.4503 -0.6003 -0.2969
 9267SOL    HW139260   1.782   3.297   5.760  1.7145 -2.4814  0.8175
 9267SOL    HW239261   1.763   3.155   5.741  1.3039 -0.1530  0.4857
 9268SOL     OW39262   3.421   1.308   6.130  0.0382  0.3413 -0.0531
 9268SOL    HW139263   3.383   1.322   6.216 -0.9742 -2.2130 -0.0738
 9268SOL    HW239264   3.462   1.391   6.104  0.9339 -0.3971 -1.0356
 9269SOL     OW39265   2.154   0.337  11.203 -0.4453  0.2841 -0.2852
 9269SOL    HW139266   2.071   0.381  11.184  0.5650  1.6221 -1.4871
 9269SOL    HW239267   2.164   0.344  11.298  0.5607 -0.3431 -0.3489
 9270SOL     OW39268   4.019   3.182   8.366 -0.3867  0.2053  0.4441
 9270SOL    HW139269   4.011   3.214   8.276  2.2692 -0.6132 -0.1035
 9270SOL    HW239270   3.931   3.206   8.395 -0.3341 -0.3413  1.0653
 9271SOL     OW39271   0.562   1.502   6.390 -0.2184 -0.5692  0.2006
 9271SOL    HW139272   0.520   1.432   6.441  1.0465  0.1341  2.2455
 9271SOL    HW239273   0.516   1.489   6.308 -1.7982  0.8813  0.8498
 9272SOL     OW39274   0.383   4.343  15.153  0.1784  0.6981  0.4872
 9272SOL    HW139275   0.376   4.439  15.149  0.6229  0.6496 -1.3322
 9272SOL    HW239276   0.478   4.333  15.162  0.3017  0.5008 -0.9568
 9273SOL     OW39277   1.827   1.909  15.673  0.0733  0.1086  0.1362
 9273SOL    HW139278   1.826   1.814  15.669 -1.2605  0.1563 -0.5328
 9273SOL    HW239279   1.808   1.913  15.767  1.1172  1.3149  0.2992
 9274SOL     OW39280   2.935   4.040   2.127  0.4309 -0.5643  0.1731
 9274SOL    HW139281   3.024   4.075   2.131  0.1853  0.1931 -0.8470
 9274SOL    HW239282   2.909   4.064   2.216  2.0404  0.9872  0.2251
 9275SOL     OW39283   1.934   0.409   5.830  0.1957  0.2049 -0.4113
 9275SOL    HW139284   1.996   0.480   5.814 -0.1107  0.2679 -1.3138
 9275SOL    HW239285   1.990   0.355   5.887 -0.1233  0.2232 -0.0857
 9276SOL     OW39286   3.410   0.507   5.920  0.7368 -0.5469 -0.3444
 9276SOL    HW139287   3.344   0.530   5.855  1.2958 -0.8604 -1.0118
 9276SOL    HW239288   3.474   0.577   5.915 -0.5669  0.5492 -1.6108
 9277SOL     OW39289   3.375   1.479   4.197 -0.1451  0.0226  0.1244
 9277SOL    HW139290   3.470   1.494   4.195 -0.3297  1.3404  1.3629
 9277SOL    HW239291   3.370   1.384   4.188  0.2207  0.0737 -0.6289
 9278SOL     OW39292   4.234   1.835   8.811 -0.0202  0.4541 -0.1525
 9278SOL    HW139293   4.149   1.790   8.805  0.9097 -1.6017  2.2465
 9278SOL    HW239294   4.244   1.879   8.726  0.7003  2.3573  0.9245
 9279SOL     OW39295   2.117   0.629   5.779 -0.9097  0.2553 -0.3926
 9279SOL    HW139296   2.081   0.674   5.855 -2.7249 -0.7314 -0.6651
 9279SOL    HW239297   2.134   0.704   5.722  0.6573 -0.7986 -1.3283
 9280SOL     OW39298   0.043   0.633   8.312  0.3533  0.2681  0.3162
 9280SOL    HW139299   0.009   0.562   8.258  0.4981 -0.3495  1.0272
 9280SOL    HW239300   0.134   0.605   8.308  0.0070 -0.8186  0.0669
 9281SOL     OW39301   1.746   1.132   3.763  0.0317  0.1728 -0.4510
 9281SOL    HW139302   1.776   1.223   3.773  2.2154 -0.8514  2.2208
 9281SOL    HW239303   1.819   1.088   3.721  2.2033  2.3169  1.0827
 9282SOL     OW39304   3.384   2.783   2.972  0.7251  0.1502  0.2795
 9282SOL    HW139305   3.460   2.737   3.006  1.7922  0.8022 -1.2056
 9282SOL    HW239306   3.388   2.758   2.880  2.6853 -0.3034  0.4783
 9283SOL     OW39307   0.955   2.597   6.892 -0.4483  0.2386 -0.7619
 9283SOL    HW139308   0.943   2.539   6.817  0.8192 -0.2049 -0.6071
 9283SOL    HW239309   0.863   2.620   6.906 -0.2015  0.8930 -0.2255
 9284SOL     OW39310   1.673   2.289   9.394  0.0188  0.3689  0.0534
 9284SOL    HW139311   1.579   2.307   9.396 -0.1458 -0.6137  0.6818
 9284SOL    HW239312   1.677   2.217   9.456 -1.6998  2.0038  2.0825
 9285SOL     OW39313   2.384   0.187   0.247 -0.7059 -0.0663  0.2760
 9285SOL    HW139314   2.305   0.186   0.193 -0.5254 -1.3054  0.0392
 9285SOL    HW239315   2.379   0.278   0.276 -2.1426  0.2231 -0.8721
 9286SOL     OW39316   3.821   1.111   5.278 -0.4217 -0.0968 -0.4019
 9286SOL    HW139317   3.904   1.096   5.233 -0.1813 -0.4067  0.1522
 9286SOL    HW239318   3.817   1.206   5.269  0.3530 -0.0498 -0.2510
 9287SOL     OW39319   2.983   1.221  12.963  0.2342 -0.0428 -0.0017
 9287SOL    HW139320   2.896   1.180  12.958  1.5320 -2.6266 -1.5679
 9287SOL    HW239321   2.993   1.265  12.879  1.4669  0.4161  0.3874
 9288SOL     OW39322   1.794   0.624  14.994 -0.3462  0.1927 -0.4321
 9288SOL    HW139323   1.863   0.566  15.028  0.5628  0.5418 -1.6539
 9288SOL    HW239324   1.746   0.546  14.964  2.1188 -1.1189 -0.9805
 9289SOL     OW39325   1.644   3.281   8.236 -0.6160  0.2485 -0.4542
 9289SOL    HW139326   1.716   3.340   8.257  0.1979 -1.5691  1.9276
 9289SOL    HW239327   1.698   3.224   8.181 -1.5483 -1.8036  0.7613
 9290SOL     OW39328   3.210   3.752   1.260 -0.1947 -0.5017 -0.1037
 9290SOL    HW139329   3.147   3.720   1.194 -0.3976  3.9885 -2.0681
 9290SOL    HW239330   3.158   3.761   1.340 -1.4080  1.1023 -1.0664
 9291SOL     OW39331   1.565   1.749  17.272  0.4055  0.0595  0.3574
 9291SOL    HW139332   1.544   1.683  17.338  1.4178 -0.7851 -0.1601
 9291SOL    HW239333   1.645   1.789  17.306 -0.0497  3.1100 -2.1931
 9292SOL     OW39334   1.929   4.452   1.844  0.6504  0.1059  0.1248
 9292SOL    HW139335   1.878   4.532   1.856 -0.7778 -0.2070 -4.0196
 9292SOL    HW239336   1.865   4.401   1.794 -0.0295  2.6908 -1.6338
 9293SOL     OW39337   0.480   0.459  17.522  0.1902  0.9031 -0.2208
 9293SOL    HW139338   0.492   0.364  17.516  2.3885  1.2032 -0.4788
 9293SOL    HW239339   0.406   0.470  17.462 -0.4001  0.1997  0.3618
 9294SOL     OW39340   0.261   0.327   7.727  0.4313  0.0186 -0.0670
 9294SOL    HW139341   0.293   0.248   7.683 -0.7945 -0.7075  0.3351
 9294SOL    HW239342   0.194   0.351   7.663 -1.2450  0.2586  1.8054
 9295SOL     OW39343   4.715   4.595   2.779 -0.3761 -0.2208 -0.0503
 9295SOL    HW139344   4.669   4.662   2.828 -0.5614 -0.0521 -0.4599
 9295SOL    HW239345   4.662   4.516   2.792  0.7797 -0.8826  0.7702
 9296SOL     OW39346   4.040   1.793   7.893  0.6019 -0.1398  0.0036
 9296SOL    HW139347   4.046   1.746   7.976  1.6127 -1.3566 -0.7439
 9296SOL    HW239348   3.950   1.823   7.900  0.4332 -0.5905 -0.2382
 9297SOL     OW39349   0.371   4.188   7.952 -0.3165 -0.0665 -0.0115
 9297SOL    HW139350   0.316   4.133   8.007  1.2364 -0.6031  1.0136
 9297SOL    HW239351   0.312   4.211   7.881 -0.7617  2.3127  1.1059
 9298SOL     OW39352   2.899   3.440   8.781  0.0411 -0.7625  0.0254
 9298SOL    HW139353   2.983   3.480   8.806 -0.2868  0.0113 -0.0999
 9298SOL    HW239354   2.929   3.372   8.721  0.7408 -1.0172  0.6629
 9299SOL     OW39355   2.657   3.097  12.050  0.2851 -0.8709 -0.3817
 9299SOL    HW139356   2.714   3.034  12.005 -0.0944 -0.7244 -1.0653
 9299SOL    HW239357   2.715   3.152  12.104 -3.6966 -0.1576  3.1897
 9300SOL     OW39358   3.564   0.137  13.811 -0.2211  0.0630  0.3205
 9300SOL    HW139359   3.529   0.048  13.819 -1.8236  0.7167  0.5497
 9300SOL    HW239360   3.525   0.154  13.726 -1.6605 -3.0936  0.3503
 9301SOL     OW39361   2.699   0.863   3.957  0.4821 -0.1302  0.5345
 9301SOL    HW139362   2.786   0.902   3.945 -0.1526  0.7164 -1.4469
 9301SOL    HW239363   2.719   0.774   3.927 -0.7423 -0.0609 -0.5030
 9302SOL     OW39364   2.249   3.193   5.026 -0.0230  0.4937 -0.1010
 9302SOL    HW139365   2.253   3.283   4.994 -0.7631 -0.1642 -2.0346
 9302SOL    HW239366   2.172   3.160   4.979 -1.3017  1.3168  1.3822
 9303SOL     OW39367   1.284   3.813   9.271  0.2001 -0.4077  0.7182
 9303SOL    HW139368   1.318   3.896   9.304  0.3699  0.4636 -1.6530
 9303SOL    HW239369   1.289   3.838   9.178 -0.7619 -0.0439  0.7710
 9304SOL     OW39370   3.270   0.192   6.648 -0.3178  0.7734  0.4714
 9304SOL    HW139371   3.175   0.180   6.640 -0.1328 -0.5237  0.2867
 9304SOL    HW239372   3.291   0.154   6.562 -1.7949  0.1993  0.3568
 9305SOL     OW39373   1.898   2.712   2.406  0.5999 -0.1113 -0.3825
 9305SOL    HW139374   1.916   2.642   2.468  2.5684  0.4247 -0.3239
 9305SOL    HW239375   1.899   2.677   2.318 -3.3243 -0.5566 -0.2137
 9306SOL     OW39376   4.122   2.675   4.919  0.4084  0.0126  0.0866
 9306SOL    HW139377   4.205   2.630   4.908 -1.4865 -2.8252 -2.5678
 9306SOL    HW239378   4.102   2.681   4.826 -1.1963 -1.1891  0.3536
 9307SOL     OW39379   1.391   4.320   0.781  0.4041 -0.1159  0.1073
 9307SOL    HW139380   1.370   4.379   0.708  2.5491  1.7221  0.9486
 9307SOL    HW239381   1.486   4.325   0.772  0.5013 -0.2094  1.0939
 9308SOL     OW39382   0.407   2.264   4.724 -0.1530  0.2567 -0.2967
 9308SOL    HW139383   0.419   2.269   4.819  1.0646 -2.6955 -0.3086
 9308SOL    HW239384   0.397   2.358   4.710  3.9810  0.9142  1.3339
 9309SOL     OW39385   2.694   2.663  17.642 -0.0291  0.1808  0.5378
 9309SOL    HW139386   2.665   2.754  17.636 -2.3634 -0.6428 -0.5644
 9309SOL    HW239387   2.616   2.609  17.627 -0.6372  1.7409 -1.9220
 9310SOL     OW39388   1.285   4.476   3.788 -0.9741  0.3465  0.2740
 9310SOL    HW139389   1.343   4.466   3.712 -2.0064 -1.9583 -0.2009
 9310SOL    HW239390   1.292   4.571   3.801 -1.7445  0.6448 -1.4827
 9311SOL     OW39391   1.420   4.521   2.522  0.5485  0.1652  0.2472
 9311SOL    HW139392   1.476   4.481   2.588  2.3000  2.2128 -0.0163
 9311SOL    HW239393   1.427   4.454   2.454 -3.6175 -1.2884  1.2371
 9312SOL     OW39394   0.994   2.311   8.025  0.4965  0.2482 -0.0038
 9312SOL    HW139395   0.971   2.224   8.057 -0.4830  0.3838 -0.3661
 9312SOL    HW239396   0.907   2.344   8.002  0.1431  0.0955  1.0832
 9313SOL     OW39397   2.193   1.514   4.550 -0.6305  0.6037  0.2534
 9313SOL    HW139398   2.132   1.580   4.585 -0.0750  2.4753 -2.3273
 9313SOL    HW239399   2.155   1.496   4.464 -0.0438 -0.5882  0.2523
 9314SOL     OW39400   3.425   4.278   8.891  0.4623 -0.1598 -0.2924
 9314SOL    HW139401   3.361   4.223   8.936 -0.9202 -1.5643 -3.8876
 9314SOL    HW239402   3.425   4.249   8.799  2.0079 -2.2122  0.3400
 9315SOL     OW39403   1.739   1.374   7.044  0.3283  0.3657  0.5242
 9315SOL    HW139404   1.735   1.318   7.122 -1.9142  1.1616  0.9949
 9315SOL    HW239405   1.750   1.307   6.978 -0.5714 -1.0491  1.8079
 9316SOL     OW39406   0.488   1.439   2.884  0.0749  0.4007  0.2978
 9316SOL    HW139407   0.434   1.402   2.954 -0.8669  0.3522 -0.4457
 9316SOL    HW239408   0.435   1.519   2.881 -1.1855 -0.6012 -4.7756
 9317SOL     OW39409   1.423   4.294  10.788  0.2252  0.4187  0.1573
 9317SOL    HW139410   1.519   4.294  10.793  0.2637 -2.9366 -0.4836
 9317SOL    HW239411   1.408   4.373  10.735  1.5010  1.0775  0.7805
 9318SOL     OW39412   2.955   1.110   9.185 -0.1735  0.1437  0.0810
 9318SOL    HW139413   3.030   1.096   9.244 -0.1670  0.2459  0.0973
 9318SOL    HW239414   2.974   1.194   9.142  0.0335 -0.1092 -0.3153
 9319SOL     OW39415   4.072   2.869   2.592  0.6272 -0.4672  0.1491
 9319SOL    HW139416   4.076   2.939   2.527 -1.4370 -0.1939  0.3219
 9319SOL    HW239417   3.992   2.833   2.554 -0.1817  0.9410  0.5505
 9320SOL     OW39418   2.706   1.904   3.721  0.0434 -0.2930 -0.5121
 9320SOL    HW139419   2.790   1.945   3.700 -0.1841  0.3452 -0.1824
 9320SOL    HW239420   2.700   1.838   3.652 -2.0012 -1.5360  0.8402
 9321SOL     OW39421   3.467   0.692   6.908  0.0147 -0.0266 -0.0986
 9321SOL    HW139422   3.549   0.653   6.939 -1.0701 -3.2652 -1.2750
 9321SOL    HW239423   3.466   0.672   6.815  1.5892 -1.9476  0.2891
 9322SOL     OW39424   1.332   3.489   7.758 -0.5056  0.1032 -0.0267
 9322SOL    HW139425   1.427   3.503   7.761 -0.3634 -1.1797  1.2582
 9322SOL    HW239426   1.310   3.561   7.698  0.4113  1.1571  0.8990
 9323SOL     OW39427   1.040   3.386  15.932  0.7684 -0.1540 -0.0249
 9323SOL    HW139428   1.135   3.372  15.931  0.9751  1.2348  0.0698
 9323SOL    HW239429   1.023   3.338  16.013  0.1550  2.5009  1.4127
 9324SOL     OW39430   2.628   2.248  15.985  0.1858  0.8866 -0.0779
 9324SOL    HW139431   2.706   2.237  16.039 -0.2886  3.1063  1.0777
 9324SOL    HW239432   2.651   2.315  15.920  0.9577  1.0421  0.3470
 9325SOL     OW39433   1.682   2.231   7.014  0.0788 -0.1750  0.1459
 9325SOL    HW139434   1.777   2.236   7.002  0.6043 -2.4975  3.3719
 9325SOL    HW239435   1.679   2.223   7.110 -2.2138 -0.8373  0.0178
 9326SOL     OW39436   1.305   4.588   7.648 -0.1398  0.7183  0.8974
 9326SOL    HW139437   1.400   4.580   7.637 -0.1537  1.7941  0.0668
 9326SOL    HW239438   1.285   4.673   7.609 -0.5928 -0.7040 -1.9103
 9327SOL     OW39439   1.722   1.710   9.034  0.0323 -0.0644 -0.3948
 9327SOL    HW139440   1.731   1.684   8.942  2.3874 -2.2457  0.4603
 9327SOL    HW239441   1.810   1.747   9.040 -0.2592  0.4545  0.5776
 9328SOL     OW39442   0.166   0.807   0.408 -0.0156  0.5942 -0.0901
 9328SOL    HW139443   0.154   0.827   0.315  2.0466 -0.5962 -0.6063
 9328SOL    HW239444   0.128   0.719   0.405  1.0504  0.1873 -1.3549
 9329SOL     OW39445   3.554   1.142  12.836 -0.8596 -0.7547  0.2282
 9329SOL    HW139446   3.614   1.187  12.896  0.5532  2.8032 -3.8058
 9329SOL    HW239447   3.584   1.051  12.842  1.7105  0.2845  3.2147
 9330SOL     OW39448   0.570   0.073   5.223 -0.3178  0.2001 -0.2928
 9330SOL    HW139449   0.654   0.085   5.180 -0.2041 -0.5738 -0.2788
 9330SOL    HW239450   0.574   0.137   5.294  1.4959 -0.2470  0.0050
 9331SOL     OW39451   3.498   0.577   2.582 -0.1351 -0.0184 -0.4062
 9331SOL    HW139452   3.426   0.514   2.578  1.3998 -1.7886 -0.2512
 9331SOL    HW239453   3.462   0.648   2.530  0.4226 -1.3437 -2.5879
 9332SOL     OW39454   2.149   2.961   9.305  0.0543  0.8795 -0.4783
 9332SOL    HW139455   2.123   2.870   9.291  1.5733  0.1054  1.6993
 9332SOL    HW239456   2.164   2.957   9.399  0.7632  0.3638 -0.6207
 9333SOL     OW39457   3.064   1.268   8.348  0.1298 -0.7089 -0.3715
 9333SOL    HW139458   2.983   1.222   8.326  0.3345 -1.4445  0.3865
 9333SOL    HW239459   3.127   1.240   8.282 -0.5002  1.3781 -1.8391
 9334SOL     OW39460   1.541   0.984   8.104  0.4993  1.0082 -0.8001
 9334SOL    HW139461   1.591   0.905   8.084 -1.9652 -0.4958 -0.9309
 9334SOL    HW239462   1.602   1.022   8.168 -0.2356 -0.4768  0.7907
 9335SOL     OW39463   3.122   0.116   0.120 -0.2038 -0.2611  0.2801
 9335SOL    HW139464   3.091   0.026   0.111 -0.1813 -0.0677 -1.7165
 9335SOL    HW239465   3.068   0.161   0.055  2.0381  0.3595 -1.1574
 9336SOL     OW39466   1.002   1.742   2.737  0.2269  0.3121 -0.4209
 9336SOL    HW139467   0.923   1.708   2.779  0.2512  0.1038 -0.5446
 9336SOL    HW239468   1.016   1.668   2.678 -0.7976 -0.6696  0.5663
 9337SOL     OW39469   1.002   1.374  14.926 -0.2803  0.1156 -0.2177
 9337SOL    HW139470   1.082   1.389  14.976 -0.3808  1.4237 -0.4355
 9337SOL    HW239471   1.037   1.311  14.864 -3.8794 -1.7704 -0.3414
 9338SOL     OW39472   3.674   2.525   3.344 -0.1487  0.3122  0.1466
 9338SOL    HW139473   3.750   2.475   3.374  0.1186  1.1298  0.8421
 9338SOL    HW239474   3.718   2.588   3.286 -0.3163 -0.4591 -0.8128
 9339SOL     OW39475   1.972   2.199  12.676 -0.1760 -0.2434 -0.4361
 9339SOL    HW139476   1.964   2.249  12.595  0.4078 -0.2264 -0.4832
 9339SOL    HW239477   1.958   2.275  12.732 -0.1812 -1.7253  1.5798
 9340SOL     OW39478   3.676   2.994  15.086  0.3611  0.1641 -0.4833
 9340SOL    HW139479   3.747   3.058  15.089  0.5649  0.1132 -3.5369
 9340SOL    HW239480   3.685   2.962  14.996  0.6068  1.7929 -1.0386
 9341SOL     OW39481   4.557   0.258   9.110 -0.1920  0.1564  0.0360
 9341SOL    HW139482   4.652   0.252   9.115 -0.3664 -0.8884  2.2507
 9341SOL    HW239483   4.546   0.347   9.144  1.6866  0.5496 -0.4153
 9342SOL     OW39484   4.692   3.783   7.034  0.0962 -0.4354 -0.3070
 9342SOL    HW139485   4.614   3.731   7.053 -0.1686 -0.2596 -0.9213
 9342SOL    HW239486   0.040   3.720   7.053  0.7509  0.7019  1.1243
 9343SOL     OW39487   3.149   2.371  13.919  0.1170 -0.2002  0.9878
 9343SOL    HW139488   3.062   2.382  13.880  0.3120 -0.3486  0.5113
 9343SOL    HW239489   3.121   2.324  13.998 -4.9307 -1.0016 -1.2694
 9344SOL     OW39490   1.570   4.404  16.909  0.4213  0.7639  0.2564
 9344SOL    HW139491   1.524   4.424  16.828  0.6538 -0.4240 -0.1751
 9344SOL    HW239492   1.577   4.308  16.909 -1.5680  0.6160  0.8754
 9345SOL     OW39493   0.617   2.196   4.530 -0.0185 -0.1229  0.4344
 9345SOL    HW139494   0.612   2.211   4.624 -1.9608  0.7571  0.1829
 9345SOL    HW239495   0.528   2.211   4.499 -0.5832 -0.7515  1.7787
 9346SOL     OW39496   2.301   3.139   2.303  0.2179 -0.7479 -0.2696
 9346SOL    HW139497   2.376   3.194   2.279 -1.8179  1.7163 -0.9879
 9346SOL    HW239498   2.233   3.206   2.300  2.2788  1.2752 -1.7259
 9347SOL     OW39499   4.083   3.943   8.540  0.2814 -0.1626  0.1012
 9347SOL    HW139500   3.989   3.936   8.557  0.1044 -1.7938 -1.4958
 9347SOL    HW239501   4.117   3.911   8.623 -0.2323  1.9885  1.1584
 9348SOL     OW39502   1.498   0.031   1.928  0.0550 -1.1354 -0.3940
 9348SOL    HW139503   1.429   0.088   1.894  2.8161  3.5256  1.7456
 9348SOL    HW239504   1.516   4.683   1.864  0.1128  0.1868 -1.8131
 9349SOL     OW39505   3.203   3.570   7.152  0.1269  0.1858 -0.1082
 9349SOL    HW139506   3.117   3.531   7.169 -1.2380  2.2986 -2.1730
 9349SOL    HW239507   3.196   3.600   7.061  2.4712 -1.0720 -0.7189
 9350SOL     OW39508   3.864   3.451   1.133 -0.3415  0.2599 -0.6070
 9350SOL    HW139509   3.867   3.525   1.073  1.6019 -0.5527 -1.5099
 9350SOL    HW239510   3.859   3.380   1.069  2.0719 -1.1498  0.7425
 9351SOL     OW39511   3.278   3.906   7.134 -0.1746  0.8135  0.0030
 9351SOL    HW139512   3.291   3.996   7.164  0.2917  1.1132 -1.1063
 9351SOL    HW239513   3.184   3.896   7.119 -0.0936  1.0994 -0.6688
 9352SOL     OW39514   4.113   1.467   2.436 -0.3836  0.6881  0.0360
 9352SOL    HW139515   4.059   1.516   2.498 -1.1024 -2.8058  2.1519
 9352SOL    HW239516   4.081   1.380   2.459 -1.1333  1.4272  1.8102
 9353SOL     OW39517   2.045   3.052   7.394  0.5076  0.3746  0.4147
 9353SOL    HW139518   2.072   3.123   7.336  1.1394  1.4307  2.0254
 9353SOL    HW239519   2.037   2.975   7.338 -0.6563  0.0550  1.0135
 9354SOL     OW39520   2.269   1.749   5.308 -0.3950 -0.0715  0.1775
 9354SOL    HW139521   2.293   1.729   5.398  2.5331 -0.5814 -0.7168
 9354SOL    HW239522   2.296   1.841   5.307 -0.3511 -0.0814  0.4538
 9355SOL     OW39523   2.162   1.656   3.288  0.0780  0.1752  0.7287
 9355SOL    HW139524   2.196   1.712   3.357  0.9601  1.5356 -0.8145
 9355SOL    HW239525   2.233   1.666   3.224  0.0036  1.2982  0.8307
 9356SOL     OW39526   1.837   3.283   4.492  0.3474 -0.2768 -0.2917
 9356SOL    HW139527   1.749   3.302   4.525 -1.1153 -1.6584 -3.4408
 9356SOL    HW239528   1.847   3.366   4.446  1.3460 -0.1808  0.0919
 9357SOL     OW39529   1.852   0.291   4.181  0.5308 -0.1704  0.2586
 9357SOL    HW139530   1.896   0.223   4.131 -0.1172 -0.5728  0.2355
 9357SOL    HW239531   1.802   0.329   4.110  0.6375 -2.2270 -0.9182
 9358SOL     OW39532   2.011   1.900   3.206 -0.0724  0.7812  0.2417
 9358SOL    HW139533   1.979   1.811   3.225 -2.5324  1.8988  1.2924
 9358SOL    HW239534   2.088   1.891   3.150 -0.5405  2.4994 -0.6701
 9359SOL     OW39535   2.080   3.205   1.686 -0.2277 -0.2404  0.2004
 9359SOL    HW139536   2.105   3.220   1.777 -1.0560  2.6572 -0.0678
 9359SOL    HW239537   2.123   3.282   1.648  0.4045 -0.8845 -0.3913
 9360SOL     OW39538   1.319   4.666   1.021 -0.2430 -0.6601  0.0517
 9360SOL    HW139539   1.414   4.670   1.025 -0.2413 -1.9263  1.1995
 9360SOL    HW239540   1.302   0.029   0.978 -3.0297 -0.9686  0.5262
 9361SOL     OW39541   3.491   2.235   4.894  0.2123 -0.1136  0.5686
 9361SOL    HW139542   3.575   2.278   4.878  0.5003 -0.7936  0.2614
 9361SOL    HW239543   3.429   2.303   4.920  0.5782 -0.0621  1.2958
 9362SOL     OW39544   1.912   2.879   1.790 -0.2683 -0.0207 -0.1226
 9362SOL    HW139545   1.960   2.814   1.841 -2.1235 -0.8917  0.5349
 9362SOL    HW239546   1.844   2.815   1.770 -1.6174  1.2682  0.2925
 9363SOL     OW39547   1.704   4.019   1.662  0.1947  0.2343 -0.1385
 9363SOL    HW139548   1.799   4.024   1.669  0.3580  1.4280 -3.1785
 9363SOL    HW239549   1.683   3.930   1.633 -4.0364  1.3654 -0.6173
 9364SOL     OW39550   1.671   4.212   9.612  0.2934  0.2177 -0.0955
 9364SOL    HW139551   1.741   4.247   9.667  0.5107  1.5057 -1.1670
 9364SOL    HW239552   1.609   4.184   9.679  0.8573  1.1624  0.8225
 9365SOL     OW39553   3.730   1.962   4.312  0.0754 -0.1608  0.4107
 9365SOL    HW139554   3.773   1.901   4.372 -0.2140  0.3341  1.1281
 9365SOL    HW239555   3.806   1.980   4.257 -0.4073 -0.0989 -0.2335
 9366SOL     OW39556   3.489   0.869   0.354  0.1289  0.1464  0.0491
 9366SOL    HW139557   3.540   0.791   0.375  0.5347 -0.1364 -1.9224
 9366SOL    HW239558   3.437   0.834   0.281 -0.6855  3.0714 -0.7985
 9367SOL     OW39559   4.216   3.133   1.906  0.0268  0.0933  0.2324
 9367SOL    HW139560   4.243   3.048   1.941 -3.2607 -0.6685  0.9284
 9367SOL    HW239561   4.277   3.196   1.945  0.1613 -0.0537  0.2604
 9368SOL     OW39562   1.743   2.899   9.309  0.5217 -0.7771  0.0529
 9368SOL    HW139563   1.696   2.844   9.247 -2.1104  0.5470  0.8964
 9368SOL    HW239564   1.682   2.910   9.382  3.8735 -0.0155  2.7731
 9369SOL     OW39565   2.709   3.340   1.623 -0.6115  0.3988 -0.1688
 9369SOL    HW139566   2.653   3.265   1.643 -0.8700  0.0704 -2.1413
 9369SOL    HW239567   2.730   3.362   1.714  1.6383  0.7282 -0.7695
 9370SOL     OW39568   4.341   0.070   4.007 -0.5207  0.1363 -0.4405
 9370SOL    HW139569   4.307   4.705   3.985 -1.0310  0.2926 -0.2656
 9370SOL    HW239570   4.277   0.134   3.974  1.7432  1.4676 -2.2682
 9371SOL     OW39571   1.893   1.650   2.621 -0.0310  0.1536  0.4243
 9371SOL    HW139572   1.951   1.669   2.548  0.3104  0.8296  0.8759
 9371SOL    HW239573   1.962   1.656   2.687 -0.6810 -1.9513  1.3088
 9372SOL     OW39574   3.098   1.473   6.446  1.0405 -0.2268 -0.5550
 9372SOL    HW139575   3.107   1.556   6.494 -0.3091 -0.4837  0.1455
 9372SOL    HW239576   3.191   1.452   6.438  1.7591  2.4855  0.4813
 9373SOL     OW39577   0.788   2.278   7.415  0.2938 -0.6264 -0.5650
 9373SOL    HW139578   0.819   2.233   7.494  0.3663 -0.4157 -0.4735
 9373SOL    HW239579   0.778   2.369   7.444 -1.0903 -0.2556 -2.2203
 9374SOL     OW39580   2.255   3.388   3.499  0.6630  0.6796 -0.3045
 9374SOL    HW139581   2.319   3.410   3.567  1.7312  0.7905 -1.3431
 9374SOL    HW239582   2.254   3.293   3.505 -1.2271  0.8101  1.6669
 9375SOL     OW39583   1.918   1.903   8.436 -0.4956 -0.6825 -0.2112
 9375SOL    HW139584   1.844   1.916   8.377  0.5361 -0.7735 -1.5302
 9375SOL    HW239585   1.965   1.828   8.400  0.9743  0.2213 -0.1527
 9376SOL     OW39586   3.345   0.888   6.437 -0.5534 -0.7593  0.0779
 9376SOL    HW139587   3.366   0.965   6.385  0.1260 -0.8207  0.2704
 9376SOL    HW239588   3.283   0.840   6.383  0.1014 -2.0396  0.4583
 9377SOL     OW39589   0.410   1.462   9.459  0.3327 -0.2061 -0.7004
 9377SOL    HW139590   0.471   1.531   9.487  1.4254 -0.6787 -1.8854
 9377SOL    HW239591   0.414   1.395   9.527  1.8546  0.9499  0.3563
 9378SOL     OW39592   3.503   0.086   5.075 -0.4991 -0.2763 -0.7995
 9378SOL    HW139593   3.534   0.067   4.986 -0.2719 -0.7411 -0.6193
 9378SOL    HW239594   3.438   0.153   5.057  0.0040  0.6784  0.9608
 9379SOL     OW39595   0.570   3.655   3.101  0.0497  0.2518  0.1570
 9379SOL    HW139596   0.595   3.605   3.179  0.1481  0.4926  0.2810
 9379SOL    HW239597   0.482   3.624   3.080  0.4017 -0.7396  0.1375
 9380SOL     OW39598   4.576   4.364   2.870 -0.1474 -0.2247 -0.1750
 9380SOL    HW139599   4.586   4.388   2.962 -0.1625 -1.2631  0.1004
 9380SOL    HW239600   4.480   4.362   2.868 -0.2057 -0.3370  2.4812
 9381SOL     OW39601   3.816   3.318   3.931 -0.8617  0.7858  0.5564
 9381SOL    HW139602   3.725   3.317   3.900 -0.5019  0.8085 -0.4961
 9381SOL    HW239603   3.845   3.382   3.866  0.3686  0.4702  0.8034
 9382SOL     OW39604   4.683   2.192   6.984  0.0320  0.1627  0.7699
 9382SOL    HW139605   4.611   2.130   6.987 -1.4143  1.8164  0.5325
 9382SOL    HW239606   0.007   2.154   7.059 -0.3122 -0.6758  0.5526
 9383SOL     OW39607   0.631   3.290   7.015  0.4923  0.3136  0.1646
 9383SOL    HW139608   0.627   3.385   7.030  2.1661  0.2234  1.2518
 9383SOL    HW239609   0.695   3.290   6.944  0.6300 -0.5386  0.2919
 9384SOL     OW39610   3.467   4.632   6.303 -0.1421  0.3151  0.5862
 9384SOL    HW139611   3.541   4.598   6.253 -1.0214 -0.2750 -0.3035
 9384SOL    HW239612   3.498   0.001   6.306 -1.3303  0.7627 -1.1428
 9385SOL     OW39613   3.325   0.833  12.825 -0.2321 -0.4063 -0.2260
 9385SOL    HW139614   3.331   0.927  12.844 -0.8182  0.2522 -3.3346
 9385SOL    HW239615   3.230   0.835  12.837 -0.0581  2.0315  0.6853
 9386SOL     OW39616   2.801   4.394   8.878 -0.2169 -0.3801  0.1749
 9386SOL    HW139617   2.712   4.416   8.906 -0.3298  0.8551 -1.1613
 9386SOL    HW239618   2.839   4.375   8.964 -2.0407  3.4466  1.7852
 9387SOL     OW39619   0.280   1.450   4.988  0.8940 -0.0555  0.3577
 9387SOL    HW139620   0.346   1.497   5.040 -1.3394  2.1371  1.1998
 9387SOL    HW239621   0.294   1.358   5.010  0.3988 -0.4332 -0.9783
 9388SOL     OW39622   1.254   3.217   5.422  0.0724 -0.2189 -0.7340
 9388SOL    HW139623   1.182   3.158   5.445  0.7979 -0.1363  1.7973
 9388SOL    HW239624   1.318   3.170   5.476 -2.6339 -1.5324  1.3204
 9389SOL     OW39625   1.158   1.965   3.031 -0.0437 -0.2967  0.0685
 9389SOL    HW139626   1.094   1.977   3.102 -0.6668  1.0009 -0.7254
 9389SOL    HW239627   1.229   2.012   3.074 -0.5481  0.3565  0.1764
 9390SOL     OW39628   3.910   3.936   7.873  0.8660 -0.0611  0.0626
 9390SOL    HW139629   3.891   3.980   7.790  0.4537  3.2083  1.8867
 9390SOL    HW239630   3.899   3.847   7.839  0.8251 -0.3630  0.8611
 9391SOL     OW39631   2.257   1.890   6.283  0.1786 -0.3212  0.6962
 9391SOL    HW139632   2.258   1.925   6.372 -0.7689 -0.9584  0.9554
 9391SOL    HW239633   2.310   1.954   6.236 -0.4692 -1.8541 -2.1275
 9392SOL     OW39634   0.530   0.290   5.408 -0.1669  0.5918  0.2764
 9392SOL    HW139635   0.570   0.236   5.476  0.6361  1.9057  0.8437
 9392SOL    HW239636   0.438   0.266   5.423 -0.0789 -0.6203 -1.0618
 9393SOL     OW39637   3.568   0.353   4.870 -0.2665 -0.1625  0.0166
 9393SOL    HW139638   3.610   0.439   4.869  3.3483 -1.9281 -1.5989
 9393SOL    HW239639   3.484   0.379   4.908 -0.0581  1.0639 -0.3710
 9394SOL     OW39640   3.358   1.027   7.717 -0.0780  0.1405  0.7495
 9394SOL    HW139641   3.389   0.937   7.726  1.1217  0.3808 -0.9811
 9394SOL    HW239642   3.402   1.058   7.638 -3.0345 -0.8929 -1.3155
 9395SOL     OW39643   1.643   2.226   8.647  0.1239 -0.2392 -0.5638
 9395SOL    HW139644   1.670   2.305   8.601  1.9361  0.0429  0.9604
 9395SOL    HW239645   1.724   2.174   8.640  0.0134 -0.8653  2.7504
 9396SOL     OW39646   0.498   3.087   6.023  0.2853 -0.3249 -0.2235
 9396SOL    HW139647   0.415   3.064   5.981  0.3842 -0.1247 -0.5224
 9396SOL    HW239648   0.530   3.137   5.949  3.1122  0.2420  1.4035
 9397SOL     OW39649   3.109   3.486   0.631 -0.3283  0.5197  0.0856
 9397SOL    HW139650   3.028   3.448   0.595  1.2507 -0.5643 -2.2812
 9397SOL    HW239651   3.106   3.570   0.585  0.0396  1.1656  1.2586
 9398SOL     OW39652   2.497   0.572   2.461  0.2804 -0.0035 -0.9893
 9398SOL    HW139653   2.543   0.558   2.379 -0.5501  2.3227 -1.8682
 9398SOL    HW239654   2.567   0.624   2.500 -0.7162  0.6708 -0.0600
 9399SOL     OW39655   1.639   4.466   2.132 -0.2395 -0.0285  0.5968
 9399SOL    HW139656   1.635   4.519   2.212  3.6834 -1.2951  1.6253
 9399SOL    HW239657   1.684   4.533   2.081 -0.5428  1.1573  1.8867
 9400SOL     OW39658   4.066   1.700   6.964  0.3273 -0.3196 -0.0674
 9400SOL    HW139659   4.075   1.792   6.988  0.3738 -0.5488  0.8168
 9400SOL    HW239660   3.985   1.671   7.007  1.6442  0.5199  3.0289
 9401SOL     OW39661   1.979   1.803   9.118  0.2851  0.3677 -0.3952
 9401SOL    HW139662   2.055   1.773   9.069 -0.1628 -0.0838 -0.8236
 9401SOL    HW239663   1.997   1.783   9.210  0.4916 -0.6946 -0.6618
 9402SOL     OW39664   1.386   4.381  17.115 -0.0568  0.3778 -0.0024
 9402SOL    HW139665   1.425   4.388  17.202 -0.0747  1.8275 -0.1172
 9402SOL    HW239666   1.465   4.404  17.067  0.4647 -2.5672 -0.5478
 9403SOL     OW39667   3.306   1.507   4.711 -0.3439 -0.2528 -0.2873
 9403SOL    HW139668   3.293   1.600   4.730  2.1041  0.3572 -1.6627
 9403SOL    HW239669   3.341   1.516   4.622 -0.9758  0.4124 -0.4676
 9404SOL     OW39670   2.680   0.357   4.975 -0.0785  0.3264  0.2025
 9404SOL    HW139671   2.703   0.366   5.068  1.4067  0.8768 -0.2259
 9404SOL    HW239672   2.618   0.431   4.973  0.2897  0.6051 -0.7769
 9405SOL     OW39673   1.363   0.973   6.602  1.1872  0.0143  0.3771
 9405SOL    HW139674   1.368   1.053   6.551 -1.2564 -0.0418  0.0471
 9405SOL    HW239675   1.271   0.952   6.589  1.3941 -0.2247 -0.7219
 9406SOL     OW39676   2.140   4.305   7.938  0.2306  0.0040 -0.2641
 9406SOL    HW139677   2.178   4.254   8.009  1.8145  0.3303 -0.8863
 9406SOL    HW239678   2.081   4.233   7.914  0.9033 -0.7269  0.2777
 9407SOL     OW39679   2.180   2.856   6.989  0.0659  0.2028 -0.1839
 9407SOL    HW139680   2.175   2.951   6.994 -0.9848  0.0611  1.6804
 9407SOL    HW239681   2.126   2.838   6.912  0.0296 -1.4935  0.2389
 9408SOL     OW39682   2.660   3.974   1.335  0.0300 -0.2337  0.2833
 9408SOL    HW139683   2.611   4.056   1.347  0.5770  0.3350 -1.3743
 9408SOL    HW239684   2.599   3.911   1.298 -2.3596  2.2264  0.0169
 9409SOL     OW39685   1.164   2.582   9.456  0.7030 -0.3838 -0.0341
 9409SOL    HW139686   1.258   2.587   9.473  0.5345 -0.6998  1.0404
 9409SOL    HW239687   1.138   2.667   9.421  0.3881 -1.2031 -1.7766
 9410SOL     OW39688   3.762   2.992  12.742 -0.0008 -0.0790  0.1769
 9410SOL    HW139689   3.737   3.049  12.669 -0.4786 -0.3092  0.1647
 9410SOL    HW239690   3.813   2.922  12.701  0.3471 -0.3535  1.0803
 9411SOL     OW39691   1.449   4.561  16.021 -0.2303  0.5028 -0.1864
 9411SOL    HW139692   1.495   4.555  16.105 -0.8427  0.8585  0.1687
 9411SOL    HW239693   1.497   4.633  15.981  1.5905 -0.6316 -0.0699
 9412SOL     OW39694   2.977   4.544   8.719 -0.4285 -0.1774 -0.6861
 9412SOL    HW139695   2.943   4.485   8.787  2.1157  1.4698  2.0612
 9412SOL    HW239696   2.966   4.625   8.768  1.5790 -0.2846 -0.0533
 9413SOL     OW39697   2.549   1.921   3.940 -0.2443 -0.1125  0.1746
 9413SOL    HW139698   2.482   1.856   3.919  1.5121 -2.2678  1.1520
 9413SOL    HW239699   2.615   1.911   3.871 -0.8214  0.0104 -0.3854
 9414SOL     OW39700   1.436   3.328   9.720 -0.4348  0.0937 -0.4428
 9414SOL    HW139701   1.502   3.261   9.737  0.0888  0.2645 -1.8777
 9414SOL    HW239702   1.378   3.292   9.653 -0.7702  0.9728 -0.6370
 9415SOL     OW39703   1.489   2.948  11.452 -0.2072  0.2925 -0.4566
 9415SOL    HW139704   1.515   2.876  11.510 -1.3328  0.2248 -0.0461
 9415SOL    HW239705   1.441   3.012  11.504  1.0268  1.0742 -0.2858
 9416SOL     OW39706   3.703   4.317   3.314 -0.0576  0.3608  0.3701
 9416SOL    HW139707   3.612   4.342   3.331 -1.1563 -3.2718 -0.0151
 9416SOL    HW239708   3.715   4.237   3.365  1.4074 -1.9323 -3.5466
 9417SOL     OW39709   1.089   3.684  14.263 -0.3620 -0.1939 -1.0448
 9417SOL    HW139710   0.997   3.664  14.246 -0.7413  0.5864  0.1059
 9417SOL    HW239711   1.078   3.753  14.329  1.6393  0.1448 -1.0796
 9418SOL     OW39712   1.883   1.864   5.025 -0.1386  0.5147 -0.6851
 9418SOL    HW139713   1.942   1.798   5.060 -2.0440 -1.9294 -2.0597
 9418SOL    HW239714   1.888   1.854   4.930  0.5645 -4.3906 -0.1309
 9419SOL     OW39715   0.769   4.622  11.257 -0.4072 -0.1170  0.1860
 9419SOL    HW139716   0.839   4.649  11.198 -0.1271 -1.5312 -0.1234
 9419SOL    HW239717   0.689   4.614  11.205  0.5845 -0.8433 -1.2246
 9420SOL     OW39718   4.660   2.060   2.990 -0.2476  0.3468  0.4243
 9420SOL    HW139719   4.705   1.995   2.936 -0.7997  1.2227 -1.1024
 9420SOL    HW239720   4.577   2.083   2.947  0.4525  1.0528 -0.5453
 9421SOL     OW39721   1.950   0.371  14.274  0.1537  0.6657  0.3930
 9421SOL    HW139722   1.982   0.320  14.348  0.6157  1.2025  0.5580
 9421SOL    HW239723   1.933   0.457  14.314 -0.5298  0.3672  0.7422
 9422SOL     OW39724   0.852   2.214   3.927 -0.5482 -0.0991 -0.1274
 9422SOL    HW139725   0.865   2.306   3.903  1.4457  0.3495  2.6194
 9422SOL    HW239726   0.850   2.173   3.841 -2.2465 -1.1080  0.3995
 9423SOL     OW39727   0.080   3.606   7.651 -0.1238  0.1069  0.1634
 9423SOL    HW139728   0.061   3.593   7.744 -2.4077  0.4981 -0.2450
 9423SOL    HW239729   0.007   3.663   7.627  0.0034 -0.6986 -2.1662
 9424SOL     OW39730   4.220   1.709   9.059  0.4176  1.1148  0.3071
 9424SOL    HW139731   4.144   1.764   9.075  0.7622  2.8794 -3.9181
 9424SOL    HW239732   4.260   1.742   8.978  1.4707 -0.3860  0.1884
 9425SOL     OW39733   4.581   1.596   5.846  0.4081  0.1227  0.2088
 9425SOL    HW139734   4.637   1.533   5.890 -0.1108  0.1456  0.8883
 9425SOL    HW239735   4.631   1.612   5.766  2.0420  1.9481  1.6007
 9426SOL     OW39736   3.161   2.787  11.821  0.8298 -0.2982 -0.0570
 9426SOL    HW139737   3.165   2.882  11.830 -0.1003 -0.3444  0.8585
 9426SOL    HW239738   3.141   2.784  11.728  2.3540 -0.1968 -0.3862
 9427SOL     OW39739   1.265   1.606   9.208 -0.1337 -0.2705 -0.3232
 9427SOL    HW139740   1.284   1.633   9.298 -0.1856 -4.4083  0.9245
 9427SOL    HW239741   1.346   1.643   9.172  1.0792 -1.8160  0.8564
 9428SOL     OW39742   0.894   0.664  15.861 -0.4291  0.3417 -0.0508
 9428SOL    HW139743   0.860   0.688  15.774  0.4722  1.4842 -0.0878
 9428SOL    HW239744   0.915   0.572  15.847 -0.8826  0.3285 -0.6880
 9429SOL     OW39745   3.193   4.367  17.382 -0.2134  0.2342 -0.3325
 9429SOL    HW139746   3.192   4.415  17.465  1.0878 -0.7003  0.2101
 9429SOL    HW239747   3.282   4.334  17.390  0.3050  1.3096 -1.6484
 9430SOL     OW39748   2.472   3.078   7.453 -0.1491 -0.2913  0.1468
 9430SOL    HW139749   2.550   3.030   7.423 -1.7879 -1.5948 -2.0025
 9430SOL    HW239750   2.460   3.134   7.376  0.7314 -0.3582 -0.0476
 9431SOL     OW39751   0.991   0.648   4.907  0.3556 -0.6560  0.3786
 9431SOL    HW139752   0.981   0.686   4.994 -2.8433  0.2552 -0.3911
 9431SOL    HW239753   0.982   0.726   4.852  0.2061 -1.1347 -0.2835
 9432SOL     OW39754   3.116   2.181   4.764 -0.9071  0.2101 -0.1647
 9432SOL    HW139755   3.087   2.263   4.804  2.0122  0.7027  0.9853
 9432SOL    HW239756   3.033   2.149   4.729 -1.2420 -0.9511  1.7065
 9433SOL     OW39757   1.849   2.089  13.628  0.2168  0.8469 -0.5295
 9433SOL    HW139758   1.867   2.008  13.580  1.2602 -0.6888  2.4453
 9433SOL    HW239759   1.938   2.121  13.643  0.3855 -0.1403  0.6073
 9434SOL     OW39760   3.044   1.236   6.723 -0.4351 -0.6997 -0.3541
 9434SOL    HW139761   3.123   1.187   6.702 -0.2812 -0.0746 -1.2455
 9434SOL    HW239762   3.013   1.176   6.791  1.2793  0.6630  1.6282
 9435SOL     OW39763   0.329   1.466  14.100  0.1785  0.2705  0.6223
 9435SOL    HW139764   0.235   1.476  14.111 -0.1774  0.5694 -2.6005
 9435SOL    HW239765   0.323   1.381  14.056  2.3514 -0.0840  0.9974
 9436SOL     OW39766   2.163   2.763   8.324 -0.3448  0.8051  0.1536
 9436SOL    HW139767   2.186   2.675   8.354  0.6696  1.5025  1.4115
 9436SOL    HW239768   2.192   2.783   8.235  2.4189 -1.5073  0.5215
 9437SOL     OW39769   0.537   3.114   8.175  0.0353 -0.3027 -0.2217
 9437SOL    HW139770   0.537   3.019   8.176 -1.0184 -0.3146 -1.5236
 9437SOL    HW239771   0.623   3.130   8.137  0.1383  0.8929  0.4948
 9438SOL     OW39772   0.387   2.066   3.343 -0.2868  0.4327  0.5136
 9438SOL    HW139773   0.398   2.093   3.252  0.8652 -1.3614  0.1106
 9438SOL    HW239774   0.341   1.984   3.326 -1.6777  1.7213 -1.7668
 9439SOL     OW39775   2.006   3.876   3.179  0.4927  0.4867 -0.2397
 9439SOL    HW139776   1.992   3.918   3.264 -0.0003  0.5938 -0.3778
 9439SOL    HW239777   1.915   3.863   3.152  0.1703 -2.4652  2.2368
 9440SOL     OW39778   3.593   4.385   5.967  0.1122  0.0226  0.2522
 9440SOL    HW139779   3.522   4.430   6.012 -2.2785 -2.2927 -1.2320
 9440SOL    HW239780   3.617   4.448   5.900  2.9950  1.0024  2.1834
 9441SOL     OW39781   3.626   3.849  15.238  0.0236  0.5276 -0.1230
 9441SOL    HW139782   3.540   3.867  15.277  0.1014 -1.9017  1.2455
 9441SOL    HW239783   3.681   3.854  15.316  0.3258 -0.5910 -0.2527
 9442SOL     OW39784   3.597   0.844  11.394 -0.2165 -0.4151 -0.0609
 9442SOL    HW139785   3.521   0.796  11.426  0.7684 -0.4020  2.3511
 9442SOL    HW239786   3.600   0.840  11.299 -1.7135 -0.1602 -0.1166
 9443SOL     OW39787   2.729   0.176   8.339  0.1331  0.2275  0.4650
 9443SOL    HW139788   2.646   0.145   8.376 -1.4160  2.0659 -1.4950
 9443SOL    HW239789   2.700   0.252   8.288 -1.1429  0.2254  1.1813
 9444SOL     OW39790   2.640   3.857   1.737  0.2242 -0.2432 -0.4417
 9444SOL    HW139791   2.696   3.906   1.797  1.1262  1.3920 -2.6191
 9444SOL    HW239792   2.577   3.924   1.712 -1.6644 -1.5667  0.7086
 9445SOL     OW39793   3.000   2.462   2.309 -0.4101  0.1352 -0.0358
 9445SOL    HW139794   3.081   2.511   2.301 -1.0459  1.4633  1.5504
 9445SOL    HW239795   2.998   2.420   2.223  0.9350 -0.2591  0.1227
 9446SOL     OW39796   3.369   2.679   5.171 -0.0299 -0.2692  0.4552
 9446SOL    HW139797   3.443   2.737   5.157  0.0043 -0.4972 -0.3200
 9446SOL    HW239798   3.402   2.595   5.137 -2.4318 -0.9491 -0.2145
 9447SOL     OW39799   3.205   3.675  16.878  0.1751 -0.1862 -0.4629
 9447SOL    HW139800   3.175   3.708  16.793 -1.4590 -1.0264 -0.1991
 9447SOL    HW239801   3.250   3.756  16.904 -0.1828 -0.0207 -0.3663
 9448SOL     OW39802   2.472   3.650   5.451 -0.6326 -0.0894 -0.1889
 9448SOL    HW139803   2.398   3.706   5.475 -0.9885 -0.5546 -0.2017
 9448SOL    HW239804   2.416   3.577   5.425 -0.5585 -0.3411  0.3675
 9449SOL     OW39805   2.259   1.233   0.128 -0.7589 -0.0296  0.2466
 9449SOL    HW139806   2.343   1.207   0.089 -0.7411 -1.1614  1.0383
 9449SOL    HW239807   2.222   1.303   0.074 -1.0228 -1.4377 -1.3933
 9450SOL     OW39808   0.585   4.638  13.218 -0.2465 -0.1178  0.3506
 9450SOL    HW139809   0.495   4.667  13.227 -0.5901 -1.0349 -0.0829
 9450SOL    HW239810   0.574   4.544  13.202  1.5907 -0.4229  0.9185
 9451SOL     OW39811   0.416   1.044   3.115 -0.2208  0.4880 -0.2748
 9451SOL    HW139812   0.367   0.993   3.180 -0.2922 -1.2923 -1.7182
 9451SOL    HW239813   0.505   1.062   3.145 -0.7836  1.1672  0.9610
 9452SOL     OW39814   2.842   4.597  11.297 -0.1623 -0.2409 -0.2404
 9452SOL    HW139815   2.780   4.647  11.244  0.1538 -0.3903 -0.7520
 9452SOL    HW239816   2.916   4.655  11.318  0.2810 -0.8478 -0.1317
 9453SOL     OW39817   0.577   0.286   6.940 -0.0779 -0.0166  0.4592
 9453SOL    HW139818   0.597   0.236   6.861 -0.5322  1.3611 -0.5357
 9453SOL    HW239819   0.658   0.335   6.956 -0.1372  1.0363 -2.5414
 9454SOL     OW39820   0.867   2.707   9.124  0.0758 -0.1090  0.2363
 9454SOL    HW139821   0.948   2.657   9.131  1.7372  2.6601  0.7141
 9454SOL    HW239822   0.860   2.733   9.215 -1.0640  0.9422 -0.1511
 9455SOL     OW39823   1.301   3.772   4.578  0.3144 -0.4542 -0.3097
 9455SOL    HW139824   1.393   3.796   4.568  0.7392 -1.5267  1.0919
 9455SOL    HW239825   1.260   3.859   4.578  1.2419 -0.0148  0.5482
 9456SOL     OW39826   0.059   4.366   1.406 -0.0753  0.4089 -0.4747
 9456SOL    HW139827   0.073   4.444   1.459 -1.5361  0.3256  0.0153
 9456SOL    HW239828   4.704   4.326   1.446  0.7077  1.3520  1.9953
 9457SOL     OW39829   4.496   3.932  11.305 -0.1116  0.0799  0.1802
 9457SOL    HW139830   4.571   3.914  11.249 -0.4519  2.1920 -0.9428
 9457SOL    HW239831   4.546   3.949  11.385 -1.8725 -1.6634  1.6530
 9458SOL     OW39832   3.778   0.621   3.132 -0.4308  0.3749  0.2246
 9458SOL    HW139833   3.862   0.659   3.107 -0.1958 -0.7273 -0.6242
 9458SOL    HW239834   3.728   0.666   3.064  1.6882 -0.7710 -2.0592
 9459SOL     OW39835   0.444   0.664   6.331 -0.0009 -0.3334  0.4276
 9459SOL    HW139836   0.381   0.653   6.259 -1.4095  0.2133  1.5875
 9459SOL    HW239837   0.390   0.676   6.408  0.0832  1.7539  0.1611
 9460SOL     OW39838   2.233   4.311  14.066 -0.1627 -0.0409 -0.5943
 9460SOL    HW139839   2.256   4.401  14.089  2.1262 -0.4706 -1.1960
 9460SOL    HW239840   2.315   4.281  14.026 -0.0233 -0.4421 -0.0055
 9461SOL     OW39841   2.661   1.473   2.844  0.0762 -0.4105  0.8393
 9461SOL    HW139842   2.676   1.557   2.886 -3.3881  1.7077 -2.2486
 9461SOL    HW239843   2.632   1.488   2.754  0.1728 -0.7578  0.7499
 9462SOL     OW39844   3.414   1.373  13.089  0.3680 -0.4671  0.1986
 9462SOL    HW139845   3.377   1.427  13.019  0.8884 -0.4754 -0.0792
 9462SOL    HW239846   3.502   1.405  13.108  0.0722 -1.0531  2.5452
 9463SOL     OW39847   4.227   2.252  11.781  0.2727  0.1087 -0.3132
 9463SOL    HW139848   4.153   2.309  11.762 -0.6080 -0.6655  0.8048
 9463SOL    HW239849   4.185   2.196  11.846  1.5068 -1.9324 -1.2675
 9464SOL     OW39850   0.550   0.958   4.013 -0.0402 -0.1090  1.2256
 9464SOL    HW139851   0.477   0.901   3.987  0.1307  0.0459  0.4157
 9464SOL    HW239852   0.541   1.037   3.960 -1.2875  0.7394  2.6981
 9465SOL     OW39853   2.276   3.949   9.061  0.2208  0.2466  0.2525
 9465SOL    HW139854   2.273   3.862   9.021  1.2514 -0.0247  0.7610
 9465SOL    HW239855   2.186   3.978   9.074  0.6307  1.3799  0.6034
 9466SOL     OW39856   2.254   3.922   7.799 -0.3009  0.4255 -0.0019
 9466SOL    HW139857   2.211   3.838   7.783 -1.2000  1.2663 -2.1098
 9466SOL    HW239858   2.196   3.956   7.867 -0.2563 -1.1362  0.8159
 9467SOL     OW39859   1.075   1.798   5.409  0.0175 -0.4664  0.6381
 9467SOL    HW139860   0.984   1.826   5.418  0.1274 -0.0816  0.5928
 9467SOL    HW239861   1.074   1.771   5.318 -1.8552  2.8381 -0.3341
 9468SOL     OW39862   2.378   0.811   4.515  0.2442 -0.3405  0.4805
 9468SOL    HW139863   2.320   0.887   4.524  0.4963  0.0046 -0.6996
 9468SOL    HW239864   2.312   0.756   4.474 -0.6897 -0.4469  2.1494
 9469SOL     OW39865   1.298   3.271   6.468  0.1503  0.1138 -0.1255
 9469SOL    HW139866   1.219   3.279   6.415 -0.8805 -0.1714  1.3547
 9469SOL    HW239867   1.260   3.280   6.556  0.4973  0.7855 -0.0370
 9470SOL     OW39868   0.727   3.488   9.422  0.6834 -0.1711  0.3377
 9470SOL    HW139869   0.787   3.437   9.367  1.5608  2.2561 -0.9464
 9470SOL    HW239870   0.791   3.533   9.477  0.7827  0.1975 -0.0823
 9471SOL     OW39871   1.951   1.144  16.109  0.6856  0.1178 -0.0698
 9471SOL    HW139872   1.859   1.128  16.089  0.5862  2.0943 -1.2551
 9471SOL    HW239873   1.990   1.064  16.074  0.1918  0.3053 -1.0391
 9472SOL     OW39874   0.578   1.138   7.049  0.2960  0.0045  0.5908
 9472SOL    HW139875   0.534   1.189   6.981 -1.2083 -1.1678  0.6604
 9472SOL    HW239876   0.591   1.210   7.110  2.5459  0.8793 -0.9524
 9473SOL     OW39877   4.277   1.578  13.918  0.0155 -0.3969 -0.4957
 9473SOL    HW139878   4.255   1.516  13.849  1.3964  0.3089 -1.5634
 9473SOL    HW239879   4.201   1.562  13.974 -1.5589 -0.2675 -2.6160
 9474SOL     OW39880   3.084   2.178   3.719 -0.3877  0.5085 -0.3363
 9474SOL    HW139881   3.099   2.220   3.634 -2.9182 -1.3100 -1.6952
 9474SOL    HW239882   3.067   2.260   3.764 -0.5675  0.0652  0.4044
 9475SOL     OW39883   0.709   1.237   7.957  0.4159 -0.0831 -0.5275
 9475SOL    HW139884   0.775   1.304   7.936 -0.1317  0.8762  0.8319
 9475SOL    HW239885   0.686   1.200   7.871 -0.2003 -1.2407  0.1459
 9476SOL     OW39886   3.673   0.141  12.002  0.0890 -0.0882 -0.4482
 9476SOL    HW139887   3.588   0.101  12.019  0.3564 -0.6494 -0.4222
 9476SOL    HW239888   3.731   0.065  12.014  0.4317  0.4273  1.1562
 9477SOL     OW39889   0.926   0.315   9.053 -0.1000  0.0939 -0.8096
 9477SOL    HW139890   1.021   0.321   9.064 -0.3478 -1.4614  2.3331
 9477SOL    HW239891   0.921   0.223   9.029  2.5825 -0.0996 -0.6671
 9478SOL     OW39892   2.084   1.941  10.133  0.0869  0.1753 -0.0756
 9478SOL    HW139893   2.139   2.016  10.156 -0.7647  1.0292 -0.8307
 9478SOL    HW239894   2.139   1.873  10.170 -1.1858 -0.7822  0.0514
 9479SOL     OW39895   3.829   4.186   6.840 -0.4529 -0.1000  0.4777
 9479SOL    HW139896   3.788   4.228   6.765  2.5725  0.3875 -0.9040
 9479SOL    HW239897   3.778   4.106   6.857 -0.0117 -0.4787  0.0026
 9480SOL     OW39898   1.106   2.507   8.234  0.8575  0.0003  0.6659
 9480SOL    HW139899   1.146   2.432   8.190  1.0758 -0.8630  2.3226
 9480SOL    HW239900   1.182   2.565   8.240  1.5617 -0.6958 -1.3050
 9481SOL     OW39901   1.947   3.463   6.514 -0.1750  0.2752  0.3356
 9481SOL    HW139902   1.922   3.547   6.554 -1.3850  0.1450 -0.1464
 9481SOL    HW239903   2.006   3.491   6.444  2.5934  1.9231  3.3884
 9482SOL     OW39904   0.973   0.525   2.972 -0.3066  0.4443  0.1893
 9482SOL    HW139905   0.895   0.476   2.944 -0.9092 -0.4477  3.4599
 9482SOL    HW239906   1.023   0.455   3.015 -0.0373 -0.1490 -1.0744
 9483SOL     OW39907   4.444   1.073   6.901 -0.0976  0.2887  0.1137
 9483SOL    HW139908   4.524   1.075   6.953 -0.5549  2.3623  0.7457
 9483SOL    HW239909   4.452   1.160   6.862  0.2173 -0.7024 -2.0330
 9484SOL     OW39910   3.808   1.940   3.370  0.3149 -0.0998  0.8532
 9484SOL    HW139911   3.857   2.009   3.415  0.8222 -1.1358  1.8941
 9484SOL    HW239912   3.877   1.919   3.307  1.5479  2.8140  1.2377
 9485SOL     OW39913   2.948   3.810   2.357  0.8579 -0.0843  0.0205
 9485SOL    HW139914   3.039   3.825   2.332 -0.2855  3.1203 -2.3296
 9485SOL    HW239915   2.916   3.901   2.358 -1.7191 -1.0049  0.9159
 9486SOL     OW39916   2.413   4.714   7.309 -0.1317  0.0102  0.2151
 9486SOL    HW139917   2.378   0.064   7.362 -0.5053  1.8254 -2.4504
 9486SOL    HW239918   2.441   0.062   7.249  2.5738 -0.3112  1.1168
 9487SOL     OW39919   1.754   3.368  16.987  0.0365 -0.0995  0.0520
 9487SOL    HW139920   1.746   3.455  17.025  2.0032  1.0509 -2.1844
 9487SOL    HW239921   1.850   3.360  16.985  0.0485 -0.3476  1.1262
 9488SOL     OW39922   4.564   3.930  15.242 -0.3982  0.4464 -0.3796
 9488SOL    HW139923   4.591   3.988  15.171  0.4961 -0.5899 -0.9006
 9488SOL    HW239924   4.469   3.937  15.232 -0.5930  0.7189  1.6587
 9489SOL     OW39925   2.958   3.719   1.758  0.1237 -0.6133 -0.3325
 9489SOL    HW139926   2.973   3.753   1.847 -0.7221  1.1506 -0.8616
 9489SOL    HW239927   2.873   3.678   1.773 -0.9444  0.9666 -2.0065
 9490SOL     OW39928   0.126   3.222   8.574 -0.3037 -0.2135 -0.1702
 9490SOL    HW139929   0.084   3.291   8.524 -1.2430 -0.6383  0.0408
 9490SOL    HW239930   0.069   3.211   8.650 -0.8356 -2.7083 -0.9241
 9491SOL     OW39931   1.003   2.307   6.359 -0.5757 -0.3593 -0.0377
 9491SOL    HW139932   0.967   2.333   6.274 -1.3440 -0.7371  0.1709
 9491SOL    HW239933   1.000   2.211   6.354 -1.0142 -0.4076  1.2903
 9492SOL     OW39934   1.961   1.676   4.519  0.8150 -0.4555  0.1288
 9492SOL    HW139935   1.959   1.757   4.467  1.0335 -1.1544 -0.9589
 9492SOL    HW239936   1.906   1.706   4.592  2.4188  0.0227  1.1281
 9493SOL     OW39937   4.114   1.085   6.083 -0.0853  0.8353  0.2657
 9493SOL    HW139938   4.032   1.039   6.068  0.2040  0.3086  0.2979
 9493SOL    HW239939   4.111   1.149   6.012 -0.6913  1.4368  0.8349
 9494SOL     OW39940   2.825   1.250   2.879 -0.1325  0.0899  0.0406
 9494SOL    HW139941   2.784   1.329   2.915 -2.8576 -2.0023  1.4808
 9494SOL    HW239942   2.771   1.236   2.801  0.4485 -1.0821 -0.1481
 9495SOL     OW39943   3.460   1.605   6.940  0.0135 -0.2762  0.4779
 9495SOL    HW139944   3.522   1.545   6.899 -0.2533 -0.5049  0.4041
 9495SOL    HW239945   3.391   1.550   6.977  0.2131 -1.4468 -0.9102
 9496SOL     OW39946   1.306   1.549   5.202 -0.5383 -0.0066 -0.2648
 9496SOL    HW139947   1.353   1.600   5.136 -0.9283  0.0735 -0.4800
 9496SOL    HW239948   1.224   1.530   5.155  0.5850  0.8899 -2.5870
 9497SOL     OW39949   0.592   0.438  10.115 -0.0158  0.0197  0.2854
 9497SOL    HW139950   0.611   0.513  10.170 -1.3579 -0.3299  1.2283
 9497SOL    HW239951   0.564   0.481  10.034 -1.7802  0.6712  1.2249
 9498SOL     OW39952   1.120   3.055  10.338  0.8127 -0.2523 -0.0879
 9498SOL    HW139953   1.105   3.149  10.347  1.6911 -0.0589 -0.5737
 9498SOL    HW239954   1.207   3.042  10.376  0.4214  0.1792  0.9324
 9499SOL     OW39955   1.805   3.441  17.366  0.5014  0.0860 -0.2104
 9499SOL    HW139956   1.757   3.488  17.297  2.6235  1.5884 -0.6719
 9499SOL    HW239957   1.807   3.350  17.337  0.4012  0.8755 -2.6410
 9500SOL     OW39958   2.135   1.995   1.452  0.0885 -0.0240 -0.5632
 9500SOL    HW139959   2.201   2.063   1.444  0.4213 -0.4594 -1.5203
 9500SOL    HW239960   2.197   1.933   1.415  0.4033 -0.1807  0.2264
 9501SOL     OW39961   1.639   2.621   2.005  0.3576  0.0678  0.6320
 9501SOL    HW139962   1.712   2.668   2.044  0.9084  0.5918 -1.0150
 9501SOL    HW239963   1.611   2.690   1.945  0.9997 -1.0507 -0.9800
 9502SOL     OW39964   2.193   3.891   4.655  0.0988  0.6414 -0.9231
 9502SOL    HW139965   2.275   3.936   4.675 -1.0817  2.0534  0.6782
 9502SOL    HW239966   2.205   3.869   4.562  1.7648 -0.5305 -0.4275
 9503SOL     OW39967   2.195   0.060  13.206  0.1017 -0.1433 -0.7467
 9503SOL    HW139968   2.194   0.127  13.274  1.1180 -0.3064 -0.5614
 9503SOL    HW239969   2.107   0.024  13.217  0.1804  0.0593  0.6414
 9504SOL     OW39970   3.043   0.739  13.624 -0.2909 -0.2556 -0.1159
 9504SOL    HW139971   3.012   0.651  13.602  3.2302 -1.6932  0.7583
 9504SOL    HW239972   2.964   0.793  13.628  0.1894  0.5426 -1.2626
 9505SOL     OW39973   2.926   2.100   7.195  0.3422  0.4044  0.0266
 9505SOL    HW139974   2.854   2.088   7.258 -1.0518  2.4669 -1.1951
 9505SOL    HW239975   2.982   2.152   7.252 -1.8446  0.9166  1.7033
 9506SOL     OW39976   3.944   0.409   2.323 -0.4942  0.1294  0.7135
 9506SOL    HW139977   4.009   0.376   2.260  0.5945  2.3252  0.7001
 9506SOL    HW239978   3.990   0.489   2.348  1.0112 -1.0331  1.6283
 9507SOL     OW39979   3.046   0.444   7.729 -0.0405  0.3971 -0.3572
 9507SOL    HW139980   2.987   0.497   7.782 -1.3551 -0.1642 -1.2679
 9507SOL    HW239981   3.005   0.440   7.643  0.6744 -0.8908 -0.6389
 9508SOL     OW39982   4.692   4.297  16.577 -0.4983 -0.5064  0.3373
 9508SOL    HW139983   0.046   4.308  16.635  0.0710  1.9696 -0.8358
 9508SOL    HW239984   0.006   4.328  16.493  0.8303 -2.4940  0.1776
 9509SOL     OW39985   1.431   2.157   6.271 -0.2106 -0.1891 -0.2676
 9509SOL    HW139986   1.447   2.216   6.198 -0.9496  1.3310  0.7894
 9509SOL    HW239987   1.404   2.219   6.339  0.7611  0.6731 -0.6883
 9510SOL     OW39988   4.562   2.198   7.320 -0.1274  0.0050 -0.2400
 9510SOL    HW139989   4.472   2.204   7.353  0.4570 -0.5132  1.4344
 9510SOL    HW239990   4.547   2.139   7.246  1.8816  1.3266 -1.7190
 9511SOL     OW39991   4.436   2.376   9.086  0.2944  0.3313 -0.3185
 9511SOL    HW139992   4.455   2.336   9.001 -0.2581 -0.1643 -0.2083
 9511SOL    HW239993   4.377   2.311   9.124 -0.2335  0.2192 -1.3410
 9512SOL     OW39994   2.541   3.323   4.670 -0.3565  0.2355 -0.1820
 9512SOL    HW139995   2.596   3.246   4.679 -0.2053  0.1455 -1.9006
 9512SOL    HW239996   2.509   3.321   4.760 -0.1902 -0.2086 -0.1346
 9513SOL     OW39997   4.271   4.358   5.658  0.1132  0.2443 -0.0306
 9513SOL    HW139998   4.338   4.352   5.726 -0.1186  0.0431  0.1816
 9513SOL    HW239999   4.266   4.451   5.636 -2.4311 -0.0261 -0.5951
 9514SOL     OW40000   4.467   1.902   2.601  0.0564  0.0727 -0.0904
 9514SOL    HW140001   4.439   1.904   2.510  1.7834 -1.5171 -0.6549
 9514SOL    HW240002   4.560   1.888   2.585  0.0751  0.8053 -0.6283
 9515SOL     OW40003   0.701   1.226   0.439  0.5892  0.3199  0.1004
 9515SOL    HW140004   0.772   1.202   0.498  1.0139 -0.5841 -0.7652
 9515SOL    HW240005   0.634   1.167   0.472 -0.9197 -0.2842 -4.0436
 9516SOL     OW40006   0.975   1.709   6.473 -0.0989  0.4144 -0.3654
 9516SOL    HW140007   1.041   1.727   6.539  2.0556  1.4755 -2.7888
 9516SOL    HW240008   0.902   1.753   6.516  0.1986 -0.3709  0.9192
 9517SOL     OW40009   4.617   0.655   6.848  0.1560  0.2328  0.5256
 9517SOL    HW140010   4.660   0.701   6.921 -0.2840  0.2543  0.7715
 9517SOL    HW240011   4.676   0.579   6.845  2.6899  2.2566 -1.0251
 9518SOL     OW40012   1.123   3.040   2.499 -0.3306 -0.2282  0.0058
 9518SOL    HW140013   1.192   3.001   2.553  1.4288  2.0106 -0.6242
 9518SOL    HW240014   1.176   3.074   2.428 -1.7950  0.7139 -0.6303
 9519SOL     OW40015   0.658   0.377  16.158 -0.5889 -0.1742  0.2121
 9519SOL    HW140016   0.678   0.338  16.072  1.0671  0.8373  0.1385
 9519SOL    HW240017   0.746   0.391  16.195 -1.5806 -0.4250  2.6431
 9520SOL     OW40018   4.191   4.224   3.971 -0.4266 -0.2739  0.2156
 9520SOL    HW140019   4.252   4.188   3.906 -0.8383  1.5691 -1.1786
 9520SOL    HW240020   4.139   4.147   3.996 -1.4324  0.3566  0.0437
 9521SOL     OW40021   3.266   0.640   7.674  0.0781  0.9246 -0.5195
 9521SOL    HW140022   3.218   0.557   7.678  0.6896  0.6543  1.1697
 9521SOL    HW240023   3.199   0.692   7.630  0.6986 -0.7711 -3.4802
 9522SOL     OW40024   3.763   2.532   7.440 -0.0282 -0.1688  0.2234
 9522SOL    HW140025   3.802   2.617   7.460  0.6545 -0.7712  1.4484
 9522SOL    HW240026   3.721   2.554   7.356 -0.5781  0.8181  0.7468
 9523SOL     OW40027   3.407   1.224   5.435 -0.6192  0.8081 -0.3141
 9523SOL    HW140028   3.452   1.206   5.517 -0.2002  2.5623 -0.1730
 9523SOL    HW240029   3.327   1.269   5.462  0.9383  2.2170  1.9370
 9524SOL     OW40030   3.248   1.546   7.336  0.0704 -0.6084  0.3804
 9524SOL    HW140031   3.308   1.575   7.405  1.4818 -0.6161 -0.8282
 9524SOL    HW240032   3.279   1.605   7.267 -0.9169  2.8451  2.9111
 9525SOL     OW40033   1.974   0.761   2.957  0.1764 -0.2359  0.7660
 9525SOL    HW140034   2.006   0.681   2.915 -0.2820 -1.2616  2.3758
 9525SOL    HW240035   2.026   0.761   3.038 -0.7597  1.0267  1.3582
 9526SOL     OW40036   4.638   4.232   3.813 -0.7624  0.3467 -0.0957
 9526SOL    HW140037   4.657   4.149   3.857 -1.8484  0.1837  0.0554
 9526SOL    HW240038   4.658   4.289   3.887  0.4562  1.4919 -1.3079
 9527SOL     OW40039   0.546   3.751   7.385  0.0678 -0.2327  0.4982
 9527SOL    HW140040   0.604   3.675   7.393 -0.4802 -0.4588  2.4144
 9527SOL    HW240041   0.472   3.729   7.441  0.6331 -1.3906  0.7853
 9528SOL     OW40042   2.025   1.367   3.601  0.6130  0.1737  0.4576
 9528SOL    HW140043   2.060   1.379   3.512 -0.1195  2.2625  0.4692
 9528SOL    HW240044   1.966   1.440   3.617 -0.5842 -0.5008 -0.8411
 9529SOL     OW40045   3.808   3.783   5.761  0.3180 -0.1223  0.4693
 9529SOL    HW140046   3.770   3.702   5.796 -1.8875  0.1967 -1.1973
 9529SOL    HW240047   3.722   3.824   5.749 -0.8596 -2.3406  1.3469
 9530SOL     OW40048   0.766   1.805   7.282 -0.6330 -0.4650  0.2573
 9530SOL    HW140049   0.704   1.876   7.297 -1.3287 -0.7017 -1.5841
 9530SOL    HW240050   0.708   1.729   7.291 -1.1907 -0.0331  0.3062
 9531SOL     OW40051   2.891   4.330   9.130  0.0630 -0.2620 -0.1070
 9531SOL    HW140052   2.888   4.248   9.180  1.6977 -0.0081  0.4170
 9531SOL    HW240053   2.947   4.381   9.188 -1.0426  0.7775  0.0429
 9532SOL     OW40054   4.635   4.610   1.501  0.1282  0.3645  0.4683
 9532SOL    HW140055   4.596   4.523   1.515  1.8503 -0.6058 -0.7218
 9532SOL    HW240056   4.576   4.632   1.429 -0.5893  0.0033  0.9461
 9533SOL     OW40057   3.611   2.825   7.375  0.0145  0.5366 -0.3886
 9533SOL    HW140058   3.533   2.781   7.409  2.1764 -2.2030  1.0608
 9533SOL    HW240059   3.669   2.759   7.334 -0.9455 -0.6845  0.2187
 9534SOL     OW40060   0.232   3.202  10.182 -0.5590  0.4075 -0.1307
 9534SOL    HW140061   0.218   3.200  10.087 -2.7447  0.6873  0.2008
 9534SOL    HW240062   0.144   3.197  10.217 -1.2495  1.5062 -1.6779
 9535SOL     OW40063   4.701   2.246   3.175 -0.0272  0.5954 -0.3137
 9535SOL    HW140064   4.607   2.267   3.169 -0.1398  0.1988  0.1169
 9535SOL    HW240065   4.693   2.190   3.098  0.8924 -1.4568  1.1165
 9536SOL     OW40066   1.045   3.026   6.436 -0.3400 -0.0201  0.3938
 9536SOL    HW140067   0.988   3.081   6.382  0.9513  0.6362 -0.2922
 9536SOL    HW240068   0.997   2.943   6.440  0.9493 -0.8079 -0.6387
 9537SOL     OW40069   1.592   1.107   6.123 -0.0256  0.2662  0.5243
 9537SOL    HW140070   1.558   1.194   6.102 -1.8657 -0.8925 -1.2308
 9537SOL    HW240071   1.514   1.052   6.124  0.7488 -0.8440  1.1758
 9538SOL     OW40072   4.506   3.292   7.227 -0.0393 -0.1288 -0.2129
 9538SOL    HW140073   4.458   3.360   7.274  1.6488  0.4595  0.6609
 9538SOL    HW240074   4.584   3.344   7.212  0.6135 -0.5965  1.5533
 9539SOL     OW40075   3.529   0.703   0.113 -0.5300 -0.4895  0.2494
 9539SOL    HW140076   3.467   0.637   0.144 -1.3773  0.2663  0.1541
 9539SOL    HW240077   3.513   0.707   0.019  0.2491 -0.3314  0.1222
 9540SOL     OW40078   0.832   4.524   6.909  0.4261 -0.0906  0.4624
 9540SOL    HW140079   0.833   4.584   6.834  2.5317 -0.9190 -0.1791
 9540SOL    HW240080   0.892   4.450   6.899 -0.0151 -0.0526 -2.4081
 9541SOL     OW40081   3.802   1.461  16.089 -0.3227 -0.3059 -0.4029
 9541SOL    HW140082   3.878   1.416  16.052 -0.0484 -0.0324 -0.1670
 9541SOL    HW240083   3.791   1.527  16.020 -1.1117 -0.3305 -0.3032
 9542SOL     OW40084   2.128   0.242   7.139 -0.3045 -0.0103  0.4909
 9542SOL    HW140085   2.036   0.241   7.112 -0.2360 -1.2951  0.3102
 9542SOL    HW240086   2.109   0.272   7.228  0.6890  3.4781 -0.4489
 9543SOL     OW40087   2.466   2.082   4.154  0.0112 -0.1796  0.1911
 9543SOL    HW140088   2.512   2.165   4.143 -1.8351  0.8332  0.1610
 9543SOL    HW240089   2.506   2.039   4.078  1.8093 -0.3551  1.2377
 9544SOL     OW40090   3.363   3.395   5.169  0.2457 -0.0672 -0.2545
 9544SOL    HW140091   3.451   3.356   5.162  0.9035  1.8499 -2.5893
 9544SOL    HW240092   3.351   3.439   5.085 -1.9317 -1.1718 -0.5170
 9545SOL     OW40093   2.319   4.027   5.854  0.0142 -0.1636  0.0694
 9545SOL    HW140094   2.338   4.116   5.825 -0.0242  0.1613  1.0546
 9545SOL    HW240095   2.225   4.028   5.837  0.1548 -0.6051 -0.7188
 9546SOL     OW40096   4.484   0.996   6.399  0.0130 -0.2989 -0.3996
 9546SOL    HW140097   4.473   0.958   6.486  1.7452  0.3896  0.1338
 9546SOL    HW240098   4.393   1.016   6.376  0.2084 -0.9635 -1.7558
 9547SOL     OW40099   4.241   2.872   3.312 -0.1065  0.0529 -0.3092
 9547SOL    HW140100   4.196   2.951   3.341 -1.4018 -1.9684  3.1285
 9547SOL    HW240101   4.173   2.831   3.258 -3.4144  2.3376  2.1603
 9548SOL     OW40102   1.054   2.418  12.218  0.2499  0.2580  0.2324
 9548SOL    HW140103   1.019   2.505  12.196  1.9175  1.2639  1.5199
 9548SOL    HW240104   1.132   2.411  12.163  2.0875  1.0905  2.7017
 9549SOL     OW40105   3.211   2.105  12.776 -0.4755  0.5974 -0.3001
 9549SOL    HW140106   3.150   2.146  12.837 -0.2794 -0.1381  0.4013
 9549SOL    HW240107   3.295   2.112  12.822  0.8678 -4.0324 -2.0568
 9550SOL     OW40108   2.594   2.662   4.107  0.2739  0.3039 -0.1363
 9550SOL    HW140109   2.612   2.570   4.085 -1.4156  0.1875 -1.0594
 9550SOL    HW240110   2.540   2.696   4.036 -1.5343  0.4631  1.3327
 9551SOL     OW40111   1.250   0.533   8.565 -0.0837  0.3740 -0.5808
 9551SOL    HW140112   1.175   0.475   8.580 -1.4410  2.3777  0.3734
 9551SOL    HW240113   1.272   0.563   8.653  2.1614 -1.7090 -0.4420
 9552SOL     OW40114   3.934   0.335  13.864 -0.3803  0.0209 -0.1795
 9552SOL    HW140115   3.948   0.428  13.883 -1.0167  0.0446  0.1678
 9552SOL    HW240116   4.020   0.293  13.866  0.7169  2.2781  0.3349
 9553SOL     OW40117   0.863   2.227   3.188  0.1522  0.3735 -0.2560
 9553SOL    HW140118   0.886   2.319   3.200 -2.8008  0.9949  0.7741
 9553SOL    HW240119   0.820   2.233   3.103 -2.1536  2.4240  1.0584
 9554SOL     OW40120   4.236   2.631   2.433  0.2338  0.0311 -0.1808
 9554SOL    HW140121   4.287   2.558   2.398  0.1722  0.4042 -1.0272
 9554SOL    HW240122   4.276   2.709   2.397  0.7108 -0.5893 -0.9791
 9555SOL     OW40123   1.931   1.740   6.476  0.2503 -0.0075 -0.0779
 9555SOL    HW140124   1.844   1.777   6.461  0.6899  0.5238 -1.3017
 9555SOL    HW240125   1.986   1.785   6.541  0.2065 -0.2399  0.1204
 9556SOL     OW40126   3.152   2.329   2.532 -0.6844  0.1669 -0.2667
 9556SOL    HW140127   3.089   2.399   2.549 -0.4623 -0.6405  3.9128
 9556SOL    HW240128   3.193   2.362   2.452 -2.2134  0.2089 -1.0343
 9557SOL     OW40129   1.728   2.146  10.413  0.8083  0.2691 -0.0336
 9557SOL    HW140130   1.761   2.227  10.375  0.6291 -0.7411 -2.3547
 9557SOL    HW240131   1.652   2.123  10.359  1.5277  0.5458 -1.1679
 9558SOL     OW40132   2.121   2.699   4.110  0.0283  0.0283 -0.1737
 9558SOL    HW140133   2.178   2.732   4.179 -1.4671  3.4802 -0.6126
 9558SOL    HW240134   2.076   2.780   4.085 -0.7258 -0.3354 -0.0099
 9559SOL     OW40135   4.315   2.328  13.632  0.3866 -0.0281 -0.2269
 9559SOL    HW140136   4.326   2.271  13.708  1.0033  1.5766  0.8798
 9559SOL    HW240137   4.317   2.416  13.670 -2.0152 -0.0559 -0.0611
 9560SOL     OW40138   2.804   4.253   4.700 -0.5618  0.1923 -0.2128
 9560SOL    HW140139   2.881   4.196   4.704 -1.8713 -1.6030 -0.8262
 9560SOL    HW240140   2.793   4.291   4.788  0.4285  1.2077 -0.5203
 9561SOL     OW40141   4.073   1.171   8.398 -0.2890  0.2271 -0.5565
 9561SOL    HW140142   3.996   1.135   8.441 -0.0934  0.2672 -0.1654
 9561SOL    HW240143   4.095   1.104   8.334  0.1551  0.4744 -0.6686
 9562SOL     OW40144   2.233   4.059  11.256 -0.2886 -0.3078  0.0210
 9562SOL    HW140145   2.210   3.969  11.279 -0.9912 -0.1457 -0.0705
 9562SOL    HW240146   2.156   4.081  11.204 -0.3991  0.9868  0.7288
 9563SOL     OW40147   2.302   4.324   1.658  0.0115 -0.0831  0.1065
 9563SOL    HW140148   2.282   4.301   1.568  3.9243  2.7080 -1.5396
 9563SOL    HW240149   2.382   4.375   1.645  1.0604 -1.1619  2.2611
 9564SOL     OW40150   4.027   4.420   8.610  0.2594 -0.5655  1.1325
 9564SOL    HW140151   4.090   4.490   8.628 -0.5804  0.8370 -1.4349
 9564SOL    HW240152   4.074   4.337   8.601  0.0674 -0.5571  0.0128
 9565SOL     OW40153   2.915   3.224   1.344  0.5240 -0.0519  0.0841
 9565SOL    HW140154   3.004   3.221   1.377  0.8444 -2.8292 -1.0100
 9565SOL    HW240155   2.887   3.315   1.359 -1.5278 -0.4581 -1.1678
   4.72148   4.72148  17.68823
